CNT in water
33518
    1C        C    1   2.843   2.770   4.745 -0.5921 -0.5318  0.1612
    1C        C    2   2.901   2.722   4.865 -0.1346  0.1244  0.2129
    1C        C    3   2.838   2.768   4.981  0.0453  0.0014  0.3602
    1C        C    4   2.849   2.773   4.258  0.4498 -0.1161  0.0084
    1C        C    5   2.901   2.727   4.381 -0.3336 -0.4247  0.2290
    1C        C    6   2.847   2.776   4.503  0.1409  0.4279  0.1054
    1C        C    7   3.009   2.637   4.623  0.0061  0.3762 -0.1009
    1C        C    8   2.898   2.724   4.624 -0.4454 -0.1916  0.0919
    1C        C    9   3.075   2.600   4.742 -0.1386  0.0304 -0.1221
    1C        C   10   3.011   2.634   4.863 -0.0255  0.2611 -0.1223
    1C        C   11   3.181   2.493   4.976 -0.4601 -0.7309 -0.5055
    1C        C   12   3.057   2.558   4.971  0.1275  0.4663 -0.0410
    1C        C   13   2.852   2.777   3.770 -0.0568 -0.0072  0.1719
    1C        C   14   2.902   2.726   3.891  0.5863  0.3852  0.0734
    1C        C   15   2.851   2.776   4.013  0.0728  0.5154 -0.1950
    1C        C   16   3.014   2.643   4.137  0.0589  0.1487  0.1520
    1C        C   17   2.900   2.726   4.135  0.3477  0.5432 -0.2922
    1C        C   18   3.078   2.611   4.258 -0.0899 -0.3377  0.1048
    1C        C   19   3.019   2.650   4.380 -0.1981 -0.2194  0.0170
    1C        C   20   3.203   2.546   4.503  0.0506 -0.1681  0.0068
    1C        C   21   3.074   2.605   4.502  0.3350  0.4778  0.0444
    1C        C   22   3.273   2.520   4.623  0.2491  0.3496  0.0130
    1C        C   23   3.206   2.544   4.745 -0.0251  0.2869 -0.1195
    1C        C   24   3.413   2.488   4.864 -0.0228  0.6658  0.1757
    1C        C   25   3.271   2.506   4.865 -0.0991  0.1474 -0.1202
    1C        C   26   3.491   2.471   4.979 -0.0962  0.0928  0.1480
    1C        C   27   2.853   2.776   3.283 -0.1214 -0.2697  0.2496
    1C        C   28   2.910   2.732   3.405 -0.1120 -0.3884  0.1985
    1C        C   29   2.856   2.778   3.527 -0.5238 -0.1101 -0.0892
    1C        C   30   3.022   2.646   3.649 -0.3094  0.2481 -0.3215
    1C        C   31   2.907   2.729   3.649 -0.3353  0.2090 -0.0404
    1C        C   32   3.082   2.609   3.771  0.0370  0.3598 -0.4588
    1C        C   33   3.020   2.647   3.892  0.5179  0.2818 -0.1854
    1C        C   34   3.207   2.553   4.016 -0.0467  0.1320 -0.0560
    1C        C   35   3.078   2.611   4.015  0.1728  0.6280  0.0815
    1C        C   36   3.272   2.525   4.137  0.2267  0.4825 -0.1204
    1C        C   37   3.208   2.556   4.259  0.2201  0.3700 -0.0930
    1C        C   38   3.413   2.506   4.380 -0.0045 -0.2945 -0.0639
    1C        C   39   3.273   2.529   4.382  0.0814  0.2572 -0.0409
    1C        C   40   3.484   2.497   4.502 -0.1925 -0.0382  0.0712
    1C        C   41   3.413   2.504   4.623  0.2295  0.1355  0.3148
    1C        C   42   3.629   2.490   4.742  0.1408  0.1971  0.2105
    1C        C   43   3.486   2.487   4.743  0.1489 -0.5703  0.2712
    1C        C   44   3.704   2.497   4.861  0.1885  0.5804  0.1599
    1C        C   45   3.630   2.480   4.979 -0.0651 -0.3490 -0.1255
    1C        C   46   2.845   2.760   2.794 -0.1139 -0.3253  0.1520
    1C        C   47   2.900   2.715   2.916  0.1094  0.2133  0.2477
    1C        C   48   2.852   2.769   3.038 -0.5004 -0.2478  0.2131
    1C        C   49   3.019   2.643   3.162 -0.3555 -0.2395  0.1969
    1C        C   50   2.906   2.726   3.162 -0.3885 -0.2907  0.1467
    1C        C   51   3.087   2.612   3.282  0.2077  0.1751 -0.0148
    1C        C   52   3.028   2.654   3.403  0.2881  0.2125  0.0078
    1C        C   53   3.210   2.551   3.527  0.5267  0.7335 -0.3098
    1C        C   54   3.082   2.611   3.526  0.2123  0.0689 -0.0128
    1C        C   55   3.279   2.529   3.648  0.0918  0.5188 -0.1029
    1C        C   56   3.212   2.555   3.770 -0.1109  0.0009 -0.1036
    1C        C   57   3.416   2.512   3.895 -0.0655  0.2621  0.1632
    1C        C   58   3.278   2.539   3.894 -0.0035  0.5775 -0.0841
    1C        C   59   3.483   2.492   4.017  0.1068 -0.2206 -0.0058
    1C        C   60   3.411   2.498   4.139  0.0935 -0.2306 -0.0125
    1C        C   61   3.625   2.499   4.257  0.0948 -0.3647  0.0988
    1C        C   62   3.484   2.494   4.259  0.0881 -0.3172 -0.0104
    1C        C   63   3.696   2.511   4.378  0.3076 -0.7819  0.0240
    1C        C   64   3.625   2.496   4.500 -0.1922 -0.2504 -0.1914
    1C        C   65   3.830   2.560   4.620 -0.1237 -0.7262 -0.4982
    1C        C   66   3.695   2.516   4.621 -0.2261 -0.4204 -0.1381
    1C        C   67   3.899   2.580   4.741 -0.4264  0.1674 -0.4654
    1C        C   68   3.841   2.533   4.860  0.1519  0.7258  0.0540
    1C        C   69   4.051   2.586   4.976  0.1278 -0.4594  0.0156
    1C        C   70   3.925   2.526   4.972  0.1634 -0.5342 -0.0195
    1C        C   71   2.830   2.738   2.309 -0.2697 -0.2344 -0.0044
    1C        C   72   2.889   2.698   2.431  0.1734  0.3476 -0.0270
    1C        C   73   2.831   2.745   2.551  0.1784  0.0005  0.1086
    1C        C   74   3.010   2.630   2.676  0.1243 -0.0534  0.2290
    1C        C   75   2.890   2.704   2.673  0.1395 -0.0352  0.1148
    1C        C   76   3.075   2.596   2.797  0.2607  0.1825  0.2206
    1C        C   77   3.016   2.635   2.919 -0.0591 -0.0321  0.1352
    1C        C   78   3.209   2.548   3.041  0.2637  1.0054 -0.2137
    1C        C   79   3.079   2.603   3.041 -0.1256  0.0983  0.2014
    1C        C   80   3.280   2.525   3.161  0.2429  1.1064 -0.1850
    1C        C   81   3.214   2.549   3.283  0.0777 -0.0823 -0.0280
    1C        C   82   3.417   2.495   3.406  0.3608 -0.2804  0.0087
    1C        C   83   3.280   2.529   3.406  0.3179 -0.4552 -0.2205
    1C        C   84   3.487   2.484   3.528 -0.1329  0.3236  0.3488
    1C        C   85   3.416   2.495   3.649  0.0305  0.2871  0.4462
    1C        C   86   3.626   2.492   3.771  0.1543 -0.4958 -0.0448
    1C        C   87   3.485   2.493   3.773  0.1600 -0.2604  0.3678
    1C        C   88   3.696   2.499   3.893  0.1501 -0.6081 -0.0365
    1C        C   89   3.624   2.494   4.015  0.1107 -0.5358 -0.0564
    1C        C   90   3.832   2.550   4.134  0.0503 -0.4886  0.0719
    1C        C   91   3.697   2.506   4.135 -0.0695 -0.1258  0.0138
    1C        C   92   3.898   2.578   4.256  0.0972 -0.1722 -0.0240
    1C        C   93   3.830   2.555   4.377  0.1278 -0.2182 -0.0113
    1C        C   94   4.025   2.641   4.497  0.3495 -0.3071 -0.0166
    1C        C   95   3.900   2.576   4.498  0.4636 -0.5400 -0.1449
    1C        C   96   4.088   2.678   4.618 -0.4390  0.1209  0.2743
    1C        C   97   4.029   2.638   4.740 -0.2109 -0.2867  0.2572
    1C        C   98   4.190   2.770   4.864 -0.2003  0.0313  0.3335
    1C        C   99   4.099   2.660   4.862 -0.1516 -0.0118  0.1803
    1C        C  100   4.222   2.844   4.978 -0.2607  0.4279  0.0977
    1C        C  101   2.824   2.730   2.069  0.5384  0.1558 -0.1343
    1C        C  102   2.984   2.585   2.192  0.5947  0.4940  0.2192
    1C        C  103   2.874   2.676   2.189  0.4564  0.3202 -0.0264
    1C        C  104   3.060   2.570   2.311  0.5130  0.5595  0.2797
    1C        C  105   3.001   2.613   2.432 -0.0801  0.0114  0.1961
    1C        C  106   3.195   2.527   2.553  0.3441  0.7104  0.0199
    1C        C  107   3.067   2.587   2.554  0.0577  0.1064  0.1426
    1C        C  108   3.268   2.516   2.673  0.4511  0.3793 -0.0740
    1C        C  109   3.207   2.547   2.796  0.2074  0.0436 -0.1118
    1C        C  110   3.412   2.493   2.916  0.2426  0.0163  0.0791
    1C        C  111   3.274   2.522   2.918  0.3699  0.6332 -0.0798
    1C        C  112   3.485   2.481   3.037  0.2465 -0.0589  0.0679
    1C        C  113   3.417   2.494   3.160  0.0486  0.2296 -0.0720
    1C        C  114   3.627   2.485   3.279  0.1345 -0.8668 -0.0509
    1C        C  115   3.486   2.486   3.283  0.1337 -0.0154 -0.1368
    1C        C  116   3.698   2.497   3.401 -0.1423 -0.4566  0.0677
    1C        C  117   3.628   2.493   3.524 -0.1118 -0.1409  0.0961
    1C        C  118   3.829   2.545   3.646  0.1636 -0.8372 -0.0353
    1C        C  119   3.695   2.500   3.648  0.2400 -1.0638 -0.0328
    1C        C  120   3.893   2.573   3.768  0.1325 -1.1225  0.0487
    1C        C  121   3.829   2.546   3.891  0.1351 -0.5530  0.1796
    1C        C  122   4.019   2.645   4.009  0.2223 -0.4296 -0.3501
    1C        C  123   3.897   2.574   4.012  0.0226 -0.0770  0.1355
    1C        C  124   4.085   2.678   4.129  0.4489 -0.8053 -0.3684
    1C        C  125   4.023   2.643   4.251  0.0854 -0.1660 -0.3662
    1C        C  126   4.185   2.778   4.376 -0.3762 -0.1146  0.1036
    1C        C  127   4.080   2.683   4.374  0.3308 -0.9014 -0.2362
    1C        C  128   4.239   2.824   4.498 -0.4538  0.1352  0.0485
    1C        C  129   4.197   2.767   4.620 -0.6316  0.3683  0.1020
    1C        C  130   4.325   2.937   4.738  0.0969 -0.4197 -0.0408
    1C        C  131   4.241   2.823   4.742 -0.2780 -0.1443  0.2196
    1C        C  132   4.358   3.005   4.858  0.1862  0.1429 -0.3761
    1C        C  133   4.299   2.960   4.977 -0.4719  0.5642 -0.5336
    1C        C  134   3.167   2.459   2.086 -0.0089  0.0756  0.5330
    1C        C  135   3.035   2.505   2.084 -0.0351 -0.0078  0.2881
    1C        C  136   3.258   2.480   2.190  0.2644  0.3395  0.2436
    1C        C  137   3.194   2.523   2.309  0.3673  0.1312  0.3744
    1C        C  138   3.401   2.477   2.429  0.4597 -0.4497  0.0281
    1C        C  139   3.264   2.508   2.431  0.5278 -0.1492  0.2513
    1C        C  140   3.476   2.474   2.549  0.4500 -0.3943  0.0369
    1C        C  141   3.407   2.492   2.670  0.3513 -0.2119 -0.0456
    1C        C  142   3.620   2.485   2.790  0.1979 -0.6417 -0.0225
    1C        C  143   3.479   2.483   2.792  0.1904 -0.0741  0.0589
    1C        C  144   3.692   2.495   2.911 -0.0826 -0.8502  0.1614
    1C        C  145   3.626   2.486   3.035  0.2714 -0.6651  0.3611
    1C        C  146   3.833   2.530   3.157  0.4505 -0.3268  0.3802
    1C        C  147   3.697   2.492   3.157  0.5477 -0.6733  0.1996
    1C        C  148   3.901   2.556   3.279  0.2905 -0.4053  0.4840
    1C        C  149   3.833   2.535   3.401  0.0282 -1.0573  0.2322
    1C        C  150   4.020   2.634   3.521  0.2092 -0.6600  0.1858
    1C        C  151   3.897   2.565   3.524  0.2754 -0.7840  0.0374
    1C        C  152   4.079   2.673   3.643  0.3863 -0.9597  0.1963
    1C        C  153   4.018   2.639   3.765  0.3636 -1.5606  0.0202
    1C        C  154   4.191   2.767   3.888  0.1921 -0.3562  0.1836
    1C        C  155   4.076   2.684   3.886  0.2902 -0.4857 -0.3369
    1C        C  156   4.241   2.814   4.011 -0.4385 -0.2273  0.3965
    1C        C  157   4.197   2.764   4.136 -0.2039  0.0021  0.5747
    1C        C  158   4.340   2.925   4.252  0.1662  0.0814 -0.1704
    1C        C  159   4.243   2.822   4.256 -0.4049  0.6284  0.3539
    1C        C  160   4.381   2.983   4.374 -0.6880  0.1819  0.0801
    1C        C  161   4.334   2.930   4.495 -0.4638  0.1540  0.1611
    1C        C  162   4.446   3.111   4.616 -0.3301  0.2516  0.1160
    1C        C  163   4.371   2.992   4.617 -0.3628  0.2660  0.0776
    1C        C  164   4.481   3.180   4.735  0.0087  0.2075  0.0470
    1C        C  165   4.442   3.118   4.855 -0.4440  0.6365  0.1240
    1C        C  166   4.515   3.326   4.972  0.2570  0.7625  0.4187
    1C        C  167   4.478   3.192   4.969  0.6377  0.6670 -0.2271
    1C        C  168   3.471   2.438   2.070  0.0669 -0.3638  0.0243
    1C        C  169   3.398   2.461   2.188  0.2356  0.1455  0.0289
    1C        C  170   3.614   2.463   2.308  0.5024 -1.0048 -0.2405
    1C        C  171   3.472   2.459   2.308  0.4496  0.3010 -0.0975
    1C        C  172   3.689   2.483   2.426  0.0402 -0.5641 -0.0174
    1C        C  173   3.617   2.475   2.547  0.4520 -0.2337  0.2538
    1C        C  174   3.825   2.536   2.666  0.6717 -0.7064  0.4071
    1C        C  175   3.689   2.496   2.667  0.5579 -0.3247  0.2078
    1C        C  176   3.892   2.558   2.788  0.5134 -0.7410  0.5005
    1C        C  177   3.828   2.533   2.911 -0.0962 -0.8045  0.1715
    1C        C  178   4.016   2.630   3.029  0.2873 -1.1993  0.2922
    1C        C  179   3.895   2.557   3.033  0.1010 -0.8995  0.0814
    1C        C  180   4.077   2.670   3.150  0.2915 -0.5099  0.0659
    1C        C  181   4.020   2.632   3.274  0.2224 -0.3226  0.0892
    1C        C  182   4.186   2.761   3.397 -0.7650  0.7112  0.2792
    1C        C  183   4.078   2.670   3.397 -0.2421  0.0833  0.1863
    1C        C  184   4.239   2.807   3.520 -0.2856  0.1482  0.2867
    1C        C  185   4.195   2.754   3.643 -0.1080 -0.2413  0.1857
    1C        C  186   4.330   2.921   3.762 -0.0362 -0.2585 -0.0974
    1C        C  187   4.241   2.811   3.764  0.3433 -0.5646  0.1690
    1C        C  188   4.369   2.980   3.884 -0.4162 -0.3262  0.0595
    1C        C  189   4.329   2.924   4.008 -0.3287 -0.3212  0.0931
    1C        C  190   4.444   3.105   4.128 -0.1376  0.2758  0.0865
    1C        C  191   4.379   2.979   4.128 -0.3689  0.3926 -0.2087
    1C        C  192   4.467   3.174   4.249  0.0351  0.1089  0.1536
    1C        C  193   4.440   3.111   4.373 -0.4070  0.0569  0.0366
    1C        C  194   4.507   3.314   4.492 -0.3490 -0.0719  0.0588
    1C        C  195   4.472   3.177   4.494  0.5605 -0.3105 -0.0083
    1C        C  196   4.536   3.385   4.611  0.7754 -0.0304 -0.2242
    1C        C  197   4.524   3.315   4.733  0.6707  0.0050 -0.2129
    1C        C  198   4.555   3.536   4.850  0.4228 -0.1243  0.0267
    1C        C  199   4.535   3.394   4.851  0.0738 -0.0777 -0.0962
    1C        C  200   4.577   3.618   4.965  0.9460  0.1219 -0.2486
    1C        C  201   3.610   2.429   2.072  0.0584 -0.4798  0.1953
    1C        C  202   3.821   2.518   2.180  0.6443 -0.4951  0.2560
    1C        C  203   3.687   2.468   2.186  0.5592 -0.3288 -0.1880
    1C        C  204   3.891   2.545   2.301  0.5361 -0.8392  0.3987
    1C        C  205   3.825   2.520   2.423  0.0303 -0.5056  0.1995
    1C        C  206   4.017   2.620   2.544  0.4268 -1.0856  0.1833
    1C        C  207   3.892   2.553   2.543  0.1920 -0.6474  0.1490
    1C        C  208   4.078   2.661   2.664  0.2996 -0.7618  0.1361
    1C        C  209   4.012   2.632   2.786  0.5538 -0.8138  0.2598
    1C        C  210   4.184   2.757   2.907  0.4433 -0.9794  0.0126
    1C        C  211   4.074   2.669   2.907  0.1449 -0.6136  0.4084
    1C        C  212   4.239   2.802   3.030 -0.1308 -0.1519 -0.0237
    1C        C  213   4.188   2.756   3.153  0.0336 -0.1775  0.0328
    1C        C  214   4.328   2.916   3.272 -0.9635  0.2945  0.0353
    1C        C  215   4.241   2.805   3.275 -0.0945 -0.3868  0.1713
    1C        C  216   4.369   2.974   3.394 -0.3980  0.0310 -0.0281
    1C        C  217   4.325   2.920   3.516 -0.4159  0.2411  0.0606
    1C        C  218   4.435   3.101   3.639 -0.4940  0.3605  0.1999
    1C        C  219   4.370   2.976   3.638 -0.4184  0.3201  0.0266
    1C        C  220   4.467   3.167   3.760 -0.7696  0.2784  0.3219
    1C        C  221   4.436   3.104   3.883 -0.4676 -0.2933  0.1114
    1C        C  222   4.505   3.304   4.003  0.2943 -0.1677  0.1329
    1C        C  223   4.470   3.167   4.004 -0.1550 -0.0592 -0.0902
    1C        C  224   4.522   3.375   4.124  0.2980  0.1108 -0.0279
    1C        C  225   4.506   3.309   4.247  0.0219  0.1125 -0.0607
    1C        C  226   4.521   3.522   4.363  0.1710 -0.0838 -0.2134
    1C        C  227   4.519   3.381   4.368 -0.1801 -0.0716  0.0737
    1C        C  228   4.520   3.594   4.485  0.4693 -0.4495  0.0063
    1C        C  229   4.538   3.526   4.608  0.0428 -0.0011  0.3215
    1C        C  230   4.502   3.740   4.725  0.0537  0.0087 -0.3404
    1C        C  231   4.541   3.603   4.726  0.7479  0.2078  0.1687
    1C        C  232   4.497   3.819   4.842 -0.4598 -0.1706 -0.2385
    1C        C  233   4.545   3.754   4.956  0.3286 -0.0395 -0.4882
    1C        C  234   4.014   2.610   2.061  0.3289 -0.1777 -0.4508
    1C        C  235   3.891   2.545   2.062  0.5312 -0.5541  0.1744
    1C        C  236   4.080   2.650   2.178 -0.3866  0.4484 -0.2538
    1C        C  237   4.016   2.613   2.298  0.2606 -0.3481 -0.1469
    1C        C  238   4.188   2.740   2.420 -0.0450 -0.5896  0.1472
    1C        C  239   4.075   2.654   2.419 -0.1780 -0.4104  0.0856
    1C        C  240   4.231   2.800   2.540 -0.5636  0.3808 -0.1435
    1C        C  241   4.185   2.753   2.665 -0.2494 -0.1124 -0.2186
    1C        C  242   4.330   2.910   2.785 -0.3475 -0.3991  0.0130
    1C        C  243   4.236   2.806   2.785  0.0824 -0.7855 -0.0611
    1C        C  244   4.371   2.967   2.907 -0.7176 -0.1355  0.0121
    1C        C  245   4.333   2.908   3.029 -0.1821 -0.1086  0.1934
    1C        C  246   4.444   3.093   3.146 -0.9133  0.4211 -0.2370
    1C        C  247   4.369   2.973   3.149 -0.5207  0.1853  0.1364
    1C        C  248   4.468   3.159   3.268 -0.2481  0.3509 -0.3275
    1C        C  249   4.440   3.096   3.391 -0.4030  0.0251 -0.5268
    1C        C  250   4.501   3.297   3.516 -0.5126 -0.4805  0.1273
    1C        C  251   4.462   3.161   3.514 -0.6468 -0.4407 -0.2313
    1C        C  252   4.524   3.368   3.636  0.2312 -0.1131 -0.2172
    1C        C  253   4.513   3.300   3.759  0.0074  0.0140 -0.1623
    1C        C  254   4.523   3.513   3.877  0.1779 -0.2740 -0.2324
    1C        C  255   4.524   3.372   3.881 -0.0601 -0.2722  0.0165
    1C        C  256   4.519   3.587   3.997 -0.0413 -0.4322 -0.1387
    1C        C  257   4.526   3.516   4.119 -0.3629  0.1423  0.2157
    1C        C  258   4.494   3.729   4.236  0.5880  0.4092 -0.0863
    1C        C  259   4.522   3.590   4.240  0.7614  0.4482  0.0778
    1C        C  260   4.469   3.796   4.358  0.4273  0.1011  0.0511
    1C        C  261   4.491   3.732   4.482  0.8828 -0.3688 -0.2699
    1C        C  262   4.418   3.933   4.601  0.8503  0.0427  0.0043
    1C        C  263   4.476   3.804   4.602  0.7361 -0.0149 -0.4997
    1C        C  264   4.399   4.007   4.720  0.6585  0.3219 -0.1959
    1C        C  265   4.442   3.949   4.842  0.0348  0.0387 -0.1073
    1C        C  266   4.315   4.125   4.956  0.1631 -0.0788 -0.0046
    1C        C  267   4.391   4.009   4.958  0.4669  0.1191  0.0438
    1C        C  268   4.261   2.777   2.062  0.1333 -0.0935  0.0988
    1C        C  269   4.194   2.734   2.178 -0.0704  0.0159  0.0212
    1C        C  270   4.343   2.889   2.299 -0.4923  0.0170 -0.0498
    1C        C  271   4.247   2.783   2.299 -0.2617 -0.1876  0.1865
    1C        C  272   4.378   2.955   2.419 -0.6699  0.3311 -0.1735
    1C        C  273   4.329   2.902   2.540 -0.6203  0.4286 -0.1171
    1C        C  274   4.445   3.084   2.660 -1.1846  0.3572 -0.0774
    1C        C  275   4.370   2.964   2.660 -0.7261  0.0717  0.0993
    1C        C  276   4.478   3.151   2.780 -1.0928  0.2611 -0.0531
    1C        C  277   4.445   3.088   2.901 -0.7299 -0.1400 -0.1646
    1C        C  278   4.505   3.293   3.025 -0.8846  0.2761  0.4139
    1C        C  279   4.470   3.156   3.022 -1.3407  0.3994 -0.3377
    1C        C  280   4.511   3.364   3.147 -0.3860  0.4009  0.3162
    1C        C  281   4.499   3.297   3.271 -0.2501  0.3424  0.2996
    1C        C  282   4.507   3.508   3.389  0.1911  0.0519 -0.4041
    1C        C  283   4.505   3.367   3.393 -0.0662  0.0704  0.4470
    1C        C  284   4.512   3.579   3.511  0.7126 -0.2779 -0.2293
    1C        C  285   4.524   3.509   3.634  0.2219 -0.1082 -0.0800
    1C        C  286   4.495   3.721   3.751  0.4008 -0.0127 -0.1724
    1C        C  287   4.520   3.583   3.754  0.1545 -0.0571 -0.1113
    1C        C  288   4.468   3.791   3.871  0.4277  0.1120 -0.2393
    1C        C  289   4.493   3.725   3.994  0.3559 -0.3642 -0.4766
    1C        C  290   4.421   3.927   4.115 -0.1562 -0.5648  0.2244
    1C        C  291   4.476   3.797   4.114  0.3523 -0.3523 -0.4845
    1C        C  292   4.386   3.990   4.236 -0.3232 -0.3985  0.0899
    1C        C  293   4.417   3.927   4.359 -0.1805 -0.1385  0.1875
    1C        C  294   4.321   4.120   4.475 -0.3294 -0.2335 -0.0117
    1C        C  295   4.390   3.997   4.479  0.1437  0.0346  0.1591
    1C        C  296   4.279   4.180   4.595 -0.2641 -0.3629  0.0741
    1C        C  297   4.322   4.126   4.718 -0.1642 -0.1944  0.1142
    1C        C  298   4.203   4.312   4.835 -0.3592 -0.2321  0.1543
    1C        C  299   4.280   4.192   4.837 -0.2718 -0.1777  0.0667
    1C        C  300   4.172   4.399   4.944 -0.0837 -0.0295  0.0719
    1C        C  301   4.347   2.885   2.064  0.1804 -0.1335  0.1351
    1C        C  302   4.471   3.069   2.177 -0.2178  0.1337 -0.3307
    1C        C  303   4.389   2.951   2.180 -0.7431  0.5083  0.1117
    1C        C  304   4.480   3.141   2.299 -0.2053 -0.2043 -0.1350
    1C        C  305   4.442   3.081   2.421 -0.2409  0.1100  0.0060
    1C        C  306   4.521   3.283   2.537  0.2248  0.0190  0.0761
    1C        C  307   4.478   3.149   2.539 -0.7062  0.3101  0.0324
    1C        C  308   4.525   3.357   2.657  0.0942 -0.0766  0.1378
    1C        C  309   4.512   3.288   2.780 -0.6883  0.1601  0.1869
    1C        C  310   4.526   3.501   2.900 -0.1458  0.0199 -0.1858
    1C        C  311   4.521   3.360   2.901 -1.0104  0.0503  0.2750
    1C        C  312   4.520   3.575   3.020 -0.0657  0.5139 -0.4804
    1C        C  313   4.518   3.505   3.143  0.0732  0.3637 -0.5631
    1C        C  314   4.497   3.715   3.265  0.1114  0.0699  0.3499
    1C        C  315   4.517   3.575   3.266  0.1859  0.0752 -0.3945
    1C        C  316   4.489   3.788   3.386  0.2985 -0.1446  0.4945
    1C        C  317   4.497   3.719   3.509 -0.1873 -0.3505  0.4122
    1C        C  318   4.424   3.922   3.624 -0.0134  0.2839  0.2114
    1C        C  319   4.475   3.790   3.629  0.2285  0.3720  0.0704
    1C        C  320   4.389   3.985   3.746 -0.0776  0.3086  0.1780
    1C        C  321   4.414   3.921   3.869 -0.2700 -0.1760 -0.0340
    1C        C  322   4.318   4.109   3.989  0.3177 -0.2969  0.0012
    1C        C  323   4.391   3.988   3.991 -0.2083 -0.6110  0.2169
    1C        C  324   4.274   4.169   4.109 -0.1200 -0.1308 -0.2410
    1C        C  325   4.315   4.112   4.231 -0.2271 -0.3606 -0.3150
    1C        C  326   4.182   4.278   4.349 -0.6236 -1.0411  0.2132
    1C        C  327   4.279   4.175   4.352  0.1887 -0.3008 -0.2210
    1C        C  328   4.130   4.328   4.470 -0.0487 -0.0842  0.0733
    1C        C  329   4.186   4.287   4.593 -0.4246 -0.5034  0.1045
    1C        C  330   4.027   4.432   4.712 -0.0352  0.0032  0.2615
    1C        C  331   4.141   4.347   4.712 -0.3831 -0.4662  0.1002
    1C        C  332   3.972   4.488   4.829 -0.1504  0.1353  0.1428
    1C        C  333   4.058   4.480   4.940  0.0373  0.1358 -0.0044
    1C        C  334   4.541   3.269   2.059  0.0248  0.2102 -0.0845
    1C        C  335   4.528   3.130   2.061 -0.3746  0.2437 -0.3478
    1C        C  336   4.530   3.350   2.173 -0.2452 -0.1336  0.1319
    1C        C  337   4.515   3.279   2.294 -0.3768 -0.1550  0.1008
    1C        C  338   4.527   3.493   2.411  0.7843 -0.1028 -0.3285
    1C        C  339   4.530   3.352   2.414  0.1973 -0.1097  0.0056
    1C        C  340   4.520   3.566   2.532  0.9541 -0.2112 -0.2546
    1C        C  341   4.522   3.498   2.656  0.3217 -0.0762 -0.1676
    1C        C  342   4.492   3.709   2.775  0.6949  0.1237 -0.0445
    1C        C  343   4.520   3.570   2.777  0.0681 -0.0085 -0.2132
    1C        C  344   4.480   3.781   2.896  0.9994  0.0967  0.0036
    1C        C  345   4.497   3.714   3.019  0.1075  0.5574  0.3842
    1C        C  346   4.419   3.909   3.139  0.3771  0.4465  0.2595
    1C        C  347   4.473   3.779   3.142  0.7980  0.6218  0.4929
    1C        C  348   4.391   3.977   3.260  0.2425  0.2734  0.3264
    1C        C  349   4.429   3.916   3.381  0.2096 -0.1985  0.1015
    1C        C  350   4.314   4.099   3.499 -0.1597 -0.2491  0.0399
    1C        C  351   4.391   3.981   3.501  0.0285 -0.1268  0.0035
    1C        C  352   4.270   4.157   3.620 -0.3075 -0.1880 -0.0459
    1C        C  353   4.312   4.103   3.743 -0.4686  0.0514  0.1132
    1C        C  354   4.175   4.263   3.863 -0.8614 -0.6977 -0.0244
    1C        C  355   4.273   4.161   3.866 -0.4322 -0.2775  0.2803
    1C        C  356   4.119   4.311   3.983 -0.2941 -0.4722  0.1490
    1C        C  357   4.178   4.272   4.106 -0.0710 -0.0737  0.1701
    1C        C  358   4.010   4.402   4.228  0.1304  0.0632  0.1079
    1C        C  359   4.127   4.323   4.227 -0.1397 -0.3396  0.2527
    1C        C  360   3.952   4.443   4.349  0.1089 -0.1538  0.1671
    1C        C  361   4.015   4.410   4.471 -0.1097 -0.1760  0.2722
    1C        C  362   3.827   4.508   4.593 -0.4967 -0.9101 -0.0491
    1C        C  363   3.960   4.460   4.591 -0.3722 -0.5744  0.3157
    1C        C  364   3.762   4.541   4.714 -0.0568  0.5566 -0.1952
    1C        C  365   3.842   4.544   4.830 -0.1330  0.1741 -0.1309
    1C        C  366   3.632   4.581   4.949 -0.0138 -0.0587  0.4113
    1C        C  367   3.770   4.568   4.947  0.0030  0.1646 -0.0467
    1C        C  368   4.500   3.564   2.054  0.3585  0.1893  0.6715
    1C        C  369   4.522   3.491   2.170  0.4348 -0.0843  0.4838
    1C        C  370   4.505   3.706   2.286  0.5175  0.5689  0.0206
    1C        C  371   4.520   3.565   2.290  0.4199  0.5601  0.0853
    1C        C  372   4.478   3.773   2.407  0.3812  0.0099  0.3038
    1C        C  373   4.494   3.705   2.530  0.4769 -0.2920  0.1238
    1C        C  374   4.426   3.907   2.651 -0.1127 -0.1953  0.0743
    1C        C  375   4.477   3.775   2.651  0.5869  0.0646 -0.0632
    1C        C  376   4.392   3.971   2.771  0.6046  0.1815  0.0876
    1C        C  377   4.430   3.912   2.894  0.6250 -0.0466 -0.0249
    1C        C  378   4.317   4.092   3.011  0.2359 -0.1791 -0.0862
    1C        C  379   4.395   3.975   3.016  0.1871 -0.2119 -0.0603
    1C        C  380   4.272   4.150   3.132  0.1009 -0.1507 -0.1494
    1C        C  381   4.313   4.094   3.255  0.4649  0.4108 -0.0127
    1C        C  382   4.168   4.251   3.376  0.0424 -0.0453 -0.4426
    1C        C  383   4.269   4.152   3.376  0.0446 -0.0428  0.0541
    1C        C  384   4.115   4.299   3.497 -0.0960 -0.7740 -0.2090
    1C        C  385   4.173   4.260   3.620 -0.3403 -0.2215  0.0869
    1C        C  386   4.004   4.388   3.738 -0.4362 -0.0853  0.0471
    1C        C  387   4.123   4.311   3.741 -0.5635 -0.2764  0.0155
    1C        C  388   3.942   4.423   3.860 -0.1526 -0.2671  0.2408
    1C        C  389   4.003   4.391   3.983 -0.1306 -0.2415  0.2322
    1C        C  390   3.821   4.497   4.106  0.0307  0.1322 -0.2547
    1C        C  391   3.947   4.435   4.105 -0.0174  0.0379  0.1807
    1C        C  392   3.752   4.516   4.228 -0.1087 -0.2147 -0.2842
    1C        C  393   3.822   4.498   4.350  0.0079 -0.3906 -0.3783
    1C        C  394   3.619   4.556   4.474  0.2069 -0.0131 -0.1012
    1C        C  395   3.758   4.530   4.472  0.1283 -0.4049 -0.3151
    1C        C  396   3.547   4.565   4.595  0.0229 -0.1189 -0.2034
    1C        C  397   3.622   4.556   4.714 -0.1036  0.1272 -0.1076
    1C        C  398   3.411   4.540   4.835  0.2974  0.3377 -0.6118
    1C        C  399   3.551   4.560   4.836  0.2760  0.4563  0.1030
    1C        C  400   3.344   4.507   4.953  0.2458  0.4712 -0.6055
    1C        C  401   4.494   3.703   2.051  0.8275  0.1999  0.0652
    1C        C  402   4.450   3.916   2.167  0.1080  0.2760 -0.3338
    1C        C  403   4.490   3.781   2.168  0.5743  0.4134 -0.0862
    1C        C  404   4.411   3.979   2.288  0.3519 -0.1566 -0.0288
    1C        C  405   4.426   3.904   2.406  0.0500 -0.1229  0.0310
    1C        C  406   4.320   4.089   2.527 -0.2309 -0.3389 -0.2427
    1C        C  407   4.395   3.969   2.528  0.0769 -0.1458  0.0500
    1C        C  408   4.271   4.143   2.647 -0.4326 -0.8866 -0.0753
    1C        C  409   4.310   4.086   2.771 -0.3363 -0.4753  0.0873
    1C        C  410   4.168   4.246   2.889 -0.2372 -0.3233  0.1958
    1C        C  411   4.268   4.147   2.891 -0.1882 -0.2778  0.0400
    1C        C  412   4.120   4.297   3.011 -0.4959 -0.3108  0.0894
    1C        C  413   4.174   4.251   3.133  0.1907 -0.0627 -0.1168
    1C        C  414   4.003   4.381   3.251 -0.1606  0.1340  0.3441
    1C        C  415   4.119   4.301   3.254 -0.2922 -0.0853 -0.3247
    1C        C  416   3.938   4.417   3.371 -0.5223 -0.2840  0.2743
    1C        C  417   3.999   4.379   3.493  0.1028 -0.4813 -0.0948
    1C        C  418   3.815   4.483   3.616 -0.1266 -0.4898 -0.1250
    1C        C  419   3.941   4.420   3.616 -0.0848 -0.3986 -0.2132
    1C        C  420   3.749   4.507   3.738 -0.1054 -0.5559 -0.1043
    1C        C  421   3.811   4.476   3.861 -0.2053 -0.3995 -0.0190
    1C        C  422   3.612   4.541   3.986 -0.0752  0.5402 -0.0327
    1C        C  423   3.750   4.511   3.984 -0.1861  0.0438 -0.1357
    1C        C  424   3.542   4.553   4.108 -0.1922  0.4148 -0.0900
    1C        C  425   3.614   4.545   4.229 -0.1410 -0.3888 -0.1748
    1C        C  426   3.406   4.541   4.356 -0.0423 -0.0483  0.0512
    1C        C  427   3.546   4.557   4.353  0.0550 -0.8797 -0.0186
    1C        C  428   3.334   4.534   4.478  0.1081  0.5446  0.1730
    1C        C  429   3.406   4.553   4.598  0.0061  0.1807  0.2913
    1C        C  430   3.195   4.512   4.723 -0.4204 -0.1614  0.3488
    1C        C  431   3.333   4.545   4.718 -0.5619  0.3792 -0.0403
    1C        C  432   3.127   4.488   4.846 -0.2076 -0.1623  0.4683
    1C        C  433   3.205   4.499   4.961  0.3185 -0.1585  0.1154
    1C        C  434   4.383   4.121   2.050 -0.5355  0.1964  0.0192
    1C        C  435   4.450   3.999   2.053 -0.2647  0.3334 -0.2940
    1C        C  436   4.304   4.161   2.162 -0.3300 -0.2678  0.3301
    1C        C  437   4.336   4.100   2.286 -0.0493 -0.4023  0.1925
    1C        C  438   4.183   4.251   2.403 -0.7843 -0.5452 -0.2185
    1C        C  439   4.283   4.152   2.406 -0.2738 -0.0285 -0.0676
    1C        C  440   4.123   4.295   2.523 -0.3876 -0.8364  0.0876
    1C        C  441   4.174   4.245   2.645  0.0989 -0.3727  0.0793
    1C        C  442   4.005   4.377   2.767 -0.0466 -0.4468  0.0277
    1C        C  443   4.120   4.295   2.766 -0.1233 -0.5566  0.0575
    1C        C  444   3.943   4.420   2.887 -0.0020  0.0143 -0.1147
    1C        C  445   4.005   4.380   3.007 -0.6273 -0.4923  0.0446
    1C        C  446   3.816   4.479   3.128  0.0706  0.1930  0.0754
    1C        C  447   3.942   4.415   3.128 -0.2172 -0.3792  0.2284
    1C        C  448   3.748   4.504   3.250 -0.0032  0.3436  0.0029
    1C        C  449   3.814   4.484   3.373 -0.1345  0.4517  0.0885
    1C        C  450   3.608   4.527   3.498 -0.4056 -0.6998 -0.1325
    1C        C  451   3.749   4.514   3.495 -0.3407 -0.0579  0.1028
    1C        C  452   3.540   4.537   3.621  0.1156  0.4965  0.0667
    1C        C  453   3.611   4.537   3.743  0.0003 -0.1168  0.1348
    1C        C  454   3.400   4.547   3.866 -0.2066 -0.0473 -0.0894
    1C        C  455   3.541   4.551   3.865 -0.2090  0.0002  0.0002
    1C        C  456   3.333   4.530   3.990 -0.1317 -0.3766 -0.0946
    1C        C  457   3.402   4.542   4.112 -0.2091  0.6252 -0.1402
    1C        C  458   3.195   4.503   4.236  0.0988 -0.1907 -0.1813
    1C        C  459   3.333   4.532   4.236  0.1066 -0.2254 -0.0266
    1C        C  460   3.128   4.487   4.359  0.0454  0.2019 -0.1565
    1C        C  461   3.195   4.509   4.481  0.1262  0.3793 -0.2322
    1C        C  462   2.999   4.428   4.601  0.3831  0.0135 -0.5603
    1C        C  463   3.125   4.492   4.602  0.3470  0.0826 -0.1436
    1C        C  464   2.931   4.400   4.722  0.3978  0.1076 -0.5288
    1C        C  465   2.994   4.435   4.845 -0.2375 -0.0813 -0.1442
    1C        C  466   2.801   4.337   4.957  0.0993  0.0073 -0.5708
    1C        C  467   2.907   4.429   4.958  0.3154 -0.2393  0.2763
    1C        C  468   4.118   4.276   2.044 -0.5847 -0.5486 -0.0189
    1C        C  469   4.188   4.245   2.162 -0.2223 -0.1193 -0.1150
    1C        C  470   4.009   4.373   2.278 -0.1978  0.2413  0.0631
    1C        C  471   4.124   4.289   2.280 -0.6418 -0.3842 -0.2381
    1C        C  472   3.945   4.407   2.399 -0.3382 -0.2428  0.1253
    1C        C  473   4.004   4.370   2.522 -0.2674 -0.6455 -0.0246
    1C        C  474   3.813   4.464   2.641  0.1383 -0.0250 -0.2461
    1C        C  475   3.943   4.408   2.644 -0.0544 -0.4644  0.0266
    1C        C  476   3.744   4.487   2.762  0.2195  0.0667 -0.2168
    1C        C  477   3.812   4.471   2.885  0.0745  0.2141 -0.1190
    1C        C  478   3.606   4.521   3.008  0.1680  0.0571 -0.0005
    1C        C  479   3.745   4.495   3.008  0.1183 -0.2147 -0.0082
    1C        C  480   3.537   4.525   3.131 -0.0525  0.0407 -0.1228
    1C        C  481   3.609   4.525   3.253  0.0430  0.6878 -0.1731
    1C        C  482   3.397   4.535   3.377 -0.1919  0.7624  0.2364
    1C        C  483   3.538   4.534   3.375 -0.2004 -0.3454 -0.2288
    1C        C  484   3.328   4.526   3.500 -0.1039  0.4946  0.2661
    1C        C  485   3.398   4.533   3.623  0.1157  0.5692  0.1359
    1C        C  486   3.192   4.503   3.745 -0.0719 -0.3257 -0.2795
    1C        C  487   3.328   4.540   3.745 -0.2706  0.4092 -0.0745
    1C        C  488   3.131   4.472   3.869 -0.2359 -0.6487 -0.4401
    1C        C  489   3.195   4.499   3.992 -0.1935 -0.1427 -0.5686
    1C        C  490   3.002   4.416   4.112  0.2545  0.0562  0.2196
    1C        C  491   3.128   4.479   4.114  0.1424  0.3051 -0.3079
    1C        C  492   2.945   4.381   4.237 -0.1610 -0.0249  0.0093
    1C        C  493   3.001   4.425   4.358  0.1128  0.0581 -0.1463
    1C        C  494   2.830   4.300   4.481  0.1812 -0.3428 -0.1378
    1C        C  495   2.936   4.393   4.479 -0.1730  0.0628 -0.2958
    1C        C  496   2.775   4.256   4.603  0.2613  0.1411  0.0788
    1C        C  497   2.822   4.309   4.725  0.1603  0.3972  0.0087
    1C        C  498   2.666   4.161   4.844 -0.5949  0.1280 -0.3404
    1C        C  499   2.758   4.268   4.843  0.2249 -0.5628 -0.2781
    1C        C  500   2.592   4.118   4.956  0.1462  0.1687  0.1700
    1C        C  501   4.010   4.363   2.042 -0.2698 -0.1527  0.0762
    1C        C  502   3.819   4.469   2.156 -0.3142 -0.0773  0.0458
    1C        C  503   3.949   4.415   2.157 -0.3029 -0.0499  0.0137
    1C        C  504   3.747   4.478   2.277 -0.1400  0.3160  0.1219
    1C        C  505   3.813   4.457   2.400 -0.1767  0.1923  0.1213
    1C        C  506   3.604   4.510   2.519 -0.2112  0.7671  0.1023
    1C        C  507   3.743   4.481   2.520 -0.3617  0.0186  0.0498
    1C        C  508   3.534   4.520   2.641  0.0555  0.1350  0.3111
    1C        C  509   3.605   4.511   2.763  0.3112  0.5966  0.1967
    1C        C  510   3.395   4.520   2.887  0.0570  0.6487  0.1186
    1C        C  511   3.536   4.524   2.886  0.0613  0.5051  0.0672
    1C        C  512   3.325   4.514   3.009  0.0852  0.3005  0.1188
    1C        C  513   3.396   4.521   3.132 -0.0402 -0.4755  0.2419
    1C        C  514   3.190   4.488   3.256 -0.1521  0.5241 -0.0370
    1C        C  515   3.328   4.522   3.255 -0.0724  0.2095  0.2244
    1C        C  516   3.127   4.464   3.379 -0.2758  0.1308 -0.1760
    1C        C  517   3.191   4.494   3.502  0.0118 -0.0482 -0.2816
    1C        C  518   3.000   4.410   3.622  0.0760 -0.2899  0.0444
    1C        C  519   3.123   4.480   3.625 -0.0995  0.0364 -0.3333
    1C        C  520   2.944   4.372   3.746 -0.7093  0.4254 -0.0859
    1C        C  521   3.009   4.402   3.868 -0.6063 -0.0228 -0.0282
    1C        C  522   2.838   4.281   3.994 -0.2620  0.3870 -0.0945
    1C        C  523   2.945   4.373   3.990 -0.0008  0.1020  0.3188
    1C        C  524   2.793   4.230   4.117 -0.6219  0.5276 -0.1643
    1C        C  525   2.839   4.287   4.238 -0.7628  0.6333 -0.1564
    1C        C  526   2.699   4.130   4.362 -0.4482  0.2240  0.1016
    1C        C  527   2.783   4.243   4.360 -0.5010  0.2619 -0.1647
    1C        C  528   2.658   4.076   4.486 -0.1146  0.1532  0.1846
    1C        C  529   2.687   4.145   4.605 -0.2285  0.5234  0.0012
    1C        C  530   2.581   3.959   4.728 -0.1091 -0.1761 -0.3897
    1C        C  531   2.639   4.089   4.726 -0.1393 -0.1585 -0.2759
    1C        C  532   2.543   3.901   4.852  0.3752  0.1928 -0.0588
    1C        C  533   2.527   3.995   4.958 -0.1407  0.3113 -0.2355
    1C        C  534   3.617   4.555   2.042 -0.0740 -0.0745 -0.4184
    1C        C  535   3.753   4.520   2.044 -0.0856 -0.1038 -0.1018
    1C        C  536   3.537   4.523   2.156  0.1178  0.2940 -0.1752
    1C        C  537   3.605   4.492   2.276 -0.1878 -0.1424 -0.1090
    1C        C  538   3.393   4.506   2.398  0.0046  0.0846  0.0879
    1C        C  539   3.534   4.509   2.397  0.0038  0.0533 -0.0226
    1C        C  540   3.323   4.500   2.521  0.2858  0.1280  0.2521
    1C        C  541   3.393   4.516   2.642  0.0453  0.4605  0.3479
    1C        C  542   3.186   4.483   2.764 -0.1465  0.5805  0.0495
    1C        C  543   3.324   4.513   2.765 -0.1482  0.5814  0.2426
    1C        C  544   3.123   4.455   2.887 -0.2203  0.3105 -0.0502
    1C        C  545   3.189   4.475   3.009  0.0911  0.2778 -0.2144
    1C        C  546   3.002   4.391   3.135  0.0902  0.5610 -0.2056
    1C        C  547   3.125   4.460   3.134  0.0989  0.5440 -0.1780
    1C        C  548   2.943   4.356   3.259 -0.2113  0.3941 -0.3947
    1C        C  549   3.004   4.394   3.381 -0.5806  0.6600 -0.2922
    1C        C  550   2.828   4.277   3.507  0.0220  0.1240  0.1883
    1C        C  551   2.941   4.363   3.503  0.1763 -0.0907 -0.0837
    1C        C  552   2.785   4.225   3.630 -0.4416 -0.1686 -0.0996
    1C        C  553   2.836   4.281   3.749 -0.3296 -0.0370 -0.2114
    1C        C  554   2.701   4.119   3.874 -0.2653  0.2128 -0.0245
    1C        C  555   2.786   4.232   3.872  0.0084  0.0069 -0.0576
    1C        C  556   2.663   4.061   3.997 -0.0675  0.1509  0.0087
    1C        C  557   2.705   4.120   4.118 -0.7512  0.6281  0.0207
    1C        C  558   2.598   3.941   4.244  0.7157 -0.2620  0.2610
    1C        C  559   2.661   4.067   4.242 -0.2359  0.2185  0.0352
    1C        C  560   2.576   3.878   4.369  0.8259 -0.5452  0.1403
    1C        C  561   2.602   3.946   4.490  0.1976  0.0103 -0.0287
    1C        C  562   2.527   3.747   4.613 -0.5550 -0.2164  0.0228
    1C        C  563   2.565   3.883   4.610  0.0619 -0.3899 -0.2765
    1C        C  564   2.514   3.680   4.736  0.2804  0.0145  0.2466
    1C        C  565   2.519   3.759   4.854  0.0991  0.2399  0.1047
    1C        C  566   2.523   3.547   4.974  0.3630 -0.2901  0.1687
    1C        C  567   2.531   3.686   4.973 -0.1925 -0.2575 -0.1676
    1C        C  568   3.325   4.469   2.036 -0.4135  0.1478  0.2928
    1C        C  569   3.397   4.499   2.153  0.0254  0.8119 -0.1367
    1C        C  570   3.187   4.458   2.276  0.3166 -0.1042  0.3408
    1C        C  571   3.324   4.496   2.275  0.1984  0.3216 -0.0409
    1C        C  572   3.118   4.447   2.399  0.3902 -0.4610  0.3498
    1C        C  573   3.183   4.479   2.520  0.3211 -0.1117  0.2952
    1C        C  574   2.991   4.397   2.646 -0.1114  0.0551 -0.0181
    1C        C  575   3.115   4.464   2.643 -0.0643 -0.0265  0.0927
    1C        C  576   2.937   4.357   2.770 -0.2160 -0.1005 -0.1146
    1C        C  577   2.998   4.388   2.893 -0.0313 -0.0602 -0.2183
    1C        C  578   2.829   4.262   3.015 -0.0611  0.4332  0.2502
    1C        C  579   2.937   4.353   3.016 -0.0432  0.4154 -0.0859
    1C        C  580   2.781   4.215   3.139  0.0495 -0.1160  0.0868
    1C        C  581   2.833   4.269   3.259 -0.0788  0.2264 -0.0131
    1C        C  582   2.698   4.112   3.386  0.4185  0.0150  0.1212
    1C        C  583   2.783   4.225   3.384  0.3527  0.0614  0.0968
    1C        C  584   2.671   4.045   3.507  0.3750 -0.3802 -0.1091
    1C        C  585   2.702   4.110   3.629 -0.0766 -0.4357  0.0318
    1C        C  586   2.594   3.934   3.756  0.0707 -0.2841  0.1366
    1C        C  587   2.660   4.059   3.753 -0.0998 -0.1949  0.1215
    1C        C  588   2.566   3.871   3.879 -0.3362  0.0587  0.2214
    1C        C  589   2.594   3.938   4.000 -0.4230  0.3493  0.0833
    1C        C  590   2.531   3.738   4.126  0.3166  0.1224  0.0570
    1C        C  591   2.570   3.873   4.123  0.4541  0.0841  0.1257
    1C        C  592   2.518   3.670   4.249  0.5112 -0.1875 -0.0925
    1C        C  593   2.534   3.744   4.369  0.1516 -0.3382  0.0485
    1C        C  594   2.513   3.535   4.494 -0.4501 -0.2700  0.0178
    1C        C  595   2.513   3.676   4.491 -0.2655 -0.2694  0.0188
    1C        C  596   2.525   3.465   4.616  0.1764 -0.0635  0.0785
    1C        C  597   2.516   3.538   4.737  0.1720  0.0113  0.0339
    1C        C  598   2.534   3.327   4.857 -0.0281  0.0159  0.1247
    1C        C  599   2.516   3.467   4.859 -0.3299 -0.0206  0.0189
    1C        C  600   2.533   3.249   4.973  0.3778  0.2716  0.3037
    1C        C  601   3.190   4.441   2.039 -0.2961 -0.4708 -0.2037
    1C        C  602   2.980   4.386   2.160  0.3538  0.1759 -0.0517
    1C        C  603   3.115   4.431   2.157  0.2844  0.4052  0.2434
    1C        C  604   2.920   4.357   2.286 -0.0996  0.3794 -0.2172
    1C        C  605   2.987   4.395   2.404  0.1797 -0.0060 -0.2509
    1C        C  606   2.825   4.259   2.528  0.0961  0.3421  0.0461
    1C        C  607   2.930   4.354   2.527 -0.1976  0.6670 -0.1972
    1C        C  608   2.772   4.215   2.652  0.0426  0.0700 -0.0763
    1C        C  609   2.829   4.266   2.770  0.0875 -0.4602  0.1325
    1C        C  610   2.686   4.108   2.896  0.1275  0.0031  0.0878
    1C        C  611   2.776   4.217   2.892  0.0465  0.0783  0.3352
    1C        C  612   2.648   4.049   3.019 -0.1128  0.1315  0.0735
    1C        C  613   2.692   4.106   3.141 -0.0879 -0.0006  0.1227
    1C        C  614   2.587   3.929   3.268  0.4081 -0.0343  0.2091
    1C        C  615   2.652   4.054   3.266 -0.0623  0.2079  0.2136
    1C        C  616   2.568   3.858   3.389 -0.2686 -0.3623 -0.0866
    1C        C  617   2.603   3.922   3.510  0.0622 -0.2084 -0.2669
    1C        C  618   2.521   3.733   3.641  0.3317 -0.0099  0.2586
    1C        C  619   2.567   3.866   3.635  0.5838 -0.1121 -0.0737
    1C        C  620   2.513   3.663   3.763  0.0328 -0.1234  0.1699
    1C        C  621   2.525   3.736   3.883 -0.0218 -0.0384  0.1211
    1C        C  622   2.507   3.526   4.010  1.0124 -0.0818  0.1629
    1C        C  623   2.512   3.667   4.005  0.3909 -0.0571  0.1528
    1C        C  624   2.507   3.453   4.131  0.6502 -0.0744  0.1673
    1C        C  625   2.509   3.529   4.250  0.0969 -0.1594  0.2316
    1C        C  626   2.534   3.322   4.378  0.7324 -0.3184  0.3804
    1C        C  627   2.509   3.461   4.374  0.1875 -0.4234  0.0864
    1C        C  628   2.553   3.250   4.498  0.2147 -0.4728  0.3721
    1C        C  629   2.547   3.326   4.617  0.3123 -0.0419  0.1063
    1C        C  630   2.592   3.117   4.741 -0.1312 -0.0714  0.2560
    1C        C  631   2.553   3.254   4.738  0.2594  0.0393  0.1566
    1C        C  632   2.615   3.048   4.863  0.2308 -0.0079  0.2244
    1C        C  633   2.564   3.112   4.980 -0.6095  0.0136 -0.1459
    1C        C  634   2.778   4.299   2.055  0.0645 -0.0394  0.1936
    1C        C  635   2.891   4.381   2.048  0.1990 -0.2344  0.0868
    1C        C  636   2.747   4.226   2.170  0.3706 -0.0773  0.2511
    1C        C  637   2.806   4.273   2.290  0.3046 -0.1572  0.3135
    1C        C  638   2.669   4.109   2.412 -0.1182 -0.0826 -0.0114
    1C        C  639   2.758   4.218   2.411  0.2972 -0.4168  0.1926
    1C        C  640   2.637   4.046   2.535  0.1017 -0.0593  0.0548
    1C        C  641   2.681   4.107   2.655  0.1116  0.0175  0.0102
    1C        C  642   2.572   3.925   2.775  0.5218 -0.0756  0.1343
    1C        C  643   2.639   4.050   2.777 -0.0486  0.2286  0.0503
    1C        C  644   2.557   3.859   2.898  0.8010 -0.5572 -0.0899
    1C        C  645   2.584   3.924   3.021  0.6628 -0.2776 -0.2099
    1C        C  646   2.524   3.726   3.148  0.6043  0.2447 -0.2772
    1C        C  647   2.562   3.862   3.146  0.4424  0.2896  0.0290
    1C        C  648   2.510   3.658   3.271  0.9501  0.0279 -0.3623
    1C        C  649   2.529   3.723   3.395  0.5389 -0.5922  0.0224
    1C        C  650   2.503   3.519   3.520  0.0868 -0.0965  0.1477
    1C        C  651   2.509   3.660   3.520  0.7676 -0.1272  0.2888
    1C        C  652   2.505   3.450   3.643 -0.2717 -0.1822  0.1025
    1C        C  653   2.503   3.522   3.764  0.1750 -0.1316  0.0801
    1C        C  654   2.528   3.315   3.889 -0.3720 -0.1589 -0.0452
    1C        C  655   2.511   3.455   3.888  0.8770  0.0063  0.1104
    1C        C  656   2.545   3.245   4.011  0.0110  0.0132 -0.0012
    1C        C  657   2.528   3.313   4.133  0.2486 -0.1331  0.1113
    1C        C  658   2.611   3.122   4.256 -0.4104 -0.3464  0.0772
    1C        C  659   2.554   3.251   4.257  0.1743 -0.0848  0.1499
    1C        C  660   2.634   3.054   4.378 -0.1857 -0.2405  0.0948
    1C        C  661   2.596   3.116   4.499  0.0488 -0.5262  0.3153
    1C        C  662   2.706   2.934   4.622 -0.1969 -0.4485 -0.0587
    1C        C  663   2.629   3.052   4.621 -0.1499 -0.4086  0.4299
    1C        C  664   2.748   2.876   4.744 -0.0822 -0.0628  0.0926
    1C        C  665   2.696   2.930   4.865  0.1310 -0.0790  0.1923
    1C        C  666   2.747   2.873   4.983 -0.1119 -0.1342  0.2709
    1C        C  667   2.676   4.021   2.056  0.2876 -0.0603  0.1467
    1C        C  668   2.678   4.103   2.170  0.2252  0.0068  0.0974
    1C        C  669   2.579   3.915   2.290  0.4890 -0.3278  0.2813
    1C        C  670   2.632   4.047   2.291  0.1055 -0.1715 -0.0322
    1C        C  671   2.550   3.851   2.412 -0.0825 -0.3331  0.1435
    1C        C  672   2.574   3.920   2.533  0.1233 -0.0658 -0.0524
    1C        C  673   2.504   3.722   2.657  0.1750  0.1128 -0.1484
    1C        C  674   2.540   3.858   2.655  0.4393  0.0468  0.0917
    1C        C  675   2.500   3.654   2.781  0.0059 -0.3281 -0.3963
    1C        C  676   2.517   3.724   2.903  0.5201 -0.4802 -0.3828
    1C        C  677   2.492   3.516   3.032  0.1004  0.0308  0.2259
    1C        C  678   2.505   3.657   3.026  0.7025 -0.0373 -0.1269
    1C        C  679   2.499   3.444   3.153  0.5822 -0.1254  0.1051
    1C        C  680   2.500   3.517   3.274  0.6039  0.0650 -0.0167
    1C        C  681   2.529   3.310   3.398  0.0944  0.2056  0.0896
    1C        C  682   2.502   3.449   3.397 -0.3446  0.1168  0.0329
    1C        C  683   2.546   3.242   3.520 -0.2469 -0.2810 -0.1352
    1C        C  684   2.530   3.311   3.643 -0.3352 -0.1894 -0.2022
    1C        C  685   2.594   3.114   3.768  0.0472  0.1172 -0.2507
    1C        C  686   2.541   3.244   3.767 -0.2587 -0.0098 -0.1166
    1C        C  687   2.628   3.050   3.890 -0.6926 -0.1302 -0.1719
    1C        C  688   2.596   3.114   4.011 -0.4182 -0.1536 -0.0888
    1C        C  689   2.711   2.936   4.135 -0.5898 -0.1866  0.1121
    1C        C  690   2.639   3.058   4.133 -0.5675 -0.1763 -0.0473
    1C        C  691   2.752   2.876   4.256 -0.0793 -0.6150 -0.2695
    1C        C  692   2.711   2.936   4.377 -0.2333 -0.2708 -0.4891
    1C        C  693   2.753   2.881   4.500 -0.0278  0.2719 -0.3146
    1C        C  694   2.622   3.892   2.056  0.0680  0.0324  0.0123
    1C        C  695   2.525   3.702   2.173  0.4399 -0.1327 -0.2490
    1C        C  696   2.570   3.836   2.173  0.7849 -0.2464  0.2048
    1C        C  697   2.503   3.640   2.298 -0.5441  0.1148 -0.2941
    1C        C  698   2.508   3.716   2.417 -0.0156 -0.3572 -0.0105
    1C        C  699   2.486   3.505   2.543 -0.3643 -0.1995  0.0150
    1C        C  700   2.493   3.646   2.539  0.0898 -0.2246  0.0753
    1C        C  701   2.497   3.439   2.667 -0.4677 -0.2354  0.0016
    1C        C  702   2.501   3.513   2.787  0.2126 -0.3055  0.0184
    1C        C  703   2.532   3.306   2.910 -0.1366 -0.0451  0.0637
    1C        C  704   2.503   3.444   2.911  0.5077  0.0887  0.2315
    1C        C  705   2.544   3.239   3.033 -0.2072 -0.1839 -0.0098
    1C        C  706   2.516   3.304   3.156  0.3247 -0.1524  0.0942
    1C        C  707   2.601   3.109   3.277 -0.0884 -0.0883 -0.1372
    1C        C  708   2.546   3.239   3.277  0.1769  0.0190  0.2171
    1C        C  709   2.633   3.050   3.401 -0.2952 -0.1599 -0.1228
    1C        C  710   2.605   3.114   3.523 -0.6784 -0.4732 -0.0506
    1C        C  711   2.719   2.940   3.647 -0.0809 -0.2967  0.0438
    1C        C  712   2.633   3.052   3.647  0.0224 -0.2194 -0.0852
    1C        C  713   2.758   2.882   3.770 -0.3394 -0.2621  0.1391
    1C        C  714   2.708   2.934   3.891 -0.0290  0.3228  0.0185
    1C        C  715   2.756   2.880   4.013 -0.5054 -0.0078  0.0630
    1C        C  716   2.446   3.501   2.061 -0.1142 -0.0252  0.1887
    1C        C  717   2.488   3.635   2.057  0.2195 -0.1400 -0.1737
    1C        C  718   2.467   3.422   2.179 -0.1339 -0.1488  0.1063
    1C        C  719   2.486   3.499   2.297 -0.1789  0.0709 -0.0319
    1C        C  720   2.514   3.294   2.423  0.7157  0.1013 -0.0226
    1C        C  721   2.487   3.433   2.422  0.1039 -0.0190 -0.0859
    1C        C  722   2.538   3.230   2.546 -0.1196 -0.0644  0.0530
    1C        C  723   2.525   3.301   2.667 -0.0418 -0.1462  0.1053
    1C        C  724   2.603   3.104   2.788  0.0008 -0.1073 -0.0732
    1C        C  725   2.548   3.234   2.789  0.1014 -0.0703  0.1151
    1C        C  726   2.633   3.043   2.912 -0.4021 -0.4618 -0.1535
    1C        C  727   2.599   3.109   3.032  0.1738 -0.0178 -0.2383
    1C        C  728   2.711   2.930   3.156 -0.4378 -0.2722 -0.0905
    1C        C  729   2.632   3.047   3.154  0.0697  0.0677 -0.1716
    1C        C  730   2.757   2.879   3.280  0.0227 -0.1519 -0.2114
    1C        C  731   2.715   2.934   3.403 -0.4052 -0.2356 -0.3229
    1C        C  732   2.761   2.882   3.525 -0.1730  0.2060 -0.2265
    1C        C  733   2.491   3.199   2.071  0.3231 -0.0960 -0.4082
    1C        C  734   2.498   3.283   2.183  0.1082 -0.1069 -0.3882
    1C        C  735   2.588   3.089   2.306 -0.1944  0.1771 -0.1845
    1C        C  736   2.528   3.217   2.305 -0.2792  0.1350 -0.1647
    1C        C  737   2.622   3.028   2.429 -0.1107  0.1486 -0.2235
    1C        C  738   2.598   3.102   2.546 -0.2900 -0.1426 -0.0761
    1C        C  739   2.705   2.917   2.670 -0.3847 -0.2007 -0.2186
    1C        C  740   2.628   3.036   2.667 -0.4192 -0.2232 -0.0915
    1C        C  741   2.746   2.861   2.793  0.1760 -0.0496 -0.3376
    1C        C  742   2.706   2.922   2.914 -0.0560 -0.2528 -0.3166
    1C        C  743   2.756   2.872   3.036 -0.1321  0.0872 -0.1481
    1C        C  744   2.552   3.074   2.075  0.1127 -0.1778  0.3285
    1C        C  745   2.692   2.900   2.185  0.4508 -0.1563  0.0436
    1C        C  746   2.611   3.015   2.188  0.3214 -0.2509  0.1789
    1C        C  747   2.734   2.843   2.308 -0.4268 -0.3761  0.2440
    1C        C  748   2.696   2.908   2.428 -0.7122 -0.2339  0.0777
    1C        C  749   2.738   2.851   2.550 -0.0290 -0.1824 -0.1295
    1C        C  750   2.744   2.844   2.068  0.0291 -0.1960 -0.1256
    1C        C  751   3.657   2.332   1.970  0.2730  0.0658 -0.2257
    1C        O  752   3.705   2.224   2.014  0.4792  0.3086  0.1494
    1C        O  753   3.687   2.354   1.835 -0.2344  0.6217 -0.2511
    1C        C  754   4.598   3.050   1.957 -0.4374 -0.4229  0.1174
    1C        O  755   4.544   3.046   1.843 -0.3634 -0.4516  0.0842
    1C        O  756   4.738   3.036   1.961 -0.3754  0.0078 -0.4646
    1C        C  757   4.409   4.199   1.927 -0.5732 -0.0933 -0.1733
    1C        O  758   4.496   4.290   1.921 -0.5202 -0.0911  0.6466
    1C        O  759   4.355   4.159   1.804  0.0905 -0.1911 -0.4359
    1C        C  760   3.599   4.679   1.962 -0.1325  0.0791 -0.1668
    1C        O  761   3.607   4.796   2.009 -0.2240  0.0419 -0.0575
    1C        O  762   3.555   4.676   1.829  0.2643 -0.8651 -0.2859
    1C        C  763   2.864   4.499   1.962  0.1406 -0.0352  0.3794
    1C        O  764   2.899   4.504   1.841 -0.1873  0.2221  0.2952
    1C        O  765   2.793   4.611   2.005 -0.3709 -0.2066 -0.0187
    1C        C  766   2.333   3.481   1.969 -0.0153 -0.1747  0.1018
    1C        O  767   2.340   3.450   1.847  0.1334  0.2809 -0.0070
    1C        O  768   2.201   3.515   2.002 -0.0808 -0.1581 -0.1703
    1C        C  769   4.685   3.589   5.063  0.8093 -1.0077 -0.4174
    1C        O  770   4.651   3.561   5.181  0.3806  0.2310 -0.2323
    1C        O  771   4.808   3.656   5.050  0.4496 -0.2302  0.1189
    1C        C  772   4.267   4.433   5.052 -0.3563 -0.1276  0.3450
    1C        O  773   4.254   4.388   5.169  0.6104 -0.4630  0.3350
    1C        O  774   4.347   4.544   5.022 -0.6797 -0.0117 -0.0945
    1C        C  775   4.147   2.517   5.065  0.0235 -0.4038  0.1740
    1C        O  776   4.269   2.505   5.036  0.0705  0.0806  0.1594
    1C        O  777   4.108   2.498   5.198 -0.0220 -0.7072  0.1190
    1C        C  778   2.874   4.563   5.012  0.1710 -0.1020 -0.1499
    1C        O  779   2.846   4.662   4.940 -0.3517  0.1090  0.3319
    1C        O  780   2.817   4.588   5.138 -0.4596 -0.3061 -0.3887
    1C        C  781   2.483   3.035   5.077 -0.5279 -0.0038 -0.0914
    1C        O  782   2.376   2.982   5.039 -0.3495 -0.4907  0.0703
    1C        O  783   2.483   3.051   5.215  0.6347  0.0800 -0.0866
    1C        C  784   2.413   3.984   5.053 -0.3160  0.0917 -0.4693
    1C        O  785   2.297   4.018   5.019 -0.4305  0.0969 -0.0710
    1C        O  786   2.419   3.946   5.188  0.1657 -0.2292 -0.5779
    1C        C  787   2.945   2.419   2.003 -0.0470  0.0813  0.2058
    1C        O  788   2.941   2.430   1.878 -0.4717 -0.0356  0.2083
    1C        O  789   2.885   2.301   2.044 -0.0940  0.1606  0.3668
    1C        C  790   3.191   2.396   5.087 -0.0018  0.1639  0.2514
    1C        O  791   3.217   2.273   5.073 -0.0374  0.1343  0.4258
    1C        O  792   3.207   2.434   5.221  0.6703  0.0981  0.1924
    1C        H  793   4.291   3.028   5.059 -2.4434  0.9520 -0.9835
    1C        H  794   4.212   2.795   5.073 -0.4806 -0.5029 -0.3975
    1C        H  795   4.481   3.147   5.067  1.5603  0.5402 -0.3052
    1C        H  796   4.503   3.380   5.063 -2.2501  0.6238  0.2373
    1C        H  797   4.549   3.807   5.049 -2.6050 -0.6364  0.0791
    1C        H  798   4.357   3.941   5.033 -1.3260  0.3769 -0.4907
    1C        H  799   4.253   4.141   5.042  1.0009  0.1998  0.5567
    1C        H  800   4.051   4.560   5.011  0.8869 -0.1518  0.4084
    1C        H  801   3.826   4.635   5.010  1.3452 -0.1241 -0.8840
    1C        H  802   3.586   4.618   5.039  0.1351  0.7539  0.1670
    1C        H  803   3.401   4.489   5.042  0.5740 -1.2611 -1.1363
    1C        H  804   3.158   4.533   5.051  1.4973 -1.0623  1.1261
    1C        H  805   3.902   2.451   5.044 -0.8447 -1.4538 -1.2410
    1C        H  806   3.679   2.424   5.055 -0.4814  1.0022  1.1844
    1C        H  807   3.011   2.570   5.068  1.3064  1.8068  0.3750
    1C        H  808   3.449   2.436   5.071  0.0083  1.5552  0.7873
    1C        H  809   2.871   2.732   5.077  0.1898  0.8003  0.6282
    1C        H  810   2.740   2.930   5.073  0.4584 -0.7448  0.7145
    1C        H  811   2.477   3.290   5.055 -0.0620 -0.2331  0.2620
    1C        H  812   2.491   3.504   5.067  1.2173 -0.9816  0.1527
    1C        H  813   2.541   3.735   5.067  0.0079 -0.4806 -0.0702
    1C        H  814   2.559   4.198   5.019  1.0459  1.1944 -0.6159
    1C        H  815   2.747   4.329   5.049  0.7735 -1.2202 -0.2481
    1C        H  816   2.724   2.888   1.973 -2.6184 -1.5158 -0.2603
    1C        H  817   2.800   2.661   1.991  0.8332 -0.4327  0.2829
    1C        H  818   3.192   2.386   2.012 -0.7223 -0.5726  0.9242
    1C        H  819   3.424   2.464   1.977  0.9860  4.1151  0.6203
    1C        H  820   3.847   2.525   1.967  0.4952 -1.0187  0.2869
    1C        H  821   4.061   2.619   1.965  0.1994 -1.8890 -0.7030
    1C        H  822   4.224   2.752   1.965  1.1284 -1.3040  0.0075
    1C        H  823   4.337   2.949   1.979 -0.1853 -0.4255 -0.0423
    1C        H  824   4.594   3.308   1.974  1.3113  1.2244  1.1400
    1C        H  825   4.464   3.509   1.969  1.1060  0.8815 -0.1218
    1C        H  826   4.542   3.750   1.967  0.4130 -0.4759 -0.5623
    1C        H  827   3.797   4.507   1.947  0.4296  2.0410 -0.2114
    1C        H  828   3.982   4.397   1.944 -0.4045 -2.1094 -0.5955
    1C        H  829   4.118   4.207   1.963  0.6186  0.2371 -0.7231
    1C        H  830   4.538   3.989   1.994  0.7841  0.6119  1.1570
    1C        H  831   2.623   3.836   1.964  0.3868 -0.3690  0.2548
    1C        H  832   2.752   4.041   1.983 -0.1945  0.4055 -0.2268
    1C        H  833   2.705   4.301   1.976 -0.0059 -0.4300  0.2434
    1C        H  834   3.379   4.454   1.945 -0.2816  0.1265  0.3745
    1C        H  835   3.144   4.435   1.942  0.1970  1.4826 -0.6060
    1C        H  836   2.541   3.017   1.985 -0.9742 -0.4950  0.6471
    1C        H  837   2.418   3.218   1.995  1.7879  1.0909 -1.5605
    1C        H  838   2.454   3.688   1.970  1.0637 -1.2881 -1.2560
    2V3OU   H29  839   2.809   3.545   1.468 -0.0445  0.2174 -0.4825
    2V3OU   C27  840   2.782   3.502   1.568  0.7312  0.0047 -0.3593
    2V3OU   H27  841   2.732   3.572   1.640  1.4093 -1.5856  1.7684
    2V3OU   H28  842   2.737   3.402   1.545  1.0600 -0.2821  0.2127
    2V3OU   O11  843   2.911   3.471   1.622  0.4112  0.0366  0.4403
    2V3OU   C15  844   2.916   3.401   1.740 -0.3895  0.2689  0.6199
    2V3OU   C13  845   3.048   3.375   1.785 -0.0931 -0.1689 -0.4779
    2V3OU   C14  846   3.072   3.265   1.868  0.1259 -0.1522 -0.5215
    2V3OU   C16  847   2.970   3.185   1.916 -0.1133  0.0108 -0.7507
    2V3OU    H6  848   2.987   3.108   1.994 -0.8844  1.4168  0.8784
    2V3OU   C12  849   3.210   3.230   1.906  0.1550  0.4162 -0.0929
    2V3OU    O2  850   3.244   3.125   1.964 -0.4679  0.1902 -0.1380
    2V3OU   C10  851   3.326   3.314   1.870  0.3888 -0.1916 -0.8010
    2V3OU    C8  852   3.455   3.271   1.897  0.3888  0.1345 -0.2718
    2V3OU   O10  853   3.489   3.148   1.944 -0.1457 -0.0852 -0.4599
    2V3OU   H26  854   3.405   3.108   1.974  1.1432 -1.3227  1.7664
    2V3OU    C6  855   3.565   3.350   1.851 -0.0716  0.4445 -0.8367
    2V3OU    C5  856   3.536   3.470   1.786  0.0516  0.9109 -0.0401
    2V3OU    C4  857   3.703   3.295   1.847 -0.1442  0.2344 -0.3909
    2V3OU    H4  858   3.724   3.231   1.938  1.1954  0.7269 -0.3316
    2V3OU    H5  859   3.712   3.228   1.757  0.6953 -0.5065  0.2232
    2V3OU    C2  860   3.817   3.398   1.850 -0.1429  0.2266 -0.1807
    2V3OU    O6  861   3.813   3.481   1.967  0.0150 -0.4417  0.3032
    2V3OU   H21  862   3.765   3.556   1.928 -1.0294 -1.8443 -1.2927
    2V3OU    C3  863   3.783   3.493   1.735  0.6868  0.1456 -0.4971
    2V3OU    H2  864   3.857   3.577   1.738  0.7862  0.0627 -0.6511
    2V3OU    H3  865   3.788   3.444   1.635  1.3124  1.5521 -1.1841
    2V3OU   C25  866   3.948   3.322   1.833 -0.2323  0.0384 -0.0354
    2V3OU    O7  867   4.006   3.291   1.729  0.1436 -0.0657  0.2051
    2V3OU   C26  868   4.027   3.291   1.959 -0.1868  0.3426  0.0128
    2V3OU   H22  869   4.057   3.386   2.009 -1.1563  2.5590 -3.3524
    2V3OU   H23  870   4.112   3.222   1.936 -1.0429 -1.1044  0.9744
    2V3OU    O8  871   3.950   3.209   2.044  0.2024  0.0229  0.0588
    2V3OU   H24  872   3.910   3.270   2.109 -0.9855 -0.7661  0.1108
    2V3OU    C1  873   3.648   3.562   1.748  0.7338  0.1352  0.0634
    2V3OU    H1  874   3.622   3.616   1.652  0.2494 -2.1679 -1.1722
    2V3OU    O3  875   3.659   3.651   1.860  0.5686  0.6230 -0.3081
    2V3OU   C19  876   3.618   3.789   1.858 -0.1568  0.4132 -0.3711
    2V3OU    H9  877   3.521   3.811   1.806 -1.1239 -0.9568  0.7659
    2V3OU    O4  878   3.713   3.848   1.773  0.0787  0.4803 -0.0639
    2V3OU   C20  879   3.844   3.871   1.826  0.1224 -0.1847  0.1358
    2V3OU   H10  880   3.893   3.770   1.826 -2.3822 -1.5954 -3.3577
    2V3OU   C24  881   3.615   3.854   1.997  0.2562 -0.4848  0.0688
    2V3OU   H16  882   3.549   3.794   2.064 -0.3033 -1.4680 -1.3065
    2V3OU   H17  883   3.566   3.952   1.974  0.8484 -0.1289  0.3127
    2V3OU   C23  884   3.753   3.874   2.060  0.1450  0.6239 -0.0161
    2V3OU   H15  885   3.790   3.767   2.079 -0.0836 -0.2467 -3.6597
    2V3OU    N1  886   3.732   3.952   2.180 -0.0868  0.6154 -0.0513
    2V3OU   H19  887   3.802   3.923   2.244 -1.2500 -1.0999  0.5197
    2V3OU   H20  888   3.643   3.943   2.225  0.7211  3.7670  2.5688
    2V3OU   C21  889   3.852   3.942   1.961 -0.2163  0.7248 -0.3118
    2V3OU   H11  890   3.959   3.918   1.989 -0.3281 -2.8734 -2.4226
    2V3OU    O5  891   3.841   4.084   1.954 -0.1690  0.7505  0.0868
    2V3OU   H18  892   3.791   4.116   2.031 -0.0426  0.4256  0.3054
    2V3OU   C22  893   3.910   3.946   1.711 -0.2235 -0.3325 -0.1596
    2V3OU   H12  894   3.858   4.045   1.701 -1.1173 -0.3998  2.9179
    2V3OU   H13  895   3.905   3.890   1.614  2.3306  0.5512 -0.8806
    2V3OU   H14  896   4.018   3.961   1.736 -0.6163 -1.2749  2.3144
    2V3OU   C11  897   3.154   3.476   1.776 -0.2766  0.1050  0.3510
    2V3OU    O1  898   3.138   3.583   1.713 -0.1021  0.1277  0.3459
    2V3OU    C9  899   3.294   3.433   1.800 -0.2109 -0.1520 -0.4681
    2V3OU    C7  900   3.402   3.512   1.761 -0.2111 -0.0863 -0.3317
    2V3OU    O9  901   3.389   3.619   1.675  0.4052  0.0428 -0.2617
    2V3OU   H25  902   3.293   3.631   1.668  0.1734 -1.7774 -0.5782
    2V3OU   C17  903   2.817   3.311   1.784  0.0572 -0.3170  0.4487
    2V3OU    H7  904   2.715   3.339   1.757  0.3012 -0.6753 -0.9168
    2V3OU   C18  905   2.840   3.207   1.873 -0.5402 -0.7526  0.1011
    2V3OU    H8  906   2.753   3.149   1.908 -0.9806 -0.8103 -1.0323
    3SOL     OW  907   1.926   3.374   2.676  0.3758  0.1952  0.0663
    3SOL    HW1  908   1.991   3.299   2.662  0.4018  0.3098 -0.4771
    3SOL    HW2  909   1.879   3.362   2.763 -0.9873 -1.5163 -0.8484
    4SOL     OW  910   6.468   6.952   1.355 -0.8717  0.6922  0.1785
    4SOL    HW1  911   6.482   6.857   1.329  3.1872  0.8081  1.3110
    4SOL    HW2  912   6.505   6.968   1.447  1.9605  3.9917 -1.3147
    5SOL     OW  913   3.126   2.062   0.458  0.5102  0.4201  0.5420
    5SOL    HW1  914   3.218   2.058   0.496  0.3777  0.0962  0.8296
    5SOL    HW2  915   3.082   1.973   0.465  0.5638  0.2822 -0.5876
    6SOL     OW  916   2.983   1.761   1.881  0.1447  0.2566 -0.3645
    6SOL    HW1  917   3.076   1.793   1.900 -0.0097  1.0274 -0.8490
    6SOL    HW2  918   2.950   1.707   1.958  1.4924 -1.1884 -0.7409
    7SOL     OW  919   6.535   0.839   3.715 -0.0708 -0.3056  0.1645
    7SOL    HW1  920   6.609   0.801   3.658 -2.2706 -3.8940 -0.6174
    7SOL    HW2  921   6.570   0.858   3.806  2.7542  2.3903 -1.2774
    8SOL     OW  922   1.673   6.337   4.127  0.4355 -0.2510 -0.0996
    8SOL    HW1  923   1.763   6.361   4.092  0.2910 -0.8882 -0.9448
    8SOL    HW2  924   1.626   6.279   4.061 -1.4581  1.8248 -0.7143
    9SOL     OW  925   2.293   3.366   5.502  0.3956  0.0939 -0.0553
    9SOL    HW1  926   2.385   3.364   5.541  0.2658  1.4199  0.3584
    9SOL    HW2  927   2.233   3.307   5.556  0.5278  0.8726  0.9648
   10SOL     OW  928   0.618   5.774   5.957 -0.1632 -0.1417 -0.1304
   10SOL    HW1  929   0.554   5.831   5.906 -1.6170 -0.5371  1.1483
   10SOL    HW2  930   0.708   5.816   5.956 -0.1907  0.0286 -2.6808
   11SOL     OW  931   3.576   4.272   0.457  0.3075 -1.0994 -0.3048
   11SOL    HW1  932   3.507   4.212   0.498 -0.6043 -1.1565 -1.8289
   11SOL    HW2  933   3.541   4.366   0.455  0.0311 -1.2175 -1.5607
   12SOL     OW  934   5.108   6.025   2.093 -0.2279 -0.7420 -0.1736
   12SOL    HW1  935   5.119   6.123   2.081  1.4545 -0.8333  0.3585
   12SOL    HW2  936   5.125   5.978   2.006  2.6776 -0.7704  0.3157
   13SOL     OW  937   2.891   5.835   1.825  0.3701  0.1904 -0.2675
   13SOL    HW1  938   2.988   5.825   1.804 -0.0282  0.3212 -2.3777
   13SOL    HW2  939   2.838   5.834   1.740 -1.6388 -1.4545  0.9231
   14SOL     OW  940   5.294   5.349   1.128 -0.3439 -0.4505 -0.1042
   14SOL    HW1  941   5.292   5.383   1.222  0.9315 -1.6508  0.3954
   14SOL    HW2  942   5.259   5.255   1.126  0.1690 -0.6316 -0.7424
   15SOL     OW  943   1.235   5.924   6.808  0.0414  0.0088 -0.0068
   15SOL    HW1  944   1.305   5.871   6.760 -1.6891 -2.8516  0.3523
   15SOL    HW2  945   1.239   6.020   6.780  4.3518  0.1235  0.3996
   16SOL     OW  946   5.867   4.735   6.991  0.2893  0.2117 -0.0539
   16SOL    HW1  947   5.919   4.673   7.050  0.5262 -1.7217 -2.1624
   16SOL    HW2  948   5.776   4.750   7.030  0.4835 -0.8509  0.8691
   17SOL     OW  949   4.623   4.365   4.344  0.8611  0.0283 -0.2302
   17SOL    HW1  950   4.679   4.290   4.379  0.3184 -0.3683 -0.1834
   17SOL    HW2  951   4.567   4.403   4.418  1.4434  0.7634 -0.1648
   18SOL     OW  952   1.850   3.115   4.976  0.2782  0.4973  0.5153
   18SOL    HW1  953   1.887   3.156   4.893 -1.2206  1.6571  0.3854
   18SOL    HW2  954   1.926   3.083   5.034  1.4285  1.8648 -0.1737
   19SOL     OW  955   0.812   6.301   3.706 -0.0359 -0.1514  0.1176
   19SOL    HW1  956   0.752   6.369   3.749  0.7974  1.0803 -0.6077
   19SOL    HW2  957   0.897   6.345   3.678  0.4879 -1.4907 -0.4705
   20SOL     OW  958   1.811   0.356   3.651 -0.2246  0.0949 -0.1234
   20SOL    HW1  959   1.880   0.365   3.723 -0.7964 -0.6186  0.5351
   20SOL    HW2  960   1.797   0.445   3.607  1.5462  0.1259 -0.6936
   21SOL     OW  961   2.695   2.669   1.054 -0.3333  0.1738  0.1484
   21SOL    HW1  962   2.630   2.714   1.115  1.1643  0.4326  1.6335
   21SOL    HW2  963   2.707   2.574   1.082 -0.7039 -0.1247 -0.6691
   22SOL     OW  964   0.198   0.335   5.851  0.4029  0.5529 -0.0825
   22SOL    HW1  965   0.243   0.363   5.766  1.1899  1.6596  0.6717
   22SOL    HW2  966   0.205   0.409   5.918  1.2378 -0.9281  1.5178
   23SOL     OW  967   3.426   4.958   3.689 -0.4141 -0.3028  0.2530
   23SOL    HW1  968   3.520   4.972   3.722  0.9663 -3.5584 -1.8299
   23SOL    HW2  969   3.375   4.904   3.757 -0.2565  0.0416  0.6519
   24SOL     OW  970   5.089   0.403   4.589 -0.7205  0.0500 -0.5657
   24SOL    HW1  971   5.072   0.495   4.552  0.4892 -0.3262 -2.1623
   24SOL    HW2  972   5.161   0.359   4.536 -0.3789 -1.3549  0.9918
   25SOL     OW  973   5.038   6.318   0.191 -0.5004  0.2078  0.4218
   25SOL    HW1  974   5.062   6.366   0.275  2.5935 -1.4975  0.6539
   25SOL    HW2  975   4.962   6.255   0.209  0.4236 -0.4892  2.1374
   26SOL     OW  976   0.390   0.864   4.292 -0.2851 -0.9584  0.8971
   26SOL    HW1  977   0.386   0.795   4.220 -0.2035 -0.4228  0.3742
   26SOL    HW2  978   0.473   0.849   4.347  1.1097  0.2362 -0.7763
   27SOL     OW  979   5.211   5.627   3.450  0.5388 -0.1514  0.9311
   27SOL    HW1  980   5.302   5.631   3.491  1.0403  0.3175 -0.1836
   27SOL    HW2  981   5.178   5.532   3.452  1.1447 -0.3667  1.1395
   28SOL     OW  982   4.534   0.810   6.469  0.1680  0.0509 -0.2677
   28SOL    HW1  983   4.562   0.745   6.539 -0.3972  0.9533  0.8359
   28SOL    HW2  984   4.443   0.845   6.490 -0.0063  0.3561 -1.4522
   29SOL     OW  985   4.129   1.308   6.030 -0.4892  0.2803  0.0750
   29SOL    HW1  986   4.159   1.387   6.083 -0.3613  2.3743 -2.8698
   29SOL    HW2  987   4.208   1.249   6.011 -0.6764 -0.9739  2.7180
   30SOL     OW  988   3.671   1.334   5.329 -0.0503  0.4888 -0.0558
   30SOL    HW1  989   3.751   1.352   5.386 -1.3599 -0.8666  2.3293
   30SOL    HW2  990   3.591   1.381   5.367 -1.0030 -0.6000 -0.6315
   31SOL     OW  991   0.033   2.009   4.475  0.1010  0.3695 -0.1811
   31SOL    HW1  992   0.043   1.936   4.543 -1.0974 -0.5488 -0.9435
   31SOL    HW2  993   0.029   2.098   4.522 -0.1192 -0.1963  0.9089
   32SOL     OW  994   1.739   1.747   2.568  0.7710 -0.4584  0.3337
   32SOL    HW1  995   1.838   1.751   2.572  0.7395  0.8570  0.1915
   32SOL    HW2  996   1.701   1.768   2.658  0.6187 -1.6243  0.5575
   33SOL     OW  997   1.954   2.472   0.487 -0.6302  0.4172 -0.1663
   33SOL    HW1  998   1.858   2.481   0.462 -0.3277  0.4661 -1.3927
   33SOL    HW2  999   1.996   2.563   0.493 -0.5136  0.3740 -0.2925
   34SOL     OW 1000   0.549   1.315   3.666 -0.3469  0.2592 -0.0601
   34SOL    HW1 1001   0.570   1.408   3.636  0.1571  0.8486  2.0034
   34SOL    HW2 1002   0.613   1.287   3.737  0.3461 -2.2139 -1.5527
   35SOL     OW 1003   6.776   2.050   0.071  0.2550  0.1379 -0.6099
   35SOL    HW1 1004   6.730   1.976   0.022  0.0187 -0.2127  0.1291
   35SOL    HW2 1005   6.757   2.042   0.169  1.5417  0.2325 -0.3389
   36SOL     OW 1006   2.663   2.386   4.566 -0.1318 -0.7828  0.2323
   36SOL    HW1 1007   2.599   2.418   4.636 -1.3508 -1.2249 -0.6466
   36SOL    HW2 1008   2.633   2.298   4.530 -0.4671  0.1524 -1.9767
   37SOL     OW 1009   2.872   0.729   3.400  0.2976  0.4274  0.0471
   37SOL    HW1 1010   2.963   0.747   3.362  0.2837 -0.2755 -0.3382
   37SOL    HW2 1011   2.846   0.634   3.380 -1.3939  1.1888 -1.7434
   38SOL     OW 1012   4.707   5.584   2.957  0.2932  0.4369  0.3618
   38SOL    HW1 1013   4.748   5.674   2.940 -0.8088  0.8200 -0.3734
   38SOL    HW2 1014   4.615   5.596   2.995 -0.5049 -0.3412 -1.2273
   39SOL     OW 1015   1.295   2.703   4.382  0.3869  0.4055  0.3931
   39SOL    HW1 1016   1.266   2.617   4.339 -0.4193  0.5710  0.5781
   39SOL    HW2 1017   1.268   2.702   4.478 -1.7628  1.7885 -0.1295
   40SOL     OW 1018   6.895   6.648   2.410  0.1457 -0.0915 -0.3180
   40SOL    HW1 1019   6.919   6.592   2.489  1.3598 -1.1451 -1.3945
   40SOL    HW2 1020   6.820   6.605   2.360 -0.6900  0.6266  0.2904
   41SOL     OW 1021   6.401   6.579   3.971  0.5113  0.7681  0.0564
   41SOL    HW1 1022   6.341   6.510   3.932 -0.7614  2.1029 -0.4257
   41SOL    HW2 1023   6.483   6.589   3.913  0.9047 -0.5835  0.3519
   42SOL     OW 1024   3.158   1.203   1.099  0.0271  0.6617 -0.0292
   42SOL    HW1 1025   3.163   1.170   1.005  2.0207  0.7928 -0.0106
   42SOL    HW2 1026   3.202   1.293   1.105  1.4438 -0.0712  1.2948
   43SOL     OW 1027   5.833   6.406   5.424 -0.1090  0.2908  0.4456
   43SOL    HW1 1028   5.882   6.334   5.472 -0.7556  0.9528  2.1990
   43SOL    HW2 1029   5.864   6.495   5.456 -1.2728  0.7398  0.4024
   44SOL     OW 1030   0.907   3.204   5.866 -0.5557  0.0552 -0.7351
   44SOL    HW1 1031   0.862   3.115   5.861 -1.5252  0.3060  1.9486
   44SOL    HW2 1032   0.839   3.277   5.859 -0.0798  0.5224 -0.6155
   45SOL     OW 1033   1.285   1.271   1.799 -0.2422  0.0543  0.0480
   45SOL    HW1 1034   1.199   1.319   1.820 -1.1820 -0.3236 -2.5530
   45SOL    HW2 1035   1.357   1.338   1.780 -0.7206  0.4079 -0.5341
   46SOL     OW 1036   0.599   2.443   5.302  0.3267  0.0223 -0.3055
   46SOL    HW1 1037   0.685   2.419   5.255  0.0278 -1.9847  0.0585
   46SOL    HW2 1038   0.619   2.467   5.397  0.4776 -1.0171 -0.0537
   47SOL     OW 1039   6.788   4.831   2.663 -0.4568 -0.0456 -0.0210
   47SOL    HW1 1040   6.834   4.744   2.680 -2.0057 -1.0352 -0.6502
   47SOL    HW2 1041   6.723   4.819   2.588  1.3841  2.4150 -2.1957
   48SOL     OW 1042   1.564   1.073   4.609 -0.0480 -0.5082  0.3334
   48SOL    HW1 1043   1.569   1.131   4.528 -1.8665 -0.7058  0.0412
   48SOL    HW2 1044   1.469   1.045   4.625  0.6066 -2.4622  1.1389
   49SOL     OW 1045   4.005   4.171   0.022  0.2931 -0.4698  0.4559
   49SOL    HW1 1046   3.967   4.170  -0.071  0.1590 -2.8861  0.4510
   49SOL    HW2 1047   4.104   4.184   0.017  0.1375  0.6239  0.0706
   50SOL     OW 1048   0.221   4.387   6.684  0.0988 -0.1075  0.4187
   50SOL    HW1 1049   0.222   4.485   6.703 -0.0603  0.1407 -0.7697
   50SOL    HW2 1050   0.126   4.358   6.668  0.1741 -0.4085  0.5115
   51SOL     OW 1051   3.465   5.742   3.873 -0.0436 -0.2544 -0.0434
   51SOL    HW1 1052   3.413   5.819   3.836 -1.3037 -1.1328 -0.1599
   51SOL    HW2 1053   3.546   5.726   3.816 -1.0732 -0.5432 -1.4693
   52SOL     OW 1054   0.835   2.702   2.819  0.4494  0.0032  0.0944
   52SOL    HW1 1055   0.861   2.663   2.907  1.7082 -2.4963 -1.2650
   52SOL    HW2 1056   0.759   2.765   2.831  0.0085 -0.9423  2.8444
   53SOL     OW 1057   4.093   6.643   4.198 -0.0539 -0.2855 -0.6025
   53SOL    HW1 1058   4.149   6.655   4.116  0.3289  0.7129 -0.2229
   53SOL    HW2 1059   4.153   6.634   4.277 -0.3809  1.4117 -0.1054
   54SOL     OW 1060   4.741   5.842   6.687 -0.6830 -0.8492 -0.3573
   54SOL    HW1 1061   4.765   5.903   6.762 -1.0491 -2.3107  0.9997
   54SOL    HW2 1062   4.664   5.881   6.637  0.7737  1.0824 -1.2275
   55SOL     OW 1063   4.401   0.316   6.412 -0.3942  0.5169 -0.5172
   55SOL    HW1 1064   4.483   0.365   6.441 -0.8887  2.0316 -1.6038
   55SOL    HW2 1065   4.345   0.295   6.493  0.3456  0.7758  0.0740
   56SOL     OW 1066   6.869   0.884   1.564 -0.7099 -0.0458 -0.6592
   56SOL    HW1 1067   6.945   0.879   1.499  0.0593  1.4496  0.0755
   56SOL    HW2 1068   6.791   0.929   1.520 -1.0837 -1.2875 -1.3103
   57SOL     OW 1069   4.879   1.699   1.220 -0.4225  0.3051  0.0030
   57SOL    HW1 1070   4.895   1.798   1.224 -0.6734  0.3201  3.3215
   57SOL    HW2 1071   4.793   1.681   1.172  1.2632  1.3138 -3.8120
   58SOL     OW 1072   0.686   4.913   6.568 -0.1554  0.2676 -0.2197
   58SOL    HW1 1073   0.712   4.940   6.476  0.1567  1.6160  0.2521
   58SOL    HW2 1074   0.620   4.979   6.605 -2.5351 -1.7781 -0.5094
   59SOL     OW 1075   2.173   0.170   3.818 -0.2924 -0.3361 -0.0694
   59SOL    HW1 1076   2.206   0.162   3.912 -3.7608 -0.5428  1.2960
   59SOL    HW2 1077   2.073   0.177   3.819 -0.4525 -0.3124 -3.7889
   60SOL     OW 1078   2.828   6.997   5.638  0.5198 -0.1154 -0.7048
   60SOL    HW1 1079   2.815   6.900   5.654 -0.2443  0.1516  0.4477
   60SOL    HW2 1080   2.829   7.045   5.726  3.3437  0.6452 -1.0618
   61SOL     OW 1081   5.276   5.945   3.755 -0.3931 -0.1224 -0.2185
   61SOL    HW1 1082   5.244   5.925   3.663 -0.9418 -0.4272  0.0351
   61SOL    HW2 1083   5.245   6.036   3.782 -0.2096 -0.0224 -0.3426
   62SOL     OW 1084   3.359   0.998   4.833  0.4110  0.3900  0.0314
   62SOL    HW1 1085   3.317   0.929   4.774 -0.1231  0.1917  0.6245
   62SOL    HW2 1086   3.387   0.955   4.920  2.4950  0.3722 -0.6003
   63SOL     OW 1087   5.675   3.235   4.420 -0.1160  0.0575  0.4466
   63SOL    HW1 1088   5.627   3.166   4.475  0.5419 -0.3365  0.5397
   63SOL    HW2 1089   5.663   3.325   4.461 -0.7422 -0.0373  0.4864
   64SOL     OW 1090   6.038   5.131   6.135 -0.1356 -0.3139  0.5390
   64SOL    HW1 1091   5.955   5.134   6.190 -0.5401 -1.7086  0.0588
   64SOL    HW2 1092   6.039   5.046   6.081  1.9680 -0.7050  1.0997
   65SOL     OW 1093   6.233   4.895   3.511 -0.2861 -0.0129  0.4055
   65SOL    HW1 1094   6.180   4.918   3.592 -0.5722 -1.6328  0.7112
   65SOL    HW2 1095   6.329   4.879   3.537 -0.6957 -2.2265  0.7864
   66SOL     OW 1096   3.646   6.786   0.879  0.2609 -0.0034  0.0425
   66SOL    HW1 1097   3.696   6.700   0.869 -0.4514 -0.5182  0.7292
   66SOL    HW2 1098   3.693   6.844   0.947 -0.1426 -0.5495  0.8005
   67SOL     OW 1099   4.494   5.862   4.584  0.2142 -0.1846  0.2511
   67SOL    HW1 1100   4.571   5.903   4.535  0.6327 -0.9170  0.2652
   67SOL    HW2 1101   4.464   5.923   4.657 -0.0260  0.6562 -0.5331
   68SOL     OW 1102   6.162   1.205   0.029 -0.0001  0.4429  0.1301
   68SOL    HW1 1103   6.098   1.177   0.101 -0.0045  0.5962  0.1850
   68SOL    HW2 1104   6.146   1.150  -0.053  0.8344 -0.5919  0.6428
   69SOL     OW 1105   3.184   3.275   6.451  0.0889  0.2109  0.4346
   69SOL    HW1 1106   3.132   3.298   6.533  1.7582  2.2771  0.9806
   69SOL    HW2 1107   3.120   3.264   6.374 -1.3335  0.1457  1.5763
   70SOL     OW 1108   2.686   5.441   3.585  0.5070 -0.0108 -0.0111
   70SOL    HW1 1109   2.770   5.447   3.531  1.6084  0.7610  1.6689
   70SOL    HW2 1110   2.635   5.527   3.579  0.1805 -0.2388 -0.5054
   71SOL     OW 1111   0.832   1.931   2.810  0.5085  0.3364  0.8797
   71SOL    HW1 1112   0.756   1.879   2.771 -0.7417  2.3108  0.5460
   71SOL    HW2 1113   0.903   1.867   2.841 -0.1931 -1.4723 -0.9773
   72SOL     OW 1114   2.374   5.183   5.526 -0.0916 -0.3579  0.3206
   72SOL    HW1 1115   2.308   5.256   5.506 -0.2173 -0.6285 -0.2834
   72SOL    HW2 1116   2.413   5.197   5.616 -2.9747 -1.6355  1.9340
   73SOL     OW 1117   6.267   2.417   0.750 -0.3018 -0.4981 -0.5986
   73SOL    HW1 1118   6.338   2.387   0.813 -0.8674 -0.7189 -0.0549
   73SOL    HW2 1119   6.187   2.358   0.760 -0.7606  0.0855 -0.8080
   74SOL     OW 1120   6.079   6.782   0.377  0.1154 -0.1600  0.3531
   74SOL    HW1 1121   5.996   6.782   0.433 -0.5902 -1.8070 -0.6080
   74SOL    HW2 1122   6.145   6.718   0.416  0.5534  0.4274  0.5804
   75SOL     OW 1123   3.149   4.967   4.871 -0.1839  0.4019  0.2657
   75SOL    HW1 1124   3.082   4.917   4.816  0.2541  0.4764 -0.3528
   75SOL    HW2 1125   3.109   4.993   4.958 -0.7350 -0.1588  0.1837
   76SOL     OW 1126   2.870   4.901   1.437  0.0071  0.1999  0.5476
   76SOL    HW1 1127   2.831   4.935   1.523  0.1170 -0.9973  1.0883
   76SOL    HW2 1128   2.815   4.934   1.360 -0.5412  0.6577  1.1304
   77SOL     OW 1129   5.496   2.831   4.968 -0.3476  0.0339  0.1158
   77SOL    HW1 1130   5.440   2.913   4.981 -1.4765 -0.8347  0.8738
   77SOL    HW2 1131   5.437   2.750   4.966  0.7162 -0.7443 -0.9467
   78SOL     OW 1132   4.926   0.826   5.044  0.1561 -0.2825 -0.7419
   78SOL    HW1 1133   4.946   0.736   5.082 -0.2049 -0.1586 -0.2518
   78SOL    HW2 1134   4.967   0.896   5.102 -2.0938  0.0147  0.6123
   79SOL     OW 1135   4.142   0.943   6.943 -0.5880 -0.3257 -0.0224
   79SOL    HW1 1136   4.068   0.889   6.983 -0.3180  0.0181  0.9895
   79SOL    HW2 1137   4.122   1.041   6.954  0.1186 -0.2248  0.4947
   80SOL     OW 1138   1.008   2.294   4.465 -0.5011 -0.3466  0.2846
   80SOL    HW1 1139   1.005   2.218   4.530 -0.7250  0.2668  1.0210
   80SOL    HW2 1140   1.102   2.327   4.456 -0.3138 -1.0743 -0.4830
   81SOL     OW 1141   1.343   2.481   3.336 -0.7320  0.2561  0.6004
   81SOL    HW1 1142   1.393   2.531   3.406  0.4357 -1.2900  0.9289
   81SOL    HW2 1143   1.345   2.532   3.250  0.3229  0.8354  0.9567
   82SOL     OW 1144   6.489   5.115   5.680 -0.1698  0.3925  0.7108
   82SOL    HW1 1145   6.572   5.125   5.625  0.0691  1.4268  1.2276
   82SOL    HW2 1146   6.505   5.047   5.752 -0.1530 -0.2318  0.1251
   83SOL     OW 1147   5.468   6.852   6.289 -0.0649 -0.0232 -0.1399
   83SOL    HW1 1148   5.491   6.947   6.264 -0.7249 -0.0099 -0.7437
   83SOL    HW2 1149   5.550   6.795   6.283  0.0479  0.2228 -1.2310
   84SOL     OW 1150   5.232   2.839   6.629 -1.0076 -0.0893 -0.0593
   84SOL    HW1 1151   5.205   2.929   6.662 -3.0937 -1.1157  1.2763
   84SOL    HW2 1152   5.300   2.800   6.691 -0.5541  0.3024 -0.3012
   85SOL     OW 1153   1.144   1.015   6.921  0.0021  0.1908  0.3813
   85SOL    HW1 1154   1.194   1.094   6.957  0.8336 -1.1410  2.3032
   85SOL    HW2 1155   1.149   0.940   6.987 -0.9994 -1.3894 -1.2681
   86SOL     OW 1156   0.104   0.693   4.849 -0.4327  0.2968  0.1734
   86SOL    HW1 1157   0.074   0.674   4.756  2.0838 -0.6525 -0.5171
   86SOL    HW2 1158   0.117   0.607   4.898  1.0982  0.6339  0.4050
   87SOL     OW 1159   4.564   2.524   0.991  0.0961  0.1855  0.8355
   87SOL    HW1 1160   4.518   2.469   1.060 -2.5224 -0.9240 -1.5600
   87SOL    HW2 1161   4.520   2.614   0.985 -0.6921 -0.2418 -0.2653
   88SOL     OW 1162   5.927   1.352   0.561 -0.2135 -0.2098  0.4269
   88SOL    HW1 1163   5.849   1.356   0.623  0.1285  1.0351  0.8208
   88SOL    HW2 1164   5.896   1.335   0.468 -0.8196 -1.1285  0.7838
   89SOL     OW 1165   0.698   2.661   6.792  0.2256  0.6941  0.1704
   89SOL    HW1 1166   0.719   2.563   6.791 -2.6121 -0.0898  3.1616
   89SOL    HW2 1167   0.679   2.691   6.699 -0.6055 -2.0257 -0.6438
   90SOL     OW 1168   5.923   6.306   5.179 -0.3786  0.5447 -0.5119
   90SOL    HW1 1169   5.880   6.238   5.121  1.5169 -0.2986 -0.9941
   90SOL    HW2 1170   5.877   6.309   5.268 -0.1005 -1.8809 -0.2248
   91SOL     OW 1171   4.889   3.679   3.341  0.0179  0.5316  0.3100
   91SOL    HW1 1172   4.871   3.654   3.246 -1.4299 -0.4387  0.7977
   91SOL    HW2 1173   4.881   3.598   3.399  0.2297  1.2244  1.3414
   92SOL     OW 1174   2.340   4.866   1.554 -0.5855 -0.7296  0.0466
   92SOL    HW1 1175   2.410   4.839   1.620  0.5406 -0.5800 -1.0479
   92SOL    HW2 1176   2.357   4.959   1.523 -1.6797 -0.4454  0.2579
   93SOL     OW 1177   4.420   6.771   5.981  0.2428 -0.1145  0.0168
   93SOL    HW1 1178   4.339   6.723   6.017 -0.0229  0.6373  0.4524
   93SOL    HW2 1179   4.394   6.825   5.901  0.9191 -2.1138 -1.6438
   94SOL     OW 1180   4.217   0.095   0.736  0.0540  0.2951  0.5661
   94SOL    HW1 1181   4.135   0.146   0.764  0.7776  1.3372  0.8840
   94SOL    HW2 1182   4.273   0.153   0.676  0.5506 -0.4060  0.3429
   95SOL     OW 1183   1.376   6.634   2.781 -0.1793 -0.4322 -0.3128
   95SOL    HW1 1184   1.453   6.571   2.794  1.0179  1.0038 -0.1866
   95SOL    HW2 1185   1.362   6.687   2.865 -0.3345  0.3492 -0.8229
   96SOL     OW 1186   2.033   1.034   4.351 -0.1614 -0.0701 -0.2565
   96SOL    HW1 1187   2.088   1.025   4.435  0.2436  1.6493 -0.2904
   96SOL    HW2 1188   2.048   0.955   4.293  1.6514 -0.0536  0.1271
   97SOL     OW 1189   5.624   1.935   3.502 -0.1246  0.1264  0.4677
   97SOL    HW1 1190   5.700   1.995   3.525  0.1589 -0.0951  0.1169
   97SOL    HW2 1191   5.554   1.986   3.452 -0.4423  0.4520  1.2261
   98SOL     OW 1192   4.280   2.474   6.766 -0.4377 -0.4411  0.0611
   98SOL    HW1 1193   4.333   2.547   6.809  2.1956 -1.8307 -0.5999
   98SOL    HW2 1194   4.288   2.482   6.666 -2.0345 -0.3412 -0.0759
   99SOL     OW 1195   5.546   0.009   1.071  0.2875  0.2157  0.5549
   99SOL    HW1 1196   5.453  -0.027   1.063  0.6911 -0.6689 -0.2954
   99SOL    HW2 1197   5.558   0.085   1.008  1.1872 -1.9691 -2.0983
  100SOL     OW 1198   0.861   6.055   6.929  0.2933  0.4147  0.2191
  100SOL    HW1 1199   0.931   5.988   6.904  0.2944 -0.6224  2.7556
  100SOL    HW2 1200   0.778   6.038   6.875  0.9196 -0.3730 -0.5271
  101SOL     OW 1201   2.711   6.385   5.062 -0.7528  0.0284 -0.0612
  101SOL    HW1 1202   2.782   6.328   5.021 -0.5773 -0.7850  1.3113
  101SOL    HW2 1203   2.736   6.481   5.054 -0.1506 -0.1814 -0.7631
  102SOL     OW 1204   4.349   0.771   4.258 -0.0803  0.2099  0.0438
  102SOL    HW1 1205   4.250   0.765   4.240 -0.2435 -4.2276  1.1224
  102SOL    HW2 1206   4.364   0.781   4.356  0.6186  1.8750 -0.2070
  103SOL     OW 1207   3.525   1.787   2.601 -0.6682  0.1336  0.0355
  103SOL    HW1 1208   3.545   1.715   2.535  0.0499  0.9688 -0.6832
  103SOL    HW2 1209   3.562   1.874   2.569 -1.8558  0.9251  0.6868
  104SOL     OW 1210   0.370   6.757   2.620  0.0227 -0.3512  0.3223
  104SOL    HW1 1211   0.340   6.786   2.710 -0.0802  0.9103 -0.0976
  104SOL    HW2 1212   0.296   6.769   2.554 -0.1539 -1.9680  0.1752
  105SOL     OW 1213   3.642   1.790   5.670  0.2454  0.3708 -0.3636
  105SOL    HW1 1214   3.677   1.875   5.709 -2.5666  1.6992 -0.5354
  105SOL    HW2 1215   3.628   1.801   5.572  0.3150 -0.4646 -0.4746
  106SOL     OW 1216   2.401   6.790   6.334  0.1575  0.1448  0.8554
  106SOL    HW1 1217   2.345   6.864   6.369 -0.9165 -0.1297 -0.2001
  106SOL    HW2 1218   2.452   6.748   6.409  0.0341  1.3077  1.6126
  107SOL     OW 1219   3.155   3.389   0.305 -0.0565 -0.0544 -0.4268
  107SOL    HW1 1220   3.091   3.319   0.273 -2.4789  1.2053  1.2409
  107SOL    HW2 1221   3.196   3.360   0.391 -0.3324  0.1374 -0.2254
  108SOL     OW 1222   4.643   5.442   5.747  0.2541 -0.3865 -0.2815
  108SOL    HW1 1223   4.698   5.464   5.828  1.6024 -4.5048  0.1628
  108SOL    HW2 1224   4.703   5.427   5.669 -0.3701 -2.7158 -0.3786
  109SOL     OW 1225   0.392   0.301   0.604 -0.2135  0.0990  0.0296
  109SOL    HW1 1226   0.442   0.216   0.586  0.0525  0.1703  0.4341
  109SOL    HW2 1227   0.452   0.367   0.648 -0.3287  0.6209 -0.5812
  110SOL     OW 1228   5.643   6.116   6.521  0.7644 -0.3130 -0.5400
  110SOL    HW1 1229   5.552   6.135   6.558  0.4658 -1.5675 -0.5597
  110SOL    HW2 1230   5.702   6.195   6.534  0.3356 -0.2773  1.5410
  111SOL     OW 1231   3.372   1.643   3.618  0.5745 -0.2601  0.1797
  111SOL    HW1 1232   3.285   1.595   3.631  0.4124  0.1766  0.7790
  111SOL    HW2 1233   3.438   1.610   3.685  0.4299  0.4170  0.6622
  112SOL     OW 1234   6.519   6.632   0.774 -0.2870 -0.0834 -0.4454
  112SOL    HW1 1235   6.511   6.582   0.688 -1.3352 -0.0438 -0.3835
  112SOL    HW2 1236   6.586   6.706   0.764 -0.4965 -0.0023 -1.2545
  113SOL     OW 1237   6.377   3.338   2.319 -0.2316  0.1612 -0.0601
  113SOL    HW1 1238   6.397   3.269   2.388 -2.0152 -0.5458 -0.2021
  113SOL    HW2 1239   6.281   3.334   2.294  0.2729  0.6192 -2.3557
  114SOL     OW 1240   0.830   0.337   1.591  0.9172 -0.0235  0.2398
  114SOL    HW1 1241   0.818   0.386   1.677 -1.1792  0.2741 -0.1762
  114SOL    HW2 1242   0.787   0.247   1.597  2.5704 -0.8658  0.1573
  115SOL     OW 1243   6.666   6.276   2.954  0.2749 -0.1067 -0.2240
  115SOL    HW1 1244   6.570   6.251   2.964  0.0993  0.3312 -0.7934
  115SOL    HW2 1245   6.713   6.207   2.899 -0.2833  0.9269 -2.0860
  116SOL     OW 1246   5.657   3.405   1.119 -1.3958 -0.0452 -0.5878
  116SOL    HW1 1247   5.569   3.363   1.095 -0.6639 -0.8556 -2.0182
  116SOL    HW2 1248   5.730   3.359   1.068 -0.1008  0.4307  0.7728
  117SOL     OW 1249   1.338   6.441   6.657 -0.5648  0.5996 -0.2096
  117SOL    HW1 1250   1.250   6.419   6.615 -1.3898  2.0515  0.6651
  117SOL    HW2 1251   1.349   6.540   6.662 -0.2603  0.5073  2.3856
  118SOL     OW 1252   6.487   1.936   1.925  0.4690 -0.4035 -0.1918
  118SOL    HW1 1253   6.497   1.984   1.837  0.9278 -0.9253 -0.4303
  118SOL    HW2 1254   6.488   1.837   1.909  1.3071 -0.5161  0.4757
  119SOL     OW 1255   0.499   1.373   6.006 -1.0272 -0.0566  0.2985
  119SOL    HW1 1256   0.571   1.362   6.074  0.6345 -1.6713 -1.6235
  119SOL    HW2 1257   0.478   1.470   5.995 -0.0225  0.3542  1.7352
  120SOL     OW 1258   5.202   0.927   1.249  0.3205 -0.0300  0.0770
  120SOL    HW1 1259   5.236   1.021   1.243  0.4243 -0.1028 -0.6084
  120SOL    HW2 1260   5.112   0.922   1.206 -0.2813  0.0257  1.2955
  121SOL     OW 1261   3.491   2.988   5.792  0.7161  0.2818 -0.2988
  121SOL    HW1 1262   3.495   2.888   5.792 -1.3798  0.1650  0.0035
  121SOL    HW2 1263   3.496   3.021   5.698  3.9691  0.1024 -0.3049
  122SOL     OW 1264   0.568   2.108   4.012 -0.1996  0.1753  0.0076
  122SOL    HW1 1265   0.506   2.080   3.940 -0.0651  2.4395 -1.0885
  122SOL    HW2 1266   0.517   2.153   4.085  0.0022  1.0262 -0.3613
  123SOL     OW 1267   0.873   1.005   2.169  0.0081 -0.5097  0.9010
  123SOL    HW1 1268   0.932   1.044   2.240 -0.7700  0.9214  0.7963
  123SOL    HW2 1269   0.885   1.056   2.084 -1.6890  0.1286  1.0028
  124SOL     OW 1270   3.768   2.868   1.304  0.5002  0.2275 -0.3791
  124SOL    HW1 1271   3.779   2.966   1.288  0.5368 -0.1092 -2.9195
  124SOL    HW2 1272   3.704   2.853   1.379  1.1121  2.1697  0.5940
  125SOL     OW 1273   2.255   2.930   4.202 -0.0379  0.2817  0.5027
  125SOL    HW1 1274   2.352   2.951   4.185 -0.5803  1.7485 -1.1800
  125SOL    HW2 1275   2.221   2.869   4.131 -0.6214  0.7075  0.4065
  126SOL     OW 1276   2.013   5.103   1.659  0.0907  0.0828 -0.0515
  126SOL    HW1 1277   2.100   5.113   1.706  0.2873  1.0540 -0.5963
  126SOL    HW2 1278   1.982   5.192   1.627 -0.4942 -0.4256 -0.9494
  127SOL     OW 1279   6.598   6.011   1.252 -0.1324  0.2991  0.0116
  127SOL    HW1 1280   6.542   5.970   1.324 -1.1092  0.4081 -0.6685
  127SOL    HW2 1281   6.614   5.944   1.180  1.3914 -0.0148  0.6085
  128SOL     OW 1282   5.586   2.971   3.033 -0.0836  0.1817  0.0391
  128SOL    HW1 1283   5.584   3.068   3.011  1.2794  0.6379  1.7277
  128SOL    HW2 1284   5.513   2.950   3.099 -1.5534 -0.3609 -1.6783
  129SOL     OW 1285   3.352   2.319   5.729 -0.0865 -0.1369 -0.0243
  129SOL    HW1 1286   3.419   2.357   5.792 -0.2062  0.1839 -0.0919
  129SOL    HW2 1287   3.355   2.367   5.642  0.7264 -1.1870 -0.6067
  130SOL     OW 1288   0.861   0.637   3.135  0.4914  0.0230  0.5179
  130SOL    HW1 1289   0.832   0.570   3.068  1.9331 -0.2318  0.1206
  130SOL    HW2 1290   0.858   0.597   3.227 -1.4707  0.3694  0.6305
  131SOL     OW 1291   5.043   2.423   4.989 -0.6548  0.1251  0.2974
  131SOL    HW1 1292   5.016   2.342   4.937 -0.1023  1.0801 -1.5555
  131SOL    HW2 1293   5.004   2.504   4.946  0.5631  1.0352  0.8630
  132SOL     OW 1294   1.193   2.666   1.497 -0.2351 -0.2535  0.3276
  132SOL    HW1 1295   1.202   2.651   1.596 -1.4125  4.0782  1.2848
  132SOL    HW2 1296   1.231   2.755   1.473 -1.9251 -0.2409 -2.8117
  133SOL     OW 1297   0.513   5.795   3.001  0.0383  0.1118  0.1545
  133SOL    HW1 1298   0.568   5.713   3.019  0.0456 -0.1344 -0.9366
  133SOL    HW2 1299   0.435   5.797   3.065  0.3358 -0.4616  0.5417
  134SOL     OW 1300   0.493   2.769   3.323 -0.0575  0.9269 -0.3369
  134SOL    HW1 1301   0.519   2.706   3.396  0.8714  3.1417  1.3970
  134SOL    HW2 1302   0.398   2.752   3.297  0.4184 -1.7102 -0.6313
  135SOL     OW 1303   5.211   1.937   4.096 -0.4509 -0.1333 -0.0591
  135SOL    HW1 1304   5.186   1.949   4.192 -0.1227  1.1471 -0.1134
  135SOL    HW2 1305   5.262   1.852   4.086 -1.1510 -0.6735  0.7594
  136SOL     OW 1306   5.135   6.520   4.478  0.1860 -0.3537 -0.8578
  136SOL    HW1 1307   5.196   6.527   4.399  1.0677 -0.5016 -0.2052
  136SOL    HW2 1308   5.146   6.601   4.536 -1.7204  0.6119 -1.7343
  137SOL     OW 1309   5.330   0.928   5.985 -0.4485  0.7777 -0.3851
  137SOL    HW1 1310   5.318   0.843   5.933 -1.4482  1.4284 -1.2440
  137SOL    HW2 1311   5.426   0.957   5.978 -0.1006 -0.2402 -0.1161
  138SOL     OW 1312   5.532   5.958   5.105  0.1109 -0.4156  0.1535
  138SOL    HW1 1313   5.432   5.965   5.105  0.0945 -0.3352  1.5505
  138SOL    HW2 1314   5.558   5.862   5.118  0.1955 -0.3529  0.4719
  139SOL     OW 1315   3.802   5.468   5.664  0.4091  0.0766 -0.2689
  139SOL    HW1 1316   3.807   5.506   5.572 -0.0685 -2.4475 -1.4014
  139SOL    HW2 1317   3.710   5.480   5.701  0.3231  0.2136 -0.5288
  140SOL     OW 1318   6.073   5.364   4.276  0.4965  0.2916  0.8590
  140SOL    HW1 1319   5.973   5.360   4.270  0.5709  0.2332 -0.6812
  140SOL    HW2 1320   6.105   5.452   4.241  1.0425 -0.1247  0.3026
  141SOL     OW 1321   1.759   2.122   3.756  0.1788 -0.1616 -0.0068
  141SOL    HW1 1322   1.821   2.065   3.810 -2.1866 -1.2699  1.7580
  141SOL    HW2 1323   1.731   2.201   3.810 -2.7599 -1.6392  0.8748
  142SOL     OW 1324   1.961   6.150   0.071  0.0070 -0.5725  0.2558
  142SOL    HW1 1325   1.874   6.108   0.044  0.4179  0.1120 -2.3984
  142SOL    HW2 1326   2.026   6.079   0.097 -0.7729 -1.2112  0.4889
  143SOL     OW 1327   5.501   4.992   2.697  0.3714  0.3766  0.1394
  143SOL    HW1 1328   5.562   4.944   2.634  0.5018 -1.2917  1.4693
  143SOL    HW2 1329   5.530   4.974   2.791 -1.7560  0.0932  0.7877
  144SOL     OW 1330   1.059   5.570   5.818  0.0224 -0.4951  0.2733
  144SOL    HW1 1331   1.118   5.591   5.895 -0.2313 -1.7687  0.8438
  144SOL    HW2 1332   1.114   5.537   5.741  0.0643 -2.4402  1.0656
  145SOL     OW 1333   1.644   4.462   3.032 -0.3007  0.2189 -0.0102
  145SOL    HW1 1334   1.588   4.428   2.956  1.9794  0.4697 -1.9447
  145SOL    HW2 1335   1.602   4.438   3.119 -2.0320 -1.8652 -1.3346
  146SOL     OW 1336   5.802   6.333   1.119  0.0678  0.0743 -0.3040
  146SOL    HW1 1337   5.736   6.342   1.045 -0.2502  0.7936  0.0515
  146SOL    HW2 1338   5.800   6.240   1.155  0.0228 -0.1990 -1.0065
  147SOL     OW 1339   4.969   3.347   6.948 -0.0225  0.1072 -0.1690
  147SOL    HW1 1340   4.945   3.412   6.875 -1.4875 -0.5406 -0.2811
  147SOL    HW2 1341   4.958   3.392   7.037 -0.0938  0.3023 -0.2743
  148SOL     OW 1342   0.755   6.139   5.207 -0.5213 -0.4783  0.6148
  148SOL    HW1 1343   0.780   6.195   5.128 -1.0631  0.5477  1.1437
  148SOL    HW2 1344   0.837   6.117   5.260 -0.4693  1.3563  1.3700
  149SOL     OW 1345   4.644   1.444   4.847  0.7234  0.8869 -0.0368
  149SOL    HW1 1346   4.572   1.459   4.915 -0.8977 -0.1722 -1.4458
  149SOL    HW2 1347   4.704   1.371   4.878 -0.3399  0.0170  0.0362
  150SOL     OW 1348   6.762   5.360   0.264  0.3547 -0.2043  0.2888
  150SOL    HW1 1349   6.703   5.403   0.332 -0.2811 -0.0469 -0.3467
  150SOL    HW2 1350   6.705   5.319   0.192  1.0206  0.4617 -0.6397
  151SOL     OW 1351   3.378   2.685   0.064  0.7547 -0.4396  0.2290
  151SOL    HW1 1352   3.413   2.745   0.136  2.6163 -1.9391  0.6535
  151SOL    HW2 1353   3.295   2.640   0.097  0.1369  0.7911  0.4305
  152SOL     OW 1354   3.056   1.740   4.570 -0.5191  0.2006  0.1755
  152SOL    HW1 1355   3.041   1.669   4.501 -0.7279 -1.7371  2.1069
  152SOL    HW2 1356   2.967   1.773   4.603 -0.4890  2.8311 -1.9990
  153SOL     OW 1357   3.205   1.103   4.504 -0.0068  0.2439  0.6362
  153SOL    HW1 1358   3.106   1.099   4.488 -0.2367  0.0850  2.0267
  153SOL    HW2 1359   3.252   1.059   4.428 -0.9804  0.5879 -0.2015
  154SOL     OW 1360   6.697   1.888   1.560 -0.1609  0.4451  0.4471
  154SOL    HW1 1361   6.651   1.800   1.575 -0.9054  0.7242 -0.1386
  154SOL    HW2 1362   6.716   1.899   1.462 -0.0062  0.9117  0.5291
  155SOL     OW 1363   1.293   5.928   3.443  0.0002 -0.6693  0.2513
  155SOL    HW1 1364   1.238   5.845   3.445  0.0364 -0.6989  0.0178
  155SOL    HW2 1365   1.323   5.951   3.536 -0.3990 -0.6567  0.3780
  156SOL     OW 1366   6.637   3.197   6.041 -0.2339 -0.2576 -0.0687
  156SOL    HW1 1367   6.719   3.140   6.052  1.5844  2.4283  1.4960
  156SOL    HW2 1368   6.591   3.173   5.956  1.7493 -2.3659 -0.6519
  157SOL     OW 1369   6.187   3.141   6.851  0.2103 -0.6486 -0.2867
  157SOL    HW1 1370   6.283   3.121   6.870  0.4384 -0.9440 -1.6217
  157SOL    HW2 1371   6.135   3.056   6.848 -0.4928 -0.3743  2.2414
  158SOL     OW 1372   1.918   0.794   0.306  0.5572 -0.6377  0.0583
  158SOL    HW1 1373   1.959   0.883   0.287 -0.5008 -0.1417  0.0208
  158SOL    HW2 1374   1.957   0.725   0.245  0.3463  0.0841 -0.9120
  159SOL     OW 1375   5.686   3.224   1.607 -0.3424  0.2553 -0.2106
  159SOL    HW1 1376   5.650   3.245   1.698 -0.2190  0.3744 -0.1888
  159SOL    HW2 1377   5.632   3.272   1.538  0.2136  1.0168 -0.1343
  160SOL     OW 1378   5.576   3.717   6.203  0.6130 -0.3850  0.3040
  160SOL    HW1 1379   5.565   3.790   6.135  3.9233 -1.1129 -1.2673
  160SOL    HW2 1380   5.531   3.742   6.288 -1.7294  1.6449 -1.4058
  161SOL     OW 1381   1.070   6.093   6.402 -0.2102 -0.5275  0.0322
  161SOL    HW1 1382   1.165   6.070   6.423  0.0113 -2.3806 -2.5259
  161SOL    HW2 1383   1.065   6.186   6.366  0.7393 -0.6571 -0.4558
  162SOL     OW 1384   4.962   6.823   0.461 -0.4800 -0.1544 -0.2053
  162SOL    HW1 1385   4.928   6.740   0.505  1.6132  0.3345  2.6200
  162SOL    HW2 1386   5.039   6.800   0.401 -2.0925 -0.5893 -2.1883
  163SOL     OW 1387   4.369   0.162   2.446 -0.0047 -0.9047  0.5723
  163SOL    HW1 1388   4.398   0.165   2.350 -1.0404  0.3655  0.2737
  163SOL    HW2 1389   4.434   0.212   2.502  0.1539 -0.9172  0.4015
  164SOL     OW 1390   5.967   5.949   6.836 -0.5868 -0.0709 -0.6786
  164SOL    HW1 1391   6.047   5.924   6.781 -1.1803 -1.1741 -1.0719
  164SOL    HW2 1392   5.986   5.934   6.933  0.1098  0.8909 -0.6546
  165SOL     OW 1393   2.707   3.193   0.671 -0.1293  0.0890  0.1406
  165SOL    HW1 1394   2.706   3.097   0.644  2.0891  0.3238 -0.9272
  165SOL    HW2 1395   2.699   3.251   0.590  0.1308  0.8143  0.6182
  166SOL     OW 1396   0.097   5.599   1.897  0.2757 -0.1315  0.2827
  166SOL    HW1 1397   0.062   5.659   1.825 -0.7713  1.4219  2.0096
  166SOL    HW2 1398   0.197   5.605   1.899  0.3492 -0.3738 -1.1335
  167SOL     OW 1399   5.803   4.128   6.437  0.5440  0.2394 -0.2967
  167SOL    HW1 1400   5.790   4.225   6.417  1.0379  0.6933  1.4345
  167SOL    HW2 1401   5.839   4.081   6.356 -3.0760  0.7218 -2.3949
  168SOL     OW 1402   3.013   5.183   0.368 -0.5974 -0.5120 -0.0050
  168SOL    HW1 1403   3.100   5.137   0.355 -0.6108 -0.6527  0.4089
  168SOL    HW2 1404   2.957   5.132   0.432 -0.9790 -0.4100 -0.2523
  169SOL     OW 1405   0.796   0.443   1.835 -0.2117 -0.0576  0.2548
  169SOL    HW1 1406   0.809   0.542   1.838  0.8093 -0.2081  1.4530
  169SOL    HW2 1407   0.874   0.398   1.877 -1.5917 -1.2959  1.6099
  170SOL     OW 1408   6.598   1.594   4.101  0.5031 -0.3662 -0.0797
  170SOL    HW1 1409   6.553   1.572   4.188  0.6801  1.4769  0.5376
  170SOL    HW2 1410   6.633   1.688   4.105 -0.9070  0.3599 -2.7235
  171SOL     OW 1411   3.244   3.878   0.339  0.3584  0.7288 -0.5510
  171SOL    HW1 1412   3.315   3.819   0.378  1.9623  2.8015 -0.1567
  171SOL    HW2 1413   3.287   3.954   0.290 -1.6238  0.4363 -2.9342
  172SOL     OW 1414   0.110   3.613   4.620  0.4581  0.2802 -0.9653
  172SOL    HW1 1415   0.067   3.571   4.540 -1.8648  1.8106 -0.5954
  172SOL    HW2 1416   0.165   3.691   4.590  0.4300  0.2319 -1.1438
  173SOL     OW 1417   0.764   1.520   2.809 -0.9956 -0.3041 -0.3564
  173SOL    HW1 1418   0.817   1.481   2.734  1.2235 -1.0070  1.4916
  173SOL    HW2 1419   0.736   1.448   2.872 -0.2326  0.5682  1.0418
  174SOL     OW 1420   1.765   4.783   1.576 -0.2183 -0.1617  0.2472
  174SOL    HW1 1421   1.863   4.783   1.556 -0.3503 -0.2945 -0.4353
  174SOL    HW2 1422   1.725   4.871   1.549 -0.0817  0.3648  1.6581
  175SOL     OW 1423   4.331   6.173   3.247 -0.5410 -0.6335 -0.1283
  175SOL    HW1 1424   4.286   6.217   3.324 -1.4012  0.1036 -1.0340
  175SOL    HW2 1425   4.309   6.075   3.247  2.5222 -1.5221  2.7182
  176SOL     OW 1426   1.677   4.283   0.312 -0.3474 -0.3093 -0.6898
  176SOL    HW1 1427   1.746   4.296   0.383 -1.7282  1.3383  0.4130
  176SOL    HW2 1428   1.723   4.271   0.223  1.3566 -0.0276  0.1078
  177SOL     OW 1429   5.852   2.082   1.811  0.0893 -0.2406 -0.2234
  177SOL    HW1 1430   5.883   2.157   1.752  0.3374 -1.0216 -1.1244
  177SOL    HW2 1431   5.820   2.006   1.753  0.4705 -1.0892  0.6531
  178SOL     OW 1432   5.995   4.610   0.177 -0.0364 -0.5517 -0.1428
  178SOL    HW1 1433   5.962   4.685   0.234 -1.1020 -0.4986 -0.7995
  178SOL    HW2 1434   6.031   4.537   0.236  2.0779  0.9033  0.4789
  179SOL     OW 1435   2.735   0.405   0.535  0.4300  0.4448  0.2629
  179SOL    HW1 1436   2.730   0.490   0.482 -1.1370 -0.5834 -1.3649
  179SOL    HW2 1437   2.803   0.344   0.494 -0.1753 -0.0153 -0.0796
  180SOL     OW 1438   1.958   1.772   6.290  0.3047  0.1408  1.0096
  180SOL    HW1 1439   1.939   1.858   6.243 -4.1878 -0.6607  0.9367
  180SOL    HW2 1440   2.024   1.720   6.236  0.1311  1.9004 -1.0665
  181SOL     OW 1441   3.942   1.655   6.077 -0.4534 -0.0206  0.1398
  181SOL    HW1 1442   3.874   1.692   6.140  0.7015  2.1170  0.2366
  181SOL    HW2 1443   4.032   1.692   6.100  0.6251 -2.0136 -0.5751
  182SOL     OW 1444   3.434   2.100   4.625  0.3498 -0.1507 -0.0537
  182SOL    HW1 1445   3.376   2.019   4.634 -1.2134  1.0558  1.4090
  182SOL    HW2 1446   3.407   2.151   4.543  0.2029 -0.2428 -0.0643
  183SOL     OW 1447   5.577   1.463   1.293 -0.9130  0.1486  0.0382
  183SOL    HW1 1448   5.483   1.433   1.279 -0.4495 -1.7846  0.6728
  183SOL    HW2 1449   5.600   1.457   1.391  0.7859 -2.6258 -0.4220
  184SOL     OW 1450   1.207   3.900   3.674 -0.3115  0.2733  0.0892
  184SOL    HW1 1451   1.110   3.926   3.669 -0.7519 -1.3769 -1.1079
  184SOL    HW2 1452   1.252   3.926   3.588  0.7409  2.4259  1.2221
  185SOL     OW 1453   1.177   3.353   0.236  0.5714  0.2897  0.3635
  185SOL    HW1 1454   1.152   3.322   0.328  0.7069  0.4926  0.4697
  185SOL    HW2 1455   1.126   3.436   0.213  0.8178  0.4560  0.4089
  186SOL     OW 1456   5.247   0.793   4.523 -0.1028  0.2909 -0.5900
  186SOL    HW1 1457   5.175   0.735   4.487  1.6420 -0.8898 -2.4108
  186SOL    HW2 1458   5.306   0.740   4.584  0.2701  0.7136 -0.5748
  187SOL     OW 1459   6.833   1.885   5.397  0.4164  0.2786  0.3719
  187SOL    HW1 1460   6.742   1.926   5.397  0.0409 -0.5167 -0.3772
  187SOL    HW2 1461   6.863   1.872   5.302 -0.1461 -2.5802  0.4893
  188SOL     OW 1462   6.057   3.175   2.930  0.0482 -0.6711  0.7616
  188SOL    HW1 1463   6.132   3.130   2.979 -0.1787 -1.1711  0.6572
  188SOL    HW2 1464   6.082   3.188   2.834 -0.3826 -1.7572  0.4925
  189SOL     OW 1465   2.411   4.538   4.236 -0.4990 -0.7285  0.4734
  189SOL    HW1 1466   2.439   4.499   4.148  2.0579 -0.8263  1.2328
  189SOL    HW2 1467   2.358   4.470   4.287 -0.2225 -1.4343 -0.1589
  190SOL     OW 1468   3.585   1.771   4.728  0.0478  0.1567 -0.3511
  190SOL    HW1 1469   3.669   1.818   4.755  0.2427 -0.2619 -0.2026
  190SOL    HW2 1470   3.572   1.779   4.629 -0.2096  0.9677 -0.2551
  191SOL     OW 1471   0.671   6.344   2.525  0.7597 -0.4535  0.0705
  191SOL    HW1 1472   0.645   6.393   2.608 -0.9135  0.0854 -0.7233
  191SOL    HW2 1473   0.708   6.409   2.459  2.4493 -0.9361  0.4852
  192SOL     OW 1474   5.530   0.801   0.301  0.3691 -0.3115 -0.1313
  192SOL    HW1 1475   5.502   0.723   0.246  0.2509  0.1183 -0.6957
  192SOL    HW2 1476   5.459   0.822   0.368 -0.8294  0.9022 -1.6868
  193SOL     OW 1477   4.626   4.862   0.525  0.3825  0.2383  0.0750
  193SOL    HW1 1478   4.570   4.943   0.538 -0.0913 -0.1232  0.3312
  193SOL    HW2 1479   4.701   4.862   0.590 -0.0693  0.0858  0.6038
  194SOL     OW 1480   3.346   6.961   2.226 -0.4126  0.6433 -0.0583
  194SOL    HW1 1481   3.258   6.934   2.186  0.3962  0.3879 -1.7606
  194SOL    HW2 1482   3.375   6.891   2.292 -0.3782 -0.5050 -1.2425
  195SOL     OW 1483   1.145   5.875   4.797 -0.0848 -0.0386  0.5664
  195SOL    HW1 1484   1.222   5.847   4.853  0.5830  1.0795  0.2519
  195SOL    HW2 1485   1.100   5.794   4.759  0.8308 -0.7192  0.8861
  196SOL     OW 1486   0.974   2.700   5.371  0.1925  1.0949 -0.4271
  196SOL    HW1 1487   1.067   2.719   5.405 -0.0976 -0.6514  1.5681
  196SOL    HW2 1488   0.978   2.627   5.303  0.2872  1.0474 -0.3714
  197SOL     OW 1489   2.188   0.280   2.715  0.2374  0.1587 -0.5853
  197SOL    HW1 1490   2.277   0.302   2.755 -0.7590  2.9499  0.3141
  197SOL    HW2 1491   2.124   0.354   2.732 -1.4824 -0.3873 -3.8015
  198SOL     OW 1492   1.960   2.449   2.243  0.4821 -0.0560  0.2662
  198SOL    HW1 1493   2.000   2.474   2.331  0.2544  0.0887  0.3288
  198SOL    HW2 1494   2.031   2.447   2.173  0.6443 -0.0617  0.4308
  199SOL     OW 1495   0.974   1.736   2.944 -0.1685 -0.7782 -0.2242
  199SOL    HW1 1496   0.958   1.638   2.933 -0.6387 -0.5180 -2.2397
  199SOL    HW2 1497   1.071   1.755   2.927  0.3303 -1.0551  1.9164
  200SOL     OW 1498   5.722   2.700   6.515 -0.7044 -0.2403  0.1392
  200SOL    HW1 1499   5.659   2.774   6.490  0.9986  1.1324 -0.3199
  200SOL    HW2 1500   5.690   2.654   6.597 -2.2772  0.4155 -0.0804
  201SOL     OW 1501   5.854   0.788   6.134  0.4424 -0.3277 -0.5646
  201SOL    HW1 1502   5.811   0.873   6.165  1.4677 -0.8169  2.5264
  201SOL    HW2 1503   5.926   0.809   6.068 -1.4510  0.8568 -2.3697
  202SOL     OW 1504   4.112   0.194   0.395  0.3105 -0.1728 -0.2254
  202SOL    HW1 1505   4.178   0.124   0.421  2.1924  0.2608 -3.3224
  202SOL    HW2 1506   4.155   0.260   0.333 -1.5295  3.4425  1.9463
  203SOL     OW 1507   3.995   3.438   4.494 -0.6492 -0.1933 -0.0412
  203SOL    HW1 1508   3.943   3.357   4.520  0.0785 -0.3526  0.9954
  203SOL    HW2 1509   4.056   3.416   4.418  1.3049 -1.3449  1.7499
  204SOL     OW 1510   6.398   1.860   5.854 -0.1885 -0.1336  0.1106
  204SOL    HW1 1511   6.357   1.951   5.851  0.4872  0.2824  2.1266
  204SOL    HW2 1512   6.405   1.823   5.761 -2.3787  0.9793 -0.5512
  205SOL     OW 1513   2.000   3.578   1.800  0.2297 -0.3183 -0.3561
  205SOL    HW1 1514   1.946   3.643   1.852  0.2855  0.8550 -1.7038
  205SOL    HW2 1515   2.064   3.531   1.861  0.3109  1.0108  0.6297
  206SOL     OW 1516   0.570   2.855   1.550  0.0633 -0.1779  0.4298
  206SOL    HW1 1517   0.623   2.941   1.549 -1.6666  0.9330  0.2537
  206SOL    HW2 1518   0.478   2.873   1.515  0.1617 -2.4756 -1.1876
  207SOL     OW 1519   6.566   3.306   4.430  0.0455 -1.1924 -0.2693
  207SOL    HW1 1520   6.506   3.228   4.413 -1.8328  0.4110 -1.3329
  207SOL    HW2 1521   6.512   3.388   4.443  1.9849  0.0364  0.5731
  208SOL     OW 1522   3.095   3.509   6.299 -0.1202 -0.3249 -0.1437
  208SOL    HW1 1523   3.186   3.489   6.337  0.4593  1.3252 -0.5934
  208SOL    HW2 1524   3.102   3.521   6.200 -0.4048  1.9208  0.0677
  209SOL     OW 1525   6.948   3.868   2.700 -0.9577 -0.1872  0.2300
  209SOL    HW1 1526   7.038   3.911   2.704 -1.0564  0.2240 -1.3627
  209SOL    HW2 1527   6.892   3.901   2.776 -0.2757  0.7405  0.3465
  210SOL     OW 1528   4.477   3.014   5.520  0.5366  0.0547 -0.0335
  210SOL    HW1 1529   4.535   3.012   5.602 -1.4972  1.3612  1.5458
  210SOL    HW2 1530   4.489   3.101   5.472 -1.4987  1.2686  1.4827
  211SOL     OW 1531   1.379   1.270   4.207 -0.2817 -0.0012 -0.5476
  211SOL    HW1 1532   1.437   1.332   4.154 -0.2050 -1.2039 -1.9221
  211SOL    HW2 1533   1.416   1.178   4.201 -2.2167 -0.7691 -1.2876
  212SOL     OW 1534   2.790   4.840   2.858  0.3067 -0.0027 -0.0723
  212SOL    HW1 1535   2.851   4.861   2.781  1.2757  1.9191  1.1335
  212SOL    HW2 1536   2.836   4.777   2.920  0.0878 -0.4556 -0.3690
  213SOL     OW 1537   1.421   5.505   1.326  0.4709 -0.2836  0.1422
  213SOL    HW1 1538   1.445   5.519   1.230 -0.6687 -1.6222 -0.3687
  213SOL    HW2 1539   1.322   5.507   1.337  0.6209  1.8920  1.6669
  214SOL     OW 1540   3.777   5.943   2.479  0.1294  0.1724 -0.2524
  214SOL    HW1 1541   3.834   5.928   2.559 -1.0480 -0.3254  0.5244
  214SOL    HW2 1542   3.684   5.967   2.508  0.0732  1.5853 -1.4780
  215SOL     OW 1543   1.603   4.487   1.972  0.0109 -0.5926  0.7271
  215SOL    HW1 1544   1.677   4.425   1.998  0.8205 -0.7466 -1.6757
  215SOL    HW2 1545   1.638   4.580   1.963 -0.3197 -0.4861  0.5035
  216SOL     OW 1546   2.797   6.618   3.578  0.1068  0.2509 -0.1390
  216SOL    HW1 1547   2.835   6.695   3.628 -0.3210  1.2812 -1.3449
  216SOL    HW2 1548   2.759   6.650   3.491 -0.3888 -1.2698 -0.5169
  217SOL     OW 1549   7.015   4.185   0.622  0.3885 -0.1916  0.5152
  217SOL    HW1 1550   6.915   4.183   0.623  0.3927 -1.1855  2.2833
  217SOL    HW2 1551   7.049   4.126   0.549 -0.3162 -0.6216  0.5252
  218SOL     OW 1552   2.170   2.175   6.819  0.3189 -0.1132 -0.1902
  218SOL    HW1 1553   2.164   2.256   6.876  1.0844 -0.9212  1.0997
  218SOL    HW2 1554   2.266   2.156   6.798  0.0546  0.2256 -1.8775
  219SOL     OW 1555   3.069   1.331   0.077 -0.1718 -0.0722  0.7686
  219SOL    HW1 1556   3.133   1.408   0.072 -0.2720  0.1148  1.9378
  219SOL    HW2 1557   3.121   1.245   0.075  0.0327  0.0528  0.6326
  220SOL     OW 1558   3.968   0.878   2.860  0.9368 -0.1655  0.1580
  220SOL    HW1 1559   3.913   0.798   2.883 -0.6996  1.3611  1.9363
  220SOL    HW2 1560   4.065   0.854   2.865  0.4948 -2.2678 -0.3969
  221SOL     OW 1561   3.828   0.449   1.245  0.5226  0.1350 -0.0923
  221SOL    HW1 1562   3.903   0.388   1.271 -0.7280 -0.5344  2.2810
  221SOL    HW2 1563   3.851   0.543   1.268  0.3355 -0.1797  1.4947
  222SOL     OW 1564   2.150   3.968   6.328 -0.4160 -0.2368 -0.1097
  222SOL    HW1 1565   2.117   4.001   6.416 -0.2690 -0.6312  0.0952
  222SOL    HW2 1566   2.216   3.894   6.342 -0.6453 -0.5343 -0.5584
  223SOL     OW 1567   0.675   1.897   4.885  0.6586  0.8699 -0.2122
  223SOL    HW1 1568   0.689   1.994   4.866  2.6934  1.3451  2.9564
  223SOL    HW2 1569   0.602   1.887   4.953 -0.3267  0.0140 -1.3429
  224SOL     OW 1570   1.993   0.710   5.331  0.1901  0.1251  0.1324
  224SOL    HW1 1571   2.053   0.728   5.408  0.4624 -0.4301  0.0571
  224SOL    HW2 1572   2.025   0.761   5.251 -0.0102  0.5890  0.3455
  225SOL     OW 1573   6.296   5.766   0.475  0.0738 -0.5997 -0.4305
  225SOL    HW1 1574   6.210   5.812   0.455 -0.6454 -1.6068  0.2534
  225SOL    HW2 1575   6.360   5.830   0.519  0.2534  0.5647 -2.2862
  226SOL     OW 1576   1.609   1.195   0.872 -0.1494 -0.5334 -0.1027
  226SOL    HW1 1577   1.548   1.257   0.921  0.5573 -0.5448  0.8300
  226SOL    HW2 1578   1.571   1.102   0.875  0.5796 -0.8156  1.7392
  227SOL     OW 1579   1.673   2.648   2.242 -0.0789 -0.2601  0.4091
  227SOL    HW1 1580   1.714   2.557   2.239  0.6743  0.0872 -0.2161
  227SOL    HW2 1581   1.662   2.683   2.149 -0.1533  0.3761  0.6497
  228SOL     OW 1582   2.154   6.813   2.508  0.3296  0.3667  0.3377
  228SOL    HW1 1583   2.055   6.821   2.500  0.0217 -0.8801  2.1929
  228SOL    HW2 1584   2.184   6.729   2.462  0.4291  0.3856  0.3677
  229SOL     OW 1585   4.983   4.551   5.789  0.2541  0.1258  0.8514
  229SOL    HW1 1586   4.995   4.464   5.741 -0.2391 -0.7707  2.2810
  229SOL    HW2 1587   4.887   4.561   5.817  0.6702  0.2361  2.3243
  230SOL     OW 1588   4.524   5.887   5.893  0.3096 -0.2502 -0.6847
  230SOL    HW1 1589   4.512   5.904   5.991  0.9157  0.3719 -0.7141
  230SOL    HW2 1590   4.500   5.792   5.873  0.4667 -0.4667  0.1178
  231SOL     OW 1591   4.522   1.613   6.022  0.1847 -0.1384  0.3139
  231SOL    HW1 1592   4.601   1.665   5.991  0.6172 -1.9774 -2.0011
  231SOL    HW2 1593   4.516   1.527   5.970 -1.9427 -1.2083  2.1256
  232SOL     OW 1594   1.976   2.214   0.887 -0.2449 -0.4242  0.3977
  232SOL    HW1 1595   2.014   2.303   0.911  3.2435 -1.7171  0.2188
  232SOL    HW2 1596   1.892   2.198   0.940 -0.3935  2.4700  1.1984
  233SOL     OW 1597   3.548   1.549   3.850  0.4661  0.2662  0.3241
  233SOL    HW1 1598   3.609   1.587   3.919 -0.2737  2.4950 -0.1671
  233SOL    HW2 1599   3.454   1.553   3.883  0.2834 -0.3778 -0.0954
  234SOL     OW 1600   5.152   1.493   6.335 -0.0876  0.1639  0.1164
  234SOL    HW1 1601   5.232   1.528   6.384  0.2097  0.3244 -0.4722
  234SOL    HW2 1602   5.180   1.416   6.277 -0.3540  0.2146 -0.0812
  235SOL     OW 1603   5.219   1.029   2.069  0.2883 -0.3144  0.1435
  235SOL    HW1 1604   5.281   0.953   2.055  1.9399  1.0061 -0.0052
  235SOL    HW2 1605   5.257   1.112   2.027 -2.2235  0.2865 -1.1942
  236SOL     OW 1606   5.431   4.260   0.653 -0.1551 -0.3023  0.2606
  236SOL    HW1 1607   5.370   4.335   0.628 -0.1952 -0.9560 -1.8036
  236SOL    HW2 1608   5.471   4.221   0.570  0.5096 -2.0381  1.3451
  237SOL     OW 1609   5.365   3.607   0.450  0.3160  0.5186  0.4322
  237SOL    HW1 1610   5.430   3.669   0.406  1.2817 -1.4688 -1.1011
  237SOL    HW2 1611   5.408   3.518   0.464 -1.2332 -0.0428  1.9353
  238SOL     OW 1612   6.694   3.304   0.166 -0.0012  0.1293 -0.0095
  238SOL    HW1 1613   6.741   3.385   0.200  0.6574 -1.3635  2.9906
  238SOL    HW2 1614   6.754   3.254   0.105  0.9416  0.1570  0.8639
  239SOL     OW 1615   1.008   2.553   0.572 -0.4026 -0.2640 -0.1120
  239SOL    HW1 1616   1.027   2.627   0.507 -0.1998  0.6462  0.9515
  239SOL    HW2 1617   0.994   2.468   0.522 -0.3546  0.4292 -1.3523
  240SOL     OW 1618   5.553   2.254   4.974  0.3034  0.1846  0.2087
  240SOL    HW1 1619   5.592   2.246   4.883  0.1535 -0.9647  0.2228
  240SOL    HW2 1620   5.463   2.296   4.968  0.2104 -0.0659 -0.2029
  241SOL     OW 1621   3.744   0.019   3.523 -0.1302  0.0865  0.8142
  241SOL    HW1 1622   3.756   0.071   3.438  0.8245  2.2558  2.1873
  241SOL    HW2 1623   3.765  -0.078   3.507  1.4795  0.6922 -1.0944
  242SOL     OW 1624   3.801   3.754   4.525 -0.3630  0.4292 -0.2690
  242SOL    HW1 1625   3.876   3.784   4.584 -1.2416  0.6154  0.7835
  242SOL    HW2 1626   3.791   3.817   4.448  0.3097  0.6215 -0.2002
  243SOL     OW 1627   4.632   3.389   6.236 -0.2667  0.3587  0.3603
  243SOL    HW1 1628   4.730   3.408   6.232 -0.6139  2.4308  0.6347
  243SOL    HW2 1629   4.609   3.347   6.324  0.4334 -0.6094  0.0905
  244SOL     OW 1630   6.554   3.835   4.777 -0.2693 -0.0973 -0.3745
  244SOL    HW1 1631   6.563   3.847   4.678 -0.4059  0.8531 -0.2864
  244SOL    HW2 1632   6.592   3.747   4.804  0.0438 -0.2331 -1.2356
  245SOL     OW 1633   3.727   1.272   3.029  0.2115  0.0591 -0.2382
  245SOL    HW1 1634   3.663   1.338   2.990 -0.8321 -0.5413  0.3949
  245SOL    HW2 1635   3.820   1.309   3.026 -0.0815  0.7690 -1.5971
  246SOL     OW 1636   4.909   6.981   3.839 -0.2666  0.4021  0.3514
  246SOL    HW1 1637   4.811   6.961   3.828 -0.3962  0.0188  2.0107
  246SOL    HW2 1638   4.954   6.904   3.883  1.0860  0.0320 -1.5435
  247SOL     OW 1639   1.325   0.571   1.195 -0.0187 -0.1941  0.4589
  247SOL    HW1 1640   1.345   0.473   1.204  0.2622 -0.3978 -1.8258
  247SOL    HW2 1641   1.375   0.608   1.117 -0.4160  1.7143  1.0630
  248SOL     OW 1642   0.747   1.428   1.908  0.0998 -0.1514  0.0662
  248SOL    HW1 1643   0.665   1.455   1.958  0.4324  0.4387  0.3056
  248SOL    HW2 1644   0.775   1.336   1.935 -0.1535 -0.1272  0.4105
  249SOL     OW 1645   6.014   1.039   6.719 -0.1870  0.2888  0.2148
  249SOL    HW1 1646   5.971   0.950   6.701  0.4807  0.0550 -0.2795
  249SOL    HW2 1647   6.068   1.034   6.803  2.4997 -0.8017 -1.4287
  250SOL     OW 1648   2.021   1.829   0.926  0.6736 -0.3160  0.2988
  250SOL    HW1 1649   1.937   1.863   0.969 -0.0827 -0.8104 -0.7493
  250SOL    HW2 1650   2.089   1.903   0.924  0.3386  0.0486  1.2956
  251SOL     OW 1651   6.428   5.428   0.817  0.4793  0.2593  0.6274
  251SOL    HW1 1652   6.479   5.393   0.896  0.0373 -3.3181 -0.5131
  251SOL    HW2 1653   6.492   5.457   0.746  0.8810  0.1863  0.9537
  252SOL     OW 1654   6.204   5.726   3.572 -0.0105 -0.1971  0.0396
  252SOL    HW1 1655   6.192   5.806   3.629 -1.2917 -0.3834  0.0481
  252SOL    HW2 1656   6.191   5.751   3.476 -1.0895 -0.5127  0.0935
  253SOL     OW 1657   5.458   6.804   0.351  0.2207 -0.1518 -0.0370
  253SOL    HW1 1658   5.459   6.904   0.354  1.9066 -0.1395  0.3567
  253SOL    HW2 1659   5.498   6.768   0.436 -0.4729 -1.1634 -0.1232
  254SOL     OW 1660   4.636   1.804   4.676 -0.9470 -0.0564 -0.0036
  254SOL    HW1 1661   4.641   1.887   4.620  1.6349  0.7429  1.2528
  254SOL    HW2 1662   4.566   1.816   4.747 -0.4598  1.1686  0.2924
  255SOL     OW 1663   2.250   4.271   0.161 -0.4304  0.5650  0.0792
  255SOL    HW1 1664   2.321   4.261   0.230 -0.3992  0.9828  0.1113
  255SOL    HW2 1665   2.179   4.333   0.194 -2.3522 -2.1089  1.2559
  256SOL     OW 1666   4.298   4.325   6.053 -0.3005 -0.0851  0.0606
  256SOL    HW1 1667   4.390   4.355   6.025  0.2381 -1.3513  0.3934
  256SOL    HW2 1668   4.234   4.400   6.042  1.1803  1.5719  1.9529
  257SOL     OW 1669   5.883   5.996   3.025  0.3949 -0.2550  0.7960
  257SOL    HW1 1670   5.903   6.087   2.988 -1.4585 -0.0328  0.2079
  257SOL    HW2 1671   5.784   5.987   3.038  0.1998 -3.0278 -1.4921
  258SOL     OW 1672   3.351   2.817   6.137 -0.4238  0.4125 -0.1996
  258SOL    HW1 1673   3.391   2.875   6.065  0.5163 -0.1740 -0.1639
  258SOL    HW2 1674   3.423   2.788   6.200 -0.7314 -1.4079 -0.6315
  259SOL     OW 1675   4.753   6.573   2.454 -0.3245 -0.0633  0.3757
  259SOL    HW1 1676   4.694   6.654   2.461  0.4472  0.3857  2.2032
  259SOL    HW2 1677   4.822   6.589   2.383 -1.0003  0.3341 -0.1996
  260SOL     OW 1678   4.329   6.686   4.354  0.0190  0.0623  0.2733
  260SOL    HW1 1679   4.373   6.609   4.399 -0.4341  0.1079  0.8065
  260SOL    HW2 1680   4.398   6.743   4.309  0.3899 -0.4306  0.2202
  261SOL     OW 1681   3.793   4.031   0.535 -0.0465 -0.0160 -0.1274
  261SOL    HW1 1682   3.756   3.993   0.450 -3.8102 -0.8275  1.6393
  261SOL    HW2 1683   3.799   4.130   0.527  0.1220 -0.1207 -1.4979
  262SOL     OW 1684   2.872   3.975   0.004  0.4732  0.4836 -0.2066
  262SOL    HW1 1685   2.796   3.910  -0.007  1.5111 -0.8353  0.2628
  262SOL    HW2 1686   2.922   3.954   0.087  1.5322  1.1491 -0.6621
  263SOL     OW 1687   1.036   6.815   5.107 -0.5379 -0.1963  0.3811
  263SOL    HW1 1688   0.945   6.817   5.065 -0.5391  0.1544  0.4000
  263SOL    HW2 1689   1.057   6.722   5.136 -0.1639 -0.6307 -1.2067
  264SOL     OW 1690   0.559   3.163   6.296  0.0401 -0.0531  0.1799
  264SOL    HW1 1691   0.472   3.114   6.307  0.0683 -0.5543 -1.5690
  264SOL    HW2 1692   0.635   3.100   6.307  0.3150  0.6184  3.0214
  265SOL     OW 1693   0.397   0.757   3.072  0.3882 -0.2489  0.4373
  265SOL    HW1 1694   0.404   0.658   3.059 -2.0761 -0.4522  0.1871
  265SOL    HW2 1695   0.366   0.777   3.165  1.8077  0.3772  0.8065
  266SOL     OW 1696   5.051   0.798   5.839 -0.0791  0.3063  0.2797
  266SOL    HW1 1697   4.985   0.833   5.905 -0.2478 -0.0077  0.2830
  266SOL    HW2 1698   5.033   0.838   5.749 -0.6837 -0.2579  0.1390
  267SOL     OW 1699   0.189   1.189   5.693  0.0415 -0.1304  0.0886
  267SOL    HW1 1700   0.235   1.210   5.779 -0.4731  0.0403  0.3298
  267SOL    HW2 1701   0.229   1.243   5.619 -0.9356  1.3694  0.6071
  268SOL     OW 1702   1.317   1.864   1.241 -0.6668 -0.1375 -0.0194
  268SOL    HW1 1703   1.235   1.823   1.281 -0.9740  0.6668  0.1882
  268SOL    HW2 1704   1.374   1.903   1.313  0.4779 -1.6821 -0.0412
  269SOL     OW 1705   4.142   2.827   6.802  0.6059  0.1122  0.1084
  269SOL    HW1 1706   4.111   2.816   6.707  1.8194  1.5910 -0.5122
  269SOL    HW2 1707   4.239   2.801   6.808  1.4154  2.8274  0.2081
  270SOL     OW 1708   0.906   6.844   1.832  0.0375  0.1663  0.0832
  270SOL    HW1 1709   0.970   6.917   1.855 -0.7287  0.3433  1.8643
  270SOL    HW2 1710   0.852   6.871   1.753  2.2080 -0.0526 -1.5625
  271SOL     OW 1711   1.141   2.272   6.371 -0.2663  0.6085  0.6991
  271SOL    HW1 1712   1.063   2.324   6.406 -0.0504 -0.2129  2.4818
  271SOL    HW2 1713   1.165   2.200   6.435  0.3811 -0.7848 -1.0272
  272SOL     OW 1714   4.268   6.993   3.699  0.3765 -0.2680 -0.4159
  272SOL    HW1 1715   4.210   6.929   3.748  0.5299 -1.0250 -1.2048
  272SOL    HW2 1716   4.221   7.082   3.691  0.1657 -0.2721  0.6742
  273SOL     OW 1717   1.724   6.275   5.484 -0.1228 -0.8213  0.8260
  273SOL    HW1 1718   1.665   6.279   5.565 -0.4587  0.0322  0.5511
  273SOL    HW2 1719   1.667   6.267   5.402  0.1100  0.3494  0.5303
  274SOL     OW 1720   4.134   1.792   3.433  0.0809 -0.7869  0.5600
  274SOL    HW1 1721   4.224   1.748   3.430  0.2660 -0.3973  0.2982
  274SOL    HW2 1722   4.076   1.753   3.361  0.4216 -0.2292 -0.0246
  275SOL     OW 1723   6.339   4.759   3.189 -0.1989 -0.0255 -0.3237
  275SOL    HW1 1724   6.393   4.817   3.251  0.4355 -0.7088 -0.2277
  275SOL    HW2 1725   6.271   4.708   3.241 -0.9768  0.8454 -0.4467
  276SOL     OW 1726   0.358   0.819   4.876 -0.1202 -0.3939  0.1238
  276SOL    HW1 1727   0.382   0.843   4.782 -0.3255  1.1869  0.4490
  276SOL    HW2 1728   0.268   0.775   4.878 -0.1799 -0.2962 -0.4120
  277SOL     OW 1729   0.604   4.591   2.241  0.3588  0.0012 -0.4180
  277SOL    HW1 1730   0.650   4.522   2.185 -0.1934 -1.6620  1.0786
  277SOL    HW2 1731   0.508   4.596   2.215  0.2235 -0.3710  0.0111
  278SOL     OW 1732   6.076   1.437   2.737 -0.3670 -0.0891 -0.0825
  278SOL    HW1 1733   6.166   1.441   2.780 -0.1492 -0.0770 -0.5314
  278SOL    HW2 1734   6.051   1.341   2.722 -0.3282 -0.0868 -0.1629
  279SOL     OW 1735   5.455   2.658   4.558 -0.2312  0.2652  0.1154
  279SOL    HW1 1736   5.547   2.696   4.566  0.9016 -2.2549  0.0147
  279SOL    HW2 1737   5.405   2.675   4.643  0.9430  0.2016  0.8503
  280SOL     OW 1738   2.555   4.531   2.980  0.2287  0.0598  0.5619
  280SOL    HW1 1739   2.559   4.589   2.899 -0.9593  0.2660  0.6281
  280SOL    HW2 1740   2.597   4.578   3.057  1.4469 -0.1747  0.0590
  281SOL     OW 1741   1.367   4.351   6.723 -0.1424  0.1142 -0.2982
  281SOL    HW1 1742   1.363   4.425   6.789  2.4978  1.2051 -1.1897
  281SOL    HW2 1743   1.282   4.298   6.725 -1.2916  1.9028  1.7955
  282SOL     OW 1744   4.161   1.345   5.564 -0.8695  0.1859  0.3626
  282SOL    HW1 1745   4.183   1.437   5.597  1.6311 -0.5660  1.1035
  282SOL    HW2 1746   4.164   1.281   5.642 -1.1596 -0.7216 -0.3562
  283SOL     OW 1747   6.259   1.952   6.607 -0.7461  0.1655 -0.0824
  283SOL    HW1 1748   6.308   1.981   6.525 -0.3724 -0.6401 -0.1586
  283SOL    HW2 1749   6.173   2.003   6.615 -0.0824  1.3229 -0.1555
  284SOL     OW 1750   6.448   3.057   4.687  0.0455 -0.1859 -0.0596
  284SOL    HW1 1751   6.545   3.040   4.670 -0.3907 -2.3692 -0.5952
  284SOL    HW2 1752   6.405   3.092   4.603  0.4222  1.3073  0.3260
  285SOL     OW 1753   6.051   4.404   2.834  0.1874  0.6852 -0.1682
  285SOL    HW1 1754   6.012   4.340   2.768 -0.3544  1.7629 -0.9269
  285SOL    HW2 1755   6.067   4.357   2.920  0.2084 -0.5699 -0.8308
  286SOL     OW 1756   4.743   5.524   0.110  0.3356 -0.3353 -0.0543
  286SOL    HW1 1757   4.706   5.540   0.019 -0.2062 -0.1657  0.1938
  286SOL    HW2 1758   4.780   5.610   0.146  0.7618 -0.4512 -0.2007
  287SOL     OW 1759   2.805   2.292   1.497 -0.0714 -0.1012  0.3491
  287SOL    HW1 1760   2.882   2.305   1.559  0.4971  0.0318 -0.3739
  287SOL    HW2 1761   2.720   2.308   1.547  0.3738  0.0476  1.0816
  288SOL     OW 1762   5.484   1.102   0.825  0.1838 -0.6203  0.4599
  288SOL    HW1 1763   5.388   1.073   0.827 -0.4568  0.9159 -2.2870
  288SOL    HW2 1764   5.528   1.063   0.744  0.9510  1.1321 -0.0055
  289SOL     OW 1765   3.552   4.968   6.517 -0.0627  0.6086  0.1843
  289SOL    HW1 1766   3.605   4.921   6.588 -0.9222  0.8381  1.0078
  289SOL    HW2 1767   3.549   5.066   6.537 -1.3953  0.5081  0.5747
  290SOL     OW 1768   1.534   2.986   6.521 -1.0001 -0.3720 -0.4498
  290SOL    HW1 1769   1.523   3.023   6.614 -1.9280 -1.9675  0.1199
  290SOL    HW2 1770   1.488   3.045   6.456 -1.5068  0.0639  0.2882
  291SOL     OW 1771   5.243   1.219   3.201  0.7772  0.3434  0.2705
  291SOL    HW1 1772   5.261   1.318   3.199  0.4737  0.3987 -1.0108
  291SOL    HW2 1773   5.163   1.200   3.144  0.4639 -0.5799  1.0064
  292SOL     OW 1774   0.968   0.130   3.235  0.7287 -0.7218 -0.1564
  292SOL    HW1 1775   1.046   0.160   3.180  1.1924  1.1600  1.4111
  292SOL    HW2 1776   0.973   0.173   3.326 -2.8031  0.5452 -0.4157
  293SOL     OW 1777   4.926   4.391   3.655  0.6510 -0.2347 -0.3062
  293SOL    HW1 1778   4.934   4.349   3.564  1.6046 -1.3511  0.2620
  293SOL    HW2 1779   4.976   4.336   3.721 -1.1568 -0.1931  1.1712
  294SOL     OW 1780   4.178   1.992   0.601  0.2280 -0.0505  0.5462
  294SOL    HW1 1781   4.094   2.031   0.640  0.1373 -0.8760  1.1991
  294SOL    HW2 1782   4.157   1.950   0.513 -0.0362 -0.2179  0.6882
  295SOL     OW 1783   4.925   5.613   5.642  0.0740 -0.9817 -0.0432
  295SOL    HW1 1784   4.839   5.656   5.617 -0.3530 -1.3947  0.6726
  295SOL    HW2 1785   4.999   5.652   5.587 -0.3826  0.2108  0.1498
  296SOL     OW 1786   4.130   1.714   2.971  0.7327 -0.8382  0.0448
  296SOL    HW1 1787   4.192   1.731   2.894 -0.7927  3.0316 -0.5404
  296SOL    HW2 1788   4.056   1.654   2.942  1.8388 -2.0224 -0.4657
  297SOL     OW 1789   0.554   4.195   3.772  0.6638  0.1500 -0.3086
  297SOL    HW1 1790   0.458   4.171   3.786  0.6609 -0.3159 -1.1128
  297SOL    HW2 1791   0.599   4.124   3.719  1.7202 -0.1226  0.9008
  298SOL     OW 1792   6.281   0.610   0.712  0.1367 -0.4570  0.3704
  298SOL    HW1 1793   6.215   0.685   0.723  1.6093  0.7840  1.1865
  298SOL    HW2 1794   6.303   0.572   0.801  1.2197 -0.2179  0.2162
  299SOL     OW 1795   0.382   3.475   5.444  0.0066  0.6233  0.1819
  299SOL    HW1 1796   0.464   3.502   5.496  0.1431 -1.0047  0.8791
  299SOL    HW2 1797   0.303   3.474   5.506  0.0019 -0.4606  0.1857
  300SOL     OW 1798   0.746   6.239   2.060 -0.5636  0.1183  0.0751
  300SOL    HW1 1799   0.755   6.322   2.115  0.9907  0.0301  0.0152
  300SOL    HW2 1800   0.650   6.217   2.048 -1.0039  1.8231  0.2154
  301SOL     OW 1801   3.869   4.914   5.505  0.4766 -0.4474 -0.1343
  301SOL    HW1 1802   3.925   4.987   5.464 -2.8762  1.0514 -2.4989
  301SOL    HW2 1803   3.825   4.949   5.588  0.7900 -0.6335  0.1106
  302SOL     OW 1804   1.264   0.322   3.501 -0.2604 -0.8816 -0.1115
  302SOL    HW1 1805   1.335   0.391   3.506  0.1742 -1.1731 -1.7706
  302SOL    HW2 1806   1.305   0.231   3.510 -0.4400 -1.0412 -0.8292
  303SOL     OW 1807   5.702   0.958   5.232  0.5652 -0.0909 -0.1946
  303SOL    HW1 1808   5.616   0.979   5.279 -0.2899 -1.9706 -0.8058
  303SOL    HW2 1809   5.682   0.911   5.146  2.1985  0.2537 -0.7933
  304SOL     OW 1810   4.032   6.038   2.212 -0.2196 -0.3188 -0.0834
  304SOL    HW1 1811   4.047   6.026   2.310 -1.1239 -1.0242 -0.0143
  304SOL    HW2 1812   4.118   6.025   2.163 -0.2775 -2.9238  0.3840
  305SOL     OW 1813   1.697   3.417   2.545  0.0033  0.3152 -0.8918
  305SOL    HW1 1814   1.768   3.378   2.604  1.1075 -0.6450 -2.7411
  305SOL    HW2 1815   1.737   3.486   2.486 -0.8459  0.5273 -1.2363
  306SOL     OW 1816   2.135   0.520   2.871 -0.1239  0.5665  0.5054
  306SOL    HW1 1817   2.216   0.539   2.817 -0.2147  2.0605  0.8415
  306SOL    HW2 1818   2.157   0.455   2.943  1.1076  1.8321  1.3231
  307SOL     OW 1819   5.033   0.540   2.022 -0.6557  0.3669 -0.1951
  307SOL    HW1 1820   5.009   0.558   1.927  2.5345 -1.7352 -1.5547
  307SOL    HW2 1821   5.058   0.444   2.032  1.8621  1.1389  2.0893
  308SOL     OW 1822   1.613   6.068   3.507  0.6811  0.4898  0.3203
  308SOL    HW1 1823   1.674   6.123   3.564 -1.0796  0.8481  1.9236
  308SOL    HW2 1824   1.538   6.032   3.563  0.0891 -0.9973 -1.3350
  309SOL     OW 1825   3.234   4.697   5.823  0.2022  0.0670  0.4226
  309SOL    HW1 1826   3.304   4.726   5.758 -0.5576  0.1649 -0.3705
  309SOL    HW2 1827   3.144   4.709   5.783 -0.3093  0.3929  1.6048
  310SOL     OW 1828   5.935   6.868   6.622  0.1951  0.3989  0.1414
  310SOL    HW1 1829   5.878   6.787   6.627  2.3554 -1.2064  0.1254
  310SOL    HW2 1830   5.947   6.906   6.714 -0.2507  0.3047  0.2430
  311SOL     OW 1831   6.932   2.331   6.204  0.2461 -0.0871  0.2339
  311SOL    HW1 1832   6.964   2.281   6.284  0.2372 -0.0521  0.2597
  311SOL    HW2 1833   6.978   2.297   6.122  0.2808 -0.0986  0.2587
  312SOL     OW 1834   3.708   6.944   3.118 -0.2408 -0.4555 -0.5104
  312SOL    HW1 1835   3.614   6.909   3.113 -0.7383  0.7668 -0.3033
  312SOL    HW2 1836   3.750   6.939   3.027  0.2143 -2.7943 -0.2321
  313SOL     OW 1837   6.854   5.043   0.053 -0.0641 -0.7654  0.1443
  313SOL    HW1 1838   6.832   4.950   0.079  2.4268 -1.7874 -1.0662
  313SOL    HW2 1839   6.862   5.049  -0.047  1.3516  0.3171  0.2879
  314SOL     OW 1840   3.873   6.156   6.960  0.5118  0.9049  0.1574
  314SOL    HW1 1841   3.890   6.134   6.864  2.3045 -0.5345  0.7623
  314SOL    HW2 1842   3.953   6.201   6.999 -0.6982  2.7363  0.6838
  315SOL     OW 1843   1.615   3.026   5.075 -0.7294  0.0820  0.4674
  315SOL    HW1 1844   1.695   3.068   5.033 -1.5708 -1.0158 -2.5353
  315SOL    HW2 1845   1.644   2.955   5.140  0.8091 -0.9286 -1.2298
  316SOL     OW 1846   2.232   2.870   4.838  0.2005 -0.3421  0.1198
  316SOL    HW1 1847   2.279   2.876   4.926  0.5791 -1.1704 -0.0135
  316SOL    HW2 1848   2.234   2.960   4.793 -0.7605  0.3148  1.3212
  317SOL     OW 1849   1.581   3.732   0.356  0.2311 -0.1704  0.4472
  317SOL    HW1 1850   1.630   3.800   0.412 -2.8407  1.6906  1.1163
  317SOL    HW2 1851   1.546   3.660   0.415  1.2949 -1.0271  0.0848
  318SOL     OW 1852   3.013   5.055   0.670 -0.1353  0.4298 -0.0000
  318SOL    HW1 1853   2.996   4.968   0.717  0.5642  0.2361 -0.0970
  318SOL    HW2 1854   2.928   5.087   0.628 -0.9199  0.9096  1.8779
  319SOL     OW 1855   1.261   6.762   6.813  0.4272  0.1636 -0.3545
  319SOL    HW1 1856   1.177   6.777   6.761  0.9581  2.5392 -0.6332
  319SOL    HW2 1857   1.336   6.742   6.750  0.7250  1.3485 -0.3908
  320SOL     OW 1858   5.976   3.970   0.460  0.7802  0.2540 -0.1687
  320SOL    HW1 1859   5.930   3.911   0.526 -0.0560  2.0672  0.9409
  320SOL    HW2 1860   6.073   3.978   0.486  0.8756 -0.4822 -0.2530
  321SOL     OW 1861   0.694   2.355   0.627 -0.2704 -0.6081 -0.0218
  321SOL    HW1 1862   0.614   2.302   0.656 -1.0054  0.0034 -0.8779
  321SOL    HW2 1863   0.671   2.410   0.547  1.0260 -0.4380 -0.3106
  322SOL     OW 1864   3.515   3.549   4.927  0.3478  0.2208  0.1404
  322SOL    HW1 1865   3.562   3.561   4.840  1.8797 -0.8113  0.7776
  322SOL    HW2 1866   3.544   3.621   4.991  0.1783  0.2565  0.1774
  323SOL     OW 1867   0.273   3.700   1.724 -0.0643 -0.3569  0.0559
  323SOL    HW1 1868   0.179   3.724   1.701  0.0547 -1.2483 -1.4777
  323SOL    HW2 1869   0.289   3.717   1.821 -0.9321  2.5990 -0.2068
  324SOL     OW 1870   0.158   4.107   6.042  0.3686  0.3324 -0.2489
  324SOL    HW1 1871   0.162   4.100   6.141  0.4405  2.0727 -0.0839
  324SOL    HW2 1872   0.180   4.201   6.015 -0.0418 -0.0101 -1.8896
  325SOL     OW 1873   1.565   3.813   4.123  0.9489 -0.0900  0.3189
  325SOL    HW1 1874   1.600   3.863   4.202 -0.4234 -2.2243  2.4055
  325SOL    HW2 1875   1.501   3.743   4.153 -2.2596  1.0942 -2.9510
  326SOL     OW 1876   1.369   4.292   0.745  0.1427  0.1146 -0.6945
  326SOL    HW1 1877   1.354   4.338   0.658 -1.6665  0.6428 -0.1329
  326SOL    HW2 1878   1.317   4.207   0.748 -1.1714  0.9076  0.4605
  327SOL     OW 1879   6.764   3.695   0.058 -0.3561 -0.1182  0.1639
  327SOL    HW1 1880   6.822   3.768   0.022 -0.1325 -0.6462 -0.5972
  327SOL    HW2 1881   6.720   3.647  -0.019 -2.3053  0.6539  0.7331
  328SOL     OW 1882   2.538   5.055   2.551 -0.1122 -0.3041  0.0229
  328SOL    HW1 1883   2.469   5.107   2.602 -0.3487 -0.5906  0.0002
  328SOL    HW2 1884   2.493   4.979   2.503  0.2825 -0.7392  0.3399
  329SOL     OW 1885   3.690   3.753   2.876  0.7765 -0.0258 -0.0774
  329SOL    HW1 1886   3.643   3.735   2.789 -1.7272 -1.0750  1.3869
  329SOL    HW2 1887   3.775   3.802   2.858  0.2782 -0.0677 -3.0946
  330SOL     OW 1888   4.007   1.377   3.054  0.5334  0.2292  0.0798
  330SOL    HW1 1889   4.051   1.412   3.136  2.3543 -1.7521  0.0213
  330SOL    HW2 1890   4.060   1.403   2.973 -0.1853  0.5201 -0.3139
  331SOL     OW 1891   5.834   5.542   5.372  0.1786 -0.4944  0.3583
  331SOL    HW1 1892   5.796   5.508   5.286  0.8228 -0.3191  0.0030
  331SOL    HW2 1893   5.869   5.635   5.359 -0.5361 -0.1199  1.0391
  332SOL     OW 1894   4.510   2.483   2.529  0.2245  0.1728 -0.2382
  332SOL    HW1 1895   4.547   2.567   2.489  2.2932 -0.9080 -0.7257
  332SOL    HW2 1896   4.574   2.447   2.596  0.3440 -2.0399 -1.4384
  333SOL     OW 1897   2.812   6.500   0.029  0.1076 -0.2146  0.4308
  333SOL    HW1 1898   2.840   6.462   0.117  2.0458 -0.7680 -0.3787
  333SOL    HW2 1899   2.752   6.436  -0.018  0.6409 -0.7986  0.5314
  334SOL     OW 1900   4.240   5.846   1.644  0.5074  0.1728 -0.3317
  334SOL    HW1 1901   4.205   5.760   1.679 -0.8415  1.1034  0.7325
  334SOL    HW2 1902   4.164   5.901   1.608  1.2920  1.0338 -0.7425
  335SOL     OW 1903   2.299   1.784   4.566 -0.4247 -0.1860  0.4698
  335SOL    HW1 1904   2.310   1.705   4.505 -1.4300 -1.3440  1.7229
  335SOL    HW2 1905   2.385   1.799   4.616  0.4347  0.8206 -1.2005
  336SOL     OW 1906   1.848   0.253   2.328 -0.2496  0.2930 -0.0469
  336SOL    HW1 1907   1.940   0.250   2.367  0.5199  4.5047 -0.9972
  336SOL    HW2 1908   1.849   0.311   2.246 -3.6688  0.1068 -0.3725
  337SOL     OW 1909   1.639   4.647   0.986 -0.1390 -0.0154  0.4726
  337SOL    HW1 1910   1.679   4.677   1.073 -0.6382 -0.4313  0.8538
  337SOL    HW2 1911   1.703   4.666   0.912 -0.4774  2.2004  0.6505
  338SOL     OW 1912   3.118   2.937   1.330  0.3376 -0.3956 -0.4525
  338SOL    HW1 1913   3.183   2.867   1.300  0.0975 -0.9006  0.1743
  338SOL    HW2 1914   3.079   2.982   1.250 -0.5575 -1.9496 -0.9378
  339SOL     OW 1915   5.040   6.741   3.003  0.3347 -0.2872  0.1457
  339SOL    HW1 1916   5.052   6.840   2.994  0.4930 -0.4681 -2.1542
  339SOL    HW2 1917   5.128   6.699   3.024  0.3628  0.0023  0.6231
  340SOL     OW 1918   5.201   3.756   4.500  0.2007  0.6066  0.6326
  340SOL    HW1 1919   5.177   3.708   4.584 -0.0493  1.7326  1.2282
  340SOL    HW2 1920   5.124   3.813   4.470  0.6873  1.1014  0.2908
  341SOL     OW 1921   6.075   5.717   4.708  0.2033 -0.2611 -0.5422
  341SOL    HW1 1922   5.995   5.733   4.766  0.8919 -1.8644  0.9535
  341SOL    HW2 1923   6.049   5.663   4.628 -0.6962  1.6757 -1.6266
  342SOL     OW 1924   0.731   4.243   1.021 -0.5466  0.1214  0.3393
  342SOL    HW1 1925   0.758   4.223   1.115 -0.7491 -1.6173  0.0652
  342SOL    HW2 1926   0.690   4.334   1.017  1.7613  1.3034  1.4469
  343SOL     OW 1927   2.739   1.255   2.233  0.1736  0.2043  0.0457
  343SOL    HW1 1928   2.717   1.264   2.136 -1.0021 -0.9315  0.1729
  343SOL    HW2 1929   2.655   1.242   2.285  0.7506  1.2518  1.2839
  344SOL     OW 1930   1.284   5.331   0.877  0.2348 -0.4241  0.5661
  344SOL    HW1 1931   1.361   5.297   0.932 -0.2109  0.3870  1.7382
  344SOL    HW2 1932   1.199   5.294   0.912 -0.0693  0.1984  0.5066
  345SOL     OW 1933   1.967   0.596   5.061  0.6185  0.4535  0.0283
  345SOL    HW1 1934   1.904   0.634   4.993 -0.4782 -0.5473  0.4348
  345SOL    HW2 1935   1.940   0.627   5.152  2.1384  1.8664  0.0330
  346SOL     OW 1936   1.438   5.431   4.512  0.4298  0.0945 -0.1914
  346SOL    HW1 1937   1.511   5.409   4.448 -0.0923 -0.6440 -0.5554
  346SOL    HW2 1938   1.355   5.380   4.487  0.1277  0.0256  0.8943
  347SOL     OW 1939   6.635   0.541   0.159 -0.0038  0.1457 -0.8754
  347SOL    HW1 1940   6.633   0.518   0.061 -0.4144 -1.8444 -0.4434
  347SOL    HW2 1941   6.719   0.506   0.200 -0.1849  0.3048 -0.3646
  348SOL     OW 1942   2.027   4.714   2.564  0.4490 -0.1345  0.4221
  348SOL    HW1 1943   2.054   4.782   2.496  1.5100 -0.7792  0.1873
  348SOL    HW2 1944   1.996   4.631   2.517  0.2930 -0.2469  0.7216
  349SOL     OW 1945   0.312   6.184   2.485 -0.1938  0.0801 -0.0889
  349SOL    HW1 1946   0.360   6.199   2.571 -0.1280  0.7964 -0.2445
  349SOL    HW2 1947   0.278   6.090   2.482  1.5559 -0.5793 -0.1649
  350SOL     OW 1948   6.058   4.407   0.385 -0.1631  0.4018 -0.4960
  350SOL    HW1 1949   6.081   4.458   0.467 -1.3031  1.5286 -0.8379
  350SOL    HW2 1950   5.983   4.343   0.405  0.9250 -0.8075 -0.1894
  351SOL     OW 1951   1.863   2.432   4.745  0.0999  0.0570 -0.3702
  351SOL    HW1 1952   1.792   2.485   4.700  0.6290  0.9800 -0.1357
  351SOL    HW2 1953   1.844   2.334   4.734 -0.3373  0.2744 -1.6794
  352SOL     OW 1954   3.059   0.588   6.331  0.0164  0.2912  0.1683
  352SOL    HW1 1955   3.140   0.593   6.389 -0.2719 -2.6332  1.0045
  352SOL    HW2 1956   3.055   0.498   6.288 -2.5237  0.5345 -0.2462
  353SOL     OW 1957   2.638   6.738   2.187 -0.7315 -0.1758  0.4515
  353SOL    HW1 1958   2.590   6.826   2.185  0.7857  0.6682 -0.7912
  353SOL    HW2 1959   2.703   6.738   2.263  0.7484  0.6383 -0.7707
  354SOL     OW 1960   4.708   0.763   1.809 -0.7875  0.0439 -0.5503
  354SOL    HW1 1961   4.761   0.846   1.825 -1.1617  0.1072  0.4382
  354SOL    HW2 1962   4.640   0.752   1.881 -0.8327 -1.0594 -0.7355
  355SOL     OW 1963   6.452   2.085   2.508  0.1981  0.4862 -0.6069
  355SOL    HW1 1964   6.479   2.070   2.413  0.4313  0.7998 -0.5933
  355SOL    HW2 1965   6.481   2.007   2.564 -1.8164 -0.7256 -1.1410
  356SOL     OW 1966   4.592   6.142   3.657  0.0096  0.0135  0.1335
  356SOL    HW1 1967   4.527   6.216   3.641  1.1982  0.8474 -1.0832
  356SOL    HW2 1968   4.557   6.057   3.618 -1.2826 -0.0486  1.3769
  357SOL     OW 1969   2.245   2.967   5.959  0.5410 -0.1155  0.2305
  357SOL    HW1 1970   2.236   2.954   6.058  1.5470  0.2973  0.3943
  357SOL    HW2 1971   2.173   2.917   5.912  1.3283 -2.1558  1.0546
  358SOL     OW 1972   6.573   0.773   2.033  0.3041  0.2862 -0.0334
  358SOL    HW1 1973   6.577   0.851   2.095  1.1192 -0.3447  0.7472
  358SOL    HW2 1974   6.511   0.792   1.958  1.1756  2.0305 -0.3440
  359SOL     OW 1975   0.462   0.798   1.753  0.2331 -0.2481 -0.1359
  359SOL    HW1 1976   0.497   0.705   1.740  1.8264  0.2348  0.4622
  359SOL    HW2 1977   0.362   0.795   1.759  0.2406 -1.8963 -0.2662
  360SOL     OW 1978   4.054   6.136   5.679 -0.0769 -0.3981  0.4079
  360SOL    HW1 1979   4.144   6.151   5.722  0.7464 -1.7081 -0.7849
  360SOL    HW2 1980   4.065   6.127   5.580 -1.2575 -2.4170  0.4030
  361SOL     OW 1981   6.244   6.150   4.321 -0.2015 -0.1903 -0.1723
  361SOL    HW1 1982   6.297   6.204   4.257  0.3859  0.3416  0.7350
  361SOL    HW2 1983   6.273   6.171   4.415 -3.1228  1.3760  0.4912
  362SOL     OW 1984   0.978   3.651   3.371 -0.1635 -0.2460 -0.2255
  362SOL    HW1 1985   1.023   3.729   3.414 -0.3688  0.0555 -0.5470
  362SOL    HW2 1986   1.022   3.566   3.400  0.1409 -0.0030  0.0292
  363SOL     OW 1987   4.650   4.387   3.388 -0.1020  0.5099  0.7767
  363SOL    HW1 1988   4.702   4.465   3.356 -0.0019  0.9148  1.8919
  363SOL    HW2 1989   4.688   4.303   3.349 -0.2986  1.0081 -0.5367
  364SOL     OW 1990   2.484   4.870   0.044 -0.1410  0.3229  0.3786
  364SOL    HW1 1991   2.481   4.941  -0.026 -1.9501  0.6831  0.7680
  364SOL    HW2 1992   2.478   4.912   0.135  0.2386 -0.2495  0.6769
  365SOL     OW 1993   5.362   5.093   3.716 -0.3272  0.0638  0.2331
  365SOL    HW1 1994   5.275   5.127   3.679 -0.1351  2.6728  1.9475
  365SOL    HW2 1995   5.430   5.090   3.643 -0.9777  1.2814 -0.4651
  366SOL     OW 1996   4.714   1.466   0.037 -0.4056 -0.0943 -0.4049
  366SOL    HW1 1997   4.731   1.418   0.123 -0.4383 -0.5611 -0.6610
  366SOL    HW2 1998   4.766   1.423  -0.037 -0.9110 -0.1160 -0.7515
  367SOL     OW 1999   4.095   2.735   6.542 -0.0276  0.0614 -0.4765
  367SOL    HW1 2000   4.006   2.747   6.498 -1.8509 -1.9224  2.2734
  367SOL    HW2 2001   4.118   2.637   6.543  2.0662  0.5014 -0.8002
  368SOL     OW 2002   0.513   3.208   5.716 -0.0879  0.5545 -0.2286
  368SOL    HW1 2003   0.422   3.248   5.706  0.3219  1.5331 -0.2117
  368SOL    HW2 2004   0.506   3.109   5.723 -1.1285  0.5988 -0.5037
  369SOL     OW 2005   2.090   3.760   4.138 -0.1662  0.1352 -0.4568
  369SOL    HW1 2006   2.080   3.769   4.039 -4.1970  0.3299 -0.1950
  369SOL    HW2 2007   2.090   3.851   4.180  2.2517  0.0896 -0.2446
  370SOL     OW 2008   4.954   1.293   4.692  0.5130  0.0555 -0.0113
  370SOL    HW1 2009   4.936   1.195   4.693  0.6899  0.0060 -1.2582
  370SOL    HW2 2010   4.952   1.327   4.599  1.5963  1.0305  0.2933
  371SOL     OW 2011   4.968   2.706   6.543 -0.0505 -0.1108 -0.2858
  371SOL    HW1 2012   4.973   2.732   6.639 -1.1845  0.2820 -0.3194
  371SOL    HW2 2013   5.059   2.679   6.511  0.1214 -1.5743  1.2573
  372SOL     OW 2014   0.069   5.311   5.557  0.2167  0.4426 -0.4707
  372SOL    HW1 2015   0.011   5.263   5.622  1.4012 -0.7594 -0.2555
  372SOL    HW2 2016   0.040   5.288   5.464 -0.0306  0.3329 -0.3667
  373SOL     OW 2017   0.825   6.823   0.014  0.0479 -0.0194  0.2654
  373SOL    HW1 2018   0.874   6.754  -0.039 -1.4835 -1.1943  0.3132
  373SOL    HW2 2019   0.743   6.851  -0.035  0.0464  0.9218  0.7863
  374SOL     OW 2020   3.306   0.228   1.988 -0.4697 -0.1376 -0.6420
  374SOL    HW1 2021   3.281   0.311   2.038 -1.0571 -0.1712 -0.8723
  374SOL    HW2 2022   3.223   0.180   1.959 -0.1348 -0.5896 -0.8686
  375SOL     OW 2023   2.414   4.685   3.750 -0.4093 -0.3037  0.1028
  375SOL    HW1 2024   2.324   4.706   3.789 -0.1034  0.1236  0.5866
  375SOL    HW2 2025   2.464   4.770   3.734 -0.5822 -0.4558 -1.3751
  376SOL     OW 2026   0.825   3.317   3.080 -0.3988 -0.3618  0.1677
  376SOL    HW1 2027   0.849   3.313   2.983 -0.9963  0.6948 -0.0373
  376SOL    HW2 2028   0.766   3.239   3.102  0.4504 -1.0952 -0.1036
  377SOL     OW 2029   6.541   1.843   2.628  0.2521 -0.0980 -0.2656
  377SOL    HW1 2030   6.523   1.841   2.727  0.4257 -0.4565 -0.2407
  377SOL    HW2 2031   6.607   1.772   2.605 -1.7378 -1.8056 -1.0348
  378SOL     OW 2032   4.139   2.255   4.893 -0.3496  0.0675  0.6838
  378SOL    HW1 2033   4.190   2.331   4.935 -0.7875 -0.1251  1.5858
  378SOL    HW2 2034   4.078   2.214   4.961 -0.9075 -0.4090 -0.0869
  379SOL     OW 2035   5.803   3.437   2.352  0.1420  0.8338 -0.2070
  379SOL    HW1 2036   5.705   3.427   2.369  0.1074 -0.3118 -0.9631
  379SOL    HW2 2037   5.830   3.532   2.364 -0.9107  1.0258  0.7752
  380SOL     OW 2038   6.815   3.091   0.760  0.3847  0.3670 -0.1655
  380SOL    HW1 2039   6.867   3.012   0.792 -0.8132 -0.3342  0.0831
  380SOL    HW2 2040   6.748   3.062   0.692  2.4405  1.7141 -2.9848
  381SOL     OW 2041   3.424   2.405   0.157 -0.4011  0.1070  0.5611
  381SOL    HW1 2042   3.398   2.488   0.108 -0.5891 -1.5400 -2.4201
  381SOL    HW2 2043   3.524   2.398   0.159 -0.3946  0.0717  0.1708
  382SOL     OW 2044   3.702   7.011   0.240  0.7821 -0.1830  0.5430
  382SOL    HW1 2045   3.772   6.960   0.190  0.3876 -0.1228 -0.0854
  382SOL    HW2 2046   3.650   6.949   0.298  1.7393 -0.1351  1.4717
  383SOL     OW 2047   1.177   2.823   6.542  0.1087  0.5743 -0.1263
  383SOL    HW1 2048   1.163   2.921   6.556  0.4298  0.6618 -0.3867
  383SOL    HW2 2049   1.252   2.792   6.601  0.3391  0.5917 -0.4078
  384SOL     OW 2050   2.588   5.837   5.549 -0.2264 -0.2413  0.4103
  384SOL    HW1 2051   2.522   5.862   5.619 -0.0290  0.2805  0.4184
  384SOL    HW2 2052   2.680   5.861   5.579 -0.1221 -0.1772  0.0550
  385SOL     OW 2053   2.299   5.817   1.168  0.1127  0.2797 -0.4797
  385SOL    HW1 2054   2.368   5.866   1.221 -1.4198  0.6237  1.3454
  385SOL    HW2 2055   2.294   5.855   1.076  1.8844  0.6582 -0.4439
  386SOL     OW 2056   3.849   5.578   5.382 -0.2932  0.4099  0.0517
  386SOL    HW1 2057   3.781   5.570   5.310  0.0150  0.6929 -0.2752
  386SOL    HW2 2058   3.933   5.618   5.345 -0.1751  0.6828  0.5942
  387SOL     OW 2059   6.547   0.905   5.503  0.6477  0.1937  0.2828
  387SOL    HW1 2060   6.636   0.863   5.520  0.5556 -0.7301 -1.3302
  387SOL    HW2 2061   6.549   0.953   5.416  0.9919  4.4063  2.3620
  388SOL     OW 2062   1.247   2.270   5.149  0.4652 -0.5052  0.4936
  388SOL    HW1 2063   1.219   2.174   5.142 -0.1884 -0.3179  0.4834
  388SOL    HW2 2064   1.345   2.277   5.132  0.5753 -1.2092  0.7731
  389SOL     OW 2065   3.805   5.060   1.582  0.1803  0.0974  0.1831
  389SOL    HW1 2066   3.785   5.147   1.627 -1.7663 -0.8707  1.3557
  389SOL    HW2 2067   3.784   4.985   1.645 -2.2943 -1.3296 -2.1176
  390SOL     OW 2068   3.378   3.613   0.230 -0.4007  0.0168 -0.1047
  390SOL    HW1 2069   3.311   3.666   0.177 -0.0370 -0.0288 -0.6068
  390SOL    HW2 2070   3.330   3.564   0.303 -0.6339  1.9480  1.1437
  391SOL     OW 2071   2.965   3.907   2.948  0.4653 -0.1838  0.4933
  391SOL    HW1 2072   2.896   3.846   2.986  1.8812 -1.9041  0.4248
  391SOL    HW2 2073   3.003   3.964   3.021 -0.9073  0.7259  0.5437
  392SOL     OW 2074   0.001   4.143   1.760  0.1549  1.1776  0.1488
  392SOL    HW1 2075   0.002   4.226   1.816 -0.3279  1.4914 -0.2980
  392SOL    HW2 2076  -0.084   4.139   1.708  0.0748  0.2787  0.3410
  393SOL     OW 2077   0.267   4.401   2.886  0.1513 -0.1308  0.4015
  393SOL    HW1 2078   0.239   4.492   2.856  0.4506 -0.3045 -0.4352
  393SOL    HW2 2079   0.366   4.394   2.883  0.1121 -0.5920  0.1230
  394SOL     OW 2080   6.804   0.248   0.079  0.2521  0.4110  0.3435
  394SOL    HW1 2081   6.748   0.244   0.162  1.3511 -1.0579  1.0768
  394SOL    HW2 2082   6.899   0.231   0.103  0.5951 -0.0388 -1.2232
  395SOL     OW 2083   6.182   5.105   1.756  0.0763 -0.2892  0.1667
  395SOL    HW1 2084   6.095   5.154   1.755 -0.0494 -0.5131  0.1134
  395SOL    HW2 2085   6.222   5.110   1.848 -1.6334 -3.0433  1.2003
  396SOL     OW 2086   0.978   6.646   0.854  0.1658 -0.4669 -0.5655
  396SOL    HW1 2087   0.896   6.677   0.901  0.4521 -1.1520  0.4331
  396SOL    HW2 2088   0.995   6.550   0.877  0.7815 -0.5811 -1.4273
  397SOL     OW 2089   4.189   1.403   6.521 -0.6204  0.0725  0.0119
  397SOL    HW1 2090   4.152   1.406   6.429 -0.3244 -1.0062 -0.1588
  397SOL    HW2 2091   4.142   1.332   6.574  0.9849 -1.1528 -0.1348
  398SOL     OW 2092   0.392   1.838   3.016  0.4216  0.2472 -0.2402
  398SOL    HW1 2093   0.427   1.745   3.024 -0.4571 -0.1286 -0.6187
  398SOL    HW2 2094   0.297   1.835   2.985  0.8910  1.3075 -1.9227
  399SOL     OW 2095   5.081   5.636   3.813 -0.1352  0.0538 -0.1958
  399SOL    HW1 2096   5.092   5.630   3.912 -0.6782 -0.0523 -0.1389
  399SOL    HW2 2097   5.170   5.625   3.769 -0.1231 -1.7630  0.2010
  400SOL     OW 2098   6.941   2.079   3.521  0.2683 -0.4943 -0.0779
  400SOL    HW1 2099   7.010   2.147   3.497  0.3697 -1.0784 -1.6243
  400SOL    HW2 2100   6.850   2.115   3.500  0.2308 -0.3412  0.3579
  401SOL     OW 2101   6.948   6.068   4.346  0.0826  0.5898  0.4131
  401SOL    HW1 2102   7.028   6.011   4.327  0.1522  0.7212  0.3165
  401SOL    HW2 2103   6.871   6.008   4.370 -0.2224  0.3545 -1.0346
  402SOL     OW 2104   5.326   2.000   2.030  0.4065 -0.1836  0.0678
  402SOL    HW1 2105   5.387   1.995   2.109 -0.3673  0.1075  0.6989
  402SOL    HW2 2106   5.296   2.094   2.017 -0.2634 -0.3955  0.0490
  403SOL     OW 2107   3.050   0.093   3.694  0.1300 -0.1348 -0.3519
  403SOL    HW1 2108   3.143   0.121   3.667  0.6621 -1.7097 -0.2286
  403SOL    HW2 2109   3.052   0.001   3.732 -1.4242  0.0145  0.1818
  404SOL     OW 2110   3.901   6.280   2.221 -0.1868 -0.3404 -0.0698
  404SOL    HW1 2111   3.939   6.189   2.233 -0.4999 -0.2181  2.4207
  404SOL    HW2 2112   3.883   6.296   2.124  1.5495 -2.2040 -0.7704
  405SOL     OW 2113   0.972   5.416   2.560  0.1318 -0.5494  0.2333
  405SOL    HW1 2114   1.014   5.506   2.557 -1.5246  0.3326  1.9743
  405SOL    HW2 2115   0.891   5.415   2.501  0.1180 -0.8824  0.2543
  406SOL     OW 2116   0.156   4.653   6.469 -0.1463  0.3976  0.5255
  406SOL    HW1 2117   0.190   4.593   6.397  0.0160 -0.1082  1.0189
  406SOL    HW2 2118   0.230   4.671   6.535 -1.0162 -1.4009  2.0827
  407SOL     OW 2119   1.252   3.873   5.040 -0.4156  0.0132  0.3775
  407SOL    HW1 2120   1.299   3.919   5.116  0.1075 -0.9967  0.6865
  407SOL    HW2 2121   1.223   3.782   5.069 -0.0390 -0.4675 -0.6827
  408SOL     OW 2122   1.576   2.778   4.341 -0.1906 -0.7339  0.6899
  408SOL    HW1 2123   1.490   2.731   4.359 -1.0688  0.3536 -0.4255
  408SOL    HW2 2124   1.557   2.874   4.321  1.2016 -0.6521 -0.3729
  409SOL     OW 2125   0.015   4.402   0.449 -0.2094 -0.4784 -0.4423
  409SOL    HW1 2126   0.025   4.329   0.517  2.5366  0.0200 -0.1755
  409SOL    HW2 2127   0.092   4.398   0.385 -0.5003  1.6103 -0.9914
  410SOL     OW 2128   6.686   0.881   1.275  0.1245 -0.1931  0.1124
  410SOL    HW1 2129   6.609   0.894   1.337 -0.9197 -0.2385 -1.1348
  410SOL    HW2 2130   6.738   0.800   1.303 -0.1671 -0.0624  1.0667
  411SOL     OW 2131   0.768   2.534   3.649 -0.2779  0.2619 -0.1132
  411SOL    HW1 2132   0.832   2.508   3.722 -0.0682  0.8510 -0.0839
  411SOL    HW2 2133   0.787   2.480   3.567 -0.4451 -0.3281  0.2352
  412SOL     OW 2134   0.110   5.810   3.961 -0.2047 -0.1486  0.6640
  412SOL    HW1 2135   0.020   5.790   4.001  0.2121  1.7130  2.7546
  412SOL    HW2 2136   0.103   5.890   3.902 -0.1080 -0.6484 -0.0313
  413SOL     OW 2137   5.698   4.891   1.999  0.2144  0.4449 -0.0208
  413SOL    HW1 2138   5.741   4.883   2.089  0.6304  0.3267 -0.2305
  413SOL    HW2 2139   5.765   4.871   1.927 -0.0855  0.6498 -0.3631
  414SOL     OW 2140   1.579   1.275   2.674  0.3383 -0.0329 -0.0760
  414SOL    HW1 2141   1.526   1.356   2.699 -0.6038 -0.5764 -0.2555
  414SOL    HW2 2142   1.523   1.214   2.618  0.7191 -1.2506  0.8203
  415SOL     OW 2143   0.379   1.838   5.873 -0.0306  0.6502 -0.4866
  415SOL    HW1 2144   0.359   1.795   5.785 -2.0833  0.3118  0.0691
  415SOL    HW2 2145   0.341   1.780   5.946  0.5677  1.5211  0.5299
  416SOL     OW 2146   5.707   3.129   5.169 -0.5242  0.4611  0.5694
  416SOL    HW1 2147   5.784   3.065   5.179 -0.2892 -0.1321 -3.1856
  416SOL    HW2 2148   5.625   3.090   5.211  0.6945  0.0573  2.6798
  417SOL     OW 2149   0.294   7.013   5.946  0.3414  0.5065  0.1254
  417SOL    HW1 2150   0.268   6.924   5.908 -0.3790  0.0114  1.6624
  417SOL    HW2 2151   0.385   7.005   5.988 -0.1686  0.1583  1.2114
  418SOL     OW 2152   3.420   0.545   5.297  0.2032 -0.1412 -0.0433
  418SOL    HW1 2153   3.491   0.530   5.365  0.6772 -1.4520 -0.7895
  418SOL    HW2 2154   3.458   0.534   5.205 -1.2800 -2.7845 -0.4572
  419SOL     OW 2155   0.477   5.928   0.631  0.0699  0.9273 -0.0282
  419SOL    HW1 2156   0.552   5.867   0.604  0.8947  1.9043  0.0050
  419SOL    HW2 2157   0.392   5.876   0.633  0.5627  0.0308 -1.0944
  420SOL     OW 2158   4.651   1.947   0.251 -0.1095  0.6697 -0.6323
  420SOL    HW1 2159   4.611   1.887   0.182  0.2832  2.1345 -2.1979
  420SOL    HW2 2160   4.727   1.900   0.297 -2.1301 -1.3539  0.8733
  421SOL     OW 2161   3.942   4.619   1.736 -0.3885  0.1172  0.6630
  421SOL    HW1 2162   4.019   4.576   1.688  0.3028 -1.4110  2.9735
  421SOL    HW2 2163   3.857   4.572   1.710 -0.2536  0.3456 -0.2208
  422SOL     OW 2164   4.329   2.228   6.847 -0.5788 -0.1197  0.3330
  422SOL    HW1 2165   4.313   2.318   6.806  0.8911  0.4272  0.9059
  422SOL    HW2 2166   4.410   2.231   6.905 -0.1050 -2.0018 -0.1649
  423SOL     OW 2167   3.722   6.794   5.335 -0.3221  0.1204  0.5263
  423SOL    HW1 2168   3.723   6.698   5.308 -1.1139  0.2135  0.1343
  423SOL    HW2 2169   3.815   6.826   5.350  0.0579 -0.2986 -0.8205
  424SOL     OW 2170   2.751   2.120   4.246 -0.1512 -0.7534 -0.0515
  424SOL    HW1 2171   2.740   2.096   4.342  0.2285 -0.9643 -0.0604
  424SOL    HW2 2172   2.686   2.192   4.222 -0.4149 -0.8746  0.2982
  425SOL     OW 2173   3.549   0.638   6.894  0.8155 -0.2823  0.1293
  425SOL    HW1 2174   3.550   0.594   6.984  1.0568  0.5915  0.5719
  425SOL    HW2 2175   3.640   0.628   6.852  0.8008 -0.4072  0.1269
  426SOL     OW 2176   2.209   3.105   4.672 -0.1423  0.0064 -0.1860
  426SOL    HW1 2177   2.230   3.200   4.649 -1.4656  0.6082  0.9475
  426SOL    HW2 2178   2.173   3.058   4.592  0.4381  0.4757 -0.7321
  427SOL     OW 2179   4.204   1.959   3.071  0.0184  0.0422 -0.0811
  427SOL    HW1 2180   4.127   2.008   3.111 -0.2506  0.1342 -0.7027
  427SOL    HW2 2181   4.173   1.869   3.039  0.0804  0.2223 -0.6591
  428SOL     OW 2182   2.605   1.482   4.831 -0.4234  0.1042 -0.8827
  428SOL    HW1 2183   2.618   1.383   4.838  0.5885  0.2662 -0.3281
  428SOL    HW2 2184   2.517   1.507   4.872 -0.7580 -0.5766 -1.1665
  429SOL     OW 2185   0.836   6.623   3.698 -0.0105  0.4811  0.5448
  429SOL    HW1 2186   0.748   6.597   3.738 -0.7562  2.3032  0.2119
  429SOL    HW2 2187   0.866   6.710   3.737 -0.4637  2.0324 -2.2895
  430SOL     OW 2188   1.851   0.981   3.922 -0.3338  0.0245  0.2521
  430SOL    HW1 2189   1.938   0.954   3.883 -1.2357 -0.0033 -1.8668
  430SOL    HW2 2190   1.867   1.042   4.000  1.5552 -0.8976  0.6376
  431SOL     OW 2191   1.028   1.980   3.477 -0.2132  0.3837  0.4580
  431SOL    HW1 2192   0.939   1.937   3.460 -1.2001  1.6370  2.1615
  431SOL    HW2 2193   1.048   2.046   3.404 -1.1256  0.7626  0.5369
  432SOL     OW 2194   3.619   3.112   0.946  0.2900 -0.1967  0.0618
  432SOL    HW1 2195   3.583   3.205   0.950 -0.1660 -0.3365 -0.6511
  432SOL    HW2 2196   3.553   3.052   0.899  1.5633 -0.3939 -1.5673
  433SOL     OW 2197   2.334   4.146   1.866  0.3695  0.0082  0.1285
  433SOL    HW1 2198   2.409   4.209   1.886  1.3568 -1.2426  0.5661
  433SOL    HW2 2199   2.270   4.189   1.802  2.2491  0.6186 -1.4419
  434SOL     OW 2200   4.868   3.934   3.077 -0.3735  0.5445 -0.3679
  434SOL    HW1 2201   4.797   3.867   3.058 -0.3788 -0.0028  1.4268
  434SOL    HW2 2202   4.900   3.974   2.990 -0.0924 -2.0231 -1.5405
  435SOL     OW 2203   3.303   2.358   6.548  0.0473 -0.1702 -0.2694
  435SOL    HW1 2204   3.241   2.364   6.470 -2.4587 -0.0544  1.6124
  435SOL    HW2 2205   3.389   2.314   6.519 -0.7952 -0.1742 -3.0261
  436SOL     OW 2206   4.902   5.383   4.131 -0.2650  0.2283  0.2849
  436SOL    HW1 2207   4.969   5.442   4.176  1.3444 -0.9149 -0.5113
  436SOL    HW2 2208   4.948   5.304   4.091 -1.7050  0.7086 -2.6075
  437SOL     OW 2209   4.086   6.390   5.448  0.1473  0.1442  0.2196
  437SOL    HW1 2210   4.110   6.472   5.501 -2.0130  0.5953  0.5995
  437SOL    HW2 2211   4.119   6.401   5.355  0.7193  1.0268  0.5060
  438SOL     OW 2212   0.018   5.149   1.046 -0.1344  0.6762 -0.2774
  438SOL    HW1 2213   0.045   5.245   1.042  1.8652  0.1348 -1.4415
  438SOL    HW2 2214   0.083   5.094   0.993 -1.4983 -1.2707 -0.0450
  439SOL     OW 2215   6.254   1.661   6.625  0.0805  0.5322  0.3892
  439SOL    HW1 2216   6.299   1.613   6.549 -0.1578 -1.7953  1.6178
  439SOL    HW2 2217   6.263   1.760   6.612  1.3945  0.1936 -1.8380
  440SOL     OW 2218   2.384   1.427   0.266 -0.1150 -0.0355  0.5868
  440SOL    HW1 2219   2.322   1.363   0.219 -0.6059  0.6759  0.2493
  440SOL    HW2 2220   2.348   1.446   0.357  0.8507 -1.4355  1.2984
  441SOL     OW 2221   0.301   4.570   3.297  0.2478  0.1141 -0.1771
  441SOL    HW1 2222   0.274   4.610   3.385  1.6344  0.5423  0.0821
  441SOL    HW2 2223   0.346   4.640   3.241  0.1571 -0.3769 -0.8776
  442SOL     OW 2224   5.244   3.485   5.060 -0.0122 -0.2171  0.0501
  442SOL    HW1 2225   5.202   3.563   5.105 -0.4360 -0.1436 -0.4621
  442SOL    HW2 2226   5.343   3.501   5.052 -0.0275  0.0537  0.3695
  443SOL     OW 2227   5.443   3.113   2.682  0.1821  0.3837  0.1709
  443SOL    HW1 2228   5.480   3.023   2.701  2.0812  0.9237 -0.7246
  443SOL    HW2 2229   5.510   3.167   2.630 -2.3007  1.0526 -2.6042
  444SOL     OW 2230   3.695   1.411   1.849  0.1702 -0.6232 -0.1394
  444SOL    HW1 2231   3.611   1.433   1.899 -0.3751  0.2432 -1.4020
  444SOL    HW2 2232   3.760   1.367   1.912 -1.0897 -1.0352  0.9302
  445SOL     OW 2233   2.214   4.204   2.745 -0.1217  0.8743  0.3181
  445SOL    HW1 2234   2.256   4.136   2.806  0.5540  2.5607  1.7946
  445SOL    HW2 2235   2.284   4.269   2.715 -1.0656  1.8396  0.1700
  446SOL     OW 2236   6.630   0.704   0.587 -0.2549 -0.3325  0.6590
  446SOL    HW1 2237   6.673   0.717   0.498  1.5621 -0.2556  1.5059
  446SOL    HW2 2238   6.573   0.783   0.609  0.7536  0.4961  0.3462
  447SOL     OW 2239   5.525   3.872   1.201  0.4803 -0.4069 -0.1110
  447SOL    HW1 2240   5.478   3.792   1.240 -0.5230  1.0256  1.7698
  447SOL    HW2 2241   5.611   3.887   1.250  1.6567 -1.4179 -1.7608
  448SOL     OW 2242   3.914   5.681   3.244  0.1598 -0.5496 -0.1771
  448SOL    HW1 2243   4.005   5.699   3.280  1.0983  0.0162 -2.6640
  448SOL    HW2 2244   3.858   5.764   3.251  1.1678  0.3740 -2.2349
  449SOL     OW 2245   3.958   6.722   6.419 -0.2425 -0.4746 -0.9138
  449SOL    HW1 2246   3.860   6.740   6.429 -0.2584 -0.1064 -1.6434
  449SOL    HW2 2247   4.007   6.808   6.408  0.3891 -0.5346  1.0699
  450SOL     OW 2248   0.018   4.007   4.129  0.1794  0.0463  0.3715
  450SOL    HW1 2249  -0.008   4.052   4.043  1.0193 -0.8690 -0.3731
  450SOL    HW2 2250   0.107   3.964   4.119  0.6111  0.5011  1.9283
  451SOL     OW 2251   0.098   2.454   0.634 -0.4251  0.0318 -0.3523
  451SOL    HW1 2252   0.092   2.445   0.733 -1.2982 -0.4360 -0.4382
  451SOL    HW2 2253   0.158   2.531   0.611 -2.4043  1.9402  0.5665
  452SOL     OW 2254   5.595   5.826   1.744  0.1856 -0.1842  0.2100
  452SOL    HW1 2255   5.543   5.753   1.789  1.4988 -2.5769 -1.8441
  452SOL    HW2 2256   5.544   5.860   1.666 -0.6047  1.4956  1.4023
  453SOL     OW 2257   3.416   0.436   5.637 -0.2808 -0.5935 -0.0705
  453SOL    HW1 2258   3.511   0.432   5.604 -0.2742 -0.9555 -0.0160
  453SOL    HW2 2259   3.393   0.530   5.660 -0.2614 -0.3411 -1.0384
  454SOL     OW 2260   6.737   4.589   6.617 -0.3689 -0.4096 -0.6667
  454SOL    HW1 2261   6.687   4.564   6.700  0.3504 -1.5853 -0.5661
  454SOL    HW2 2262   6.671   4.611   6.545 -1.0278 -1.0162 -0.2720
  455SOL     OW 2263   6.106   4.903   0.004  0.4181  0.2630 -0.3306
  455SOL    HW1 2264   6.062   4.902  -0.086 -1.1155 -1.1725  0.3798
  455SOL    HW2 2265   6.060   4.838   0.065  3.0406 -0.7347  0.7445
  456SOL     OW 2266   1.303   2.411   2.471  0.1325  0.3236  0.5830
  456SOL    HW1 2267   1.299   2.507   2.445 -1.6890 -0.3212 -1.9101
  456SOL    HW2 2268   1.224   2.363   2.434  2.3415 -2.6790 -0.6749
  457SOL     OW 2269   2.196   0.483   5.527  0.5007  0.7741  0.5292
  457SOL    HW1 2270   2.283   0.434   5.533  0.7544  0.8666 -1.4750
  457SOL    HW2 2271   2.140   0.441   5.455 -1.3877  0.3442  2.1882
  458SOL     OW 2272   2.038   6.505   2.811  0.4547  0.0590  0.2272
  458SOL    HW1 2273   1.996   6.514   2.901 -1.2529  2.4197 -0.6987
  458SOL    HW2 2274   2.079   6.593   2.785 -0.0264 -0.2417 -1.7122
  459SOL     OW 2275   4.812   0.730   4.193  0.0202 -0.1136  1.0652
  459SOL    HW1 2276   4.797   0.669   4.116 -0.5868  0.4690  0.7163
  459SOL    HW2 2277   4.739   0.798   4.197  2.1525  2.4657 -0.3425
  460SOL     OW 2278   1.473   1.055   1.117 -0.1504 -0.3415  0.1851
  460SOL    HW1 2279   1.459   0.980   1.053  0.9295  0.5127 -1.1138
  460SOL    HW2 2280   1.563   1.047   1.159  0.9168  1.2994 -1.5868
  461SOL     OW 2281   1.230   4.601   5.987  0.2670 -0.2900 -0.0533
  461SOL    HW1 2282   1.205   4.572   6.080 -2.3107  1.3324 -0.1539
  461SOL    HW2 2283   1.302   4.670   5.992 -0.1759  0.1295  0.7786
  462SOL     OW 2284   4.580   3.065   0.396  0.2700 -0.1343 -0.2638
  462SOL    HW1 2285   4.577   2.965   0.386  0.0136 -0.0237 -1.3939
  462SOL    HW2 2286   4.526   3.092   0.476 -0.5447 -0.8261 -0.5597
  463SOL     OW 2287   6.073   4.997   3.697 -0.1027  0.4959 -0.0108
  463SOL    HW1 2288   6.030   4.936   3.764 -2.0702  2.1900  0.3873
  463SOL    HW2 2289   6.004   5.027   3.631  1.0134  1.5509 -0.7380
  464SOL     OW 2290   5.471   6.498   6.096  0.3516 -0.3193 -0.3711
  464SOL    HW1 2291   5.529   6.432   6.144 -0.4736  1.0176  2.7126
  464SOL    HW2 2292   5.381   6.458   6.079 -0.7275  0.3456  3.0203
  465SOL     OW 2293   6.142   4.069   1.735  0.1709 -0.9454 -0.0384
  465SOL    HW1 2294   6.206   4.112   1.672  0.6986  1.3039  1.9108
  465SOL    HW2 2295   6.192   4.024   1.809 -0.4782 -0.3368  0.7792
  466SOL     OW 2296   4.696   5.590   4.086 -0.0445 -0.1461 -0.5905
  466SOL    HW1 2297   4.760   5.514   4.101  0.8729  0.4409 -1.4395
  466SOL    HW2 2298   4.620   5.582   4.151 -0.0792 -1.9028 -0.7922
  467SOL     OW 2299   5.929   5.510   3.616 -0.1927 -0.2611 -0.5837
  467SOL    HW1 2300   5.986   5.587   3.587  0.1033 -0.6030 -0.9164
  467SOL    HW2 2301   5.928   5.504   3.716  0.8782 -0.6374 -0.5848
  468SOL     OW 2302   2.935   0.430   5.166 -0.3913 -0.4246  0.3312
  468SOL    HW1 2303   2.870   0.495   5.127  0.3865  0.7486  0.9280
  468SOL    HW2 2304   2.949   0.452   5.263  1.4999 -0.1243  0.0186
  469SOL     OW 2305   3.446   6.543   5.331 -0.0551 -0.0768  0.2269
  469SOL    HW1 2306   3.529   6.525   5.279  0.5250  0.6110  0.8875
  469SOL    HW2 2307   3.425   6.641   5.329 -0.2640 -0.1002  0.9106
  470SOL     OW 2308   1.866   3.948   2.730  0.6772 -0.2198  0.0696
  470SOL    HW1 2309   1.906   4.025   2.780 -0.9330  0.6460  0.0630
  470SOL    HW2 2310   1.787   3.979   2.677  0.4737 -1.7309 -0.5718
  471SOL     OW 2311   2.456   0.891   4.139  0.4346  0.3558  0.4350
  471SOL    HW1 2312   2.541   0.943   4.140  0.5867  0.1475 -0.5061
  471SOL    HW2 2313   2.378   0.953   4.144  0.6342  0.5321  1.5683
  472SOL     OW 2314   5.305   2.974   5.678 -0.3292 -0.1230 -0.1679
  472SOL    HW1 2315   5.294   3.059   5.626 -0.1721 -1.7635 -3.0800
  472SOL    HW2 2316   5.400   2.964   5.706 -0.1253  0.1922 -0.7241
  473SOL     OW 2317   0.455   2.570   2.416  0.0282 -0.3840  0.7162
  473SOL    HW1 2318   0.508   2.582   2.500  0.5554  0.4870  0.2738
  473SOL    HW2 2319   0.514   2.531   2.345 -0.5589 -1.6443  0.8924
  474SOL     OW 2320   6.145   5.647   4.260 -0.0227 -0.1132  0.3000
  474SOL    HW1 2321   6.118   5.727   4.207  0.0325  0.8555  1.7045
  474SOL    HW2 2322   6.207   5.674   4.333  1.2578 -1.6696 -0.1389
  475SOL     OW 2323   6.446   2.294   0.944 -0.5216 -0.2070  0.3215
  475SOL    HW1 2324   6.535   2.332   0.970 -0.4747  0.7623 -1.1395
  475SOL    HW2 2325   6.456   2.196   0.923 -0.0186 -0.3352  1.1001
  476SOL     OW 2326   1.804   4.696   0.784 -0.1660 -0.4878 -0.0204
  476SOL    HW1 2327   1.897   4.661   0.792  0.8258  2.2957  2.0347
  476SOL    HW2 2328   1.806   4.789   0.747 -1.6712  1.1367  3.5740
  477SOL     OW 2329   2.496   4.494   3.928 -0.3950 -0.4552 -0.2651
  477SOL    HW1 2330   2.590   4.525   3.938 -0.7170  0.1478  1.1839
  477SOL    HW2 2331   2.445   4.559   3.872 -0.8612  1.3665  2.0870
  478SOL     OW 2332   5.718   5.269   4.934 -0.3936  0.1039 -0.2899
  478SOL    HW1 2333   5.763   5.202   4.875  0.4576 -1.5882  2.1300
  478SOL    HW2 2334   5.643   5.226   4.984 -0.6965  1.3025  0.3331
  479SOL     OW 2335   3.109   3.170   3.415  0.2561  0.2724  0.0765
  479SOL    HW1 2336   3.166   3.236   3.464 -1.3095  1.1884  0.7672
  479SOL    HW2 2337   3.061   3.216   3.340 -0.1966 -0.2800  0.0169
  480SOL     OW 2338   6.738   0.363   3.270 -0.1065  0.4607 -0.2597
  480SOL    HW1 2339   6.673   0.302   3.315 -0.8823  2.1234  0.9735
  480SOL    HW2 2340   6.718   0.458   3.295  1.6026  1.1755 -1.4093
  481SOL     OW 2341   5.985   7.009   1.996 -0.5237  0.2038  0.4791
  481SOL    HW1 2342   5.964   7.099   1.957  0.3233  0.6332  0.9906
  481SOL    HW2 2343   5.983   6.940   1.924 -0.4363  0.7580 -0.0590
  482SOL     OW 2344   6.140   5.091   3.317  0.4780 -0.4568 -0.0241
  482SOL    HW1 2345   6.166   5.054   3.406 -0.0892 -0.9299 -0.0511
  482SOL    HW2 2346   6.068   5.035   3.277  1.3147 -0.7600 -1.1641
  483SOL     OW 2347   4.879   3.432   3.449 -0.3938  0.1846  0.2101
  483SOL    HW1 2348   4.969   3.405   3.415  0.2692  1.8563  0.5663
  483SOL    HW2 2349   4.852   3.371   3.524 -0.6752 -1.8443 -1.4171
  484SOL     OW 2350   2.514   5.284   4.127  0.1675 -0.1492 -0.1122
  484SOL    HW1 2351   2.447   5.210   4.133 -0.7476  0.4883 -1.7694
  484SOL    HW2 2352   2.599   5.249   4.087 -0.4029 -0.2510 -1.2792
  485SOL     OW 2353   6.438   1.584   0.064  0.5879  0.2597  0.1446
  485SOL    HW1 2354   6.488   1.513   0.015 -1.0726 -1.5298  0.9208
  485SOL    HW2 2355   6.372   1.627   0.002 -0.1537 -0.6525  0.2806
  486SOL     OW 2356   5.620   5.853   5.820 -0.0747  0.0546 -0.3851
  486SOL    HW1 2357   5.619   5.908   5.737 -0.3161  0.2681 -0.2411
  486SOL    HW2 2358   5.628   5.913   5.900 -2.0317  0.0356 -0.1165
  487SOL     OW 2359   0.287   1.507   5.696 -0.2374 -0.1699 -0.3340
  487SOL    HW1 2360   0.317   1.599   5.671  0.2396 -0.0413  0.6710
  487SOL    HW2 2361   0.277   1.452   5.613 -0.4069  0.7434 -0.9365
  488SOL     OW 2362   2.510   6.653   4.226 -0.2480 -0.5736 -0.2687
  488SOL    HW1 2363   2.542   6.561   4.249 -2.4592 -0.8651  1.9510
  488SOL    HW2 2364   2.462   6.650   4.138 -0.4693 -1.5665 -0.1269
  489SOL     OW 2365   1.299   0.328   5.791 -0.4785 -0.2259  0.1203
  489SOL    HW1 2366   1.297   0.318   5.891 -2.3277  1.0468  0.2690
  489SOL    HW2 2367   1.393   0.344   5.761 -0.0966  1.1146  1.8591
  490SOL     OW 2368   6.472   2.566   5.307 -0.0163  0.1130 -0.3393
  490SOL    HW1 2369   6.541   2.638   5.305 -0.3473  0.4175 -1.7623
  490SOL    HW2 2370   6.381   2.605   5.289 -0.6269 -0.2547  1.6742
  491SOL     OW 2371   1.106   2.156   0.080  0.2550 -0.0258  0.0406
  491SOL    HW1 2372   1.064   2.238   0.042 -1.5858 -0.3561  1.2211
  491SOL    HW2 2373   1.204   2.156   0.059  0.2567  2.2928 -0.2477
  492SOL     OW 2374   1.761   2.146   6.963 -0.2177 -0.2975 -0.1137
  492SOL    HW1 2375   1.690   2.161   7.031  0.0378 -0.2180  0.1380
  492SOL    HW2 2376   1.846   2.119   7.009  0.3449  1.0839 -0.2841
  493SOL     OW 2377   1.445   5.075   5.052 -0.7378  0.4535 -0.0555
  493SOL    HW1 2378   1.498   5.015   5.114 -1.0720  0.8621  0.6395
  493SOL    HW2 2379   1.439   5.032   4.962 -0.7135 -0.4245  0.3456
  494SOL     OW 2380   2.652   4.765   4.802  0.3522  0.6604  0.0612
  494SOL    HW1 2381   2.724   4.722   4.855  0.5437 -0.3926 -1.0074
  494SOL    HW2 2382   2.639   4.859   4.832  0.6893  0.2063  1.7085
  495SOL     OW 2383   4.306   5.333   6.112  0.7642  0.3314 -0.0515
  495SOL    HW1 2384   4.392   5.306   6.068 -0.2004 -0.3179 -1.6505
  495SOL    HW2 2385   4.284   5.427   6.087  0.0754 -0.1278 -1.2749
  496SOL     OW 2386   5.253   1.682   4.683  0.7009  0.3089 -0.1341
  496SOL    HW1 2387   5.243   1.754   4.752  0.6681  1.2548 -1.0812
  496SOL    HW2 2388   5.314   1.611   4.716  2.5381  1.8657  0.0253
  497SOL     OW 2389   5.102   1.991   6.401  0.2297  0.2095  0.2448
  497SOL    HW1 2390   5.170   2.006   6.328 -0.3052  1.9201  0.0599
  497SOL    HW2 2391   5.138   1.924   6.466  0.9609 -0.9373 -1.2716
  498SOL     OW 2392   6.334   0.793   1.206  0.4645  0.1639 -0.2891
  498SOL    HW1 2393   6.244   0.800   1.163  0.4140  1.0471 -0.0520
  498SOL    HW2 2394   6.404   0.827   1.144  0.3099  2.1570  0.5545
  499SOL     OW 2395   3.594   4.287   1.399 -0.4930  0.1883  0.3181
  499SOL    HW1 2396   3.521   4.219   1.406 -0.6005  0.2897  0.1954
  499SOL    HW2 2397   3.661   4.273   1.472 -0.4735 -0.0986  0.2470
  500SOL     OW 2398   6.507   0.930   6.108 -0.3958 -0.3049  0.4324
  500SOL    HW1 2399   6.536   0.849   6.157 -0.2398 -0.6506 -0.2169
  500SOL    HW2 2400   6.566   1.007   6.131  0.3015 -0.7142  0.0281
  501SOL     OW 2401   1.220   1.991   5.070 -0.0241  0.2444  0.2866
  501SOL    HW1 2402   1.197   1.895   5.088 -1.6918  0.7034  0.8141
  501SOL    HW2 2403   1.288   1.996   4.997  0.3841 -1.3497  0.5246
  502SOL     OW 2404   1.860   5.483   0.484 -0.1753 -0.7948 -0.5052
  502SOL    HW1 2405   1.947   5.526   0.458 -0.6497  0.2442 -0.4181
  502SOL    HW2 2406   1.802   5.551   0.529 -1.6590 -1.0484 -1.9673
  503SOL     OW 2407   3.623   5.317   2.472  0.2645 -0.2062 -0.0693
  503SOL    HW1 2408   3.605   5.416   2.472 -1.0644 -0.4280  0.0279
  503SOL    HW2 2409   3.567   5.273   2.543  1.4389 -0.9395  0.4268
  504SOL     OW 2410   0.608   6.952   6.946  0.4172 -0.1409  0.0072
  504SOL    HW1 2411   0.593   6.917   6.854  2.3795  1.3283 -0.9383
  504SOL    HW2 2412   0.525   7.000   6.977 -0.0764 -0.1687 -1.2193
  505SOL     OW 2413   4.794   4.029   6.508 -0.2784 -0.1843  0.0130
  505SOL    HW1 2414   4.796   4.009   6.606  1.7810  0.0368  0.0593
  505SOL    HW2 2415   4.830   3.950   6.458  1.5516  0.7947 -0.2977
  506SOL     OW 2416   5.459   6.477   2.761 -0.1792  0.3238 -0.6393
  506SOL    HW1 2417   5.376   6.470   2.817 -0.4297 -2.1088 -1.1837
  506SOL    HW2 2418   5.445   6.428   2.675  2.2785 -1.4120 -0.1422
  507SOL     OW 2419   3.027   2.076   1.990 -0.0093  0.2933 -0.2322
  507SOL    HW1 2420   2.967   2.155   2.006  1.1072  1.0734  0.2599
  507SOL    HW2 2421   3.079   2.090   1.905  1.1173  0.7174  0.4999
  508SOL     OW 2422   1.046   6.445   5.541 -0.3321  0.4451  0.0863
  508SOL    HW1 2423   1.011   6.439   5.447  0.3318  1.2594 -0.2255
  508SOL    HW2 2424   1.129   6.501   5.542  0.2642 -0.4354  1.0028
  509SOL     OW 2425   5.410   1.456   6.021  0.3596  0.1909  0.6058
  509SOL    HW1 2426   5.349   1.493   5.951  0.0467  2.0231  1.7838
  509SOL    HW2 2427   5.503   1.491   6.005  0.7431 -1.0787 -0.0803
  510SOL     OW 2428   4.889   2.524   0.302 -0.0874 -0.5008  0.0053
  510SOL    HW1 2429   4.899   2.615   0.342 -0.1511 -1.5749  2.7096
  510SOL    HW2 2430   4.945   2.459   0.353 -1.6078 -2.3248 -0.5296
  511SOL     OW 2431   1.012   1.724   0.536 -0.0474  0.6876 -0.2033
  511SOL    HW1 2432   1.098   1.701   0.582 -0.0501 -0.1394 -0.5913
  511SOL    HW2 2433   0.972   1.641   0.497 -1.2151  1.0062  0.2879
  512SOL     OW 2434   0.263   1.858   3.838  0.6107  0.4840  0.5717
  512SOL    HW1 2435   0.181   1.868   3.782  0.0073 -0.7361  1.2063
  512SOL    HW2 2436   0.308   1.947   3.847 -0.8478  1.2602  0.5268
  513SOL     OW 2437   4.774   1.348   4.099  0.5394 -0.4396  0.9052
  513SOL    HW1 2438   4.721   1.408   4.159  1.2267 -0.8376  1.9362
  513SOL    HW2 2439   4.842   1.403   4.050  0.0587 -0.1334  0.5655
  514SOL     OW 2440   6.836   1.490   3.625  0.8339 -0.0621 -0.0367
  514SOL    HW1 2441   6.866   1.581   3.597 -3.2715  1.2384 -0.8223
  514SOL    HW2 2442   6.826   1.488   3.725  1.3291  0.1556  0.0246
  515SOL     OW 2443   3.987   1.069   5.221 -0.3813  0.0149 -0.0566
  515SOL    HW1 2444   3.966   1.071   5.318 -2.3407  1.0175 -0.4560
  515SOL    HW2 2445   4.036   1.152   5.195  0.6230 -0.4973  0.1427
  516SOL     OW 2446   1.732   5.829   2.001  0.9015  0.2951  0.0680
  516SOL    HW1 2447   1.681   5.755   1.957  1.5147 -0.5039  0.6676
  516SOL    HW2 2448   1.674   5.911   2.007 -0.7006 -0.8762  1.6712
  517SOL     OW 2449   1.272   4.069   1.255  0.1154  0.0020 -1.0845
  517SOL    HW1 2450   1.209   4.104   1.324  0.7096  1.2857 -1.1590
  517SOL    HW2 2451   1.326   3.994   1.293  2.1070  2.1984  0.7211
  518SOL     OW 2452   2.237   6.078   5.254  0.3175  0.2699  0.2644
  518SOL    HW1 2453   2.234   5.997   5.312  1.2017 -0.0037 -0.0546
  518SOL    HW2 2454   2.143   6.104   5.229  0.0457 -1.8976 -1.3146
  519SOL     OW 2455   6.339   6.966   7.017 -0.0504 -0.7405 -0.4479
  519SOL    HW1 2456   6.399   7.046   7.011 -1.6307  0.5057 -0.3949
  519SOL    HW2 2457   6.319   6.946   7.113 -0.1098 -0.8399 -0.4811
  520SOL     OW 2458   1.408   5.987   5.918 -0.1663  0.2909 -0.2167
  520SOL    HW1 2459   1.470   6.039   5.860 -1.0153 -0.0740 -1.4976
  520SOL    HW2 2460   1.343   5.937   5.861  0.4708 -2.0332  0.9490
  521SOL     OW 2461   6.878   0.429   2.553 -0.5112  0.5147 -0.5574
  521SOL    HW1 2462   6.836   0.505   2.504 -2.8271  1.0037  1.9402
  521SOL    HW2 2463   6.927   0.464   2.633  0.5207 -0.4526 -0.7540
  522SOL     OW 2464   4.199   3.392   1.291  0.0129  0.4291  0.1239
  522SOL    HW1 2465   4.143   3.316   1.257  0.1707 -0.0458  0.9097
  522SOL    HW2 2466   4.210   3.383   1.390 -0.2495  1.6680  0.2755
  523SOL     OW 2467   0.831   6.407   6.101 -0.0377  0.2686  0.2338
  523SOL    HW1 2468   0.745   6.441   6.138  0.6057  0.3957  1.6970
  523SOL    HW2 2469   0.854   6.457   6.017  0.0015  2.2163  1.3490
  524SOL     OW 2470   5.767   2.693   0.902  0.2168  0.1583  0.0152
  524SOL    HW1 2471   5.766   2.607   0.952  0.1281  0.2114  0.1046
  524SOL    HW2 2472   5.702   2.689   0.826  0.0885  0.2075  0.1222
  525SOL     OW 2473   1.036   2.235   1.993  0.5778 -0.5202  0.2908
  525SOL    HW1 2474   0.999   2.296   2.064  0.6294 -4.0568  3.7431
  525SOL    HW2 2475   1.134   2.251   1.984  0.0588  2.2279 -1.6255
  526SOL     OW 2476   3.840   1.322   5.649  0.1416  0.3279  0.0847
  526SOL    HW1 2477   3.854   1.380   5.569  1.8375  0.3058  0.3183
  526SOL    HW2 2478   3.866   1.373   5.732  1.0943 -0.5502  0.3459
  527SOL     OW 2479   1.483   6.965   0.735  0.3286 -0.0037  0.2306
  527SOL    HW1 2480   1.414   6.932   0.799 -0.3699  0.2479 -0.3790
  527SOL    HW2 2481   1.570   6.920   0.753  0.3770  0.6832  1.9093
  528SOL     OW 2482   0.563   4.286   4.192 -0.3048 -0.4189  0.5714
  528SOL    HW1 2483   0.570   4.218   4.265 -1.5114 -1.6286 -0.3865
  528SOL    HW2 2484   0.467   4.297   4.166 -0.0555  1.1989  0.2653
  529SOL     OW 2485   2.483   0.398   6.583 -0.1495 -0.0668 -0.3685
  529SOL    HW1 2486   2.412   0.370   6.647  1.5014 -0.2330  1.4467
  529SOL    HW2 2487   2.449   0.385   6.489 -2.5888  0.1199  0.4106
  530SOL     OW 2488   3.693   4.375   6.767 -0.0595 -0.0287  1.0816
  530SOL    HW1 2489   3.622   4.409   6.829 -0.0560 -0.5234  1.3704
  530SOL    HW2 2490   3.765   4.443   6.759 -1.5100  1.3968 -0.8606
  531SOL     OW 2491   1.008   6.835   6.709  0.1784 -0.2308 -0.2517
  531SOL    HW1 2492   0.986   6.819   6.613  0.2391  2.8119 -0.8517
  531SOL    HW2 2493   1.013   6.933   6.727  2.1280 -0.7090  2.4370
  532SOL     OW 2494   1.585   2.806   0.772  0.3795  0.0196 -0.3166
  532SOL    HW1 2495   1.590   2.720   0.824  2.2835 -0.8127 -1.7690
  532SOL    HW2 2496   1.565   2.786   0.676 -1.8375  1.4554 -0.2359
  533SOL     OW 2497   4.106   0.829   3.582 -0.3870 -0.0333  0.0896
  533SOL    HW1 2498   4.051   0.832   3.499  2.4114  0.7170 -1.9104
  533SOL    HW2 2499   4.100   0.738   3.623 -0.1886 -1.1804 -2.2403
  534SOL     OW 2500   0.755   3.570   2.165 -0.3101 -0.0508 -0.0554
  534SOL    HW1 2501   0.852   3.557   2.144 -0.2069 -2.5149  1.5831
  534SOL    HW2 2502   0.737   3.539   2.258 -2.6971  0.3906 -0.3088
  535SOL     OW 2503   4.576   4.773   5.429  0.1979 -0.2400  0.5455
  535SOL    HW1 2504   4.504   4.719   5.387  0.1194 -1.3393  2.0143
  535SOL    HW2 2505   4.537   4.852   5.476  0.3303  1.2832 -1.7746
  536SOL     OW 2506   5.676   0.184   1.446 -0.6719 -0.3595  0.9265
  536SOL    HW1 2507   5.699   0.128   1.526  4.1167 -0.8473 -0.4443
  536SOL    HW2 2508   5.714   0.141   1.363  2.9664  4.2976 -0.3101
  537SOL     OW 2509   3.458   1.726   5.909  0.1046 -0.2701 -0.3253
  537SOL    HW1 2510   3.491   1.763   5.822 -2.1256 -1.3322 -1.7002
  537SOL    HW2 2511   3.497   1.635   5.924 -1.0887 -0.9721 -1.3006
  538SOL     OW 2512   3.935   0.252   0.038  0.3794  0.4818 -0.3787
  538SOL    HW1 2513   3.942   0.256  -0.062  0.7771 -1.1589 -0.4447
  538SOL    HW2 2514   3.839   0.249   0.064  0.2458 -1.4347 -0.8879
  539SOL     OW 2515   0.020   5.852   5.978  0.3546 -0.4105  0.2908
  539SOL    HW1 2516  -0.016   5.902   6.056  0.1640 -0.4231  0.2128
  539SOL    HW2 2517   0.030   5.914   5.900 -1.5828 -0.8262 -0.3540
  540SOL     OW 2518   2.255   0.053   4.579 -0.5013 -0.2142  0.2262
  540SOL    HW1 2519   2.212   0.134   4.538  0.3443  0.2096  0.1604
  540SOL    HW2 2520   2.333   0.081   4.634  1.6364 -1.1404 -2.1265
  541SOL     OW 2521   6.359   3.949   4.424  0.0763 -0.0394 -0.5807
  541SOL    HW1 2522   6.369   4.045   4.397 -0.5000 -0.2408 -1.5817
  541SOL    HW2 2523   6.269   3.916   4.394 -1.3654  0.1455  3.0146
  542SOL     OW 2524   3.858   0.354   6.062 -0.4523  0.1758  0.3937
  542SOL    HW1 2525   3.823   0.265   6.031  0.9473 -0.1659 -0.2624
  542SOL    HW2 2526   3.831   0.425   5.997 -0.5825  0.0535  0.3125
  543SOL     OW 2527   4.771   2.940   3.918 -0.3958 -0.0202  0.0722
  543SOL    HW1 2528   4.831   3.019   3.935 -0.4139 -0.2265  1.1041
  543SOL    HW2 2529   4.796   2.899   3.830  2.3035 -1.2675  1.3095
  544SOL     OW 2530   1.050   2.841   2.686  0.4227 -0.5639 -0.5503
  544SOL    HW1 2531   0.988   2.781   2.736  1.1312  0.2973  1.4461
  544SOL    HW2 2532   1.036   2.936   2.715  0.0239  0.1828 -2.9081
  545SOL     OW 2533   5.886   1.451   2.141  0.9119  0.4078 -0.0735
  545SOL    HW1 2534   5.938   1.536   2.146 -1.0593  1.6963 -0.1151
  545SOL    HW2 2535   5.877   1.412   2.233  0.0411  1.4391  0.3087
  546SOL     OW 2536   6.838   4.959   2.184 -0.3630 -0.2907 -0.1660
  546SOL    HW1 2537   6.934   4.947   2.158 -0.6382 -0.1671 -1.2819
  546SOL    HW2 2538   6.833   5.005   2.272  0.6198 -1.9723  0.8210
  547SOL     OW 2539   3.916   1.456   5.898  0.2530 -0.2395  0.1473
  547SOL    HW1 2540   3.928   1.520   5.973  1.7334  0.2155 -0.4384
  547SOL    HW2 2541   3.977   1.377   5.912 -0.8023 -1.0434  0.3406
  548SOL     OW 2542   3.626   2.959   6.494 -0.4211 -0.3149  0.6585
  548SOL    HW1 2543   3.553   3.026   6.478  0.9178  1.0801  0.1249
  548SOL    HW2 2544   3.604   2.873   6.447 -1.2903  0.3925 -0.2718
  549SOL     OW 2545   4.803   1.469   1.381  0.2163 -0.2878  0.1883
  549SOL    HW1 2546   4.849   1.388   1.345 -0.2748 -0.5315  0.1035
  549SOL    HW2 2547   4.835   1.550   1.332 -0.9197 -0.6889 -1.2913
  550SOL     OW 2548   1.561   5.556   1.104  0.2197  0.2367 -0.4524
  550SOL    HW1 2549   1.645   5.503   1.113 -0.1613 -0.6754 -1.9979
  550SOL    HW2 2550   1.581   5.642   1.056  0.1189 -0.4399 -1.7405
  551SOL     OW 2551   6.456   1.302   0.708  0.3668  0.2821  0.7037
  551SOL    HW1 2552   6.486   1.309   0.613  0.3654 -1.4263  0.5357
  551SOL    HW2 2553   6.358   1.282   0.711  0.5499 -0.6238  1.0116
  552SOL     OW 2554   0.582   6.808   5.687  0.4411 -0.4211 -0.0913
  552SOL    HW1 2555   0.576   6.802   5.588  1.6626 -1.5377 -0.1262
  552SOL    HW2 2556   0.490   6.798   5.727  0.0239 -0.6099 -1.0801
  553SOL     OW 2557   4.765   0.201   5.907 -0.7264 -0.0042  0.4611
  553SOL    HW1 2558   4.825   0.265   5.859  0.0151 -2.0750 -1.5233
  553SOL    HW2 2559   4.793   0.107   5.889 -1.3231 -0.9984  3.8684
  554SOL     OW 2560   3.639   6.584   1.307 -0.3557  0.3611  0.2274
  554SOL    HW1 2561   3.672   6.532   1.386 -1.8336  0.8604  1.2316
  554SOL    HW2 2562   3.567   6.647   1.337  0.6521  2.2542 -1.1385
  555SOL     OW 2563   2.975   3.193   0.244  0.1683 -0.0751 -0.1604
  555SOL    HW1 2564   2.892   3.250   0.251 -1.7647 -2.7148 -0.0803
  555SOL    HW2 2565   2.949   3.097   0.246  3.4866 -1.1563  3.2332
  556SOL     OW 2566   6.822   6.146   4.590 -0.1997 -0.0414  0.2800
  556SOL    HW1 2567   6.865   6.128   4.501 -0.0223  1.7013 -0.0385
  556SOL    HW2 2568   6.723   6.144   4.581 -0.2030  1.1893 -0.2552
  557SOL     OW 2569   5.468   4.511   6.030  0.3523  0.2290  0.3053
  557SOL    HW1 2570   5.547   4.516   5.970  0.9906 -0.0037  1.1046
  557SOL    HW2 2571   5.388   4.550   5.984  1.2428  1.7740  0.0013
  558SOL     OW 2572   2.299   3.106   1.045  0.1935 -0.3598 -0.6888
  558SOL    HW1 2573   2.286   3.010   1.067 -0.3236 -0.0809  0.2553
  558SOL    HW2 2574   2.245   3.163   1.107  0.8169  0.5577 -0.9606
  559SOL     OW 2575   6.442   0.502   4.495  0.0359  0.7056  0.3182
  559SOL    HW1 2576   6.495   0.418   4.506 -0.8767  0.2156  1.1750
  559SOL    HW2 2577   6.377   0.491   4.420 -0.3831  0.4670  0.7067
  560SOL     OW 2578   6.910   2.786   5.406 -0.7265  0.1071 -0.7799
  560SOL    HW1 2579   7.009   2.799   5.412 -0.8471  0.9642 -0.6032
  560SOL    HW2 2580   6.888   2.747   5.316 -0.1522 -0.9685 -0.4813
  561SOL     OW 2581   5.440   3.281   1.033  0.1437  0.6844  0.0572
  561SOL    HW1 2582   5.342   3.287   1.053  0.0587 -0.1023 -0.0937
  561SOL    HW2 2583   5.454   3.224   0.952  0.6908  1.3342 -0.3177
  562SOL     OW 2584   4.041   0.794   4.247  0.2654 -0.9425 -0.4523
  562SOL    HW1 2585   3.988   0.724   4.293 -0.4641 -0.3076 -0.3129
  562SOL    HW2 2586   3.987   0.834   4.173 -0.2802  1.1516  0.9993
  563SOL     OW 2587   1.365   5.669   3.236  0.1381  0.1671 -0.1884
  563SOL    HW1 2588   1.366   5.711   3.145 -1.5096  1.7955  0.4732
  563SOL    HW2 2589   1.424   5.722   3.297 -0.2040  0.2000  0.1157
  564SOL     OW 2590   4.476   1.831   6.887  0.0350 -1.3414  0.0572
  564SOL    HW1 2591   4.517   1.790   6.806 -0.3469 -1.2538 -0.1843
  564SOL    HW2 2592   4.395   1.883   6.860  1.3993  0.9740  0.0958
  565SOL     OW 2593   3.401   3.214   3.224  0.1622 -0.2796 -0.2038
  565SOL    HW1 2594   3.319   3.165   3.252 -0.5915 -0.2344 -2.1232
  565SOL    HW2 2595   3.474   3.199   3.291 -1.3501 -0.4218  1.4796
  566SOL     OW 2596   2.902   6.795   3.775  0.1479 -0.4763 -0.4996
  566SOL    HW1 2597   3.000   6.806   3.757 -0.0659  0.8893 -0.9056
  566SOL    HW2 2598   2.867   6.874   3.825 -1.1268 -0.0045 -2.0533
  567SOL     OW 2599   2.437   3.681   6.493 -0.3159 -0.0175  0.3258
  567SOL    HW1 2600   2.515   3.619   6.503 -1.4167 -1.9220 -1.8472
  567SOL    HW2 2601   2.371   3.662   6.565  0.1728 -0.0511  0.7761
  568SOL     OW 2602   1.326   6.286   0.423  0.2092  0.0725 -0.4909
  568SOL    HW1 2603   1.320   6.337   0.338 -0.5866  1.4824  0.3706
  568SOL    HW2 2604   1.265   6.326   0.491  2.1508  0.1340  1.3377
  569SOL     OW 2605   0.934   4.367   0.472 -0.2656  0.3992 -0.0031
  569SOL    HW1 2606   0.960   4.354   0.568 -2.6804  0.0718  0.6756
  569SOL    HW2 2607   0.864   4.300   0.447 -0.5225  1.2322 -1.6498
  570SOL     OW 2608   3.829   0.075   5.788 -0.2167 -0.0279 -0.3623
  570SOL    HW1 2609   3.750   0.106   5.736 -0.4915 -0.4303 -0.1851
  570SOL    HW2 2610   3.845  -0.022   5.771 -0.5231 -0.2527  0.5687
  571SOL     OW 2611   0.220   4.796   0.608  0.3411 -0.0994  0.3319
  571SOL    HW1 2612   0.281   4.797   0.529  1.3166 -0.3727  1.0612
  571SOL    HW2 2613   0.269   4.761   0.688  0.0151  2.0112  1.5539
  572SOL     OW 2614   4.322   1.144   5.417 -0.2922 -0.1657 -0.1484
  572SOL    HW1 2615   4.248   1.127   5.351 -1.4931  1.3862  0.7273
  572SOL    HW2 2616   4.292   1.212   5.484  1.4202 -0.6093  1.1460
  573SOL     OW 2617   6.319   1.076   6.675 -0.1543 -0.0136 -0.2400
  573SOL    HW1 2618   6.220   1.080   6.691 -0.2713 -0.6491 -0.7628
  573SOL    HW2 2619   6.337   1.065   6.577  0.3920 -0.9963 -0.0450
  574SOL     OW 2620   3.058   1.096   4.166  0.0563  0.4722 -0.2084
  574SOL    HW1 2621   3.060   1.097   4.066  0.8091 -1.7511 -0.2685
  574SOL    HW2 2622   3.151   1.105   4.202 -0.1331  0.5156  0.2862
  575SOL     OW 2623   3.456   3.754   0.492  0.3267  0.1403  0.0903
  575SOL    HW1 2624   3.532   3.754   0.426  1.3328  1.6352  1.1711
  575SOL    HW2 2625   3.489   3.723   0.581 -0.7383 -0.7346  0.1976
  576SOL     OW 2626   1.458   3.202   4.854  0.3105 -0.0773 -0.4008
  576SOL    HW1 2627   1.446   3.118   4.801  1.5450 -0.3841 -0.2350
  576SOL    HW2 2628   1.475   3.178   4.949 -0.3708  0.4156 -0.1509
  577SOL     OW 2629   6.478   3.318   0.660  0.2304 -0.5335 -0.6087
  577SOL    HW1 2630   6.471   3.252   0.585 -1.3963 -0.4958 -0.5160
  577SOL    HW2 2631   6.467   3.271   0.748 -0.0740 -0.2654 -0.5004
  578SOL     OW 2632   1.919   0.633   6.359 -0.3629 -0.6735 -0.0283
  578SOL    HW1 2633   1.826   0.665   6.377 -0.1843  1.9570 -2.9978
  578SOL    HW2 2634   1.981   0.711   6.352  1.7767 -2.2634  0.2468
  579SOL     OW 2635   1.962   3.292   1.566 -0.1799  0.1750 -0.1190
  579SOL    HW1 2636   2.032   3.234   1.523 -1.4049 -0.4464 -1.3867
  579SOL    HW2 2637   1.976   3.294   1.665  3.4702  2.5922 -0.4994
  580SOL     OW 2638   5.344   6.359   5.439 -0.7928  0.5517 -0.3860
  580SOL    HW1 2639   5.297   6.369   5.527  0.8727 -2.0732  0.9045
  580SOL    HW2 2640   5.410   6.433   5.429 -1.1161  0.9816  0.4942
  581SOL     OW 2641   1.621   4.012   4.789 -0.6755  0.0778  0.5366
  581SOL    HW1 2642   1.558   3.934   4.788  0.0012 -0.4845  0.7670
  581SOL    HW2 2643   1.708   3.984   4.830 -0.7858  1.2509  1.6303
  582SOL     OW 2644   4.238   4.676   3.776  0.0710 -0.3603 -0.4151
  582SOL    HW1 2645   4.253   4.673   3.677 -2.1212 -1.2084 -0.7910
  582SOL    HW2 2646   4.314   4.631   3.822  2.2555  1.9820 -1.4825
  583SOL     OW 2647   3.206   5.614   6.041  0.1600 -0.8277 -0.4428
  583SOL    HW1 2648   3.180   5.581   5.950 -0.4802 -1.1147 -0.1627
  583SOL    HW2 2649   3.232   5.711   6.035 -2.7103  0.0322 -0.4896
  584SOL     OW 2650   5.747   1.192   0.763 -0.3632 -0.0266 -0.4924
  584SOL    HW1 2651   5.680   1.168   0.833  0.1704 -0.5909 -0.1719
  584SOL    HW2 2652   5.737   1.132   0.683 -0.4854  0.1329 -0.5975
  585SOL     OW 2653   1.601   0.653   0.707  0.9313 -0.3730 -0.2114
  585SOL    HW1 2654   1.648   0.714   0.644  0.9121  0.5395  0.6348
  585SOL    HW2 2655   1.666   0.615   0.773  0.8089 -0.6196 -0.2313
  586SOL     OW 2656   3.446   1.983   1.097  0.5831 -0.0780 -0.2524
  586SOL    HW1 2657   3.471   1.905   1.155  3.3583  0.7147 -0.2263
  586SOL    HW2 2658   3.425   2.062   1.155  0.3387 -0.1096 -0.2989
  587SOL     OW 2659   3.715   2.596   1.239 -0.3511 -0.4557 -0.2234
  587SOL    HW1 2660   3.723   2.694   1.258 -0.2339 -0.8763  2.1517
  587SOL    HW2 2661   3.793   2.566   1.184 -1.0486  0.9856 -2.0982
  588SOL     OW 2662   1.030   5.442   3.074  0.1104  0.2780 -0.7262
  588SOL    HW1 2663   0.961   5.381   3.114  0.1463  1.5858  1.5414
  588SOL    HW2 2664   0.983   5.520   3.031  0.1276 -0.2525 -1.7331
  589SOL     OW 2665   3.827   4.192   1.136 -0.3007  0.4516 -0.4369
  589SOL    HW1 2666   3.895   4.214   1.066 -0.7083 -0.5701 -1.1757
  589SOL    HW2 2667   3.872   4.187   1.226  1.0811 -2.3849 -1.1808
  590SOL     OW 2668   4.557   0.282   6.764  0.1836 -0.6137  0.0093
  590SOL    HW1 2669   4.647   0.241   6.772  0.4131 -0.0406  0.4428
  590SOL    HW2 2670   4.487   0.210   6.765  0.6582 -1.1081 -0.9880
  591SOL     OW 2671   3.181   4.910   3.515 -0.3624 -0.4042  0.0944
  591SOL    HW1 2672   3.266   4.928   3.564 -0.3098  0.6497 -0.3465
  591SOL    HW2 2673   3.111   4.876   3.578  0.4558 -1.5415  0.4087
  592SOL     OW 2674   2.801   2.195   3.898  0.0050  0.2246  0.0226
  592SOL    HW1 2675   2.795   2.278   3.953  0.5768  2.9124 -3.6105
  592SOL    HW2 2676   2.729   2.131   3.925 -0.7637  2.0475  2.6343
  593SOL     OW 2677   3.753   2.927   6.730 -0.0331 -0.1398  0.6496
  593SOL    HW1 2678   3.726   2.836   6.763 -0.9566 -0.1272 -0.0213
  593SOL    HW2 2679   3.704   2.947   6.645  1.4833  0.2540 -0.1758
  594SOL     OW 2680   4.206   1.984   2.677 -0.1574  0.0520 -0.2517
  594SOL    HW1 2681   4.281   1.934   2.719 -0.3595 -0.9804 -1.0623
  594SOL    HW2 2682   4.185   2.066   2.730  4.2716  2.7331 -2.0911
  595SOL     OW 2683   4.942   6.827   2.064  0.0088  0.5962 -0.4316
  595SOL    HW1 2684   4.936   6.924   2.043  0.2334  0.5448 -0.7421
  595SOL    HW2 2685   4.896   6.808   2.151  0.7575  1.1185  0.0826
  596SOL     OW 2686   6.950   6.035   3.200 -0.1343 -0.0352  0.5265
  596SOL    HW1 2687   6.958   5.952   3.145  1.6408 -0.1575  0.9173
  596SOL    HW2 2688   7.037   6.054   3.245 -0.9644  1.1740  1.7068
  597SOL     OW 2689   1.697   0.784   1.088  0.2362  0.2956 -0.1456
  597SOL    HW1 2690   1.730   0.691   1.073 -0.8849 -0.3073  0.9524
  597SOL    HW2 2691   1.744   0.846   1.026  1.2313 -0.9495 -0.6842
  598SOL     OW 2692   3.633   2.885   3.872 -0.2120 -0.1356  0.4052
  598SOL    HW1 2693   3.636   2.926   3.780  0.6898 -1.7855 -0.3489
  598SOL    HW2 2694   3.548   2.833   3.882 -0.4646  0.3151  0.6458
  599SOL     OW 2695   2.230   5.626   1.957  0.0495  0.4944 -0.0895
  599SOL    HW1 2696   2.131   5.617   1.945  0.3158 -2.2119 -1.0117
  599SOL    HW2 2697   2.269   5.669   1.876 -0.2196  0.1421 -0.4113
  600SOL     OW 2698   0.331   2.716   4.827  0.1901  0.1300  0.2090
  600SOL    HW1 2699   0.330   2.815   4.815 -0.4134  0.5172  2.7884
  600SOL    HW2 2700   0.424   2.682   4.815  0.0845  0.6188 -2.7737
  601SOL     OW 2701   1.430   4.197   4.912  0.2689 -0.4518 -0.7917
  601SOL    HW1 2702   1.423   4.267   4.840  2.0920  1.2296  0.5461
  601SOL    HW2 2703   1.502   4.132   4.888  2.5117  1.4251  0.4029
  602SOL     OW 2704   2.903   0.856   2.516  0.3831  0.5858 -0.4205
  602SOL    HW1 2705   2.942   0.768   2.489  0.3713  0.2546  0.5944
  602SOL    HW2 2706   2.877   0.907   2.434  1.7857  0.2935 -1.0777
  603SOL     OW 2707   2.205   0.504   3.748 -0.1965 -0.0656 -0.1955
  603SOL    HW1 2708   2.294   0.484   3.788 -1.1008 -1.3050  1.3497
  603SOL    HW2 2709   2.141   0.429   3.770 -1.5612  0.6814 -1.4305
  604SOL     OW 2710   6.200   1.996   4.368 -0.3671  0.0538 -0.0028
  604SOL    HW1 2711   6.230   2.073   4.424 -1.9010  0.6826  0.0097
  604SOL    HW2 2712   6.210   1.911   4.420  0.5828  0.3300  0.2801
  605SOL     OW 2713   6.166   4.962   1.067 -0.1763 -0.1720  0.5453
  605SOL    HW1 2714   6.078   4.950   1.113 -0.1554 -0.1383  0.5934
  605SOL    HW2 2715   6.233   4.999   1.131  0.3065 -1.6818  0.9543
  606SOL     OW 2716   4.958   5.968   3.239  0.3250 -0.3471  0.1288
  606SOL    HW1 2717   5.018   6.000   3.165  0.5470 -0.9337  0.0498
  606SOL    HW2 2718   4.962   5.868   3.244 -0.3042 -0.3620  0.4174
  607SOL     OW 2719   1.895   3.629   6.745  0.4977  0.3450 -0.3579
  607SOL    HW1 2720   1.824   3.669   6.803  2.4360  2.7285  0.5767
  607SOL    HW2 2721   1.953   3.569   6.800  1.6386  1.7013  0.0019
  608SOL     OW 2722   3.272   1.675   6.241  0.6120  0.5069  0.3493
  608SOL    HW1 2723   3.312   1.619   6.169 -0.8838 -0.1120 -0.0522
  608SOL    HW2 2724   3.339   1.691   6.313  1.2515 -1.3314  0.2120
  609SOL     OW 2725   3.973   3.032   2.871  0.5692 -0.4740 -0.1949
  609SOL    HW1 2726   4.030   2.950   2.862  0.2139 -0.7590  0.1162
  609SOL    HW2 2727   3.994   3.078   2.957  0.4225 -0.5126 -0.1371
  610SOL     OW 2728   5.218   2.106   1.425  0.3805  0.5809 -0.4455
  610SOL    HW1 2729   5.183   2.021   1.384 -1.0412  0.7809  0.3007
  610SOL    HW2 2730   5.218   2.179   1.357  0.5377  0.2699 -0.7835
  611SOL     OW 2731   2.640   0.802   2.251 -0.1472 -0.4326  0.2919
  611SOL    HW1 2732   2.691   0.881   2.286  1.7049 -1.0324 -0.8627
  611SOL    HW2 2733   2.687   0.718   2.280 -1.1271 -1.0606  0.0892
  612SOL     OW 2734   2.830   5.942   5.633 -0.2231 -0.1263 -0.0907
  612SOL    HW1 2735   2.891   5.945   5.713 -1.2036 -1.4747  0.7321
  612SOL    HW2 2736   2.885   5.937   5.550  0.9203  3.6229  0.2452
  613SOL     OW 2737   3.625   5.077   5.565 -0.1969  0.9619  0.5090
  613SOL    HW1 2738   3.615   4.979   5.549  1.0051  0.9761 -0.4571
  613SOL    HW2 2739   3.545   5.111   5.615 -1.5294 -0.1628 -0.7561
  614SOL     OW 2740   3.757   4.025   5.774 -0.5523 -0.2031  0.1072
  614SOL    HW1 2741   3.717   3.935   5.795 -3.2401  0.5939 -1.0928
  614SOL    HW2 2742   3.695   4.097   5.806  0.8512  1.2107 -0.2391
  615SOL     OW 2743   1.783   4.814   3.488 -0.0326 -0.1552  0.1760
  615SOL    HW1 2744   1.849   4.889   3.490 -0.1389 -0.0026 -1.2341
  615SOL    HW2 2745   1.715   4.827   3.560  1.0101  0.0952  1.1483
  616SOL     OW 2746   4.758   1.186   5.669  0.1197  0.1398  0.4648
  616SOL    HW1 2747   4.834   1.249   5.681  0.7322 -0.8517  2.2320
  616SOL    HW2 2748   4.710   1.207   5.584  2.4337  0.6879 -0.7840
  617SOL     OW 2749   3.962   0.365   6.768 -0.3407  0.0461  0.1627
  617SOL    HW1 2750   3.873   0.344   6.729  0.1722  0.0323 -1.0512
  617SOL    HW2 2751   3.964   0.460   6.800  0.4337  1.4795 -3.6383
  618SOL     OW 2752   2.511   2.122   2.135  0.2808 -0.0782  0.3804
  618SOL    HW1 2753   2.424   2.136   2.088  0.7621  0.2274 -0.4338
  618SOL    HW2 2754   2.563   2.208   2.134  2.5140 -1.2517 -3.1085
  619SOL     OW 2755   0.937   0.382   5.165  0.1781  0.5361  0.3939
  619SOL    HW1 2756   0.846   0.383   5.206 -0.1553 -1.6254 -0.2009
  619SOL    HW2 2757   0.929   0.398   5.066  0.3096 -0.7217  0.1647
  620SOL     OW 2758   4.834   2.987   6.724 -0.3192 -0.0078 -0.2957
  620SOL    HW1 2759   4.804   2.892   6.739 -3.1127  0.8464  0.2201
  620SOL    HW2 2760   4.929   2.997   6.753 -0.3585 -2.3610  0.8895
  621SOL     OW 2761   6.796   5.496   1.315  0.1777  0.0239 -0.0129
  621SOL    HW1 2762   6.824   5.518   1.222 -0.2291  0.1805 -0.1033
  621SOL    HW2 2763   6.746   5.409   1.315 -2.3377  1.3681 -0.4242
  622SOL     OW 2764   0.406   0.067   5.476 -0.5015  0.1996  0.0510
  622SOL    HW1 2765   0.412  -0.016   5.533 -1.4083 -0.0745 -0.2375
  622SOL    HW2 2766   0.457   0.141   5.520 -1.7406  0.1875  1.5806
  623SOL     OW 2767   6.742   4.138   5.289  0.0517 -0.3412  0.1104
  623SOL    HW1 2768   6.779   4.145   5.196  0.5301  0.1298  0.3380
  623SOL    HW2 2769   6.692   4.221   5.312 -1.6318 -1.1711 -0.3894
  624SOL     OW 2770   6.695   3.177   1.917 -0.5099 -0.4248 -0.0732
  624SOL    HW1 2771   6.768   3.240   1.942  0.2897 -1.7804  1.1582
  624SOL    HW2 2772   6.608   3.211   1.951 -0.8500  2.1099 -3.0543
  625SOL     OW 2773   2.123   4.013   3.742 -0.0398  0.8023 -0.2026
  625SOL    HW1 2774   2.074   4.007   3.655 -0.9533  3.5073  0.0471
  625SOL    HW2 2775   2.088   3.943   3.804  0.7444 -1.3050 -1.9677
  626SOL     OW 2776   3.864   6.971   2.112 -0.7291 -0.0530 -0.1657
  626SOL    HW1 2777   3.905   7.053   2.073  0.3870 -0.8119 -0.6556
  626SOL    HW2 2778   3.935   6.916   2.157 -0.7796 -2.3234 -2.6354
  627SOL     OW 2779   4.254   0.811   1.827  0.0480  0.5929 -0.4989
  627SOL    HW1 2780   4.345   0.770   1.837 -0.5193 -0.5812  0.0648
  627SOL    HW2 2781   4.187   0.739   1.809 -0.3139  1.7138 -4.6978
  628SOL     OW 2782   5.944   2.270   5.683  0.7070  0.3352 -0.2429
  628SOL    HW1 2783   5.962   2.220   5.767  1.0221  1.6796  0.5102
  628SOL    HW2 2784   6.002   2.352   5.679 -0.9995  1.5938 -0.5815
  629SOL     OW 2785   2.263   6.900   1.413 -0.4037  0.2814 -0.4224
  629SOL    HW1 2786   2.362   6.883   1.408 -0.3557  0.4286  0.0112
  629SOL    HW2 2787   2.245   6.980   1.471 -0.8137 -0.1659  0.0849
  630SOL     OW 2788   3.108   2.941   6.996  0.4387 -0.3055  0.0850
  630SOL    HW1 2789   3.174   2.922   6.924  0.7375 -2.2971  0.8288
  630SOL    HW2 2790   3.086   3.039   6.996  1.3357 -0.0590 -1.8936
  631SOL     OW 2791   2.052   5.715   6.379  0.2003  0.4062 -0.3407
  631SOL    HW1 2792   1.985   5.722   6.454  1.3205  0.2116  0.7173
  631SOL    HW2 2793   2.125   5.653   6.406  0.8845  0.7266 -1.4190
  632SOL     OW 2794   2.258   2.407   2.583  0.3534 -0.0569  0.2095
  632SOL    HW1 2795   2.299   2.471   2.518  1.1205  0.0732  0.8123
  632SOL    HW2 2796   2.305   2.413   2.670 -1.7596  1.0130  1.3542
  633SOL     OW 2797   1.865   6.638   6.835 -0.3382  0.0737 -0.4261
  633SOL    HW1 2798   1.891   6.579   6.759 -0.3616 -2.1409  1.1955
  633SOL    HW2 2799   1.843   6.582   6.915  0.3158  2.3218  1.4315
  634SOL     OW 2800   2.520   5.952   0.637 -0.7039  0.5494  0.4616
  634SOL    HW1 2801   2.498   5.861   0.671 -0.6810  0.8497  1.2831
  634SOL    HW2 2802   2.436   6.003   0.623 -0.6889  0.5845  0.5007
  635SOL     OW 2803   2.564   2.246   1.643 -0.0939  0.3019  0.0068
  635SOL    HW1 2804   2.509   2.204   1.571 -0.2436  1.2740 -0.4559
  635SOL    HW2 2805   2.618   2.175   1.689 -1.1435 -0.5535 -0.0418
  636SOL     OW 2806   6.007   6.258   6.952 -0.5504 -0.0755 -0.0848
  636SOL    HW1 2807   5.968   6.208   7.030 -2.8360  0.6434 -0.6792
  636SOL    HW2 2808   6.004   6.356   6.971 -1.3829  0.1216 -1.1567
  637SOL     OW 2809   5.072   2.817   1.488 -0.2484  0.1226  0.6190
  637SOL    HW1 2810   5.050   2.720   1.477 -1.2204  0.3789  0.1971
  637SOL    HW2 2811   5.085   2.837   1.585  0.5697 -0.5465  0.6599
  638SOL     OW 2812   0.341   1.395   1.777  0.3982 -0.1084  0.1081
  638SOL    HW1 2813   0.430   1.402   1.732  0.6852 -2.0463  0.2935
  638SOL    HW2 2814   0.287   1.476   1.756  1.8395  0.6658 -0.7965
  639SOL     OW 2815   2.726   5.753   2.531 -0.0132  0.2633 -0.0393
  639SOL    HW1 2816   2.808   5.697   2.546 -0.0314 -0.0624 -1.0749
  639SOL    HW2 2817   2.714   5.769   2.433  0.7141  3.1570  0.2425
  640SOL     OW 2818   2.450   3.908   6.611  0.5484  0.0045  0.4215
  640SOL    HW1 2819   2.365   3.937   6.656 -0.4999 -0.6568 -1.0653
  640SOL    HW2 2820   2.441   3.814   6.580  2.1765 -0.3746  1.0100
  641SOL     OW 2821   0.449   6.081   5.156  0.0350  0.2119 -0.3058
  641SOL    HW1 2822   0.427   6.042   5.067 -0.5598 -0.0413 -0.0473
  641SOL    HW2 2823   0.548   6.072   5.172  0.1642  0.3643 -0.9851
  642SOL     OW 2824   1.177   3.765   6.245  0.0244  0.6603 -0.2917
  642SOL    HW1 2825   1.104   3.803   6.302  2.0728  1.6142  1.8970
  642SOL    HW2 2826   1.235   3.839   6.211  1.4330 -0.1823  0.1820
  643SOL     OW 2827   5.374   5.110   3.994 -0.7223  0.1699 -0.3809
  643SOL    HW1 2828   5.378   5.116   3.895  0.1465  0.9856 -0.3107
  643SOL    HW2 2829   5.447   5.049   4.027  0.2662  1.4303 -0.1445
  644SOL     OW 2830   2.434   0.221   1.074 -0.2749  0.1804 -0.3842
  644SOL    HW1 2831   2.364   0.196   1.142 -0.9996  1.4874 -0.5951
  644SOL    HW2 2832   2.430   0.320   1.058  2.2975  0.4708  0.3124
  645SOL     OW 2833   6.634   1.319   4.229 -0.0184  0.4526 -0.1792
  645SOL    HW1 2834   6.547   1.344   4.187 -0.0542  0.0268 -0.3632
  645SOL    HW2 2835   6.678   1.249   4.174  0.8434  1.2646 -0.5529
  646SOL     OW 2836   3.619   0.884   4.070  0.1949  0.1781  1.0294
  646SOL    HW1 2837   3.706   0.931   4.087 -0.3576  1.0651  1.4669
  646SOL    HW2 2838   3.585   0.846   4.156 -0.2474  0.5356  1.0120
  647SOL     OW 2839   6.071   4.656   6.624 -0.1478 -0.6593 -0.6355
  647SOL    HW1 2840   6.022   4.600   6.691 -1.7200 -0.3068 -1.4325
  647SOL    HW2 2841   6.124   4.726   6.672 -1.4255 -0.2663  0.2496
  648SOL     OW 2842   5.672   1.840   4.919  0.0776  0.0137  0.2345
  648SOL    HW1 2843   5.665   1.932   4.956 -1.6767 -0.3493  0.8885
  648SOL    HW2 2844   5.689   1.845   4.820 -0.4948  1.0418  0.1805
  649SOL     OW 2845   5.097   4.173   2.108  0.5648 -0.0596  0.5808
  649SOL    HW1 2846   5.090   4.091   2.164  0.0277 -0.0900  0.4810
  649SOL    HW2 2847   5.032   4.242   2.141  0.0414 -0.1801 -0.1493
  650SOL     OW 2848   5.382   3.051   6.974  0.4760  0.6012  0.2998
  650SOL    HW1 2849   5.326   3.129   6.945  0.2155  0.6708  0.9830
  650SOL    HW2 2850   5.344   3.012   7.058  1.5655  0.7668  0.8813
  651SOL     OW 2851   1.568   6.273   5.256  0.1619  0.0817 -0.3885
  651SOL    HW1 2852   1.586   6.338   5.182 -0.7838  0.2735 -0.4647
  651SOL    HW2 2853   1.505   6.202   5.224  0.8714 -0.6522 -0.1859
  652SOL     OW 2854   4.722   2.754   3.044  0.0304 -0.1937 -0.2376
  652SOL    HW1 2855   4.819   2.731   3.056  0.6358  2.1962  0.0522
  652SOL    HW2 2856   4.667   2.702   3.108  1.2496 -0.8311  0.3245
  653SOL     OW 2857   5.206   4.147   3.465 -0.3701  0.2266  0.0577
  653SOL    HW1 2858   5.281   4.213   3.478 -1.3595  1.1475  1.3090
  653SOL    HW2 2859   5.243   4.054   3.466  0.7876  0.6694  0.3493
  654SOL     OW 2860   6.764   6.558   6.617  0.1732 -0.0617 -0.5111
  654SOL    HW1 2861   6.686   6.496   6.623  0.7720 -0.7289  0.9426
  654SOL    HW2 2862   6.839   6.512   6.568 -0.0327  0.2541 -1.1366
  655SOL     OW 2863   6.958   1.243   5.665  0.0707  0.4962 -0.0207
  655SOL    HW1 2864   7.043   1.193   5.683 -1.3382 -1.1376  2.7750
  655SOL    HW2 2865   6.899   1.188   5.606 -0.1265  0.4016  0.2647
  656SOL     OW 2866   2.842   6.467   2.795  0.3579 -0.3922  0.4612
  656SOL    HW1 2867   2.779   6.502   2.865  0.2191  0.7982 -0.2323
  656SOL    HW2 2868   2.806   6.489   2.705  0.9312 -1.2282  0.0217
  657SOL     OW 2869   5.472   0.369   0.365 -0.0075 -0.3148 -0.4050
  657SOL    HW1 2870   5.459   0.289   0.307 -2.0222  0.2309 -0.7772
  657SOL    HW2 2871   5.384   0.399   0.401  0.9828  0.3468  1.6485
  658SOL     OW 2872   4.453   5.639   5.455  0.0060  0.3724  0.3168
  658SOL    HW1 2873   4.403   5.719   5.487  1.5660  2.1931 -1.5637
  658SOL    HW2 2874   4.439   5.628   5.356  1.2121 -0.6338  0.2315
  659SOL     OW 2875   4.477   0.246   0.978  0.3688  0.2657 -0.0300
  659SOL    HW1 2876   4.456   0.303   0.898  0.5395 -0.7585 -0.8246
  659SOL    HW2 2877   4.495   0.153   0.948  1.9673  0.1948  1.0428
  660SOL     OW 2878   4.888   6.408   4.478 -0.3994 -0.5549 -0.0048
  660SOL    HW1 2879   4.966   6.469   4.475 -0.0578 -0.9264  0.9281
  660SOL    HW2 2880   4.851   6.396   4.386  1.3498 -1.2868 -0.6513
  661SOL     OW 2881   5.440   5.390   4.061 -0.2587 -0.5498  0.1305
  661SOL    HW1 2882   5.407   5.316   4.003  0.1620 -0.0397 -0.7788
  661SOL    HW2 2883   5.538   5.404   4.046 -0.4105  0.4502 -0.0133
  662SOL     OW 2884   4.831   0.940   6.614 -0.5459 -0.3360  0.0445
  662SOL    HW1 2885   4.747   0.950   6.561 -0.1766  1.9957 -0.2387
  662SOL    HW2 2886   4.814   0.880   6.693 -1.1494 -3.7579 -2.4629
  663SOL     OW 2887   2.737   4.717   3.660 -0.4666 -0.1410 -0.1113
  663SOL    HW1 2888   2.675   4.795   3.671  1.0551  1.1258 -0.0112
  663SOL    HW2 2889   2.722   4.651   3.734 -0.4265  1.0600  1.0077
  664SOL     OW 2890   5.242   1.712   0.172 -0.6143 -0.2442  0.5767
  664SOL    HW1 2891   5.312   1.696   0.103 -0.3834  1.4006  0.3924
  664SOL    HW2 2892   5.152   1.688   0.134 -0.3607 -0.5780  0.1710
  665SOL     OW 2893   3.454   5.551   2.902  0.1552 -0.2524 -0.2409
  665SOL    HW1 2894   3.394   5.540   2.981 -0.9194 -0.3379 -1.0616
  665SOL    HW2 2895   3.515   5.472   2.895 -0.3958 -0.7005 -0.0483
  666SOL     OW 2896   3.059   2.351   0.888 -0.4844 -0.2144  0.5695
  666SOL    HW1 2897   3.058   2.388   0.981  0.8698  0.6489  0.2720
  666SOL    HW2 2898   3.152   2.357   0.851 -0.8903 -1.0455 -0.6552
  667SOL     OW 2899   3.227   4.970   1.629  0.0308 -0.5863 -0.1435
  667SOL    HW1 2900   3.230   4.917   1.714  1.7034 -0.1096  0.1272
  667SOL    HW2 2901   3.153   5.037   1.635  0.2845 -0.3876  1.0637
  668SOL     OW 2902   6.188   3.903   5.710 -0.0211 -0.1893 -0.1479
  668SOL    HW1 2903   6.237   3.990   5.703  0.8310 -0.5017  1.4312
  668SOL    HW2 2904   6.112   3.903   5.646 -0.1884  1.8243 -0.0295
  669SOL     OW 2905   4.641   1.691   1.071  0.0415 -0.5791  0.0932
  669SOL    HW1 2906   4.572   1.759   1.094  0.8409 -0.4308  2.3139
  669SOL    HW2 2907   4.703   1.729   1.002  0.6969  1.1618  1.5434
  670SOL     OW 2908   3.788   6.770   3.501 -0.9783  0.2890  0.0290
  670SOL    HW1 2909   3.819   6.726   3.585  0.8044  0.2544 -0.6007
  670SOL    HW2 2910   3.792   6.704   3.425 -2.0694  0.4663 -0.2071
  671SOL     OW 2911   4.101   6.906   1.896 -0.0529 -0.0657  0.3130
  671SOL    HW1 2912   4.060   6.996   1.883 -0.9630 -0.6886 -1.4048
  671SOL    HW2 2913   4.048   6.838   1.846  2.7709 -1.0235 -1.6159
  672SOL     OW 2914   4.120   6.231   1.441  0.0869  0.0695  0.3827
  672SOL    HW1 2915   4.073   6.262   1.358 -1.8721 -0.8905  1.0883
  672SOL    HW2 2916   4.124   6.306   1.507 -0.7107  0.0984  0.4095
  673SOL     OW 2917   4.051   1.800   0.745 -0.1337  0.5059 -0.6550
  673SOL    HW1 2918   4.111   1.876   0.722  1.5765 -0.5094  0.2123
  673SOL    HW2 2919   4.021   1.809   0.841 -1.9533  1.3394 -1.2560
  674SOL     OW 2920   5.250   1.548   3.602 -0.5273  0.0254  0.6986
  674SOL    HW1 2921   5.160   1.511   3.578 -0.0704  0.1459 -1.4434
  674SOL    HW2 2922   5.239   1.637   3.647 -1.4971 -0.7738  2.1201
  675SOL     OW 2923   6.913   3.832   3.240  0.1760  0.2560  0.0705
  675SOL    HW1 2924   6.954   3.910   3.193 -0.6899  0.5019 -0.2984
  675SOL    HW2 2925   6.917   3.847   3.339  0.5144  0.5072  0.0209
  676SOL     OW 2926   3.226   5.617   6.979 -0.2800 -1.2976  0.4199
  676SOL    HW1 2927   3.193   5.597   6.887  1.0246 -4.7801  0.5769
  676SOL    HW2 2928   3.218   5.715   6.996 -3.0976 -0.8928 -2.3357
  677SOL     OW 2929   5.457   2.656   1.611  0.0670 -0.2393 -0.0260
  677SOL    HW1 2930   5.413   2.699   1.690  0.0821 -1.6860  0.8026
  677SOL    HW2 2931   5.533   2.713   1.580  0.6503 -0.1079  1.6000
  678SOL     OW 2932   0.520   2.695   5.668  0.2765 -0.3868 -0.3084
  678SOL    HW1 2933   0.615   2.714   5.647  1.1580 -4.1195 -0.4260
  678SOL    HW2 2934   0.511   2.675   5.765 -0.2065 -0.8480 -0.4434
  679SOL     OW 2935   3.640   0.480   4.371 -0.1027  0.8640  0.5461
  679SOL    HW1 2936   3.689   0.396   4.392  0.8605  1.5908  1.2760
  679SOL    HW2 2937   3.543   0.459   4.358  0.1064 -0.3379  0.7739
  680SOL     OW 2938   0.357   6.935   2.928  0.1398 -0.4342  0.0575
  680SOL    HW1 2939   0.455   6.941   2.912 -0.0965  1.0968 -1.0672
  680SOL    HW2 2940   0.332   6.840   2.949  1.7482 -0.9612 -0.2688
  681SOL     OW 2941   4.546   5.340   2.302 -0.0207  0.3577  0.1971
  681SOL    HW1 2942   4.582   5.277   2.233 -1.0022 -1.1020  0.9655
  681SOL    HW2 2943   4.590   5.429   2.292  1.3333 -0.4019 -1.0027
  682SOL     OW 2944   6.229   1.071   3.443  0.2915 -0.2491  0.2533
  682SOL    HW1 2945   6.328   1.087   3.441  0.0803  1.4990  1.6311
  682SOL    HW2 2946   6.208   1.004   3.514  0.5809 -1.9985 -1.2124
  683SOL     OW 2947   2.507   3.079   0.390  0.5613  0.0099 -0.2476
  683SOL    HW1 2948   2.553   3.028   0.463  1.8729  0.5709 -0.6534
  683SOL    HW2 2949   2.409   3.055   0.389  1.1523 -2.7522 -0.6261
  684SOL     OW 2950   6.916   1.525   6.601 -0.3637 -0.8105 -0.2226
  684SOL    HW1 2951   6.984   1.492   6.666 -0.2349 -1.3361 -0.6102
  684SOL    HW2 2952   6.961   1.555   6.517 -0.5655 -0.6423 -0.2733
  685SOL     OW 2953   3.967   2.187   4.668  0.0732 -0.0803  0.5186
  685SOL    HW1 2954   4.013   2.225   4.588 -1.5393  0.5799 -0.1286
  685SOL    HW2 2955   4.013   2.220   4.751  1.2795 -0.1524 -0.1046
  686SOL     OW 2956   5.277   5.885   5.333 -0.7350  0.3422 -0.5059
  686SOL    HW1 2957   5.284   5.982   5.307  1.2186  0.6227  0.8411
  686SOL    HW2 2958   5.281   5.828   5.250 -0.0566  1.3611 -1.2019
  687SOL     OW 2959   0.490   2.799   4.108 -0.2997  0.2122 -0.2080
  687SOL    HW1 2960   0.509   2.753   4.022 -3.2916 -1.1623 -0.2552
  687SOL    HW2 2961   0.495   2.733   4.183  0.8891  1.0896  0.5166
  688SOL     OW 2962   6.731   2.353   0.998 -0.0828  0.1549 -0.9756
  688SOL    HW1 2963   6.741   2.322   0.903 -0.3780 -0.3338 -0.8538
  688SOL    HW2 2964   6.742   2.275   1.060 -0.2499  0.4037 -0.6266
  689SOL     OW 2965   1.765   4.348   4.483  0.4175  0.7412 -0.1974
  689SOL    HW1 2966   1.741   4.434   4.527  0.4209  0.8374 -0.3838
  689SOL    HW2 2967   1.729   4.346   4.390 -0.3349  0.1819  0.0887
  690SOL     OW 2968   6.312   2.633   2.332  0.1206 -0.5474  0.2564
  690SOL    HW1 2969   6.382   2.563   2.317 -1.3722 -1.8400 -1.1737
  690SOL    HW2 2970   6.225   2.589   2.351 -0.4841  1.0037  1.2516
  691SOL     OW 2971   0.744   3.481   2.425 -0.4402 -0.1216  0.7644
  691SOL    HW1 2972   0.676   3.459   2.494  0.0588 -3.2350  0.4065
  691SOL    HW2 2973   0.834   3.490   2.468 -0.3695 -0.5458  0.7079
  692SOL     OW 2974   3.430   0.399   2.860 -0.5663 -0.2600  0.6218
  692SOL    HW1 2975   3.336   0.433   2.853 -1.3831 -2.4070  0.4663
  692SOL    HW2 2976   3.440   0.343   2.942  1.2092  1.6208  1.7917
  693SOL     OW 2977   6.336   5.245   4.260 -0.5586  0.1340 -0.4158
  693SOL    HW1 2978   6.379   5.304   4.191  0.1635 -0.0216 -0.1101
  693SOL    HW2 2979   6.240   5.271   4.272  0.1432  2.3475  0.9004
  694SOL     OW 2980   4.587   1.151   4.648 -0.4143 -0.4435 -0.0964
  694SOL    HW1 2981   4.487   1.158   4.646 -0.4435 -0.8500 -0.0412
  694SOL    HW2 2982   4.624   1.189   4.563 -0.6762 -1.2537 -0.5813
  695SOL     OW 2983   3.770   6.977   2.864  0.1978 -0.0268  0.4886
  695SOL    HW1 2984   3.857   6.999   2.819 -0.5084  1.4672 -0.2253
  695SOL    HW2 2985   3.701   6.960   2.795  0.5572 -4.4976  0.9595
  696SOL     OW 2986   5.344   5.275   2.323  0.1405  0.3709 -0.5992
  696SOL    HW1 2987   5.417   5.223   2.278 -0.0564  0.0403 -0.5445
  696SOL    HW2 2988   5.321   5.231   2.410  0.5023  0.9933 -0.1812
  697SOL     OW 2989   3.988   1.087   2.654 -0.2183 -0.2545 -0.1301
  697SOL    HW1 2990   3.979   1.005   2.710  1.8701 -0.7055 -0.3587
  697SOL    HW2 2991   4.036   1.158   2.706  0.5124 -0.1936 -0.8725
  698SOL     OW 2992   6.979   6.985   6.209  0.7248 -0.2746 -0.0389
  698SOL    HW1 2993   6.905   6.929   6.171  0.7978 -0.0826 -0.4650
  698SOL    HW2 2994   7.019   7.041   6.137  0.6430  0.3455  0.3918
  699SOL     OW 2995   3.598   2.890   1.775 -0.5268  0.7201 -0.3731
  699SOL    HW1 2996   3.672   2.900   1.842 -0.6996 -1.0496  0.1564
  699SOL    HW2 2997   3.517   2.854   1.821 -0.4106 -1.3048 -1.6281
  700SOL     OW 2998   1.968   4.725   4.262 -0.2912  0.1851 -0.6529
  700SOL    HW1 2999   1.877   4.758   4.288  0.9461  3.0807  0.4991
  700SOL    HW2 3000   2.021   4.705   4.345  0.4756 -0.4357 -1.2745
  701SOL     OW 3001   5.291   3.928   1.976  0.0214  0.2202 -0.0228
  701SOL    HW1 3002   5.252   3.925   2.068  0.2622 -0.0667  0.0735
  701SOL    HW2 3003   5.220   3.952   1.910 -0.4023 -0.6337  0.1076
  702SOL     OW 3004   4.117   1.825   5.290  0.7974 -0.3163 -0.1890
  702SOL    HW1 3005   4.017   1.819   5.299  0.4380  1.8433 -1.8822
  702SOL    HW2 3006   4.148   1.916   5.318  2.1043 -0.5192 -0.8813
  703SOL     OW 3007   4.122   1.090   0.202  0.1411 -0.4652 -0.0450
  703SOL    HW1 3008   4.055   1.073   0.130  0.4036 -1.1180 -0.1440
  703SOL    HW2 3009   4.098   1.174   0.251 -0.1648 -0.1337 -0.7454
  704SOL     OW 3010   0.805   2.428   5.099 -1.5303 -0.2707  0.2382
  704SOL    HW1 3011   0.774   2.473   5.015  0.5400 -1.3038 -1.1659
  704SOL    HW2 3012   0.901   2.448   5.114 -1.1801 -2.2414  0.8802
  705SOL     OW 3013   0.798   6.993   4.534 -0.0067  0.6859 -0.3745
  705SOL    HW1 3014   0.796   7.031   4.626 -1.8611  0.3955 -0.2556
  705SOL    HW2 3015   0.715   6.939   4.518  1.3671 -1.2665 -1.3977
  706SOL     OW 3016   5.662   1.716   4.342  0.2301 -0.0068  0.3944
  706SOL    HW1 3017   5.640   1.619   4.349 -1.3481  0.3276  0.3607
  706SOL    HW2 3018   5.596   1.769   4.395 -0.5128  1.2234 -1.6559
  707SOL     OW 3019   2.776   5.309   4.004 -0.0253 -0.0062 -0.6815
  707SOL    HW1 3020   2.822   5.245   4.067 -0.5828  0.9949  0.7962
  707SOL    HW2 3021   2.839   5.333   3.930  1.4817  0.4669  0.6857
  708SOL     OW 3022   4.510   5.690   2.060 -0.3245 -0.4592 -0.5467
  708SOL    HW1 3023   4.428   5.638   2.085 -0.3194 -0.7713 -1.1665
  708SOL    HW2 3024   4.591   5.641   2.094 -0.4151  0.2819  0.8274
  709SOL     OW 3025   0.578   1.177   1.567  0.2543  0.0002  0.6556
  709SOL    HW1 3026   0.522   1.132   1.498 -0.8563  0.3533  1.3013
  709SOL    HW2 3027   0.596   1.112   1.642 -2.1009  0.7789  2.0207
  710SOL     OW 3028   5.472   2.638   2.715 -0.5183  0.5879 -0.3735
  710SOL    HW1 3029   5.526   2.715   2.748  1.6150 -1.5967  1.5674
  710SOL    HW2 3030   5.527   2.583   2.651 -0.0251 -2.0356  2.1211
  711SOL     OW 3031   0.517   2.924   0.914 -0.3283 -0.1602 -0.1526
  711SOL    HW1 3032   0.476   2.839   0.880 -0.9194  0.5804 -1.3842
  711SOL    HW2 3033   0.595   2.948   0.856 -0.3185  0.2591  0.0323
  712SOL     OW 3034   5.580   4.454   6.279  0.5799 -0.2304  0.4895
  712SOL    HW1 3035   5.537   4.467   6.190  1.5891  0.2831  0.0570
  712SOL    HW2 3036   5.618   4.541   6.311 -1.8346  0.1630  2.5667
  713SOL     OW 3037   3.760   3.000   4.132 -0.1805  0.3755  0.1697
  713SOL    HW1 3038   3.737   2.955   4.218  1.4854 -0.2541  0.3044
  713SOL    HW2 3039   3.731   2.943   4.056  0.4266 -0.1604  0.3343
  714SOL     OW 3040   4.889   0.546   0.952  0.1822 -0.1771 -0.1775
  714SOL    HW1 3041   4.896   0.640   0.919  0.3115  0.4725  1.5949
  714SOL    HW2 3042   4.886   0.546   1.052  1.0177 -2.1090 -0.1071
  715SOL     OW 3043   6.830   4.994   5.960 -0.4368 -0.5539 -0.1958
  715SOL    HW1 3044   6.864   4.947   6.042 -1.9894 -0.6323  0.4557
  715SOL    HW2 3045   6.730   4.998   5.964 -0.4561  0.8911 -1.3097
  716SOL     OW 3046   0.134   3.030   4.480  0.0438  0.5498 -0.7085
  716SOL    HW1 3047   0.101   2.943   4.515  0.4927 -0.5111 -2.7513
  716SOL    HW2 3048   0.226   3.019   4.442 -0.0262  1.8236 -1.3148
  717SOL     OW 3049   6.864   5.220   3.983 -0.3619  0.4927  0.7573
  717SOL    HW1 3050   6.959   5.191   3.968 -0.7553 -1.4271  1.7039
  717SOL    HW2 3051   6.822   5.244   3.895  1.1437  1.9678  0.3887
  718SOL     OW 3052   5.674   2.149   2.625  0.4756 -0.1947 -0.0334
  718SOL    HW1 3053   5.602   2.181   2.686  1.5216  1.1484  0.5426
  718SOL    HW2 3054   5.725   2.076   2.669  0.5004 -0.0180  0.2362
  719SOL     OW 3055   5.858   5.016   3.502  0.2926  0.3556 -0.2213
  719SOL    HW1 3056   5.856   5.011   3.402 -0.9622 -1.0153 -0.1577
  719SOL    HW2 3057   5.765   5.025   3.537  0.3630 -2.3451  0.9051
  720SOL     OW 3058   2.555   1.350   0.870 -0.1994 -0.4414 -0.2344
  720SOL    HW1 3059   2.471   1.403   0.881  0.3135  0.5384 -0.9647
  720SOL    HW2 3060   2.538   1.255   0.898 -1.1911  0.0299  0.8448
  721SOL     OW 3061   0.077   1.394   2.699  0.1392 -0.4288 -0.3671
  721SOL    HW1 3062   0.120   1.304   2.689  0.3169 -0.2189 -1.6902
  721SOL    HW2 3063  -0.011   1.395   2.653  0.6346  0.3866 -1.3418
  722SOL     OW 3064   4.767   0.524   0.696 -0.1705 -0.1959 -0.3155
  722SOL    HW1 3065   4.832   0.491   0.764  0.5320 -0.3129 -1.0306
  722SOL    HW2 3066   4.786   0.620   0.676  2.1068 -1.0840 -3.0679
  723SOL     OW 3067   0.930   4.951   2.844 -0.4524  0.7530 -0.4611
  723SOL    HW1 3068   0.954   5.014   2.770  1.2676  1.1673  0.4046
  723SOL    HW2 3069   0.981   4.976   2.926 -2.8567  0.7775  1.1157
  724SOL     OW 3070   0.219   1.759   4.066 -0.5465  0.0134  0.2396
  724SOL    HW1 3071   0.208   1.839   4.125 -4.2460  0.3913 -0.7005
  724SOL    HW2 3072   0.231   1.789   3.972 -1.5311 -0.5196 -0.0611
  725SOL     OW 3073   0.241   4.184   3.549  0.3034  0.0953  0.4501
  725SOL    HW1 3074   0.311   4.254   3.566 -1.0631  1.3773  0.9747
  725SOL    HW2 3075   0.243   4.117   3.623 -0.1877  1.1184  1.4108
  726SOL     OW 3076   0.015   4.402   1.871  0.2625 -0.0577 -0.0088
  726SOL    HW1 3077  -0.001   4.432   1.965 -0.4445 -0.0209 -0.1349
  726SOL    HW2 3078   0.098   4.445   1.836 -0.2246  1.0483  0.1362
  727SOL     OW 3079   2.955   4.837   4.727  1.2521 -0.1613  0.4682
  727SOL    HW1 3080   2.903   4.917   4.758  1.7541  0.5313 -0.4289
  727SOL    HW2 3081   2.937   4.760   4.788 -0.2137  0.2730  0.6095
  728SOL     OW 3082   6.573   2.344   4.799 -0.0727 -0.0718 -0.3024
  728SOL    HW1 3083   6.546   2.264   4.746  1.4707  0.6346 -2.3051
  728SOL    HW2 3084   6.553   2.427   4.746  0.9075  0.6986  0.4949
  729SOL     OW 3085   1.492   4.215   1.106  0.5244 -0.2257  0.4090
  729SOL    HW1 3086   1.478   4.234   1.008  0.5347  3.4946  0.9895
  729SOL    HW2 3087   1.403   4.210   1.152  0.5345 -1.5385  0.3142
  730SOL     OW 3088   5.280   1.213   2.334 -0.4820  0.5622 -0.3312
  730SOL    HW1 3089   5.310   1.120   2.352  0.3472  0.7363 -0.7748
  730SOL    HW2 3090   5.310   1.241   2.243  0.1557  1.6057  0.1793
  731SOL     OW 3091   4.798   5.053   5.721  0.0795 -0.0301 -0.0438
  731SOL    HW1 3092   4.721   5.089   5.668 -1.7287 -1.8587  1.1857
  731SOL    HW2 3093   4.764   4.985   5.786  2.8605 -1.4653  0.0425
  732SOL     OW 3094   4.851   1.793   0.319 -0.0904 -0.5876 -0.4698
  732SOL    HW1 3095   4.939   1.811   0.362 -0.1911 -0.4003 -0.3397
  732SOL    HW2 3096   4.865   1.740   0.235  0.2695  0.6073 -1.1902
  733SOL     OW 3097   7.006   5.845   2.344  0.4489 -0.3216  1.1218
  733SOL    HW1 3098   6.969   5.879   2.431 -1.0421  2.7051 -0.5147
  733SOL    HW2 3099   6.930   5.812   2.287  0.8569  1.1017 -0.3249
  734SOL     OW 3100   6.930   5.414   1.842  0.1672 -0.1406  0.1657
  734SOL    HW1 3101   6.989   5.488   1.874 -0.4369  0.7027 -0.6331
  734SOL    HW2 3102   6.924   5.416   1.742 -1.7612  0.2390  0.2506
  735SOL     OW 3103   2.890   0.868   1.579  0.1105  0.2934 -0.2428
  735SOL    HW1 3104   2.797   0.830   1.576 -0.4232  1.6261 -2.6354
  735SOL    HW2 3105   2.955   0.798   1.548 -0.6131  0.5438 -2.5127
  736SOL     OW 3106   1.683   1.333   2.286 -0.1948  0.0982 -0.0834
  736SOL    HW1 3107   1.735   1.249   2.270 -1.7726 -1.4047  2.1583
  736SOL    HW2 3108   1.726   1.385   2.360 -0.6053 -0.0017  0.2255
  737SOL     OW 3109   3.291   6.668   4.299 -0.1597 -0.4738 -0.0177
  737SOL    HW1 3110   3.381   6.662   4.255 -0.0036 -0.9479  0.3628
  737SOL    HW2 3111   3.222   6.693   4.230  0.3415  0.4475 -0.2092
  738SOL     OW 3112   2.158   2.619   0.637 -0.3353 -0.4780 -0.4155
  738SOL    HW1 3113   2.109   2.676   0.703 -1.4848 -1.7280 -0.1350
  738SOL    HW2 3114   2.139   2.522   0.656 -0.8145 -0.8905 -2.6393
  739SOL     OW 3115   3.488   1.109   3.517  0.0059  0.0751 -0.0884
  739SOL    HW1 3116   3.537   1.167   3.453 -0.8372  1.7369  0.7126
  739SOL    HW2 3117   3.421   1.164   3.567 -1.7388 -1.8353 -0.2037
  740SOL     OW 3118   5.961   3.337   1.814 -0.4105  0.2334 -0.6072
  740SOL    HW1 3119   5.964   3.295   1.723  0.7959  0.1868 -0.5689
  740SOL    HW2 3120   6.048   3.321   1.860 -0.6087  1.2064  0.1305
  741SOL     OW 3121   1.298   1.121   2.128  0.4686 -0.4756  0.1460
  741SOL    HW1 3122   1.395   1.131   2.105  0.2476  0.5481 -0.4078
  741SOL    HW2 3123   1.255   1.211   2.129 -0.6222 -0.9798 -0.2014
  742SOL     OW 3124   1.086   0.720   6.590  0.1852 -0.4254 -0.1745
  742SOL    HW1 3125   1.054   0.627   6.607 -0.7764  0.2111  1.8640
  742SOL    HW2 3126   1.101   0.734   6.492  1.2329 -2.9657 -0.4432
  743SOL     OW 3127   2.504   6.629   3.645  0.2546 -0.1366  0.2556
  743SOL    HW1 3128   2.511   6.579   3.731 -1.2003  0.0356  0.5014
  743SOL    HW2 3129   2.560   6.583   3.575 -0.6118 -1.8110  0.6117
  744SOL     OW 3130   4.239   0.779   5.665 -0.1192  0.1930  0.3570
  744SOL    HW1 3131   4.144   0.811   5.667 -1.1910 -2.6194 -0.8160
  744SOL    HW2 3132   4.284   0.813   5.583 -0.2682  1.0789  0.6304
  745SOL     OW 3133   3.488   0.949   6.661  0.5294 -0.4720  0.3331
  745SOL    HW1 3134   3.563   0.944   6.594 -0.6247 -1.8645 -0.9309
  745SOL    HW2 3135   3.434   0.865   6.656 -2.6432  1.4467 -0.6055
  746SOL     OW 3136   0.286   4.190   5.314 -0.5083 -0.4360  0.2008
  746SOL    HW1 3137   0.225   4.242   5.253  1.2367  1.2530 -0.2234
  746SOL    HW2 3138   0.243   4.103   5.338 -2.5883  0.2017 -0.9338
  747SOL     OW 3139   4.979   5.621   2.875  0.0191  0.2166  0.0804
  747SOL    HW1 3140   4.931   5.709   2.867  0.8074  0.7066  0.5946
  747SOL    HW2 3141   4.922   5.557   2.927 -1.4931 -0.3013 -2.1018
  748SOL     OW 3142   2.397   5.841   1.513 -0.3702  0.1324  0.2288
  748SOL    HW1 3143   2.396   5.941   1.516  1.2216  0.1482  1.2107
  748SOL    HW2 3144   2.304   5.808   1.498 -0.7935  1.7597 -1.1065
  749SOL     OW 3145   6.010   1.630   3.145 -0.1869  0.8635  0.3050
  749SOL    HW1 3146   6.048   1.719   3.169  3.1704 -0.0490 -1.1452
  749SOL    HW2 3147   5.981   1.631   3.049 -0.4225  0.4503  0.3701
  750SOL     OW 3148   2.408   2.553   2.385 -0.0784 -0.2484 -0.0718
  750SOL    HW1 3149   2.386   2.549   2.288  0.6305  1.4404 -0.3422
  750SOL    HW2 3150   2.503   2.526   2.399  0.2257  0.8032 -0.0385
  751SOL     OW 3151   2.337   0.550   6.005  0.2220 -0.1524  0.3262
  751SOL    HW1 3152   2.281   0.623   6.044  2.0517  0.9049  1.0827
  751SOL    HW2 3153   2.285   0.464   6.008 -0.8843  0.5106  2.2128
  752SOL     OW 3154   3.965   0.922   6.558 -0.0544  0.5343 -0.2668
  752SOL    HW1 3155   4.046   0.968   6.594  0.3564  0.0042 -0.4936
  752SOL    HW2 3156   3.986   0.886   6.467 -0.8036  1.1037 -0.6701
  753SOL     OW 3157   3.413   3.902   4.038  0.2536 -0.2522  0.1208
  753SOL    HW1 3158   3.371   3.883   3.949  0.9847  1.5453 -0.6528
  753SOL    HW2 3159   3.424   3.817   4.089  0.4645 -1.4140 -1.7961
  754SOL     OW 3160   5.854   0.046   0.837  0.3321  0.5970  0.1378
  754SOL    HW1 3161   5.904   0.033   0.923 -0.1577 -0.6127  0.2599
  754SOL    HW2 3162   5.778   0.109   0.852  1.6737  2.3066 -0.0080
  755SOL     OW 3163   3.103   3.090   4.332 -0.0131  0.4690  0.4999
  755SOL    HW1 3164   3.121   3.000   4.293 -1.0709  0.3606  0.2366
  755SOL    HW2 3165   3.165   3.157   4.290  0.6952 -0.1049  0.6080
  756SOL     OW 3166   3.630   5.999   5.538 -0.3538 -0.1296 -0.3309
  756SOL    HW1 3167   3.690   6.061   5.589 -1.8188 -1.3655  3.2080
  756SOL    HW2 3168   3.550   6.050   5.506  0.4947  0.6308 -1.3270
  757SOL     OW 3169   1.541   0.220   0.768  0.0145 -0.3323 -0.7023
  757SOL    HW1 3170   1.471   0.282   0.733 -0.5498 -0.7134 -0.2701
  757SOL    HW2 3171   1.515   0.126   0.748 -1.7532 -0.7975  3.0364
  758SOL     OW 3172   5.134   6.867   3.577 -0.2547  0.3159 -0.5565
  758SOL    HW1 3173   5.172   6.932   3.642  0.0387 -0.7564  0.3821
  758SOL    HW2 3174   5.034   6.863   3.587 -0.3342  1.0394 -1.0280
  759SOL     OW 3175   0.107   2.773   4.053  0.0210  0.1607  0.1704
  759SOL    HW1 3176   0.023   2.745   4.099 -0.4162  0.6867 -0.2862
  759SOL    HW2 3177   0.108   2.738   3.960 -0.1490  0.9464 -0.1384
  760SOL     OW 3178   0.998   6.079   4.894 -0.8375  0.3848 -0.7765
  760SOL    HW1 3179   1.038   6.008   4.837 -1.7403 -0.0172 -0.9157
  760SOL    HW2 3180   1.036   6.168   4.868 -0.4390  0.0769 -1.2604
  761SOL     OW 3181   4.077   3.472   5.403  0.4870  0.1467 -0.5883
  761SOL    HW1 3182   4.062   3.508   5.311 -1.3989  2.1612  0.4211
  761SOL    HW2 3183   4.137   3.533   5.454  0.2130 -0.0936  0.0337
  762SOL     OW 3184   2.728   6.565   2.013  0.0560  0.4067 -0.1512
  762SOL    HW1 3185   2.696   6.625   2.085  1.0117  0.4463  0.2506
  762SOL    HW2 3186   2.735   6.471   2.048  2.0052  0.6717  0.3127
  763SOL     OW 3187   4.546   4.928   6.151  0.0754  0.4161 -0.3320
  763SOL    HW1 3188   4.625   4.871   6.129 -0.5442 -0.4860 -0.2404
  763SOL    HW2 3189   4.462   4.882   6.124 -0.5035  0.8410  0.6648
  764SOL     OW 3190   6.751   0.722   4.303  0.3417  0.0799 -0.1497
  764SOL    HW1 3191   6.851   0.717   4.311  0.2494 -0.4025  1.0450
  764SOL    HW2 3192   6.724   0.712   4.208  1.4204 -0.1174 -0.4467
  765SOL     OW 3193   6.258   6.550   5.880  0.5235 -0.0973 -0.6557
  765SOL    HW1 3194   6.225   6.481   5.815  1.8120 -0.5410 -0.8638
  765SOL    HW2 3195   6.258   6.511   5.972  0.2053 -0.0016 -0.6149
  766SOL     OW 3196   1.822   3.299   0.022 -0.4869  0.4193  0.2568
  766SOL    HW1 3197   1.773   3.360   0.084 -0.8313 -0.1067  0.5113
  766SOL    HW2 3198   1.834   3.209   0.065  0.5111  0.4710  0.1111
  767SOL     OW 3199   0.065   0.033   4.707 -0.4660 -0.1797  0.9809
  767SOL    HW1 3200  -0.013  -0.029   4.711 -0.2630 -0.5955 -0.6434
  767SOL    HW2 3201   0.094   0.043   4.612  2.1271 -0.8701  1.6377
  768SOL     OW 3202   4.340   4.655   3.532 -0.9625  0.6762  0.3257
  768SOL    HW1 3203   4.407   4.722   3.563 -1.0284  1.7992 -1.8159
  768SOL    HW2 3204   4.277   4.697   3.467 -2.0796 -1.0405  0.2135
  769SOL     OW 3205   1.578   2.124   5.748  0.6899  0.2109 -0.1326
  769SOL    HW1 3206   1.653   2.189   5.765  0.6918  0.4842 -1.0745
  769SOL    HW2 3207   1.579   2.098   5.651 -1.4034  1.4740 -0.5487
  770SOL     OW 3208   4.210   4.367   6.406  0.0929  0.6270 -0.4859
  770SOL    HW1 3209   4.195   4.362   6.505 -1.1432  2.8628 -0.5059
  770SOL    HW2 3210   4.276   4.439   6.386 -0.8828  1.2989 -1.3689
  771SOL     OW 3211   2.500   5.962   5.222 -0.0450 -0.2064 -0.4880
  771SOL    HW1 3212   2.564   5.999   5.155 -0.7450  1.6009 -0.2253
  771SOL    HW2 3213   2.532   5.873   5.253  2.7159  0.9096  0.1466
  772SOL     OW 3214   5.450   3.347   0.469  0.0321  0.3857  0.2218
  772SOL    HW1 3215   5.499   3.342   0.382 -0.1242  2.3445 -0.0332
  772SOL    HW2 3216   5.508   3.311   0.542  2.4663  3.6422  0.1285
  773SOL     OW 3217   1.061   4.424   4.709  0.2964  0.1165 -0.5043
  773SOL    HW1 3218   1.078   4.510   4.662  0.0291  0.1059 -0.6214
  773SOL    HW2 3219   1.127   4.355   4.677  0.2033  0.1463 -0.7615
  774SOL     OW 3220   3.288   0.576   1.550  0.2925  0.6391 -0.3825
  774SOL    HW1 3221   3.276   0.591   1.648  0.8392  0.0634 -0.2229
  774SOL    HW2 3222   3.360   0.508   1.535 -0.7441 -0.3266 -1.1426
  775SOL     OW 3223   2.121   3.152   2.659 -0.1043  0.7225 -0.2702
  775SOL    HW1 3224   2.071   3.071   2.627  0.7603  0.5471 -1.2333
  775SOL    HW2 3225   2.154   3.204   2.580  0.0002  1.6094  0.3484
  776SOL     OW 3226   2.184   6.102   6.843 -0.1318 -0.2029 -0.4340
  776SOL    HW1 3227   2.182   6.079   6.940  2.6247  0.4577 -0.1361
  776SOL    HW2 3228   2.111   6.167   6.822 -1.5518 -1.2905  0.8692
  777SOL     OW 3229   1.128   3.685   2.333 -0.9241  0.2787  0.0445
  777SOL    HW1 3230   1.101   3.634   2.251 -1.0493 -0.2050  0.3810
  777SOL    HW2 3231   1.227   3.699   2.332 -0.9219  0.2543 -0.1775
  778SOL     OW 3232   5.207   6.867   5.984  0.6674  0.0183  0.3156
  778SOL    HW1 3233   5.259   6.940   6.029  0.2550  0.5841 -0.1122
  778SOL    HW2 3234   5.229   6.779   6.027  1.1297  0.3978  0.8721
  779SOL     OW 3235   6.690   1.434   1.567  0.3738 -0.2604 -0.0596
  779SOL    HW1 3236   6.780   1.406   1.602  1.0943  1.3623 -0.5133
  779SOL    HW2 3237   6.650   1.501   1.629 -1.3766 -2.2546  1.0784
  780SOL     OW 3238   2.391   1.462   3.543 -0.0827  0.3081  0.4279
  780SOL    HW1 3239   2.455   1.423   3.609 -0.5000  0.0561  0.6894
  780SOL    HW2 3240   2.299   1.461   3.582 -0.0193  2.1392  0.6959
  781SOL     OW 3241   1.874   2.115   0.378 -0.3825 -0.1093  0.1459
  781SOL    HW1 3242   1.904   2.087   0.469 -2.0205 -0.2442  0.6812
  781SOL    HW2 3243   1.833   2.037   0.331  0.3208 -0.0017 -0.6655
  782SOL     OW 3244   1.098   4.473   5.310  0.0057  0.1254  0.6936
  782SOL    HW1 3245   1.103   4.390   5.255 -0.3877 -0.2292  1.1844
  782SOL    HW2 3246   1.007   4.515   5.298  0.6831  1.3037 -0.7065
  783SOL     OW 3247   6.601   5.227   0.048 -0.0230  0.5002  0.3880
  783SOL    HW1 3248   6.523   5.187   0.097  0.4953  0.6679  1.3559
  783SOL    HW2 3249   6.662   5.154   0.017 -1.5900  0.1584 -2.2698
  784SOL     OW 3250   2.156   6.187   2.102 -0.4427 -0.2312  0.0116
  784SOL    HW1 3251   2.227   6.195   2.033 -1.2946 -0.8783 -0.9786
  784SOL    HW2 3252   2.076   6.142   2.062 -0.6596 -1.3902  1.6427
  785SOL     OW 3253   0.814   0.712   4.839 -0.1449  0.0728 -0.2589
  785SOL    HW1 3254   0.906   0.750   4.841  0.6185 -1.5886 -1.3040
  785SOL    HW2 3255   0.779   0.705   4.933 -0.0701  2.5725  0.0204
  786SOL     OW 3256   6.411   1.783   3.783  0.1463  0.7779  0.1817
  786SOL    HW1 3257   6.363   1.779   3.695  1.9236 -1.0030 -0.7964
  786SOL    HW2 3258   6.449   1.875   3.796 -1.5542  1.5432 -0.0894
  787SOL     OW 3259   1.807   0.276   0.836  0.3186  0.2546 -0.0625
  787SOL    HW1 3260   1.853   0.303   0.752  0.6914 -0.3079 -0.0478
  787SOL    HW2 3261   1.710   0.260   0.817  0.5231 -0.4958 -0.5344
  788SOL     OW 3262   1.306   1.450   2.339 -0.1364  0.3746  0.1781
  788SOL    HW1 3263   1.365   1.395   2.280 -0.4709 -2.4231  2.2228
  788SOL    HW2 3264   1.363   1.507   2.399  0.3284  0.5283 -0.4040
  789SOL     OW 3265   4.168   4.691   0.821  0.3062  0.2815 -0.3043
  789SOL    HW1 3266   4.245   4.656   0.875  0.4527 -1.3059 -1.4790
  789SOL    HW2 3267   4.186   4.676   0.724 -0.5145  1.9383 -0.7472
  790SOL     OW 3268   2.106   2.372   3.491  0.1646 -0.7942 -0.0416
  790SOL    HW1 3269   2.199   2.405   3.475 -1.0763  2.1866 -1.9684
  790SOL    HW2 3270   2.055   2.372   3.406 -1.7006 -2.2204  0.9896
  791SOL     OW 3271   3.415   5.367   3.263 -0.0748  0.5829 -0.3537
  791SOL    HW1 3272   3.486   5.435   3.283 -0.5517  1.0399 -0.1920
  791SOL    HW2 3273   3.351   5.362   3.339  0.6586 -0.9747  0.1950
  792SOL     OW 3274   0.484   2.174   1.021  0.4801 -0.6613 -0.8622
  792SOL    HW1 3275   0.547   2.099   1.044  0.3010 -0.5828 -0.1159
  792SOL    HW2 3276   0.477   2.237   1.098  1.1703  0.5160 -1.7333
  793SOL     OW 3277   3.169   6.873   3.762 -0.3573 -0.4170  0.3880
  793SOL    HW1 3278   3.221   6.894   3.846  0.2565 -1.2456  0.2263
  793SOL    HW2 3279   3.231   6.875   3.684 -0.9405  0.3919 -0.0582
  794SOL     OW 3280   4.023   3.181   1.234  0.0917  0.5829  0.0245
  794SOL    HW1 3281   3.988   3.139   1.317  1.3243  2.2093  1.4483
  794SOL    HW2 3282   3.967   3.153   1.156 -0.9063 -1.2442  1.3290
  795SOL     OW 3283   5.508   1.102   4.655  0.1053 -0.6963 -0.4894
  795SOL    HW1 3284   5.462   1.112   4.566 -1.5782  1.0794  0.4899
  795SOL    HW2 3285   5.447   1.055   4.718  0.8811 -1.0088  0.0406
  796SOL     OW 3286   1.620   1.497   6.526 -0.0806  0.6037  0.2222
  796SOL    HW1 3287   1.638   1.594   6.542 -1.0533  1.1156 -1.5079
  796SOL    HW2 3288   1.659   1.443   6.601  2.5933  2.1000  0.0121
  797SOL     OW 3289   5.237   1.473   1.784  0.3656 -0.1137  0.1289
  797SOL    HW1 3290   5.270   1.454   1.691  0.6869 -1.2084  0.4471
  797SOL    HW2 3291   5.283   1.553   1.821  0.1426  0.4068 -0.6993
  798SOL     OW 3292   3.272   3.916   1.808 -0.2951 -0.2234  0.1089
  798SOL    HW1 3293   3.295   3.897   1.712 -2.5369  0.9472 -0.7455
  798SOL    HW2 3294   3.180   3.957   1.812  0.7705  2.2240  2.5062
  799SOL     OW 3295   2.213   2.315   4.103 -0.0476 -0.4926  0.1827
  799SOL    HW1 3296   2.188   2.411   4.090  1.6055 -0.2649 -1.9675
  799SOL    HW2 3297   2.283   2.307   4.173  0.9626  0.1245 -0.7227
  800SOL     OW 3298   6.813   5.082   2.958 -0.0687 -0.0955 -0.5598
  800SOL    HW1 3299   6.766   4.994   2.963 -0.6546  0.1920 -0.8754
  800SOL    HW2 3300   6.747   5.154   2.935  0.5692  0.2718 -1.2927
  801SOL     OW 3301   3.517   0.762   4.276 -0.3826  0.2061 -0.0992
  801SOL    HW1 3302   3.535   0.664   4.282  0.0213  0.1756 -1.5823
  801SOL    HW2 3303   3.484   0.795   4.365 -0.7193 -1.3011  0.3617
  802SOL     OW 3304   3.927   3.731   0.903  0.0077 -0.0664 -0.2443
  802SOL    HW1 3305   3.887   3.640   0.910 -0.6833  0.1525 -1.2158
  802SOL    HW2 3306   3.949   3.765   0.995  1.3096 -1.6438  0.0910
  803SOL     OW 3307   2.414   1.149   4.574  0.1782 -0.1219 -0.5276
  803SOL    HW1 3308   2.422   1.162   4.475  1.0240 -0.2774 -0.4873
  803SOL    HW2 3309   2.420   1.238   4.619 -1.6497  0.1109 -0.6862
  804SOL     OW 3310   0.062   0.290   4.497  0.1871  0.2079 -0.1013
  804SOL    HW1 3311   0.073   0.214   4.433 -0.4161 -0.0305  0.0715
  804SOL    HW2 3312  -0.024   0.279   4.546  0.0413  1.0698 -0.1624
  805SOL     OW 3313   2.528   6.942   3.895 -0.5888  0.1833 -0.5365
  805SOL    HW1 3314   2.625   6.964   3.899 -0.9713  1.7653  1.9010
  805SOL    HW2 3315   2.489   6.975   3.809  0.8243  0.3483 -1.1359
  806SOL     OW 3316   2.056   4.293   6.892  0.3190 -0.0316 -0.0603
  806SOL    HW1 3317   1.984   4.360   6.874  1.3056  1.8475  2.3612
  806SOL    HW2 3318   2.139   4.318   6.843  0.2950 -0.2844 -0.2331
  807SOL     OW 3319   2.600   6.492   5.882  0.1567  0.1868 -0.0816
  807SOL    HW1 3320   2.683   6.447   5.850  0.4104 -0.3007  1.2086
  807SOL    HW2 3321   2.521   6.435   5.860  0.1538  0.5670 -1.1495
  808SOL     OW 3322   5.913   4.462   6.113  0.2490  0.5967 -0.4228
  808SOL    HW1 3323   5.830   4.450   6.059  1.3854 -1.9533 -1.8073
  808SOL    HW2 3324   5.992   4.434   6.059  1.7517  0.5648  1.6552
  809SOL     OW 3325   3.514   5.527   0.712  0.2723 -0.1436  0.3390
  809SOL    HW1 3326   3.532   5.544   0.809  1.3865 -1.1086  0.3241
  809SOL    HW2 3327   3.487   5.432   0.699  0.3817 -0.0888 -0.3238
  810SOL     OW 3328   2.370   3.178   6.730  0.5002 -0.0525 -0.9134
  810SOL    HW1 3329   2.453   3.160   6.677  0.2418 -1.5371 -0.8538
  810SOL    HW2 3330   2.359   3.107   6.800 -1.6429 -0.7959 -1.9263
  811SOL     OW 3331   0.038   5.350   4.322 -0.0077  0.1436  0.2623
  811SOL    HW1 3332   0.125   5.392   4.295  0.1867 -0.7548 -0.5577
  811SOL    HW2 3333   0.037   5.254   4.293 -0.9750 -0.0622  0.9312
  812SOL     OW 3334   5.186   3.655   0.832  0.4202 -0.0088 -0.2118
  812SOL    HW1 3335   5.246   3.699   0.899  0.4474  0.0465 -0.2717
  812SOL    HW2 3336   5.193   3.703   0.745 -0.0239  0.2533 -0.1085
  813SOL     OW 3337   6.108   1.157   4.482 -0.2633 -0.2049  0.0067
  813SOL    HW1 3338   6.126   1.059   4.474  0.9653  0.0827 -1.1282
  813SOL    HW2 3339   6.080   1.178   4.576  0.7101 -1.4498  0.6054
  814SOL     OW 3340   2.589   4.678   2.726 -0.2952 -0.5538  0.2842
  814SOL    HW1 3341   2.594   4.660   2.628 -0.7204 -3.5516  0.6910
  814SOL    HW2 3342   2.661   4.742   2.752  1.1772 -1.2968 -1.7008
  815SOL     OW 3343   2.998   1.589   5.410  0.4060  0.3732 -0.1929
  815SOL    HW1 3344   2.990   1.628   5.502  0.8687 -0.9059  0.4055
  815SOL    HW2 3345   3.026   1.661   5.346  0.4773  1.1898  0.7337
  816SOL     OW 3346   5.313   5.289   5.209  0.1286  0.1265 -0.4389
  816SOL    HW1 3347   5.223   5.270   5.169 -0.2299  0.2752  0.2794
  816SOL    HW2 3348   5.320   5.243   5.297  0.8806 -0.1249 -0.6260
  817SOL     OW 3349   5.878   5.747   5.688  0.2161  0.0566 -0.1915
  817SOL    HW1 3350   5.885   5.668   5.750 -0.1339 -0.0031 -0.2264
  817SOL    HW2 3351   5.830   5.821   5.734  1.7570  0.7619  0.3374
  818SOL     OW 3352   1.177   2.248   4.210 -0.1171 -0.2060  0.2260
  818SOL    HW1 3353   1.207   2.199   4.291  0.9529 -0.3942 -0.2686
  818SOL    HW2 3354   1.123   2.188   4.152 -1.7483  0.2115  1.2533
  819SOL     OW 3355   5.609   2.924   2.479  0.1634  0.0741  0.0084
  819SOL    HW1 3356   5.612   2.889   2.572  1.3446 -2.6925 -0.9705
  819SOL    HW2 3357   5.702   2.934   2.444 -0.2678  0.7436 -1.0163
  820SOL     OW 3358   2.806   1.620   5.002 -0.1736  0.5314 -0.0292
  820SOL    HW1 3359   2.902   1.648   5.000  0.4303 -1.3966  0.2969
  820SOL    HW2 3360   2.787   1.563   4.922 -1.5655  2.3124 -1.0670
  821SOL     OW 3361   4.000   3.998   4.997 -0.3086 -0.3784  0.0415
  821SOL    HW1 3362   3.942   3.944   4.936  1.8402 -0.6574 -1.9074
  821SOL    HW2 3363   4.019   4.087   4.954 -0.1998  0.1527  1.1629
  822SOL     OW 3364   6.880   4.687   1.948  0.5254  0.4016  0.7148
  822SOL    HW1 3365   6.947   4.639   2.004  0.2885 -1.3597 -0.4235
  822SOL    HW2 3366   6.822   4.620   1.901 -1.7742  1.8272  1.3146
  823SOL     OW 3367   6.406   3.716   6.483 -0.4946 -0.2782  0.3569
  823SOL    HW1 3368   6.326   3.670   6.520 -0.3916 -1.3111 -0.6530
  823SOL    HW2 3369   6.451   3.657   6.416  0.5779  0.6553  0.2156
  824SOL     OW 3370   6.091   0.093   0.154  0.1563 -0.4414 -0.4180
  824SOL    HW1 3371   6.022   0.033   0.113 -0.1547 -0.0785 -0.4323
  824SOL    HW2 3372   6.175   0.041   0.171  0.4676 -0.4906 -1.9649
  825SOL     OW 3373   6.133   6.216   0.348  0.1240 -0.2595  0.4657
  825SOL    HW1 3374   6.049   6.248   0.305  0.4357  0.6264  0.4859
  825SOL    HW2 3375   6.136   6.247   0.444  1.2743  1.2895 -0.0290
  826SOL     OW 3376   1.881   3.209   0.539 -0.1757 -0.1308 -0.5556
  826SOL    HW1 3377   1.884   3.183   0.636 -0.5596 -0.0301 -0.5155
  826SOL    HW2 3378   1.919   3.301   0.528 -0.7856  0.1430 -0.4001
  827SOL     OW 3379   5.195   3.861   6.455  0.5682 -0.0037  0.0474
  827SOL    HW1 3380   5.100   3.853   6.427  1.4658 -0.2498 -3.4173
  827SOL    HW2 3381   5.208   3.944   6.509 -1.3933  0.5707 -0.3145
  828SOL     OW 3382   0.616   4.839   6.946 -0.4334 -0.0344  0.2283
  828SOL    HW1 3383   0.521   4.870   6.943 -0.2750  0.7844  2.3003
  828SOL    HW2 3384   0.639   4.794   6.859 -2.0672  1.5508 -1.1069
  829SOL     OW 3385   2.991   3.898   2.626 -0.7273 -0.1912  0.4895
  829SOL    HW1 3386   3.086   3.879   2.648 -0.2313  0.3197 -1.0244
  829SOL    HW2 3387   2.934   3.891   2.708  0.3763 -1.9198  1.1391
  830SOL     OW 3388   0.519   5.613   6.163 -0.2506 -0.9445 -0.3193
  830SOL    HW1 3389   0.550   5.641   6.072  0.2783 -0.1093  0.1022
  830SOL    HW2 3390   0.485   5.693   6.213  1.8389 -0.8899  1.1375
  831SOL     OW 3391   5.586   0.978   6.526 -0.2486 -0.0555  0.4656
  831SOL    HW1 3392   5.521   0.959   6.599 -0.7631 -0.1954 -0.0214
  831SOL    HW2 3393   5.679   0.967   6.561 -0.4740 -2.6201  0.4874
  832SOL     OW 3394   2.763   0.883   4.841 -0.1042 -0.4972 -0.7193
  832SOL    HW1 3395   2.814   0.969   4.850 -1.1777 -0.0388  1.5426
  832SOL    HW2 3396   2.669   0.902   4.813 -1.3187 -0.5032  2.8791
  833SOL     OW 3397   2.781   3.619   0.781 -0.0730  0.0235  0.3340
  833SOL    HW1 3398   2.866   3.586   0.739  0.1121  0.1123  0.6363
  833SOL    HW2 3399   2.707   3.613   0.714  0.0122 -0.7577  0.2959
  834SOL     OW 3400   5.751   3.953   5.776 -0.4816 -0.1793 -0.3142
  834SOL    HW1 3401   5.819   4.024   5.759 -0.7461 -0.1989 -1.5491
  834SOL    HW2 3402   5.786   3.865   5.745 -1.3634 -0.0584 -1.7514
  835SOL     OW 3403   2.203   5.808   5.853  0.1494 -0.3039  0.4790
  835SOL    HW1 3404   2.136   5.850   5.792  2.1116  0.9764 -0.9217
  835SOL    HW2 3405   2.157   5.779   5.937 -2.6749 -2.2460 -1.5583
  836SOL     OW 3406   5.338   1.007   3.651  0.6445 -0.1322 -0.4115
  836SOL    HW1 3407   5.296   1.074   3.713 -3.9096 -1.3698 -1.7628
  836SOL    HW2 3408   5.392   1.055   3.582  1.1985  1.6818  1.1762
  837SOL     OW 3409   1.445   1.425   0.061  0.2579 -0.5704  0.2682
  837SOL    HW1 3410   1.391   1.458   0.139  0.1918 -0.7224  0.2885
  837SOL    HW2 3411   1.474   1.502   0.005 -1.1915 -0.5664 -0.5278
  838SOL     OW 3412   1.145   0.484   3.286 -0.0978  0.0701  0.3313
  838SOL    HW1 3413   1.056   0.503   3.327 -0.4195 -0.3969 -0.1249
  838SOL    HW2 3414   1.207   0.448   3.355 -0.4052 -0.0226  0.5602
  839SOL     OW 3415   1.631   0.998   1.661 -0.2167  0.0264 -0.1118
  839SOL    HW1 3416   1.684   0.936   1.603 -0.2474 -1.1392  1.0808
  839SOL    HW2 3417   1.678   1.087   1.666 -0.0591  0.0503 -1.6433
  840SOL     OW 3418   3.795   5.018   0.453  0.4283 -0.3803 -0.0222
  840SOL    HW1 3419   3.800   4.928   0.496  1.6433  0.3677  1.5393
  840SOL    HW2 3420   3.847   5.084   0.509 -0.0675  1.1932 -1.3462
  841SOL     OW 3421   3.673   5.243   0.304 -0.3245 -0.4793  0.3512
  841SOL    HW1 3422   3.652   5.339   0.323 -1.5004 -0.3527 -1.3846
  841SOL    HW2 3423   3.678   5.193   0.390  1.2831  1.2865  1.3744
  842SOL     OW 3424   3.858   5.946   0.843  0.5442 -0.2999  0.1563
  842SOL    HW1 3425   3.951   5.983   0.835  0.1503  0.7212  0.1701
  842SOL    HW2 3426   3.843   5.879   0.770  0.4681  1.3515 -1.4141
  843SOL     OW 3427   0.419   2.360   1.972  1.0451 -0.2101 -0.4797
  843SOL    HW1 3428   0.361   2.420   1.917  0.6310 -0.4314 -0.2857
  843SOL    HW2 3429   0.439   2.276   1.921  1.7416  0.1538 -0.8071
  844SOL     OW 3430   6.667   0.568   1.372 -0.2249 -0.6917 -0.1906
  844SOL    HW1 3431   6.668   0.473   1.402  1.1906 -0.0645  1.9668
  844SOL    HW2 3432   6.592   0.616   1.419  1.0279 -0.0607  1.2376
  845SOL     OW 3433   3.116   0.690   2.849  0.4337 -0.1162  0.4444
  845SOL    HW1 3434   3.098   0.708   2.946 -2.9397 -1.5507  0.2074
  845SOL    HW2 3435   3.126   0.776   2.800 -1.6552  0.7981  1.4967
  846SOL     OW 3436   2.655   6.974   0.713  0.2980 -0.6602 -0.2982
  846SOL    HW1 3437   2.691   6.899   0.768 -0.5533 -0.1396  0.9951
  846SOL    HW2 3438   2.574   7.012   0.756  0.4260  0.6973 -1.1835
  847SOL     OW 3439   3.002   4.288   1.725 -0.1464 -0.0114 -0.0732
  847SOL    HW1 3440   2.961   4.364   1.776 -0.8809 -0.3878 -0.0822
  847SOL    HW2 3441   3.054   4.324   1.647 -0.1845  0.4964  0.1308
  848SOL     OW 3442   5.141   4.725   6.711  0.2073 -0.1988  0.2391
  848SOL    HW1 3443   5.198   4.661   6.660  2.0606  0.5198  1.2945
  848SOL    HW2 3444   5.194   4.807   6.733 -1.6318  1.0512  0.2473
  849SOL     OW 3445   4.649   4.236   4.739 -0.3983  0.1230  0.1970
  849SOL    HW1 3446   4.572   4.230   4.803 -1.1639 -1.3296 -0.7953
  849SOL    HW2 3447   4.664   4.331   4.713 -0.7891  0.6125  1.6667
  850SOL     OW 3448   0.382   5.926   5.847  0.3590  0.3162 -0.3638
  850SOL    HW1 3449   0.391   5.929   5.747  1.2429 -2.6838 -0.4702
  850SOL    HW2 3450   0.306   5.867   5.872 -0.4845  1.8235  0.7940
  851SOL     OW 3451   4.805   4.962   3.791  0.7104  0.5814 -0.5733
  851SOL    HW1 3452   4.756   4.876   3.804  0.9105  0.6278  0.6561
  851SOL    HW2 3453   4.882   4.947   3.729  1.0553 -0.2790  0.0228
  852SOL     OW 3454   0.427   3.171   1.512  0.1549  0.2185  0.6370
  852SOL    HW1 3455   0.429   3.152   1.414  0.5746 -0.8618  0.8358
  852SOL    HW2 3456   0.361   3.243   1.531  1.3371  1.6982 -0.6343
  853SOL     OW 3457   4.326   1.952   6.254  0.1333 -0.4663 -0.1412
  853SOL    HW1 3458   4.414   1.988   6.220 -0.0112 -0.6748 -0.7537
  853SOL    HW2 3459   4.295   1.879   6.193 -0.1981 -0.7690  0.3861
  854SOL     OW 3460   5.018   6.129   6.888 -0.2468  0.5076  0.1622
  854SOL    HW1 3461   5.021   6.229   6.884  0.8824  0.5340  1.1920
  854SOL    HW2 3462   5.090   6.091   6.830 -0.0405  0.3234  0.5350
  855SOL     OW 3463   6.992   2.245   6.456 -0.3447 -0.5453 -0.5779
  855SOL    HW1 3464   6.924   2.223   6.525 -0.8217 -0.1171 -0.9070
  855SOL    HW2 3465   7.077   2.272   6.502 -0.3033 -1.3213 -0.1689
  856SOL     OW 3466   1.287   4.239   1.927  0.2766 -0.1969  0.2051
  856SOL    HW1 3467   1.337   4.184   1.993 -1.0919  0.1712  1.5975
  856SOL    HW2 3468   1.325   4.332   1.924 -0.5610  0.2075  1.5771
  857SOL     OW 3469   6.552   3.927   6.440 -0.0422 -0.9333  0.7641
  857SOL    HW1 3470   6.498   3.851   6.474 -0.4843 -0.3596  1.3777
  857SOL    HW2 3471   6.494   3.986   6.383  0.6042 -1.7046 -0.7439
  858SOL     OW 3472   3.719   2.074   5.515  0.2577 -0.6255 -0.0517
  858SOL    HW1 3473   3.666   2.140   5.463  1.5825  0.4545 -0.0775
  858SOL    HW2 3474   3.702   2.087   5.613  1.8455  1.0016  0.0563
  859SOL     OW 3475   6.735   6.261   3.532  0.0628  0.4464 -0.2049
  859SOL    HW1 3476   6.717   6.358   3.551  0.1992  0.4212  0.0659
  859SOL    HW2 3477   6.742   6.212   3.619 -2.3232 -0.2536 -0.3485
  860SOL     OW 3478   4.351   2.431   5.942  0.8029  0.3443 -0.3276
  860SOL    HW1 3479   4.352   2.442   6.042 -1.0618  2.2240 -0.4323
  860SOL    HW2 3480   4.420   2.364   5.915  2.5556  1.0135  2.0717
  861SOL     OW 3481   0.438   5.856   6.316 -0.7808 -0.1353 -0.3864
  861SOL    HW1 3482   0.437   5.907   6.230 -2.0283  0.7769  0.1347
  861SOL    HW2 3483   0.400   5.913   6.389 -0.7845 -1.2845  0.5376
  862SOL     OW 3484   6.600   3.063   4.121 -0.3575 -0.0269 -0.4481
  862SOL    HW1 3485   6.572   3.125   4.047  0.5561  0.4978 -0.3728
  862SOL    HW2 3486   6.699   3.054   4.121 -0.4985 -1.9557 -0.7920
  863SOL     OW 3487   6.831   1.356   0.094  0.0062 -0.5921  0.4970
  863SOL    HW1 3488   6.825   1.440   0.040  0.8517 -1.0769 -0.3862
  863SOL    HW2 3489   6.775   1.285   0.052  0.7236 -0.9930  0.1990
  864SOL     OW 3490   6.080   6.193   3.903 -0.3722 -0.2684 -0.5364
  864SOL    HW1 3491   6.087   6.124   3.975 -1.5729  1.7405  1.6584
  864SOL    HW2 3492   6.101   6.283   3.940 -2.1486  1.0258 -2.3941
  865SOL     OW 3493   1.065   0.024   6.263  0.0584 -0.2498 -0.1890
  865SOL    HW1 3494   1.152  -0.019   6.238 -0.5332 -2.6056  1.4320
  865SOL    HW2 3495   1.013   0.046   6.181  0.6562 -2.2291 -1.1507
  866SOL     OW 3496   4.250   0.926   2.705 -0.8785  0.2224 -0.2644
  866SOL    HW1 3497   4.286   0.911   2.798 -0.6631  1.2829 -0.1580
  866SOL    HW2 3498   4.285   1.013   2.670 -2.1263  0.5362 -0.7762
  867SOL     OW 3499   0.228   1.579   4.744  0.0490 -0.3111 -0.0184
  867SOL    HW1 3500   0.181   1.513   4.802  0.2408 -0.1968  0.2709
  867SOL    HW2 3501   0.199   1.567   4.649  0.4446 -1.1291 -0.0463
  868SOL     OW 3502   0.305   2.387   2.593 -0.5346  0.2099 -0.0172
  868SOL    HW1 3503   0.336   2.470   2.545 -0.5699  1.9534  2.7259
  868SOL    HW2 3504   0.381   2.323   2.599 -0.4215  0.0916 -1.9669
  869SOL     OW 3505   5.824   4.361   3.430  0.1339  0.3839 -0.2093
  869SOL    HW1 3506   5.738   4.411   3.416 -1.0761 -2.1887 -2.9553
  869SOL    HW2 3507   5.839   4.298   3.353  1.5426 -3.4565  2.8884
  870SOL     OW 3508   3.679   6.057   2.189  0.4601 -0.4129  0.2875
  870SOL    HW1 3509   3.612   6.123   2.223 -0.1107 -1.5536  1.4452
  870SOL    HW2 3510   3.734   6.022   2.265  0.6535 -1.3634 -0.2709
  871SOL     OW 3511   3.518   1.088   2.777  0.4139  0.1173  0.6167
  871SOL    HW1 3512   3.522   1.033   2.694  1.3095  0.4719  0.4221
  871SOL    HW2 3513   3.530   1.029   2.857  1.1356  0.0005  0.4191
  872SOL     OW 3514   6.113   1.635   4.726  0.0986  0.1342  0.1466
  872SOL    HW1 3515   6.146   1.660   4.816 -0.9819  2.3540  0.0026
  872SOL    HW2 3516   6.018   1.665   4.716 -0.1841 -1.1096 -1.3356
  873SOL     OW 3517   4.372   0.088   6.813  0.7249 -0.0695  0.4444
  873SOL    HW1 3518   4.402  -0.007   6.804  0.0212 -0.2475 -0.1043
  873SOL    HW2 3519   4.276   0.095   6.786  1.0426  0.9700 -0.4665
  874SOL     OW 3520   6.302   2.623   2.050  0.8138  0.2977  0.0569
  874SOL    HW1 3521   6.207   2.609   2.021  1.0193 -1.9151  0.2264
  874SOL    HW2 3522   6.303   2.672   2.137 -0.3737 -1.6734  1.2790
  875SOL     OW 3523   4.988   1.283   1.281  0.3062 -0.2511  0.0101
  875SOL    HW1 3524   5.036   1.256   1.365  3.5918  2.4997 -0.7526
  875SOL    HW2 3525   5.028   1.235   1.203  1.0428  1.1408 -0.5030
  876SOL     OW 3526   6.416   5.431   2.938 -0.3104 -0.3513 -1.1145
  876SOL    HW1 3527   6.363   5.404   2.857 -0.6222 -1.5429 -0.5406
  876SOL    HW2 3528   6.357   5.477   3.003 -0.3559 -0.5371 -1.0227
  877SOL     OW 3529   2.108   2.263   0.497 -0.4707 -0.0589 -0.1043
  877SOL    HW1 3530   2.041   2.338   0.501 -0.6097  0.0598 -2.6850
  877SOL    HW2 3531   2.119   2.234   0.402  1.7517 -1.3928  0.4937
  878SOL     OW 3532   2.813   0.673   3.999 -0.3003 -0.4530  0.0689
  878SOL    HW1 3533   2.759   0.661   4.082 -0.3371  1.7216  0.4159
  878SOL    HW2 3534   2.882   0.601   3.993 -1.7395 -1.9623  0.7845
  879SOL     OW 3535   6.084   0.896   1.797  0.3013 -0.5580  0.1256
  879SOL    HW1 3536   6.026   0.842   1.736  1.0144 -0.5220 -0.5848
  879SOL    HW2 3537   6.084   0.991   1.768 -0.5923 -0.2379  1.1125
  880SOL     OW 3538   3.593   3.448   3.217 -0.3721  0.2708 -0.4299
  880SOL    HW1 3539   3.622   3.418   3.308 -1.3242 -0.3030 -0.2984
  880SOL    HW2 3540   3.608   3.375   3.151  1.1456  1.0015 -0.9243
  881SOL     OW 3541   4.426   1.376   0.285  0.2188 -0.4509  0.1403
  881SOL    HW1 3542   4.393   1.469   0.271  0.8279 -0.1330  0.7469
  881SOL    HW2 3543   4.414   1.323   0.201  0.4758  0.3678 -0.4193
  882SOL     OW 3544   1.007   4.237   5.241 -0.6435  0.0769  0.0795
  882SOL    HW1 3545   1.025   4.227   5.143  1.1666 -1.6367  0.5252
  882SOL    HW2 3546   0.983   4.148   5.280  1.1029  0.2339  1.6131
  883SOL     OW 3547   2.507   1.204   2.807 -0.0866 -0.3802 -0.0020
  883SOL    HW1 3548   2.600   1.240   2.802  1.6718 -4.2710  1.2238
  883SOL    HW2 3549   2.461   1.218   2.719  1.1094  2.6451 -0.2816
  884SOL     OW 3550   5.519   3.111   4.586  0.7527  0.3136  0.5497
  884SOL    HW1 3551   5.433   3.134   4.631  0.0159 -1.4242  0.1271
  884SOL    HW2 3552   5.563   3.035   4.635  0.6370 -0.6607 -0.7872
  885SOL     OW 3553   2.149   3.041   5.148  0.3417  0.5373  0.0261
  885SOL    HW1 3554   2.242   3.011   5.130 -0.0982 -0.5128 -0.5879
  885SOL    HW2 3555   2.149   3.138   5.173  1.6623  0.3746  0.7497
  886SOL     OW 3556   3.960   6.854   6.720 -0.2604 -0.0193 -0.0329
  886SOL    HW1 3557   3.983   6.944   6.759 -1.6050 -0.0966  0.9782
  886SOL    HW2 3558   4.044   6.811   6.687  0.3578  1.8088 -1.0180
  887SOL     OW 3559   4.304   2.344   3.820 -0.2235  0.4927 -0.3619
  887SOL    HW1 3560   4.286   2.365   3.916 -1.9503  0.6327 -0.6891
  887SOL    HW2 3561   4.226   2.295   3.781  0.7643 -0.2249 -1.5100
  888SOL     OW 3562   5.157   0.229   3.263 -0.0285  0.3078  0.0465
  888SOL    HW1 3563   5.073   0.284   3.271  0.0995  0.5380 -0.1792
  888SOL    HW2 3564   5.140   0.137   3.300  0.6886  1.4151  3.5122
  889SOL     OW 3565   6.369   4.253   6.897 -0.3100 -0.1743  0.1664
  889SOL    HW1 3566   6.320   4.312   6.832 -1.1849 -1.0996 -0.0363
  889SOL    HW2 3567   6.405   4.309   6.972 -1.7641  0.5209  0.3801
  890SOL     OW 3568   1.951   4.711   4.967  0.3285  0.0909  0.6667
  890SOL    HW1 3569   1.921   4.645   5.036  0.4222  2.0506  2.7248
  890SOL    HW2 3570   2.046   4.738   4.986  0.6131  0.1236 -0.7153
  891SOL     OW 3571   3.861   0.058   0.758  0.5807 -0.3139 -0.1693
  891SOL    HW1 3572   3.892   0.152   0.767  0.9936 -0.2873 -1.7012
  891SOL    HW2 3573   3.860   0.031   0.662 -0.6940 -1.4976  0.1368
  892SOL     OW 3574   3.047   4.761   6.928 -0.0915  0.6323 -0.3707
  892SOL    HW1 3575   2.961   4.735   6.885  0.1377  2.9298 -2.4495
  892SOL    HW2 3576   3.124   4.727   6.874  0.2824  0.2668  0.3770
  893SOL     OW 3577   2.773   5.385   1.584 -0.3190  0.1598 -0.0550
  893SOL    HW1 3578   2.698   5.413   1.525 -0.2371  0.7061  0.0864
  893SOL    HW2 3579   2.840   5.460   1.590 -0.2661  0.0665  0.6191
  894SOL     OW 3580   0.204   4.318   0.283  0.5932  0.4276  0.1498
  894SOL    HW1 3581   0.239   4.346   0.193 -0.4051 -0.8950 -0.6892
  894SOL    HW2 3582   0.218   4.220   0.294  0.9523  0.6205  1.5877
  895SOL     OW 3583   1.129   4.705   3.779  0.0627  0.1163 -0.2816
  895SOL    HW1 3584   1.192   4.630   3.799 -1.9583 -1.6461 -0.0106
  895SOL    HW2 3585   1.077   4.682   3.696 -0.5999  1.2338 -0.1889
  896SOL     OW 3586   0.976   1.487   6.269 -0.2733  0.1178 -0.2233
  896SOL    HW1 3587   1.064   1.455   6.233  0.4632  2.4946 -0.7730
  896SOL    HW2 3588   0.993   1.541   6.351 -0.7669  3.0865 -1.9132
  897SOL     OW 3589   5.619   1.376   0.055  0.2067 -0.6597 -0.1933
  897SOL    HW1 3590   5.660   1.285   0.061 -1.8616 -1.8047 -1.6224
  897SOL    HW2 3591   5.553   1.388   0.129  0.9108 -0.0731  0.3410
  898SOL     OW 3592   1.733   5.634   3.118  0.6542  0.2071 -0.4037
  898SOL    HW1 3593   1.770   5.713   3.168 -0.0608  0.4075 -0.1772
  898SOL    HW2 3594   1.672   5.582   3.179 -0.1575  0.4031 -1.0309
  899SOL     OW 3595   6.776   4.816   1.172  0.6036 -0.2496 -0.0776
  899SOL    HW1 3596   6.816   4.902   1.203 -0.0095 -0.3705  1.1403
  899SOL    HW2 3597   6.810   4.741   1.229 -0.4172 -0.5170  0.2103
  900SOL     OW 3598   5.481   6.324   0.649 -0.1624  0.7761  0.1477
  900SOL    HW1 3599   5.405   6.387   0.665 -0.5094  0.3873  0.0512
  900SOL    HW2 3600   5.503   6.324   0.551  0.3912  1.3713  0.2658
  901SOL     OW 3601   0.514   1.440   1.557 -0.3142  0.3098  0.5478
  901SOL    HW1 3602   0.539   1.345   1.537  0.4100  0.1104  2.2483
  901SOL    HW2 3603   0.594   1.498   1.548  0.0506  0.2188  2.5878
  902SOL     OW 3604   1.497   3.335   3.545 -0.1836 -0.2588  0.3102
  902SOL    HW1 3605   1.488   3.322   3.643  0.4526 -0.8148  0.3027
  902SOL    HW2 3606   1.407   3.353   3.505 -0.6236 -1.2587  0.8135
  903SOL     OW 3607   0.185   3.600   6.913 -0.4416 -0.0586 -0.2710
  903SOL    HW1 3608   0.102   3.546   6.895 -0.1154 -0.7226  0.1602
  903SOL    HW2 3609   0.190   3.621   7.010  0.0039 -0.2019 -0.2617
  904SOL     OW 3610   2.506   2.799   1.688 -0.3575  0.6385 -0.6448
  904SOL    HW1 3611   2.442   2.746   1.744  0.0384 -1.4722 -2.0680
  904SOL    HW2 3612   2.568   2.737   1.641 -0.3084  2.3317 -2.9840
  905SOL     OW 3613   6.307   2.848   5.658 -0.0583  0.6285 -0.3684
  905SOL    HW1 3614   6.220   2.864   5.705 -1.5775 -0.2363 -2.6966
  905SOL    HW2 3615   6.376   2.819   5.724 -2.3836 -1.8173  1.1842
  906SOL     OW 3616   1.035   5.224   5.238 -0.7856  0.0960 -0.1590
  906SOL    HW1 3617   1.095   5.297   5.206 -1.4406  1.3756  1.3795
  906SOL    HW2 3618   0.993   5.251   5.325  0.3079 -2.8566  1.4253
  907SOL     OW 3619   5.196   4.918   6.407  0.2268 -0.0741  0.4422
  907SOL    HW1 3620   5.263   4.868   6.461  0.7114  1.4542  1.3028
  907SOL    HW2 3621   5.164   4.997   6.459 -1.7833 -0.4061 -0.2024
  908SOL     OW 3622   0.739   4.905   4.158 -0.5991  0.4558  0.4424
  908SOL    HW1 3623   0.677   4.896   4.237  0.2422  2.0318  1.3329
  908SOL    HW2 3624   0.717   4.834   4.091 -2.1231 -0.2014  1.5558
  909SOL     OW 3625   4.682   6.930   6.578 -0.1365  0.1739  0.0377
  909SOL    HW1 3626   4.708   6.948   6.483 -0.6930  0.2335 -0.1056
  909SOL    HW2 3627   4.742   6.860   6.616  0.3071  0.3942 -0.2496
  910SOL     OW 3628   2.121   2.884   1.462 -0.1564 -0.4695  0.6545
  910SOL    HW1 3629   2.024   2.900   1.444  0.3215  3.3255  0.6091
  910SOL    HW2 3630   2.141   2.903   1.559  0.7515  0.5369  0.3031
  911SOL     OW 3631   0.123   4.918   6.558  0.1133 -0.0563 -0.2773
  911SOL    HW1 3632   0.147   4.859   6.481  0.2959  0.9456 -1.0093
  911SOL    HW2 3633   0.077   5.000   6.524  0.3165  0.4698  0.6718
  912SOL     OW 3634   0.231   3.091   1.751  0.0642 -0.0284  0.5224
  912SOL    HW1 3635   0.226   3.080   1.652  0.2450 -2.3261  0.7089
  912SOL    HW2 3636   0.306   3.036   1.787  0.8151  1.7662  1.8380
  913SOL     OW 3637   5.176   5.228   1.655  0.0012 -0.0760  0.5652
  913SOL    HW1 3638   5.145   5.186   1.570 -1.2825  0.0754  0.9417
  913SOL    HW2 3639   5.263   5.275   1.638 -0.3287  0.1297 -0.7170
  914SOL     OW 3640   2.933   5.844   1.081  0.3162  0.2649  0.0581
  914SOL    HW1 3641   2.969   5.932   1.113  0.2801  0.8690 -1.4815
  914SOL    HW2 3642   2.894   5.855   0.990  0.5743 -1.4185 -0.2914
  915SOL     OW 3643   6.191   6.914   1.531 -0.1397  0.2068 -0.0781
  915SOL    HW1 3644   6.262   6.931   1.462 -1.1345 -0.7395 -1.3990
  915SOL    HW2 3645   6.216   6.834   1.586 -0.4952 -0.5781 -1.0295
  916SOL     OW 3646   1.044   2.221   1.472 -0.1255 -0.3645  0.0447
  916SOL    HW1 3647   1.077   2.237   1.565  0.3696 -1.1036 -0.0017
  916SOL    HW2 3648   0.965   2.160   1.475 -0.1875 -0.2871 -0.0110
  917SOL     OW 3649   5.853   5.182   0.561  0.2401 -0.4573 -0.3393
  917SOL    HW1 3650   5.936   5.150   0.515 -0.0325 -0.1585 -1.0529
  917SOL    HW2 3651   5.794   5.103   0.580  1.2083 -0.8336  1.2814
  918SOL     OW 3652   2.587   5.647   6.678 -0.3656  0.6773  0.2208
  918SOL    HW1 3653   2.510   5.697   6.637 -0.8377  0.5078  0.8705
  918SOL    HW2 3654   2.665   5.648   6.616 -0.7963  1.1139 -0.3238
  919SOL     OW 3655   5.474   1.922   5.680  0.1005 -0.0220 -0.4389
  919SOL    HW1 3656   5.499   1.918   5.583  1.5102 -1.1415 -0.0648
  919SOL    HW2 3657   5.517   1.847   5.729 -3.1799 -1.4739  0.5326
  920SOL     OW 3658   0.713   4.830   2.309 -0.1738 -0.1548 -0.3448
  920SOL    HW1 3659   0.646   4.903   2.321  0.5733  0.3919  0.6870
  920SOL    HW2 3660   0.666   4.743   2.298 -1.0479  0.0479  1.4661
  921SOL     OW 3661   5.861   4.785   5.706  0.6492  0.8186  0.3106
  921SOL    HW1 3662   5.821   4.753   5.621  1.7857  0.6601 -0.1746
  921SOL    HW2 3663   5.920   4.864   5.688  2.1514 -0.1855  0.7018
  922SOL     OW 3664   2.857   3.389   3.896 -0.0278 -0.0172 -0.4232
  922SOL    HW1 3665   2.776   3.438   3.927  0.8375  1.7624 -0.8264
  922SOL    HW2 3666   2.908   3.356   3.976  0.1515  1.0840 -0.0647
  923SOL     OW 3667   3.073   3.254   6.014  0.2240  0.2877  0.1122
  923SOL    HW1 3668   3.110   3.215   5.930 -0.2447  1.1720 -0.5242
  923SOL    HW2 3669   3.120   3.340   6.034  0.0629  0.2792  0.5348
  924SOL     OW 3670   6.938   4.220   4.429  1.0010  0.2574  0.0081
  924SOL    HW1 3671   6.875   4.151   4.466  2.3628 -0.9755  0.1211
  924SOL    HW2 3672   6.935   4.302   4.486  0.9246 -0.5153  1.1469
  925SOL     OW 3673   6.255   2.137   5.825 -0.0750  0.3069  0.2906
  925SOL    HW1 3674   6.299   2.206   5.882 -0.2281 -0.8477  1.8800
  925SOL    HW2 3675   6.162   2.120   5.859  0.3983 -1.5809  0.8130
  926SOL     OW 3676   6.513   2.500   1.937  0.3803  0.2445  0.4881
  926SOL    HW1 3677   6.563   2.575   1.894 -2.8135  1.6215 -1.1891
  926SOL    HW2 3678   6.428   2.535   1.976  0.0107 -2.1470  2.0307
  927SOL     OW 3679   5.174   4.561   3.220  0.5768 -0.4971  0.8889
  927SOL    HW1 3680   5.091   4.512   3.192  1.2707 -1.8692  1.1293
  927SOL    HW2 3681   5.194   4.539   3.315  1.6562 -0.8487  0.5933
  928SOL     OW 3682   2.645   2.934   6.379  0.0849 -0.2150  0.3437
  928SOL    HW1 3683   2.632   3.019   6.328  0.6437  1.0425  2.2283
  928SOL    HW2 3684   2.741   2.908   6.377  0.1713  0.0462  1.0745
  929SOL     OW 3685   0.482   2.672   6.480 -0.4877 -0.5494  0.3360
  929SOL    HW1 3686   0.548   2.738   6.515 -1.8749  1.2095 -0.2120
  929SOL    HW2 3687   0.390   2.710   6.489 -1.1032 -0.9287 -3.1458
  930SOL     OW 3688   5.567   4.910   4.084  0.0899  0.0389  0.4184
  930SOL    HW1 3689   5.520   4.824   4.065  0.7094 -0.2384  0.1043
  930SOL    HW2 3690   5.655   4.891   4.128 -0.8638  0.6213  2.7243
  931SOL     OW 3691   5.760   2.412   3.767 -0.0135  0.6698 -0.3235
  931SOL    HW1 3692   5.666   2.421   3.735 -0.1633 -0.3223 -0.2103
  931SOL    HW2 3693   5.762   2.424   3.866 -0.1800 -0.2452 -0.1995
  932SOL     OW 3694   4.530   6.831   2.944 -0.0810  0.2361 -0.1376
  932SOL    HW1 3695   4.570   6.767   3.009  1.1218 -2.0314 -2.8950
  932SOL    HW2 3696   4.446   6.793   2.906  0.1036  0.7383 -1.0873
  933SOL     OW 3697   1.953   6.358   0.698  0.1786  0.4091  0.3775
  933SOL    HW1 3698   1.905   6.350   0.786  1.3828 -0.6107  0.9669
  933SOL    HW2 3699   1.918   6.438   0.649  0.1470  1.5833  2.1962
  934SOL     OW 3700   1.645   5.132   1.965  0.0733  0.1617  0.0890
  934SOL    HW1 3701   1.720   5.074   1.931  0.0847  1.3088 -1.9802
  934SOL    HW2 3702   1.559   5.083   1.956  0.1013  0.3530 -1.4813
  935SOL     OW 3703   6.402   3.950   3.417  0.2753  0.1031 -0.4203
  935SOL    HW1 3704   6.426   3.885   3.346 -1.5087  1.5073 -2.4498
  935SOL    HW2 3705   6.461   4.031   3.411 -0.5318  0.6679 -1.0370
  936SOL     OW 3706   1.238   3.884   6.724  0.0908 -0.1948 -0.4795
  936SOL    HW1 3707   1.161   3.863   6.663  0.5874  0.1969 -1.2542
  936SOL    HW2 3708   1.207   3.878   6.819 -0.6397 -1.0363 -0.7494
  937SOL     OW 3709   2.412   2.162   5.303  0.1354 -0.3845 -0.3712
  937SOL    HW1 3710   2.400   2.088   5.237 -1.0037  0.4915 -1.2021
  937SOL    HW2 3711   2.424   2.124   5.395 -1.2173 -1.5921 -0.6521
  938SOL     OW 3712   6.795   3.715   3.806 -0.3937 -0.9150 -0.2296
  938SOL    HW1 3713   6.752   3.728   3.895 -0.5373 -0.3835 -0.3756
  938SOL    HW2 3714   6.856   3.792   3.786  0.9697 -1.8503  0.1622
  939SOL     OW 3715   0.120   5.218   5.087  0.1066 -0.5902  0.0327
  939SOL    HW1 3716   0.077   5.167   5.162 -1.0638 -0.6490 -0.6656
  939SOL    HW2 3717   0.219   5.205   5.091  0.0121 -1.0869  1.2035
  940SOL     OW 3718   2.123   4.629   6.279  0.0500 -0.4630  0.2217
  940SOL    HW1 3719   2.143   4.536   6.311  2.2738  0.5085  1.9391
  940SOL    HW2 3720   2.184   4.652   6.204 -0.0979 -0.1889  0.1841
  941SOL     OW 3721   4.684   6.496   1.453  0.0175  0.5247 -0.1021
  941SOL    HW1 3722   4.668   6.409   1.407 -3.3040  0.0560  1.6265
  941SOL    HW2 3723   4.755   6.485   1.522 -0.2486 -0.7949 -0.0208
  942SOL     OW 3724   0.159   5.138   6.803 -0.0149  0.6165 -0.2039
  942SOL    HW1 3725   0.074   5.086   6.812 -0.2333  1.2796  2.0738
  942SOL    HW2 3726   0.139   5.236   6.805  0.9459  0.9068  4.2203
  943SOL     OW 3727   4.975   4.768   2.780 -0.2724 -0.4344  0.6789
  943SOL    HW1 3728   5.018   4.782   2.869 -1.0841 -0.5222  1.1016
  943SOL    HW2 3729   4.876   4.757   2.792 -0.4309 -0.1617 -0.2650
  944SOL     OW 3730   5.576   5.558   3.366 -0.2548 -0.5818  0.2476
  944SOL    HW1 3731   5.671   5.591   3.371 -0.6874  1.1829 -1.7831
  944SOL    HW2 3732   5.522   5.601   3.439  0.8758 -3.4761  3.0537
  945SOL     OW 3733   0.306   0.044   0.913 -0.0956 -0.3651 -0.4481
  945SOL    HW1 3734   0.370   0.035   0.836  0.2009  2.2743 -0.6116
  945SOL    HW2 3735   0.213   0.033   0.879  0.1212 -1.5565 -0.7135
  946SOL     OW 3736   5.030   2.528   5.239  0.2061  0.0170  0.2040
  946SOL    HW1 3737   4.934   2.515   5.262  0.7404 -1.0743  1.9744
  946SOL    HW2 3738   5.047   2.490   5.148 -1.2383  1.2647 -0.6414
  947SOL     OW 3739   3.498   3.289   3.638  0.4648 -0.1307  0.0816
  947SOL    HW1 3740   3.585   3.323   3.603  1.0807 -1.9747 -0.2659
  947SOL    HW2 3741   3.486   3.319   3.733  2.0536 -0.8477  0.5335
  948SOL     OW 3742   4.538   1.217   3.942  0.1226 -0.0340  0.0704
  948SOL    HW1 3743   4.601   1.269   4.000  0.8416 -0.5867 -0.2017
  948SOL    HW2 3744   4.445   1.253   3.953  0.1010 -0.5430  2.1084
  949SOL     OW 3745   1.581   0.273   6.657 -0.2674  0.3110 -0.0768
  949SOL    HW1 3746   1.607   0.349   6.597 -0.6739  0.6268  0.1404
  949SOL    HW2 3747   1.618   0.288   6.748 -2.4437  1.5750  0.6797
  950SOL     OW 3748   0.078   6.747   0.092  0.4931  0.2659  0.4419
  950SOL    HW1 3749   0.079   6.778  -0.003 -0.0720 -0.8167  0.0635
  950SOL    HW2 3750   0.075   6.826   0.153  1.4882  0.9927 -0.4209
  951SOL     OW 3751   2.479   5.762   4.260  0.1483 -0.3507 -0.7349
  951SOL    HW1 3752   2.482   5.839   4.325  1.3358 -0.0306 -1.1442
  951SOL    HW2 3753   2.482   5.676   4.310 -0.0790 -0.1174 -0.3156
  952SOL     OW 3754   3.035   1.062   3.505  0.2526 -0.1856  0.4488
  952SOL    HW1 3755   3.067   1.102   3.419  1.3068 -1.7006  0.0976
  952SOL    HW2 3756   3.019   0.964   3.492  0.2400 -0.3981  1.9357
  953SOL     OW 3757   6.627   4.401   5.342 -0.0782  0.1623 -0.0935
  953SOL    HW1 3758   6.585   4.487   5.315  0.9185  0.8169  0.3631
  953SOL    HW2 3759   6.582   4.366   5.425 -0.0230  0.6226  0.1363
  954SOL     OW 3760   3.995   5.655   1.111  0.2446  0.5326  0.0365
  954SOL    HW1 3761   4.056   5.576   1.105  1.5115  1.5318 -0.6137
  954SOL    HW2 3762   4.026   5.716   1.184 -1.0668  0.1870  0.9303
  955SOL     OW 3763   1.530   6.959   6.876  0.2300  0.1289  0.5442
  955SOL    HW1 3764   1.441   6.952   6.921 -0.3392 -0.5517 -0.6537
  955SOL    HW2 3765   1.597   6.906   6.927 -0.0657  0.5516  1.3928
  956SOL     OW 3766   4.093   1.056   1.141 -0.4023 -0.0141 -0.4976
  956SOL    HW1 3767   4.117   0.970   1.187 -2.4666 -0.3189  0.0864
  956SOL    HW2 3768   4.059   1.036   1.049 -0.7658  0.1780 -0.4064
  957SOL     OW 3769   4.172   1.417   4.157 -0.1123 -0.3938  0.2976
  957SOL    HW1 3770   4.117   1.494   4.189  0.0360  0.7390 -1.9857
  957SOL    HW2 3771   4.241   1.395   4.225 -0.9560  0.6477  1.5415
  958SOL     OW 3772   5.082   1.550   1.046 -0.3866  0.1088 -0.1314
  958SOL    HW1 3773   5.028   1.472   1.013 -0.0860 -0.0302 -0.3011
  958SOL    HW2 3774   5.026   1.607   1.106 -0.3457 -0.7172  0.6984
  959SOL     OW 3775   4.574   5.860   4.218 -0.5194  0.0116  0.3349
  959SOL    HW1 3776   4.627   5.809   4.150 -1.1161  0.2440 -0.3257
  959SOL    HW2 3777   4.498   5.803   4.250 -0.7781  0.2290  0.1146
  960SOL     OW 3778   2.553   5.495   6.917 -0.5103  0.6750  0.0565
  960SOL    HW1 3779   2.566   5.528   6.824  0.9055 -0.3092 -0.1113
  960SOL    HW2 3780   2.581   5.566   6.982  1.3436  0.2950 -0.2919
  961SOL     OW 3781   3.845   0.402   0.532 -0.3654  0.8591 -0.0436
  961SOL    HW1 3782   3.837   0.425   0.629 -1.5165  0.5342 -0.0470
  961SOL    HW2 3783   3.876   0.307   0.523 -0.3482  0.8599  0.0076
  962SOL     OW 3784   0.153   2.248   3.520 -0.5131  0.3716 -0.1914
  962SOL    HW1 3785   0.231   2.200   3.480  1.2882  0.5433  2.7729
  962SOL    HW2 3786   0.174   2.346   3.524 -2.3107  0.9118 -2.2135
  963SOL     OW 3787   5.308   2.229   6.620 -0.4382 -0.5169 -0.2850
  963SOL    HW1 3788   5.286   2.133   6.638  0.4447 -0.5926  0.4690
  963SOL    HW2 3789   5.236   2.287   6.657 -0.2671 -0.8347  0.5763
  964SOL     OW 3790   4.365   5.677   6.450 -0.5783  0.0295  0.8246
  964SOL    HW1 3791   4.298   5.609   6.479  0.5733 -0.7067  1.9207
  964SOL    HW2 3792   4.320   5.752   6.402 -1.8638 -1.6374 -0.7007
  965SOL     OW 3793   5.995   2.393   4.035  0.1902  0.4774 -0.9315
  965SOL    HW1 3794   6.027   2.307   4.076  0.9122  0.8538 -0.6891
  965SOL    HW2 3795   5.995   2.464   4.105 -0.2155  0.7230 -1.1817
  966SOL     OW 3796   4.016   6.553   5.811  0.4091 -0.1537  0.0293
  966SOL    HW1 3797   3.955   6.534   5.735  0.4251 -1.9887  0.4218
  966SOL    HW2 3798   4.078   6.475   5.824  2.0508  1.1547  0.3799
  967SOL     OW 3799   1.152   2.759   5.132  0.3590 -0.0850 -0.4514
  967SOL    HW1 3800   1.108   2.778   5.044 -1.2823 -1.3390  0.0600
  967SOL    HW2 3801   1.170   2.845   5.180  0.9809  0.5918 -1.8377
  968SOL     OW 3802   4.095   0.217   2.077  0.5445 -0.0558  0.0232
  968SOL    HW1 3803   4.121   0.124   2.101 -3.4469 -1.9874 -2.1563
  968SOL    HW2 3804   4.081   0.270   2.161 -2.9100 -3.3457  1.8273
  969SOL     OW 3805   1.880   5.773   5.959 -0.0367  0.0601 -0.4132
  969SOL    HW1 3806   1.790   5.758   5.916 -0.2235  0.6030 -0.2181
  969SOL    HW2 3807   1.870   5.774   6.058  0.0405  0.9740 -0.4052
  970SOL     OW 3808   5.369   5.921   4.771 -0.2808 -0.1290  0.4579
  970SOL    HW1 3809   5.314   5.986   4.824  2.0522  0.2635  2.6009
  970SOL    HW2 3810   5.465   5.952   4.770  0.0049 -0.7568 -3.1288
  971SOL     OW 3811   5.362   3.843   2.639  0.4774  0.0170 -0.0072
  971SOL    HW1 3812   5.424   3.918   2.662  2.4420 -1.5161  0.0065
  971SOL    HW2 3813   5.400   3.757   2.675 -0.7635 -1.2373 -1.5723
  972SOL     OW 3814   0.927   3.949   0.032 -0.0131  0.4815  0.4919
  972SOL    HW1 3815   1.006   4.000  -0.001 -0.5819  0.6967 -0.5594
  972SOL    HW2 3816   0.936   3.853   0.006 -0.3550  0.6101 -0.1232
  973SOL     OW 3817   0.300   2.060   7.014  0.7467  0.2702  0.4158
  973SOL    HW1 3818   0.336   2.005   6.938  2.9757  0.5648  1.1859
  973SOL    HW2 3819   0.200   2.060   7.010  0.7511 -1.2506 -1.4155
  974SOL     OW 3820   1.562   3.160   5.290  0.5804  0.7081  0.8190
  974SOL    HW1 3821   1.544   3.257   5.274 -1.7308  0.2691  0.3435
  974SOL    HW2 3822   1.568   3.112   5.203  0.2883  0.2101  1.0685
  975SOL     OW 3823   2.029   1.077   2.863 -0.2842 -0.3686 -0.3850
  975SOL    HW1 3824   2.085   1.155   2.890 -0.9817  0.0225 -0.0169
  975SOL    HW2 3825   2.087   1.004   2.828  0.5945 -0.5600  1.3667
  976SOL     OW 3826   0.257   2.292   2.970  0.5279 -0.0812  0.2127
  976SOL    HW1 3827   0.198   2.373   2.973  1.0677  0.2983  1.4489
  976SOL    HW2 3828   0.353   2.321   2.968  0.7066 -0.6833 -2.0995
  977SOL     OW 3829   6.016   6.876   0.706 -0.1811 -0.2537 -0.0215
  977SOL    HW1 3830   6.096   6.865   0.764 -0.3296  0.8273  0.3986
  977SOL    HW2 3831   5.956   6.947   0.742 -0.2708  0.4667 -1.4894
  978SOL     OW 3832   5.134   2.594   0.879 -0.8792 -0.1365 -0.2217
  978SOL    HW1 3833   5.060   2.655   0.906 -0.5010 -0.4262  1.5536
  978SOL    HW2 3834   5.221   2.627   0.916 -0.3366 -0.6061 -1.0321
  979SOL     OW 3835   1.461   4.891   0.573  0.5593 -0.0846  0.3692
  979SOL    HW1 3836   1.438   4.950   0.495  0.2483  0.2853  0.7344
  979SOL    HW2 3837   1.560   4.888   0.585  0.5378  1.3758  1.1115
  980SOL     OW 3838   3.974   1.126   6.158 -0.0281 -0.3212 -0.1132
  980SOL    HW1 3839   4.026   1.042   6.176  0.9039  0.4972  1.2055
  980SOL    HW2 3840   4.032   1.191   6.109 -0.7340 -0.4096 -1.0945
  981SOL     OW 3841   1.781   5.899   4.000 -0.1441 -0.1828 -0.3229
  981SOL    HW1 3842   1.739   5.852   3.922 -1.4168  1.8049 -0.9182
  981SOL    HW2 3843   1.765   5.846   4.083 -2.5796 -0.2609 -0.7768
  982SOL     OW 3844   0.943   1.038   5.309  0.2620  0.1410 -0.1767
  982SOL    HW1 3845   0.935   1.091   5.224 -0.7628 -0.5050 -0.5086
  982SOL    HW2 3846   0.951   0.941   5.286 -1.7081 -0.2149  0.4560
  983SOL     OW 3847   0.426   6.720   3.700  0.4977  0.1105 -0.4076
  983SOL    HW1 3848   0.477   6.658   3.760 -0.2505  0.1034  0.2361
  983SOL    HW2 3849   0.384   6.667   3.627  0.2881 -0.0795 -0.1542
  984SOL     OW 3850   1.151   4.403   4.436  0.0134  0.1678  0.0732
  984SOL    HW1 3851   1.155   4.314   4.482  0.0355  0.0385 -0.1816
  984SOL    HW2 3852   1.222   4.463   4.473  0.2503 -0.0486 -0.0318
  985SOL     OW 3853   0.619   4.508   5.328 -0.6543 -0.0224  0.1258
  985SOL    HW1 3854   0.591   4.544   5.239 -1.5946 -1.9078 -0.3861
  985SOL    HW2 3855   0.703   4.554   5.357 -0.3545  0.6904 -1.7123
  986SOL     OW 3856   3.752   5.344   3.201  0.1379 -0.5703  0.2259
  986SOL    HW1 3857   3.834   5.357   3.145  0.8810  1.0937  1.6168
  986SOL    HW2 3858   3.713   5.433   3.226 -2.1150 -1.3190 -0.3668
  987SOL     OW 3859   5.574   4.764   4.920  0.2082 -0.2326 -0.1388
  987SOL    HW1 3860   5.515   4.775   4.999 -0.5666  0.6070 -0.8144
  987SOL    HW2 3861   5.654   4.824   4.929 -0.8084  1.3077 -0.8194
  988SOL     OW 3862   2.371   2.779   2.840 -0.3089 -0.5152  0.2742
  988SOL    HW1 3863   2.342   2.873   2.823  0.6405  0.0234  1.4862
  988SOL    HW2 3864   2.363   2.758   2.937 -0.4744 -1.6895  0.0281
  989SOL     OW 3865   1.064   3.739   0.278 -0.4955 -0.2997  0.3763
  989SOL    HW1 3866   1.052   3.667   0.210  0.2704  0.0938 -0.1976
  989SOL    HW2 3867   1.062   3.828   0.232  0.6201 -0.0562  0.7656
  990SOL     OW 3868   5.354   0.584   2.652 -0.4580 -0.4118 -0.2990
  990SOL    HW1 3869   5.431   0.545   2.602 -0.8009 -1.9840  0.3506
  990SOL    HW2 3870   5.319   0.663   2.602  0.2464 -0.9448 -1.6896
  991SOL     OW 3871   1.224   6.382   4.419  0.2743  0.5953  0.2231
  991SOL    HW1 3872   1.302   6.433   4.457 -0.4424  1.5181  0.4959
  991SOL    HW2 3873   1.208   6.300   4.474  0.6218  0.7657  0.5892
  992SOL     OW 3874   0.355   2.366   0.289 -0.1933 -0.3111 -0.3040
  992SOL    HW1 3875   0.268   2.342   0.331 -0.1861  0.8321  0.4100
  992SOL    HW2 3876   0.363   2.322   0.200 -1.0159 -1.3008  0.0956
  993SOL     OW 3877   0.673   3.380   5.884 -0.4011 -0.4432  0.4942
  993SOL    HW1 3878   0.626   3.327   5.814  0.3457  0.2576 -0.5529
  993SOL    HW2 3879   0.653   3.478   5.871  0.5943 -0.2172  0.6000
  994SOL     OW 3880   4.693   6.084   6.426  0.5814  0.2380  0.1844
  994SOL    HW1 3881   4.627   6.024   6.472  0.4770  1.2791  1.4492
  994SOL    HW2 3882   4.776   6.091   6.482  1.6264 -0.7209 -1.1857
  995SOL     OW 3883   6.741   5.253   5.487 -0.3569 -0.1060 -0.1145
  995SOL    HW1 3884   6.772   5.313   5.414 -2.0567  0.3917 -0.4821
  995SOL    HW2 3885   6.711   5.308   5.565 -1.0185 -0.5091 -0.0752
  996SOL     OW 3886   3.694   5.819   5.279 -0.1818 -0.1963  0.3720
  996SOL    HW1 3887   3.626   5.748   5.298 -1.5641  1.2877  1.1796
  996SOL    HW2 3888   3.651   5.909   5.282  1.1892  0.6414 -2.2542
  997SOL     OW 3889   1.429   5.670   2.694  0.0392  0.0208  0.0910
  997SOL    HW1 3890   1.405   5.574   2.708  0.8879  0.0086  1.7423
  997SOL    HW2 3891   1.519   5.677   2.651  0.8360  0.0453  1.7036
  998SOL     OW 3892   6.512   6.896   5.525 -0.1757 -0.1555  0.8796
  998SOL    HW1 3893   6.536   6.946   5.443 -1.2289  1.6807  1.6401
  998SOL    HW2 3894   6.593   6.848   5.560  0.9146  1.1045  0.1761
  999SOL     OW 3895   4.907   3.519   1.939 -0.3952  0.3351 -0.0677
  999SOL    HW1 3896   4.885   3.422   1.932  1.8523 -0.5494  3.0626
  999SOL    HW2 3897   4.832   3.573   1.900 -2.9768 -2.5658  0.4958
 1000SOL     OW 3898   3.275   2.754   0.479 -0.1855  0.1402  0.0594
 1000SOL    HW1 3899   3.315   2.666   0.452  2.9268  1.1942  0.7465
 1000SOL    HW2 3900   3.303   2.824   0.414 -0.8142  1.0025  0.7026
 1001SOL     OW 3901   1.739   6.609   1.926 -0.6120  0.0267  0.2543
 1001SOL    HW1 3902   1.739   6.641   1.832  0.5115 -0.8938 -0.0868
 1001SOL    HW2 3903   1.752   6.509   1.928 -0.6052  0.0311  1.3785
 1002SOL     OW 3904   0.105   3.503   5.091 -0.3345  0.0106 -0.1130
 1002SOL    HW1 3905   0.088   3.495   4.993  0.2530  0.1481 -0.2354
 1002SOL    HW2 3906   0.107   3.412   5.132 -1.3186 -0.0062 -0.0899
 1003SOL     OW 3907   0.542   0.299   2.002  0.6730  0.5140 -0.1734
 1003SOL    HW1 3908   0.624   0.342   1.964  0.0275  0.0066 -2.2869
 1003SOL    HW2 3909   0.461   0.339   1.960 -0.0223 -1.1607 -0.5001
 1004SOL     OW 3910   3.965   6.329   4.957 -0.1105 -0.2541  0.4588
 1004SOL    HW1 3911   4.005   6.331   4.865  2.2593  0.1099  1.4273
 1004SOL    HW2 3912   3.892   6.397   4.964 -1.9164 -1.7888 -1.7448
 1005SOL     OW 3913   1.431   5.477   2.933  0.2211  0.2862  0.0862
 1005SOL    HW1 3914   1.481   5.439   3.010  0.3294 -1.6873 -0.8884
 1005SOL    HW2 3915   1.495   5.506   2.862  0.0830 -0.0121 -0.1677
 1006SOL     OW 3916   3.034   5.953   0.829 -0.2126  0.0405  0.0377
 1006SOL    HW1 3917   3.053   5.921   0.736 -1.1051 -0.0091 -0.1373
 1006SOL    HW2 3918   3.063   5.884   0.895 -2.0706 -1.1597 -0.3257
 1007SOL     OW 3919   5.824   0.443   0.778 -0.8528  0.4921 -0.6092
 1007SOL    HW1 3920   5.909   0.394   0.762  0.0495  0.8408  2.4298
 1007SOL    HW2 3921   5.809   0.509   0.705  3.1740  2.6335  0.2162
 1008SOL     OW 3922   0.774   3.982   5.784  0.3698 -0.0341 -0.0584
 1008SOL    HW1 3923   0.708   4.056   5.785  1.4023  0.9121 -0.1345
 1008SOL    HW2 3924   0.766   3.930   5.699  0.8750  1.1498 -0.8505
 1009SOL     OW 3925   1.483   5.772   6.889  0.5228  0.2115 -0.0426
 1009SOL    HW1 3926   1.555   5.734   6.947  1.8059  2.2617 -0.1767
 1009SOL    HW2 3927   1.436   5.845   6.939 -0.8576 -0.4564 -0.3145
 1010SOL     OW 3928   1.418   1.670   1.029  0.1733  0.3856 -0.0819
 1010SOL    HW1 3929   1.340   1.690   1.089  0.1186  1.2163 -0.4190
 1010SOL    HW2 3930   1.460   1.756   1.000  1.3191 -0.0569  0.2216
 1011SOL     OW 3931   1.346   5.040   2.632  0.2358  0.9168  0.0371
 1011SOL    HW1 3932   1.359   5.024   2.730 -1.7692  2.3406  0.5951
 1011SOL    HW2 3933   1.249   5.030   2.609  0.1912  3.4238 -1.2096
 1012SOL     OW 3934   3.173   1.077   3.907 -1.6503 -0.2252 -0.2571
 1012SOL    HW1 3935   3.211   1.118   3.824 -0.7566 -1.0435 -0.2668
 1012SOL    HW2 3936   3.160   0.979   3.894 -3.3803 -0.0378 -0.0924
 1013SOL     OW 3937   2.077   6.841   6.438 -0.5584 -0.2074 -0.0701
 1013SOL    HW1 3938   2.125   6.916   6.393 -1.3857 -0.6104 -1.6922
 1013SOL    HW2 3939   1.987   6.872   6.467  0.3340  0.3399  2.3112
 1014SOL     OW 3940   1.949   4.480   5.990  0.1990  0.1638  0.1197
 1014SOL    HW1 3941   2.043   4.503   5.963 -0.1727  1.3661 -0.2040
 1014SOL    HW2 3942   1.938   4.495   6.088  0.2620  0.3035  0.1057
 1015SOL     OW 3943   3.748   6.247   1.067 -0.0652  0.0515  0.0699
 1015SOL    HW1 3944   3.695   6.297   0.998 -0.3186  0.5718  0.6374
 1015SOL    HW2 3945   3.824   6.303   1.097  0.0142 -0.1561  0.2543
 1016SOL     OW 3946   4.699   4.954   1.762 -0.6147  0.1032  0.5558
 1016SOL    HW1 3947   4.645   4.871   1.767 -0.8699  0.2639  0.5019
 1016SOL    HW2 3948   4.773   4.942   1.696 -1.9307  0.6300 -1.0975
 1017SOL     OW 3949   0.043   2.171   1.550 -0.1834 -0.3245 -0.0911
 1017SOL    HW1 3950   0.109   2.123   1.493 -1.1841  0.7885 -2.3332
 1017SOL    HW2 3951  -0.030   2.108   1.577  0.2870 -0.8683 -0.0711
 1018SOL     OW 3952   5.276   4.797   3.737 -0.1568 -0.1146 -0.0789
 1018SOL    HW1 3953   5.362   4.767   3.696 -1.9113 -0.5445 -3.8825
 1018SOL    HW2 3954   5.281   4.894   3.757  0.6840  0.3203 -2.0964
 1019SOL     OW 3955   5.855   3.813   1.108 -0.0238 -0.2519  0.4433
 1019SOL    HW1 3956   5.814   3.848   1.192  0.3616 -0.2029  0.6144
 1019SOL    HW2 3957   5.885   3.719   1.122 -0.6339 -0.4980  0.1280
 1020SOL     OW 3958   4.378   1.547   1.891 -0.4320 -0.3644  0.3373
 1020SOL    HW1 3959   4.407   1.551   1.795  1.0826  0.0832  0.7817
 1020SOL    HW2 3960   4.326   1.629   1.914 -1.8126 -1.0038 -0.3785
 1021SOL     OW 3961   0.376   5.602   1.964  0.0786 -0.3014  0.2897
 1021SOL    HW1 3962   0.458   5.604   1.906  0.2983 -1.5893  0.5356
 1021SOL    HW2 3963   0.370   5.688   2.014  0.6248  0.2919 -0.6240
 1022SOL     OW 3964   2.414   5.932   6.513  0.2756 -0.2431  0.0808
 1022SOL    HW1 3965   2.372   6.014   6.474 -1.5387 -1.2489 -0.1914
 1022SOL    HW2 3966   2.477   5.892   6.446 -3.1084 -2.1898 -2.2061
 1023SOL     OW 3967   1.212   6.974   3.126  0.1431  0.1752  0.1775
 1023SOL    HW1 3968   1.205   7.074   3.123  1.5687  0.2776 -0.2668
 1023SOL    HW2 3969   1.121   6.934   3.114 -0.7591  1.4301  2.2967
 1024SOL     OW 3970   3.134   0.810   3.879 -0.0763 -0.1174  0.3834
 1024SOL    HW1 3971   3.106   0.745   3.808 -1.8111  2.1182 -1.1273
 1024SOL    HW2 3972   3.227   0.790   3.908  0.8770 -0.9397 -2.8327
 1025SOL     OW 3973   4.513   3.975   6.306 -0.3370  0.4358 -0.4130
 1025SOL    HW1 3974   4.450   4.053   6.311 -1.1753 -0.2914  1.4669
 1025SOL    HW2 3975   4.466   3.893   6.337  1.2568 -0.3471  0.0165
 1026SOL     OW 3976   3.660   1.503   1.599  0.0932  0.7250 -0.0836
 1026SOL    HW1 3977   3.651   1.482   1.696 -1.7294 -0.6836 -0.4915
 1026SOL    HW2 3978   3.708   1.428   1.553  0.4549  1.1197 -0.3551
 1027SOL     OW 3979   6.540   6.295   1.154 -0.2911  0.6243  0.1813
 1027SOL    HW1 3980   6.583   6.248   1.077  0.4848  0.6232  0.6141
 1027SOL    HW2 3981   6.545   6.238   1.236  1.4150  1.7789  0.9191
 1028SOL     OW 3982   4.110   5.661   2.005  0.1361  0.1292 -0.3796
 1028SOL    HW1 3983   4.036   5.602   2.035 -0.4385  1.6446  1.3792
 1028SOL    HW2 3984   4.145   5.713   2.083  0.5482  2.1640 -1.8417
 1029SOL     OW 3985   1.548   2.518   5.888 -0.2934 -0.5160  0.3334
 1029SOL    HW1 3986   1.529   2.575   5.968 -1.4261  0.5317 -0.6485
 1029SOL    HW2 3987   1.581   2.429   5.919 -0.1560  0.0512  1.9472
 1030SOL     OW 3988   2.213   3.194   1.694  0.3390  0.6016  0.4368
 1030SOL    HW1 3989   2.174   3.225   1.781 -0.0753  2.8987 -0.4854
 1030SOL    HW2 3990   2.305   3.233   1.684  0.2628  0.5951 -0.2866
 1031SOL     OW 3991   5.845   2.936   2.311  0.0860 -0.3026  0.0293
 1031SOL    HW1 3992   5.931   2.919   2.358  0.0984 -2.1401 -0.5904
 1031SOL    HW2 3993   5.863   2.975   2.221  0.4545 -2.6632 -0.9841
 1032SOL     OW 3994   2.800   1.639   5.949  0.1916  0.3847 -0.3899
 1032SOL    HW1 3995   2.820   1.644   6.047 -0.0953 -2.3433 -0.0916
 1032SOL    HW2 3996   2.886   1.639   5.898  0.4269  0.1941 -0.0010
 1033SOL     OW 3997   2.336   6.066   3.737 -0.3284 -0.4016 -0.2770
 1033SOL    HW1 3998   2.316   6.120   3.819  1.3260  1.0619 -0.7735
 1033SOL    HW2 3999   2.395   5.990   3.761  3.4228  2.1746 -0.4969
 1034SOL     OW 4000   2.679   5.961   4.249  0.4972 -0.5728  0.2352
 1034SOL    HW1 4001   2.680   6.002   4.158  1.1617 -0.6210  0.2154
 1034SOL    HW2 4002   2.643   5.868   4.244  1.7979 -1.0825 -0.2141
 1035SOL     OW 4003   0.601   1.800   5.349  0.5014  0.2288 -0.0067
 1035SOL    HW1 4004   0.665   1.877   5.350  0.2889  0.4123  0.5968
 1035SOL    HW2 4005   0.613   1.746   5.432  0.5151 -0.2796 -0.3374
 1036SOL     OW 4006   4.317   3.940   0.429 -0.0455  0.1952 -0.2487
 1036SOL    HW1 4007   4.237   3.992   0.458  0.4963 -0.1312  2.0722
 1036SOL    HW2 4008   4.341   3.965   0.335 -1.2648  2.2633 -0.0818
 1037SOL     OW 4009   1.646   2.046   6.017  0.3680  0.6706  0.3235
 1037SOL    HW1 4010   1.586   2.088   6.086  0.2824 -0.3636  0.9030
 1037SOL    HW2 4011   1.619   2.077   5.926  0.8551  2.5358  0.7718
 1038SOL     OW 4012   1.391   0.023   4.929  0.0152  0.4498 -0.2524
 1038SOL    HW1 4013   1.464   0.010   4.996  0.5503 -1.4978 -1.1233
 1038SOL    HW2 4014   1.353   0.115   4.938  0.9317  0.6821  1.8266
 1039SOL     OW 4015   3.813   3.476   4.175  0.1671  0.0132  0.3157
 1039SOL    HW1 4016   3.788   3.384   4.144 -0.4493 -0.3674  1.8741
 1039SOL    HW2 4017   3.900   3.472   4.224  0.4123  0.3698 -0.0782
 1040SOL     OW 4018   4.442   0.703   3.672  0.2648 -0.0590 -0.2964
 1040SOL    HW1 4019   4.534   0.733   3.701 -0.2678  2.1461 -0.6761
 1040SOL    HW2 4020   4.414   0.756   3.592 -1.2725 -0.8520 -0.3047
 1041SOL     OW 4021   5.987   3.114   0.455 -0.4445  0.4297  0.0144
 1041SOL    HW1 4022   6.073   3.091   0.501  0.5393  0.1235 -1.8736
 1041SOL    HW2 4023   5.995   3.205   0.415 -0.1169 -0.4436 -2.0395
 1042SOL     OW 4024   6.501   4.934   2.144 -0.0745 -0.3257  0.8414
 1042SOL    HW1 4025   6.578   4.992   2.119 -0.3254  0.0184  0.8634
 1042SOL    HW2 4026   6.534   4.849   2.185  0.6327 -2.6361 -3.8315
 1043SOL     OW 4027   5.349   1.052   4.444  0.5385  0.1867 -0.2272
 1043SOL    HW1 4028   5.393   1.079   4.359  0.2425 -0.3178 -0.5520
 1043SOL    HW2 4029   5.333   0.953   4.443 -1.4078  0.4527 -0.5305
 1044SOL     OW 4030   4.790   6.695   6.694  0.8424  0.3390  0.6237
 1044SOL    HW1 4031   4.872   6.681   6.638  0.1054 -0.1180 -0.3683
 1044SOL    HW2 4032   4.709   6.670   6.641  0.0928  0.2863  1.7727
 1045SOL     OW 4033   1.677   1.792   2.814  0.0673  0.2995  0.4469
 1045SOL    HW1 4034   1.617   1.739   2.874  0.5246 -0.3548  0.3420
 1045SOL    HW2 4035   1.744   1.843   2.869  1.5140 -1.5322  0.4991
 1046SOL     OW 4036   6.790   2.736   0.684  0.0555 -0.2120 -0.2444
 1046SOL    HW1 4037   6.766   2.694   0.771  1.9412 -0.8589  0.0061
 1046SOL    HW2 4038   6.793   2.666   0.613  1.6322 -0.2674 -0.1546
 1047SOL     OW 4039   3.890   5.379   3.898  0.3052 -0.2471 -0.3646
 1047SOL    HW1 4040   3.868   5.317   3.823  1.3634  0.5124 -1.3424
 1047SOL    HW2 4041   3.968   5.342   3.949  0.1299 -0.3338 -0.1553
 1048SOL     OW 4042   2.828   0.665   2.851  0.5855  0.3464 -0.1700
 1048SOL    HW1 4043   2.780   0.738   2.900 -0.0507 -0.2814  0.1774
 1048SOL    HW2 4044   2.922   0.692   2.833  0.7302  0.7417  1.0916
 1049SOL     OW 4045   2.349   6.406   3.744  0.2200 -0.4763  0.4976
 1049SOL    HW1 4046   2.278   6.452   3.691  0.6030  0.4329  0.7636
 1049SOL    HW2 4047   2.370   6.318   3.701  0.5839  0.2709 -0.9401
 1050SOL     OW 4048   4.744   6.557   3.917  0.5897  0.1369 -0.3306
 1050SOL    HW1 4049   4.744   6.649   3.955  1.5425  0.3531 -0.8058
 1050SOL    HW2 4050   4.653   6.516   3.925  0.2422  1.0000  0.1642
 1051SOL     OW 4051   3.941   6.634   6.159  0.1166 -0.3258 -0.2907
 1051SOL    HW1 4052   3.879   6.571   6.112 -1.8394  0.1568  1.4850
 1051SOL    HW2 4053   3.936   6.618   6.258  0.7074  1.5791  0.0901
 1052SOL     OW 4054   2.289   2.449   0.193  0.4547 -0.0198  0.4771
 1052SOL    HW1 4055   2.302   2.512   0.270 -0.0662 -0.9444  1.3424
 1052SOL    HW2 4056   2.354   2.373   0.201  1.5394  0.7068 -0.9242
 1053SOL     OW 4057   6.373   5.473   3.333 -0.6721  0.7597  0.3937
 1053SOL    HW1 4058   6.317   5.509   3.258 -0.3917  1.0954  0.3401
 1053SOL    HW2 4059   6.324   5.399   3.380 -1.5097  1.5818  0.8534
 1054SOL     OW 4060   3.043   3.972   0.830 -0.2423  0.0190  0.2836
 1054SOL    HW1 4061   3.036   4.039   0.755  0.6549 -1.7078 -1.4325
 1054SOL    HW2 4062   2.954   3.928   0.843 -0.1571 -0.4326 -0.5524
 1055SOL     OW 4063   5.422   6.177   5.739 -0.5666 -0.0390 -0.1784
 1055SOL    HW1 4064   5.403   6.152   5.834 -2.1304 -3.2071 -1.1867
 1055SOL    HW2 4065   5.461   6.269   5.736  3.2445 -1.2186  3.8163
 1056SOL     OW 4066   3.824   5.158   6.859  0.0053 -0.1656 -0.2552
 1056SOL    HW1 4067   3.796   5.244   6.818  0.4695 -0.3193 -0.9224
 1056SOL    HW2 4068   3.750   5.122   6.916 -0.3222  0.4875 -0.2589
 1057SOL     OW 4069   3.360   1.673   6.771 -0.1727 -0.1272 -0.2427
 1057SOL    HW1 4070   3.361   1.588   6.824  0.8517 -0.3021 -0.5216
 1057SOL    HW2 4071   3.360   1.652   6.673 -1.3305  0.2016 -0.3352
 1058SOL     OW 4072   3.288   0.382   2.531 -0.0347 -0.5510 -0.3530
 1058SOL    HW1 4073   3.348   0.461   2.519 -0.9179  0.2232  0.3183
 1058SOL    HW2 4074   3.331   0.302   2.488  1.0362  0.1940 -0.7121
 1059SOL     OW 4075   4.439   6.304   3.033  0.0757 -0.0919  0.1467
 1059SOL    HW1 4076   4.412   6.276   3.125 -0.8480 -0.0583 -0.1050
 1059SOL    HW2 4077   4.475   6.225   2.984 -0.1827 -0.2880  0.2691
 1060SOL     OW 4078   5.628   5.262   6.850  0.1297  0.3649 -0.7043
 1060SOL    HW1 4079   5.720   5.293   6.827  0.2544 -1.2691 -2.6792
 1060SOL    HW2 4080   5.634   5.176   6.901 -0.2952 -0.1315 -1.4709
 1061SOL     OW 4081   6.825   5.486   6.271 -0.1960  0.1437  0.4477
 1061SOL    HW1 4082   6.821   5.534   6.184 -0.5456 -1.1784 -0.2968
 1061SOL    HW2 4083   6.917   5.447   6.284 -0.3080 -0.1411  0.3957
 1062SOL     OW 4084   3.971   6.036   3.898 -0.2537  0.4283 -0.4657
 1062SOL    HW1 4085   4.048   5.974   3.887  0.1310  0.7665  0.2101
 1062SOL    HW2 4086   3.913   6.005   3.973  0.8045  1.6971  0.9447
 1063SOL     OW 4087   2.686   0.327   6.172  0.2093  0.0308 -0.1976
 1063SOL    HW1 4088   2.700   0.398   6.241 -3.3931 -0.2190  1.0284
 1063SOL    HW2 4089   2.660   0.369   6.085 -0.3680  0.2680  0.0861
 1064SOL     OW 4090   1.481   3.104   0.748 -0.0554  0.0566 -0.5134
 1064SOL    HW1 4091   1.514   3.014   0.718 -2.7656 -0.7751 -1.2894
 1064SOL    HW2 4092   1.428   3.094   0.832  1.1307  1.2518  0.4197
 1065SOL     OW 4093   4.447   6.102   4.154 -0.6208 -1.0169  0.4097
 1065SOL    HW1 4094   4.373   6.116   4.220  1.9464  0.6884  3.1879
 1065SOL    HW2 4095   4.498   6.019   4.178 -0.4051 -1.0618 -0.1933
 1066SOL     OW 4096   5.556   6.855   3.416 -0.4643 -0.8380 -0.3225
 1066SOL    HW1 4097   5.549   6.926   3.486  3.9608  0.0979 -0.5796
 1066SOL    HW2 4098   5.535   6.894   3.326 -0.5684 -0.5396 -0.1684
 1067SOL     OW 4099   1.392   3.547   0.474 -0.1302  0.1994  0.4558
 1067SOL    HW1 4100   1.376   3.448   0.477 -0.9627  0.3231  0.2195
 1067SOL    HW2 4101   1.316   3.595   0.516  0.1466  0.7585  0.3328
 1068SOL     OW 4102   6.611   4.885   2.989 -0.2425  0.3191 -0.0380
 1068SOL    HW1 4103   6.553   4.948   2.936  0.1845 -0.7220 -1.8117
 1068SOL    HW2 4104   6.597   4.792   2.956  0.6233 -0.2719  1.2015
 1069SOL     OW 4105   6.043   3.802   2.510 -0.3447  0.4889  0.2409
 1069SOL    HW1 4106   6.100   3.840   2.438  0.5707  1.6006  1.4912
 1069SOL    HW2 4107   6.101   3.767   2.583 -1.1591  2.6864  2.0855
 1070SOL     OW 4108   2.267   6.554   2.480  0.1485  0.4290 -0.5300
 1070SOL    HW1 4109   2.324   6.517   2.407  0.7480 -1.8388  0.9771
 1070SOL    HW2 4110   2.195   6.488   2.502  0.2525  0.8451  1.2002
 1071SOL     OW 4111   1.059   3.742   0.546 -0.0547 -0.1872  0.2808
 1071SOL    HW1 4112   1.120   3.820   0.558 -1.4301  1.2160 -1.4168
 1071SOL    HW2 4113   1.050   3.720   0.449 -1.4158 -1.0115  0.5574
 1072SOL     OW 4114   0.744   1.573   2.483  0.5292 -0.0456  0.1557
 1072SOL    HW1 4115   0.666   1.580   2.546  0.8674  0.9848  0.4620
 1072SOL    HW2 4116   0.773   1.477   2.478  0.5038 -0.1473  1.5678
 1073SOL     OW 4117   4.922   3.296   4.224 -0.5676  0.2249 -0.2186
 1073SOL    HW1 4118   4.932   3.389   4.261 -1.2321  0.2571 -0.1222
 1073SOL    HW2 4119   4.847   3.249   4.270  1.0596 -1.1079  1.2047
 1074SOL     OW 4120   1.619   3.733   3.540  0.2231  0.5810 -0.2484
 1074SOL    HW1 4121   1.575   3.644   3.548  1.4435 -0.0952 -0.8618
 1074SOL    HW2 4122   1.586   3.793   3.613 -0.4077 -0.4570  0.3414
 1075SOL     OW 4123   6.689   3.439   4.040 -0.1448 -0.4358 -0.2244
 1075SOL    HW1 4124   6.671   3.424   3.942 -2.3708 -1.2787  0.2630
 1075SOL    HW2 4125   6.691   3.537   4.059 -0.8924 -0.2751 -0.9212
 1076SOL     OW 4126   1.791   4.481   5.052  0.1787  0.5918  0.1910
 1076SOL    HW1 4127   1.708   4.430   5.073  0.3091  1.1739  2.3259
 1076SOL    HW2 4128   1.871   4.424   5.071  0.3292  1.5034  2.7341
 1077SOL     OW 4129   6.829   6.112   0.267 -0.5295 -0.0914 -0.4167
 1077SOL    HW1 4130   6.916   6.124   0.316 -0.5194  0.8281 -0.6396
 1077SOL    HW2 4131   6.827   6.174   0.189 -1.4133 -0.0833 -0.3896
 1078SOL     OW 4132   6.976   0.423   3.424 -0.1767  0.6497  0.6407
 1078SOL    HW1 4133   7.063   0.392   3.385 -0.5529 -0.6703  0.8259
 1078SOL    HW2 4134   6.902   0.398   3.362 -0.3899  2.4413  0.1102
 1079SOL     OW 4135   1.038   1.181   2.324 -0.3507  0.6100 -0.0921
 1079SOL    HW1 4136   1.055   1.247   2.250  1.0345  0.6283  0.2209
 1079SOL    HW2 4137   1.047   1.227   2.412  1.3129 -0.0926  0.1537
 1080SOL     OW 4138   4.204   6.735   6.631  0.1712  0.0402  0.5870
 1080SOL    HW1 4139   4.287   6.745   6.686  0.7059 -1.3427  0.0541
 1080SOL    HW2 4140   4.196   6.641   6.599 -0.8476  0.4999 -0.5794
 1081SOL     OW 4141   5.371   4.090   5.559  0.6366 -0.0470  0.7060
 1081SOL    HW1 4142   5.347   4.166   5.499  1.0604  0.0345  0.6358
 1081SOL    HW2 4143   5.471   4.080   5.562  0.5967 -0.3817  0.9843
 1082SOL     OW 4144   4.276   6.980   0.454 -0.0394  0.1254 -0.1798
 1082SOL    HW1 4145   4.318   6.925   0.382 -0.4269 -0.1364 -0.2129
 1082SOL    HW2 4146   4.340   6.992   0.530  0.0588 -0.3523 -0.1840
 1083SOL     OW 4147   5.951   2.592   1.646 -0.1008 -0.1371  0.4107
 1083SOL    HW1 4148   5.989   2.655   1.715  1.7379 -0.9721  0.2302
 1083SOL    HW2 4149   6.008   2.594   1.564 -1.0019 -0.7973 -0.2520
 1084SOL     OW 4150   6.231   6.779   4.067  0.2913  0.4530 -0.4155
 1084SOL    HW1 4151   6.242   6.876   4.046  0.7474  0.3597 -0.6170
 1084SOL    HW2 4152   6.315   6.730   4.042 -0.4394 -0.2212 -1.6479
 1085SOL     OW 4153   1.009   3.529   3.928  0.0761 -0.5707  0.2604
 1085SOL    HW1 4154   1.026   3.481   4.014  0.1883 -1.7079 -0.3783
 1085SOL    HW2 4155   1.055   3.618   3.930 -0.9740 -0.0171  1.8697
 1086SOL     OW 4156   6.548   0.102   6.980  0.2085 -0.2407 -0.7650
 1086SOL    HW1 4157   6.554   0.134   6.885 -0.2038 -0.2896 -0.8133
 1086SOL    HW2 4158   6.613   0.152   7.037 -0.1557  0.4070 -0.9124
 1087SOL     OW 4159   3.385   0.046   5.179 -0.7432 -0.5197  0.3097
 1087SOL    HW1 4160   3.459  -0.020   5.170  0.0424  0.2514  0.9667
 1087SOL    HW2 4161   3.339   0.057   5.091  2.5163  1.9826 -1.2888
 1088SOL     OW 4162   0.978   5.052   2.424  0.3774  0.1243 -0.5823
 1088SOL    HW1 4163   1.018   4.961   2.437 -2.0597 -1.2728 -2.0291
 1088SOL    HW2 4164   1.051   5.121   2.422  2.3049 -1.7565  0.5885
 1089SOL     OW 4165   5.266   5.725   2.971  0.1572  0.5680 -0.4772
 1089SOL    HW1 4166   5.205   5.712   3.048  1.1542 -0.6111  0.1475
 1089SOL    HW2 4167   5.227   5.683   2.889 -0.5714  1.2125 -0.4754
 1090SOL     OW 4168   5.855   2.164   4.513 -1.3297 -0.0115 -0.1884
 1090SOL    HW1 4169   5.798   2.245   4.522 -0.8826  0.3082 -0.1821
 1090SOL    HW2 4170   5.950   2.188   4.534 -0.6762  0.1492 -2.9633
 1091SOL     OW 4171   2.083   2.354   4.422 -0.4567 -0.3169 -0.4819
 1091SOL    HW1 4172   2.160   2.328   4.363 -2.2298 -0.9439 -2.6276
 1091SOL    HW2 4173   2.113   2.426   4.484  1.4815  0.5443 -2.2777
 1092SOL     OW 4174   0.915   6.941   0.859 -0.2935  0.2197  0.1532
 1092SOL    HW1 4175   0.950   6.851   0.883  2.3097  0.6576 -1.5529
 1092SOL    HW2 4176   0.881   6.939   0.765 -1.7144  0.6589  0.6447
 1093SOL     OW 4177   6.223   6.744   3.647  0.1919 -0.4240 -0.1779
 1093SOL    HW1 4178   6.157   6.685   3.600 -1.4352  0.8696  0.3778
 1093SOL    HW2 4179   6.314   6.704   3.640 -0.5707 -2.0922 -1.3003
 1094SOL     OW 4180   3.609   1.504   2.919 -0.5005  0.5841 -0.0519
 1094SOL    HW1 4181   3.554   1.534   2.996  0.0262  0.2561  0.4581
 1094SOL    HW2 4182   3.660   1.582   2.883  1.5962  0.1989  1.8677
 1095SOL     OW 4183   6.536   4.997   0.866  0.0217 -0.3031  0.0472
 1095SOL    HW1 4184   6.488   5.025   0.783  0.1856 -1.3564 -0.4126
 1095SOL    HW2 4185   6.620   5.051   0.875  0.1142 -0.3323 -0.5868
 1096SOL     OW 4186   1.924   5.875   1.674 -0.3127  0.1474 -0.5471
 1096SOL    HW1 4187   1.866   5.927   1.611 -0.5253 -1.0458 -1.3699
 1096SOL    HW2 4188   2.017   5.914   1.673 -0.3163  0.1557 -1.5965
 1097SOL     OW 4189   3.469   5.128   5.140  0.3352  0.2243 -0.4540
 1097SOL    HW1 4190   3.556   5.146   5.094  0.3939 -1.8094 -1.2486
 1097SOL    HW2 4191   3.452   5.029   5.143 -2.3808  0.5792 -1.1389
 1098SOL     OW 4192   5.124   3.459   1.320 -0.1802  0.3100 -0.0000
 1098SOL    HW1 4193   5.054   3.396   1.354 -1.9999  2.1891 -0.0590
 1098SOL    HW2 4194   5.136   3.445   1.222 -0.8063  0.2383 -0.0734
 1099SOL     OW 4195   3.737   0.090   6.054  0.3773  0.1709 -0.4271
 1099SOL    HW1 4196   3.797   0.037   6.113  1.1880  1.2537 -0.2457
 1099SOL    HW2 4197   3.734   0.048   5.963 -0.2787 -1.0709  0.1394
 1100SOL     OW 4198   2.175   3.143   4.021 -0.0949 -0.4125 -0.1553
 1100SOL    HW1 4199   2.146   3.087   4.099 -0.1375 -0.1283  0.0355
 1100SOL    HW2 4200   2.158   3.239   4.042 -1.1281 -0.4019 -0.9351
 1101SOL     OW 4201   5.441   4.322   6.465 -0.3115 -0.3233  0.7104
 1101SOL    HW1 4202   5.356   4.305   6.415 -0.6890  2.7814  0.0473
 1101SOL    HW2 4203   5.505   4.370   6.404  0.9759 -0.4583  1.9244
 1102SOL     OW 4204   2.320   1.944   3.306 -0.0913 -0.5992 -0.3377
 1102SOL    HW1 4205   2.262   1.995   3.370 -2.3864 -1.6442 -1.4776
 1102SOL    HW2 4206   2.312   1.983   3.215  1.3144 -0.5634 -0.4678
 1103SOL     OW 4207   3.262   0.094   6.329  0.5943  0.1692 -0.0892
 1103SOL    HW1 4208   3.225   0.003   6.313 -2.4416  1.4549 -1.0741
 1103SOL    HW2 4209   3.354   0.101   6.289  0.4960 -2.1354 -0.8184
 1104SOL     OW 4210   0.081   3.209   3.250 -0.8568 -0.0946  0.3222
 1104SOL    HW1 4211  -0.003   3.155   3.254 -0.9187 -0.0345 -0.0871
 1104SOL    HW2 4212   0.117   3.222   3.342  0.1404 -2.3374  0.3177
 1105SOL     OW 4213   5.258   1.007   4.752 -0.3041 -0.5954  0.2311
 1105SOL    HW1 4214   5.252   0.996   4.653 -0.1816 -0.0221  0.1522
 1105SOL    HW2 4215   5.193   0.947   4.796  1.2878 -2.6597 -0.0677
 1106SOL     OW 4216   0.574   1.720   1.696  0.1282  0.7245 -0.5707
 1106SOL    HW1 4217   0.500   1.680   1.751  1.0891 -0.1605  0.1273
 1106SOL    HW2 4218   0.552   1.815   1.675 -0.6627  0.8313  0.6309
 1107SOL     OW 4219   0.793   6.017   6.357  0.3671  0.3230  0.1062
 1107SOL    HW1 4220   0.893   6.019   6.352  0.3960 -0.0320  0.4511
 1107SOL    HW2 4221   0.757   6.109   6.344  0.7318  0.4255 -0.1859
 1108SOL     OW 4222   2.821   6.516   3.853 -0.3734 -0.1903  0.1198
 1108SOL    HW1 4223   2.721   6.520   3.859 -0.3284 -0.9328  1.9425
 1108SOL    HW2 4224   2.856   6.603   3.818 -1.6026  0.4618  0.4473
 1109SOL     OW 4225   4.449   1.022   5.072 -0.2977  0.0266  0.1930
 1109SOL    HW1 4226   4.536   1.028   5.024  0.6322  0.1151  1.8002
 1109SOL    HW2 4227   4.397   0.944   5.038  1.3910 -1.3788  0.6693
 1110SOL     OW 4228   2.812   1.240   4.303  0.4220  0.0722 -0.3408
 1110SOL    HW1 4229   2.880   1.203   4.366 -0.1979  0.7832  0.7766
 1110SOL    HW2 4230   2.845   1.231   4.209  0.9520 -1.8955 -0.0170
 1111SOL     OW 4231   5.376   3.272   5.829  0.4529  0.0769 -0.3366
 1111SOL    HW1 4232   5.357   3.355   5.882 -0.3876  0.8955 -1.8654
 1111SOL    HW2 4233   5.409   3.200   5.891 -1.6327  0.5999  1.5032
 1112SOL     OW 4234   5.829   1.971   2.742  0.1405 -0.6026  0.2548
 1112SOL    HW1 4235   5.914   2.006   2.703  1.5457 -2.1938  1.7114
 1112SOL    HW2 4236   5.839   1.959   2.841 -0.5121 -4.0052  0.0409
 1113SOL     OW 4237   4.771   3.754   1.838  0.4686 -0.4638 -0.1696
 1113SOL    HW1 4238   4.799   3.828   1.900  0.4361 -0.2288 -0.4321
 1113SOL    HW2 4239   4.695   3.786   1.781 -0.4785 -1.1494  0.6680
 1114SOL     OW 4240   2.995   5.131   5.523 -0.0622 -0.2069  0.2169
 1114SOL    HW1 4241   2.905   5.160   5.555  0.3828 -0.0287  1.3477
 1114SOL    HW2 4242   2.984   5.063   5.450 -1.1047  0.1180  0.0581
 1115SOL     OW 4243   2.465   3.399   6.899 -0.2167  0.6475  0.4557
 1115SOL    HW1 4244   2.559   3.433   6.908  0.3883 -0.7559 -0.1832
 1115SOL    HW2 4245   2.464   3.321   6.836 -2.0074  1.3803 -0.5074
 1116SOL     OW 4246   4.960   1.674   6.371 -0.0320  0.1090 -0.0509
 1116SOL    HW1 4247   4.969   1.704   6.466  0.2874 -2.0490  0.6688
 1116SOL    HW2 4248   5.017   1.593   6.357 -2.6639 -1.7223 -1.0778
 1117SOL     OW 4249   2.417   2.130   0.753  0.4084 -0.4862 -0.6817
 1117SOL    HW1 4250   2.408   2.171   0.844 -0.9706 -0.2262 -0.9114
 1117SOL    HW2 4251   2.395   2.197   0.683 -1.3283 -1.4149 -1.0835
 1118SOL     OW 4252   1.643   4.648   0.128  0.0826 -0.0212 -0.3284
 1118SOL    HW1 4253   1.650   4.717   0.200 -2.0445  3.4425 -3.1162
 1118SOL    HW2 4254   1.715   4.664   0.060 -1.1816  0.3166 -1.6274
 1119SOL     OW 4255   1.594   4.810   3.719 -0.2111  0.7165  0.0675
 1119SOL    HW1 4256   1.582   4.907   3.740  1.1709  0.7197  0.9604
 1119SOL    HW2 4257   1.629   4.763   3.800  3.6729  0.3851 -1.6254
 1120SOL     OW 4258   0.129   2.768   0.722  0.3981  0.0870  0.2108
 1120SOL    HW1 4259   0.076   2.816   0.653  0.3193 -0.5341 -0.1687
 1120SOL    HW2 4260   0.115   2.812   0.811  0.8399  1.1477 -0.2336
 1121SOL     OW 4261   1.681   5.201   5.329 -0.5006  0.0686  0.6905
 1121SOL    HW1 4262   1.662   5.107   5.358 -2.5359  0.1293 -0.2758
 1121SOL    HW2 4263   1.779   5.218   5.335 -0.1198 -1.9942  1.2236
 1122SOL     OW 4264   4.547   3.756   0.045 -0.0272  0.1241 -0.1993
 1122SOL    HW1 4265   4.577   3.666   0.075  0.2836  0.8235  1.7500
 1122SOL    HW2 4266   4.569   3.768  -0.052 -1.5801 -2.4782 -0.9573
 1123SOL     OW 4267   4.226   0.024   3.252 -0.1419  0.3861  0.0417
 1123SOL    HW1 4268   4.262  -0.011   3.338 -0.0550 -0.0793 -0.1818
 1123SOL    HW2 4269   4.298   0.026   3.183 -0.1855  0.8524  0.0055
 1124SOL     OW 4270   1.732   3.983   5.781 -0.2551 -0.2135 -0.3805
 1124SOL    HW1 4271   1.750   4.082   5.774 -1.8657  0.0408 -1.5851
 1124SOL    HW2 4272   1.638   3.968   5.810 -0.4223 -1.3795 -1.4419
 1125SOL     OW 4273   2.298   4.146   3.524  0.2377 -0.6400 -0.3176
 1125SOL    HW1 4274   2.237   4.141   3.603  2.0310 -0.9506  1.1198
 1125SOL    HW2 4275   2.382   4.096   3.544  0.9523 -0.3050 -2.2608
 1126SOL     OW 4276   3.202   5.762   5.716 -0.6172 -0.2318  0.1971
 1126SOL    HW1 4277   3.301   5.746   5.711 -0.5540  0.5198 -1.6737
 1126SOL    HW2 4278   3.172   5.813   5.636 -2.0891  2.0811  2.0713
 1127SOL     OW 4279   5.048   6.482   3.269  0.2448 -0.2792  0.2413
 1127SOL    HW1 4280   4.970   6.543   3.254  1.2009  0.4252 -2.5210
 1127SOL    HW2 4281   5.016   6.394   3.303 -1.8801 -0.2626 -1.5256
 1128SOL     OW 4282   5.593   2.416   3.378 -0.9905 -0.1005 -0.0321
 1128SOL    HW1 4283   5.680   2.375   3.350 -1.0167  0.3377 -0.7869
 1128SOL    HW2 4284   5.552   2.464   3.300 -1.4951  0.4234  0.5423
 1129SOL     OW 4285   0.589   1.446   1.093 -0.1770 -0.2999  0.6157
 1129SOL    HW1 4286   0.604   1.384   1.170 -0.6200 -0.5978  0.4659
 1129SOL    HW2 4287   0.603   1.397   1.007 -4.1219 -1.2843  0.3575
 1130SOL     OW 4288   2.805   0.065   1.857  0.0550  0.5282  0.6260
 1130SOL    HW1 4289   2.723   0.098   1.903 -0.4276  0.0402  0.1288
 1130SOL    HW2 4290   2.819  -0.031   1.880  0.4429  0.5848  0.6360
 1131SOL     OW 4291   1.721   4.290   5.653 -0.1512 -0.7396  0.6185
 1131SOL    HW1 4292   1.739   4.203   5.607 -1.5592 -0.3632 -0.7536
 1131SOL    HW2 4293   1.629   4.321   5.629  0.6786  1.6125  0.2433
 1132SOL     OW 4294   6.666   3.140   1.613  0.3583 -0.5098 -0.1963
 1132SOL    HW1 4295   6.692   3.163   1.707  0.2420 -0.5909 -0.1431
 1132SOL    HW2 4296   6.659   3.041   1.604 -1.0876 -0.4669  0.1177
 1133SOL     OW 4297   6.874   1.090   5.909  0.5423  0.1020 -0.0558
 1133SOL    HW1 4298   6.870   1.147   5.827 -1.4207  0.0267 -0.0663
 1133SOL    HW2 4299   6.830   1.002   5.890 -0.6036  0.3571  1.2455
 1134SOL     OW 4300   3.124   6.331   3.102 -0.2258 -0.3894  0.1741
 1134SOL    HW1 4301   3.095   6.283   3.185 -3.3086 -0.4591 -0.8026
 1134SOL    HW2 4302   3.080   6.290   3.023  0.2551  1.5337 -1.1622
 1135SOL     OW 4303   3.496   6.054   1.098  0.1101 -0.4199  0.3057
 1135SOL    HW1 4304   3.446   5.970   1.117  0.6319 -0.9939 -0.7716
 1135SOL    HW2 4305   3.594   6.038   1.108  0.1801  0.2790  0.8623
 1136SOL     OW 4306   1.465   6.815   0.281 -0.3784 -0.7652 -0.1593
 1136SOL    HW1 4307   1.427   6.810   0.189 -2.6603  1.5159  0.5412
 1136SOL    HW2 4308   1.560   6.783   0.280  0.2829  0.8438 -3.6626
 1137SOL     OW 4309   1.469   5.948   5.542  0.3145  0.2830 -0.6121
 1137SOL    HW1 4310   1.520   5.906   5.468 -0.0555  0.0040 -0.7126
 1137SOL    HW2 4311   1.410   5.879   5.585  2.2980 -0.2009  1.5314
 1138SOL     OW 4312   0.663   4.008   3.589 -0.1844  0.5364  0.3668
 1138SOL    HW1 4313   0.677   4.074   3.515 -0.0341 -0.7157 -0.7660
 1138SOL    HW2 4314   0.706   3.921   3.565 -0.4652 -0.0238  1.7732
 1139SOL     OW 4315   3.000   5.829   6.723  0.0090 -0.4434  0.3208
 1139SOL    HW1 4316   3.083   5.783   6.692  0.6916  0.8219  0.2080
 1139SOL    HW2 4317   2.921   5.787   6.679  0.7811 -0.1571 -1.4195
 1140SOL     OW 4318   0.898   0.366   6.120 -0.0377 -0.0472  0.0177
 1140SOL    HW1 4319   0.939   0.404   6.203 -0.4360 -0.3941  0.3728
 1140SOL    HW2 4320   0.945   0.404   6.040  0.8796 -0.3264  0.4113
 1141SOL     OW 4321   0.038   6.084   5.786  0.4010  0.0746 -0.3401
 1141SOL    HW1 4322  -0.035   6.152   5.775  0.0545 -0.0780  0.9048
 1141SOL    HW2 4323   0.127   6.128   5.777  0.1980  0.1148 -2.7867
 1142SOL     OW 4324   1.001   6.250   2.891  0.0286 -0.4604 -0.0421
 1142SOL    HW1 4325   1.030   6.294   2.976  0.3672 -1.2747  0.2679
 1142SOL    HW2 4326   0.902   6.234   2.895  0.0187 -0.3686  0.1318
 1143SOL     OW 4327   6.529   4.334   3.669 -0.1257 -0.3200 -0.3187
 1143SOL    HW1 4328   6.450   4.319   3.730  2.7912 -1.1641  3.6474
 1143SOL    HW2 4329   6.532   4.430   3.642 -1.1147  0.3273  1.6592
 1144SOL     OW 4330   5.713   0.716   1.748  0.3315  0.5124 -0.6489
 1144SOL    HW1 4331   5.658   0.783   1.699  0.4585  0.2128 -1.2118
 1144SOL    HW2 4332   5.656   0.637   1.772  0.6466 -0.0914 -1.8093
 1145SOL     OW 4333   5.773   0.738   0.982  0.0982  0.0566  0.2160
 1145SOL    HW1 4334   5.799   0.651   1.023 -1.2336  0.2480  1.5514
 1145SOL    HW2 4335   5.687   0.726   0.932  0.6896  0.2778 -0.8681
 1146SOL     OW 4336   0.330   1.159   6.344  0.5299 -0.3902  0.9580
 1146SOL    HW1 4337   0.424   1.193   6.350  0.4440  0.6649 -2.2765
 1146SOL    HW2 4338   0.268   1.226   6.386  1.0597 -0.5431  2.0414
 1147SOL     OW 4339   3.647   0.784   1.549 -0.1372  0.1100  0.4431
 1147SOL    HW1 4340   3.593   0.712   1.504  0.1255  0.7606 -0.9456
 1147SOL    HW2 4341   3.585   0.846   1.597 -0.5912  0.4306 -0.5275
 1148SOL     OW 4342   5.356   2.722   1.874  0.2779  0.0543 -0.5832
 1148SOL    HW1 4343   5.439   2.758   1.916 -0.4232  0.8368  0.1741
 1148SOL    HW2 4344   5.317   2.651   1.932 -0.4349  0.8036 -0.1314
 1149SOL     OW 4345   6.104   2.035   2.661  0.1198 -0.2070 -0.0519
 1149SOL    HW1 4346   6.130   2.105   2.595 -0.0097 -1.2457 -1.2414
 1149SOL    HW2 4347   6.168   1.958   2.654  1.3475  0.4580  2.4555
 1150SOL     OW 4348   2.555   4.707   1.944  0.2966 -0.0749 -0.4101
 1150SOL    HW1 4349   2.529   4.696   1.848  0.3293  0.0390 -0.4314
 1150SOL    HW2 4350   2.649   4.674   1.957 -0.0027 -0.8985 -0.2460
 1151SOL     OW 4351   6.171   6.023   2.771  0.0865  0.3829 -0.0271
 1151SOL    HW1 4352   6.229   6.048   2.693  0.3198  3.6317  0.9956
 1151SOL    HW2 4353   6.151   6.106   2.824 -4.3814 -0.7804  0.4903
 1152SOL     OW 4354   4.915   6.401   6.114 -0.0215  0.0441  0.3251
 1152SOL    HW1 4355   4.999   6.415   6.166 -0.0819  0.8176  0.2291
 1152SOL    HW2 4356   4.861   6.328   6.157 -0.1087  0.7177  1.3984
 1153SOL     OW 4357   5.307   6.819   1.738 -0.5756  0.0878  0.0250
 1153SOL    HW1 4358   5.364   6.868   1.671  1.7844 -1.4664  0.7498
 1153SOL    HW2 4359   5.333   6.722   1.739 -1.8676 -0.2964  1.8593
 1154SOL     OW 4360   2.454   3.312   1.650  0.4170  0.1517  0.1920
 1154SOL    HW1 4361   2.505   3.227   1.665 -2.1851 -1.4249  0.7783
 1154SOL    HW2 4362   2.457   3.368   1.733  0.3720 -0.3587  0.5376
 1155SOL     OW 4363   2.498   1.884   4.736 -0.3161  0.0282 -0.1433
 1155SOL    HW1 4364   2.469   1.854   4.827 -0.1039  1.6742  0.4953
 1155SOL    HW2 4365   2.454   1.971   4.714 -0.5018 -0.4384 -1.7070
 1156SOL     OW 4366   2.665   2.445   3.427  0.4213  0.0324 -0.1569
 1156SOL    HW1 4367   2.699   2.384   3.356 -3.0503 -2.1406 -0.1723
 1156SOL    HW2 4368   2.662   2.396   3.514 -0.4933  0.8540  0.2899
 1157SOL     OW 4369   3.891   1.232   6.401 -0.5425  0.5300 -0.3899
 1157SOL    HW1 4370   3.925   1.183   6.321  2.0087 -1.1758  1.5667
 1157SOL    HW2 4371   3.888   1.330   6.381 -0.3782  0.1344 -2.6588
 1158SOL     OW 4372   5.541   4.801   3.670 -0.3105  0.5427 -0.2623
 1158SOL    HW1 4373   5.561   4.866   3.743 -1.4307  0.7765 -0.1416
 1158SOL    HW2 4374   5.582   4.833   3.584 -1.5670  1.8906 -0.3948
 1159SOL     OW 4375   6.226   0.194   0.419 -0.2023 -0.0669 -0.5366
 1159SOL    HW1 4376   6.139   0.243   0.424 -1.6908 -2.5621 -0.1385
 1159SOL    HW2 4377   6.221   0.124   0.348  2.0804  0.7128 -1.5513
 1160SOL     OW 4378   4.216   2.441   0.124 -0.5477  0.4142  0.1515
 1160SOL    HW1 4379   4.208   2.399   0.215  1.0584 -1.6900 -0.5875
 1160SOL    HW2 4380   4.187   2.375   0.055 -1.5551  1.9172 -0.9255
 1161SOL     OW 4381   2.062   4.789   0.397  0.6076 -0.4676 -0.1010
 1161SOL    HW1 4382   2.015   4.877   0.386  0.1332 -0.5748  0.9366
 1161SOL    HW2 4383   2.151   4.793   0.352  0.4057  0.3944 -0.4468
 1162SOL     OW 4384   1.375   2.945   4.949  0.0757  0.5533  0.6225
 1162SOL    HW1 4385   1.303   2.947   5.018  0.3318 -2.3404  1.0785
 1162SOL    HW2 4386   1.465   2.953   4.994  0.1774  0.6756  0.4018
 1163SOL     OW 4387   5.813   3.238   0.959 -0.3613 -0.1204  0.1834
 1163SOL    HW1 4388   5.797   3.280   0.870 -1.3732  1.3979  1.0286
 1163SOL    HW2 4389   5.736   3.178   0.981  0.0915 -0.8258 -0.1351
 1164SOL     OW 4390   4.323   2.661   5.621  0.3301 -0.1452  0.3908
 1164SOL    HW1 4391   4.357   2.693   5.709  0.4523 -0.6632  0.5394
 1164SOL    HW2 4392   4.393   2.605   5.577  1.1862  2.0326 -1.1267
 1165SOL     OW 4393   5.420   6.079   4.314  0.6289 -0.4822 -0.1419
 1165SOL    HW1 4394   5.418   6.161   4.371  1.1472 -0.6475  0.1273
 1165SOL    HW2 4395   5.457   6.102   4.224 -1.9258  0.1696 -1.1029
 1166SOL     OW 4396   1.774   5.382   1.158  0.3525  0.1413 -0.5079
 1166SOL    HW1 4397   1.826   5.314   1.106  0.9050  0.9987 -1.0883
 1166SOL    HW2 4398   1.695   5.337   1.201 -0.3908 -0.5349 -2.4393
 1167SOL     OW 4399   6.682   4.112   1.339  0.0988 -0.1400 -0.0167
 1167SOL    HW1 4400   6.589   4.076   1.337  0.0777 -0.0891  0.0360
 1167SOL    HW2 4401   6.709   4.130   1.434  0.1084 -0.0174 -0.0421
 1168SOL     OW 4402   0.662   1.248   5.094 -0.1555 -0.4183  0.3617
 1168SOL    HW1 4403   0.737   1.290   5.043  0.1601  0.7551  1.7225
 1168SOL    HW2 4404   0.615   1.182   5.036  0.1624  0.8730 -1.4274
 1169SOL     OW 4405   6.017   6.867   5.383 -0.4726 -0.4849  0.0260
 1169SOL    HW1 4406   5.936   6.925   5.372 -0.6228 -0.2420  2.0525
 1169SOL    HW2 4407   6.093   6.922   5.416  0.0162 -1.0588 -0.1330
 1170SOL     OW 4408   6.736   5.915   4.382 -0.5356 -0.0249  0.1685
 1170SOL    HW1 4409   6.658   5.972   4.409 -0.7001 -0.6475  1.0319
 1170SOL    HW2 4410   6.704   5.834   4.334 -0.5172 -0.8301  1.4746
 1171SOL     OW 4411   1.038   6.513   0.192 -0.3803  0.8080 -0.9714
 1171SOL    HW1 4412   1.133   6.481   0.186 -0.1795  0.6079  1.7770
 1171SOL    HW2 4413   1.037   6.604   0.234 -1.3960  0.8245 -1.0088
 1172SOL     OW 4414   5.716   2.832   6.041 -0.0792  0.2821 -0.4857
 1172SOL    HW1 4415   5.627   2.827   6.088 -0.7936  1.1859 -1.6907
 1172SOL    HW2 4416   5.763   2.916   6.068 -0.8985  1.2745 -2.0168
 1173SOL     OW 4417   2.118   1.525   0.134  0.4290  1.0757 -0.1282
 1173SOL    HW1 4418   2.188   1.588   0.099  0.1265  0.4440 -1.9316
 1173SOL    HW2 4419   2.157   1.433   0.143  0.7349  1.3530  2.0588
 1174SOL     OW 4420   1.029   3.564   0.071  0.2606 -0.1754  0.0368
 1174SOL    HW1 4421   0.934   3.561   0.040 -0.1467 -1.4236  1.2720
 1174SOL    HW2 4422   1.090   3.545  -0.005 -0.2919  2.7274 -1.2717
 1175SOL     OW 4423   3.644   3.603   4.367 -0.2719  0.0970  0.0070
 1175SOL    HW1 4424   3.693   3.548   4.299 -2.6564 -0.9771 -0.9441
 1175SOL    HW2 4425   3.711   3.648   4.427  1.8601 -0.7860 -1.5470
 1176SOL     OW 4426   5.859   3.963   6.227  0.0238  0.5591  0.1807
 1176SOL    HW1 4427   5.873   3.879   6.175 -0.4163 -0.0017  0.9393
 1176SOL    HW2 4428   5.796   4.022   6.177 -1.0491 -0.3276  0.4168
 1177SOL     OW 4429   1.432   1.990   4.878  0.1624  0.1342 -0.2932
 1177SOL    HW1 4430   1.499   1.920   4.903 -0.3295 -1.0671 -2.1555
 1177SOL    HW2 4431   1.478   2.064   4.828  0.1598 -0.6043 -1.4172
 1178SOL     OW 4432   1.987   6.084   6.404 -0.6740  0.3066 -0.5312
 1178SOL    HW1 4433   2.080   6.106   6.433 -1.0428  2.9461 -1.0385
 1178SOL    HW2 4434   1.931   6.061   6.484  0.5212 -1.9919 -0.2947
 1179SOL     OW 4435   3.263   3.886   1.303 -0.3383 -0.0406  0.1045
 1179SOL    HW1 4436   3.333   3.816   1.315 -0.3065  0.4133  3.2399
 1179SOL    HW2 4437   3.303   3.966   1.258  0.8480 -0.2388  0.7695
 1180SOL     OW 4438   4.745   6.548   0.774  0.3538  0.7736  0.0685
 1180SOL    HW1 4439   4.694   6.465   0.793 -1.8089  1.4998 -2.0486
 1180SOL    HW2 4440   4.751   6.604   0.857  0.6375 -0.8054  1.1578
 1181SOL     OW 4441   1.567   6.339   0.519 -0.1110  0.2929  0.6923
 1181SOL    HW1 4442   1.471   6.312   0.507 -0.3713  1.6389 -0.4653
 1181SOL    HW2 4443   1.617   6.323   0.433  0.6631 -0.1974  1.2227
 1182SOL     OW 4444   4.798   3.023   1.686  0.0267  0.3567 -0.1056
 1182SOL    HW1 4445   4.749   3.037   1.772 -0.5229  0.9292 -0.5023
 1182SOL    HW2 4446   4.881   3.080   1.686 -0.4232  1.0304 -0.2974
 1183SOL     OW 4447   1.719   2.934   6.817  0.3335 -0.3493 -0.1714
 1183SOL    HW1 4448   1.728   2.907   6.913 -1.7160 -0.0492  0.1420
 1183SOL    HW2 4449   1.652   2.874   6.772  1.2430 -0.4661 -1.4175
 1184SOL     OW 4450   6.597   1.208   3.972 -0.1281  0.3969 -0.1383
 1184SOL    HW1 4451   6.535   1.206   3.893 -0.7665  1.0175  0.3295
 1184SOL    HW2 4452   6.691   1.217   3.940 -0.3463  0.2535 -0.8428
 1185SOL     OW 4453   6.949   1.989   5.620 -0.0270  0.2169 -0.3749
 1185SOL    HW1 4454   6.896   1.965   5.539 -0.9185 -0.2966  0.3476
 1185SOL    HW2 4455   6.968   1.906   5.673 -1.3402  0.7993  1.0726
 1186SOL     OW 4456   6.229   6.837   5.874 -0.3521 -0.0588 -0.3331
 1186SOL    HW1 4457   6.165   6.859   5.800  0.2564 -1.3005 -1.2454
 1186SOL    HW2 4458   6.240   6.738   5.881  2.5825  0.1017 -1.1955
 1187SOL     OW 4459   5.964   1.261   5.676 -0.3640 -0.8560 -0.1846
 1187SOL    HW1 4460   5.880   1.287   5.629  0.4555  0.6238 -0.8961
 1187SOL    HW2 4461   6.027   1.217   5.612  0.6163  0.8458 -0.4545
 1188SOL     OW 4462   3.716   0.393   6.640  0.6738  0.2524 -0.3224
 1188SOL    HW1 4463   3.752   0.314   6.591  0.6833 -0.1470  0.3185
 1188SOL    HW2 4464   3.617   0.384   6.650  0.6778  0.3044 -0.2291
 1189SOL     OW 4465   5.140   3.933   3.240 -0.2043 -0.2241  0.2310
 1189SOL    HW1 4466   5.192   4.017   3.255 -0.4021 -0.2164  0.9352
 1189SOL    HW2 4467   5.044   3.956   3.222 -0.2765 -0.2978  0.5118
 1190SOL     OW 4468   2.258   1.065   1.201 -0.2975 -0.0258  0.0741
 1190SOL    HW1 4469   2.299   1.007   1.271  1.4183  2.1572  0.9774
 1190SOL    HW2 4470   2.194   1.129   1.243  0.3420  0.9531 -0.4016
 1191SOL     OW 4471   5.056   5.223   1.958 -0.2248  0.9429  0.2022
 1191SOL    HW1 4472   5.038   5.126   1.944  0.7895  0.6344  0.9205
 1191SOL    HW2 4473   5.025   5.275   1.879 -1.4022  0.1188  0.1016
 1192SOL     OW 4474   6.001   5.102   4.061  0.0016 -0.0264  0.0460
 1192SOL    HW1 4475   5.908   5.140   4.059 -0.6539 -1.5258  0.3624
 1192SOL    HW2 4476   6.061   5.159   4.005 -1.3313  0.4422 -0.9805
 1193SOL     OW 4477   4.761   5.587   4.395  0.0231 -0.0987 -0.6949
 1193SOL    HW1 4478   4.731   5.535   4.475  1.2605 -0.0915 -0.2000
 1193SOL    HW2 4479   4.681   5.614   4.342 -0.8474 -0.0180  0.5861
 1194SOL     OW 4480   5.363   1.596   6.482 -0.4033  0.3785 -0.4544
 1194SOL    HW1 4481   5.395   1.503   6.499 -0.4538  0.6123  1.0486
 1194SOL    HW2 4482   5.439   1.660   6.494  0.0075  0.4596 -2.9357
 1195SOL     OW 4483   6.190   2.447   2.613 -0.3178 -0.1909 -0.4679
 1195SOL    HW1 4484   6.223   2.369   2.560 -0.1629 -1.2985  1.1707
 1195SOL    HW2 4485   6.176   2.419   2.708 -1.3041  1.5217 -0.0678
 1196SOL     OW 4486   5.857   6.354   3.767  0.2701  0.2270 -0.3467
 1196SOL    HW1 4487   5.793   6.390   3.835  1.2814 -0.0417  0.7833
 1196SOL    HW2 4488   5.949   6.350   3.807  1.0450  0.7920 -1.9892
 1197SOL     OW 4489   3.073   6.740   6.848  1.1423  0.3606 -0.2655
 1197SOL    HW1 4490   3.019   6.735   6.765  0.4605 -3.3897  0.2344
 1197SOL    HW2 4491   3.013   6.758   6.926  1.1535 -0.1000 -0.1470
 1198SOL     OW 4492   0.569   2.102   0.753 -0.0118  0.1107  0.6970
 1198SOL    HW1 4493   0.501   2.102   0.680  0.5459  2.6048  0.0716
 1198SOL    HW2 4494   0.529   2.140   0.836  0.0600 -0.3672  0.9554
 1199SOL     OW 4495   6.904   3.030   3.330  0.0847  0.6006  0.6541
 1199SOL    HW1 4496   6.822   2.977   3.311  1.0629 -0.6947 -0.1296
 1199SOL    HW2 4497   6.887   3.093   3.405 -1.5371  0.1808  0.6675
 1200SOL     OW 4498   3.453   4.145   1.773  0.1672  0.0849 -0.0566
 1200SOL    HW1 4499   3.398   4.100   1.843 -1.8054 -0.5944 -1.9230
 1200SOL    HW2 4500   3.399   4.217   1.729  0.9869 -0.1344 -1.4899
 1201SOL     OW 4501   0.572   1.222   5.787  0.1317 -0.3884 -0.3979
 1201SOL    HW1 4502   0.591   1.274   5.703  2.0267 -0.3891 -0.0079
 1201SOL    HW2 4503   0.552   1.286   5.861  1.1518 -0.2442 -0.2314
 1202SOL     OW 4504   1.046   5.574   1.607  0.0093 -0.3978 -0.2247
 1202SOL    HW1 4505   1.014   5.665   1.632  2.7405  0.6517 -0.2226
 1202SOL    HW2 4506   1.011   5.507   1.672 -0.7981  0.8738  0.6967
 1203SOL     OW 4507   4.439   5.218   6.550  0.1944 -0.3589  0.2742
 1203SOL    HW1 4508   4.342   5.211   6.526  0.1827  0.3317  0.0953
 1203SOL    HW2 4509   4.493   5.224   6.466  0.3961 -0.7522  0.3738
 1204SOL     OW 4510   1.811   1.407   2.006 -0.3891  0.4563  0.2253
 1204SOL    HW1 4511   1.777   1.380   2.096 -0.9807 -1.1749 -0.4346
 1204SOL    HW2 4512   1.908   1.431   2.013 -0.8736  2.1768  1.5963
 1205SOL     OW 4513   5.682   4.909   0.648  0.4742  0.4578 -0.3228
 1205SOL    HW1 4514   5.765   4.881   0.696 -0.3459 -0.3601  0.6789
 1205SOL    HW2 4515   5.625   4.964   0.710 -0.1549  0.2144 -0.6701
 1206SOL     OW 4516   2.421   4.285   6.908  0.0456  0.3653 -0.3940
 1206SOL    HW1 4517   2.468   4.201   6.882  0.3105 -0.0968  1.4412
 1206SOL    HW2 4518   2.374   4.271   6.995  0.1563  2.1498 -0.0122
 1207SOL     OW 4519   1.593   4.574   1.613  0.3116 -0.1375  1.3956
 1207SOL    HW1 4520   1.649   4.655   1.629  2.3028 -0.7247 -1.6328
 1207SOL    HW2 4521   1.641   4.492   1.644  0.9045 -0.5791 -0.5314
 1208SOL     OW 4522   3.953   3.571   6.238  0.3515 -0.2230  0.0423
 1208SOL    HW1 4523   3.881   3.564   6.169  0.7511  1.3249 -0.5634
 1208SOL    HW2 4524   3.939   3.500   6.307  0.0501 -1.9212 -1.6979
 1209SOL     OW 4525   4.825   6.126   6.185 -0.2584  0.3851 -0.2516
 1209SOL    HW1 4526   4.760   6.094   6.116 -1.3271  1.4382  0.2315
 1209SOL    HW2 4527   4.780   6.127   6.274 -0.5160  3.7953 -0.3212
 1210SOL     OW 4528   2.490   0.498   3.107  0.6408 -0.0683 -0.0757
 1210SOL    HW1 4529   2.579   0.451   3.114  0.0134 -1.1564  0.9149
 1210SOL    HW2 4530   2.463   0.532   3.197 -0.0514  0.0800 -0.3330
 1211SOL     OW 4531   1.165   4.837   6.801  0.3712  0.0807 -0.4404
 1211SOL    HW1 4532   1.254   4.803   6.833  0.1647  0.7766  0.9573
 1211SOL    HW2 4533   1.112   4.761   6.763  0.3198 -1.0268  1.6884
 1212SOL     OW 4534   2.487   5.529   1.143 -0.3227 -0.1102  0.0837
 1212SOL    HW1 4535   2.460   5.476   1.063  0.3001 -2.4166  1.3114
 1212SOL    HW2 4536   2.550   5.601   1.114 -0.7436 -0.3546 -1.5912
 1213SOL     OW 4537   6.298   3.690   6.140 -0.1032  0.0763 -0.5344
 1213SOL    HW1 4538   6.393   3.660   6.135 -0.7243 -2.2702  0.3192
 1213SOL    HW2 4539   6.257   3.687   6.049  0.2314 -0.4220 -0.6709
 1214SOL     OW 4540   0.993   1.349   2.974  0.1365 -0.2718 -0.0684
 1214SOL    HW1 4541   0.937   1.402   3.038  0.8388 -1.1253  1.3217
 1214SOL    HW2 4542   0.944   1.266   2.947 -0.2301  0.1721 -0.8062
 1215SOL     OW 4543   1.557   5.421   5.241 -0.6296  0.2544 -0.1745
 1215SOL    HW1 4544   1.605   5.353   5.296  0.9765  2.3064  1.1281
 1215SOL    HW2 4545   1.579   5.409   5.145  2.5381  0.9995  0.3491
 1216SOL     OW 4546   4.716   1.275   1.766  0.1710 -0.6336  0.2693
 1216SOL    HW1 4547   4.805   1.322   1.771  0.3567 -1.0192  0.6541
 1216SOL    HW2 4548   4.651   1.322   1.825  0.1005 -0.3125 -0.0615
 1217SOL     OW 4549   3.010   4.428   5.658 -0.4303  0.2280  0.3588
 1217SOL    HW1 4550   3.014   4.329   5.648 -1.7932  0.3468 -2.3015
 1217SOL    HW2 4551   2.914   4.457   5.666 -0.0292  1.3277  1.6926
 1218SOL     OW 4552   0.455   4.228   5.065 -0.0413 -0.2666  0.3855
 1218SOL    HW1 4553   0.538   4.277   5.038 -0.8682  0.4825 -0.8609
 1218SOL    HW2 4554   0.432   4.252   5.160 -0.7008  2.2061 -0.3258
 1219SOL     OW 4555   4.956   4.958   3.565  0.1025  0.3916  0.0663
 1219SOL    HW1 4556   4.890   4.997   3.500  0.1665 -1.4454 -1.1613
 1219SOL    HW2 4557   4.989   4.870   3.531 -1.0440 -1.4724  3.3215
 1220SOL     OW 4558   0.519   3.081   3.518 -0.3168 -0.1795 -0.0489
 1220SOL    HW1 4559   0.618   3.074   3.514 -0.3173 -0.0926 -0.2487
 1220SOL    HW2 4560   0.482   3.085   3.424 -0.4310  0.8983  0.0343
 1221SOL     OW 4561   5.320   4.691   6.222  0.2628  0.1733 -0.2713
 1221SOL    HW1 4562   5.320   4.604   6.172  0.2380  1.1639 -2.1031
 1221SOL    HW2 4563   5.228   4.710   6.255 -0.0973  0.2228 -1.2462
 1222SOL     OW 4564   0.333   4.917   6.771  0.0634 -0.1339 -0.1181
 1222SOL    HW1 4565   0.255   4.960   6.727  0.3287  0.4739  0.0005
 1222SOL    HW2 4566   0.354   4.964   6.856  0.5119 -0.3422 -0.1096
 1223SOL     OW 4567   2.533   5.724   0.168 -0.0175  0.0551  1.0551
 1223SOL    HW1 4568   2.624   5.729   0.127 -0.2630  0.8478  0.5991
 1223SOL    HW2 4569   2.536   5.665   0.248  0.2812 -2.3425 -0.6011
 1224SOL     OW 4570   5.406   1.601   2.219  0.1151 -0.6769  0.2253
 1224SOL    HW1 4571   5.368   1.693   2.226  1.3423 -0.2398  1.5248
 1224SOL    HW2 4572   5.426   1.580   2.123 -1.6924 -0.2611 -0.2909
 1225SOL     OW 4573   2.692   1.588   1.536  0.0887  0.3212 -0.6699
 1225SOL    HW1 4574   2.631   1.667   1.533 -1.6754 -0.8922  0.8316
 1225SOL    HW2 4575   2.780   1.616   1.576  0.5469  2.0711 -2.7455
 1226SOL     OW 4576   2.159   3.783   2.026 -0.2351  0.2479  0.9293
 1226SOL    HW1 4577   2.060   3.789   2.022 -0.2693 -0.0526  1.2148
 1226SOL    HW2 4578   2.187   3.688   2.017  0.2118  0.5786 -2.3020
 1227SOL     OW 4579   0.824   4.674   0.133  1.6819  0.3497  0.2338
 1227SOL    HW1 4580   0.787   4.740   0.068  1.3556  1.4614  1.5190
 1227SOL    HW2 4581   0.808   4.581   0.099  0.6532  0.8894 -0.8021
 1228SOL     OW 4582   3.629   1.438   5.949  0.2752 -0.3580  0.0875
 1228SOL    HW1 4583   3.728   1.429   5.941  0.3528 -0.1574  0.7425
 1228SOL    HW2 4584   3.588   1.436   5.858  0.8985 -0.2138 -0.2036
 1229SOL     OW 4585   3.103   4.450   5.922 -0.7695  0.0740 -0.6012
 1229SOL    HW1 4586   3.139   4.541   5.943  0.2219 -0.1375 -1.3245
 1229SOL    HW2 4587   3.075   4.447   5.826  0.5137 -0.7795 -0.9759
 1230SOL     OW 4588   5.950   5.155   2.761  0.1534  0.0526  0.3248
 1230SOL    HW1 4589   5.898   5.168   2.846  2.7741  0.5830  1.9650
 1230SOL    HW2 4590   5.936   5.234   2.702 -4.0035 -1.5653 -1.2171
 1231SOL     OW 4591   2.762   5.364   4.952 -0.4656 -0.3987  0.5089
 1231SOL    HW1 4592   2.704   5.323   4.881  0.3770  0.8780 -0.9891
 1231SOL    HW2 4593   2.711   5.433   5.002 -0.7998 -0.6356  0.4945
 1232SOL     OW 4594   3.309   1.082   5.480 -0.3260 -0.0803 -0.4549
 1232SOL    HW1 4595   3.338   0.993   5.517 -2.6543 -0.6262  0.2730
 1232SOL    HW2 4596   3.354   1.155   5.531  1.9672 -0.7676 -1.3472
 1233SOL     OW 4597   0.733   3.337   4.950 -0.3536 -0.3884  0.2729
 1233SOL    HW1 4598   0.694   3.412   5.003  1.0334 -0.8228  2.0169
 1233SOL    HW2 4599   0.795   3.284   5.008  0.5076 -1.4859 -1.5532
 1234SOL     OW 4600   6.103   5.790   3.999  0.4211 -0.0731  0.0903
 1234SOL    HW1 4601   6.008   5.801   3.967  0.7525 -0.2547 -0.9919
 1234SOL    HW2 4602   6.150   5.724   3.940  1.0804 -0.3585  0.9320
 1235SOL     OW 4603   6.685   0.613   3.379  0.4436  0.1982  0.7221
 1235SOL    HW1 4604   6.664   0.709   3.361  1.4013  0.1969 -0.5362
 1235SOL    HW2 4605   6.614   0.573   3.437  0.1350  1.7075  1.4232
 1236SOL     OW 4606   4.786   6.913   6.310 -0.6653  0.7954 -0.1620
 1236SOL    HW1 4607   4.783   6.815   6.295  0.6356  0.4912  1.2186
 1236SOL    HW2 4608   4.805   6.960   6.224  1.3377 -0.3979 -0.4367
 1237SOL     OW 4609   2.986   4.730   0.491  0.0901 -0.1788  0.0158
 1237SOL    HW1 4610   2.993   4.637   0.454 -1.0110  0.4116 -1.8319
 1237SOL    HW2 4611   2.943   4.789   0.422 -2.7505  0.8764  2.4967
 1238SOL     OW 4612   1.586   0.615   3.257  0.3652  0.3277 -0.1668
 1238SOL    HW1 4613   1.590   0.709   3.224  1.0036  0.2006 -0.4486
 1238SOL    HW2 4614   1.658   0.600   3.324  0.9332 -0.2629 -0.8965
 1239SOL     OW 4615   6.695   2.010   5.723  0.0797 -0.3980 -0.0720
 1239SOL    HW1 4616   6.635   1.930   5.723  0.5772 -0.8761 -2.5185
 1239SOL    HW2 4617   6.787   1.982   5.692  1.6440  0.3128  3.4928
 1240SOL     OW 4618   5.264   5.700   0.835  0.0866 -0.5707 -0.3743
 1240SOL    HW1 4619   5.307   5.743   0.915 -1.3299  1.4139 -0.6098
 1240SOL    HW2 4620   5.208   5.623   0.865 -1.5629  1.0021  0.7803
 1241SOL     OW 4621   5.507   0.263   4.202 -0.3658  0.2159 -0.3944
 1241SOL    HW1 4622   5.564   0.222   4.273  1.4390  1.9238 -0.7708
 1241SOL    HW2 4623   5.514   0.363   4.207 -2.3470  0.4433 -1.2998
 1242SOL     OW 4624   1.203   2.917   6.879 -0.9568 -0.3253 -0.1237
 1242SOL    HW1 4625   1.138   2.976   6.927 -0.3280 -0.5983  1.1231
 1242SOL    HW2 4626   1.250   2.969   6.808 -0.9955  0.4635  0.4128
 1243SOL     OW 4627   3.846   4.948   5.105 -0.8256 -0.7101  0.2282
 1243SOL    HW1 4628   3.816   5.041   5.081  0.5639 -0.2742  0.0405
 1243SOL    HW2 4629   3.793   4.914   5.182 -0.9915  0.4742  0.6660
 1244SOL     OW 4630   2.263   2.586   3.583 -0.0343  0.0312 -0.3481
 1244SOL    HW1 4631   2.191   2.640   3.539 -0.4469 -1.2423 -1.3188
 1244SOL    HW2 4632   2.223   2.531   3.656  0.0335 -0.2903 -0.5489
 1245SOL     OW 4633   1.467   3.179   6.333 -0.4649 -0.1731  0.0233
 1245SOL    HW1 4634   1.519   3.249   6.284  1.2558 -0.9431  0.6933
 1245SOL    HW2 4635   1.387   3.221   6.375  0.2361  1.2921 -0.0483
 1246SOL     OW 4636   2.008   4.835   1.465  0.3767 -0.9368 -0.1428
 1246SOL    HW1 4637   2.064   4.915   1.485 -1.1942  1.1579 -3.1999
 1246SOL    HW2 4638   2.024   4.807   1.370 -2.3262 -1.3935 -0.5360
 1247SOL     OW 4639   1.520   0.120   0.191 -0.3043  0.5236 -0.2879
 1247SOL    HW1 4640   1.607   0.082   0.162 -0.2541  0.8661 -0.5995
 1247SOL    HW2 4641   1.449   0.049   0.188 -0.3421  0.5903 -1.4537
 1248SOL     OW 4642   3.106   5.879   5.061  0.0473 -0.0188 -0.2330
 1248SOL    HW1 4643   3.135   5.953   5.002 -1.1093  0.6991  0.0722
 1248SOL    HW2 4644   3.070   5.804   5.006  1.2111 -0.3708 -0.5399
 1249SOL     OW 4645   6.668   5.349   2.846  0.6670 -0.3674  0.0756
 1249SOL    HW1 4646   6.636   5.360   2.752 -0.7626 -1.9623  0.3206
 1249SOL    HW2 4647   6.602   5.392   2.908  0.9994 -0.3233  0.3967
 1250SOL     OW 4648   1.028   5.657   5.028 -0.1930 -0.1483 -0.3606
 1250SOL    HW1 4649   1.010   5.656   4.930 -1.1765 -0.4493 -0.1858
 1250SOL    HW2 4650   0.952   5.701   5.075  0.9162  1.2861  0.1582
 1251SOL     OW 4651   3.046   1.715   4.983  0.0734 -0.1410  0.1498
 1251SOL    HW1 4652   3.113   1.728   5.056 -0.1041  0.8998  0.1498
 1251SOL    HW2 4653   3.082   1.651   4.915  1.2028  0.6238 -0.0034
 1252SOL     OW 4654   3.304   5.203   0.382 -0.4269  0.3451 -0.0176
 1252SOL    HW1 4655   3.391   5.190   0.428 -0.4090  2.3619  0.6368
 1252SOL    HW2 4656   3.265   5.292   0.408 -2.6487 -0.4564 -0.3484
 1253SOL     OW 4657   4.781   5.639   3.499 -0.3304 -0.6559  0.3866
 1253SOL    HW1 4658   4.822   5.567   3.555 -0.4237 -0.1640  1.1002
 1253SOL    HW2 4659   4.820   5.635   3.406 -0.2891 -1.5696  0.4347
 1254SOL     OW 4660   0.844   6.931   3.327 -0.3739 -0.1593  0.1918
 1254SOL    HW1 4661   0.877   7.016   3.285  0.5780  0.0031  1.2187
 1254SOL    HW2 4662   0.912   6.859   3.313 -0.0619 -0.1131  1.3732
 1255SOL     OW 4663   6.834   6.980   6.843 -0.5058  0.0116  0.3543
 1255SOL    HW1 4664   6.772   6.941   6.911 -0.8685  0.6490  0.3947
 1255SOL    HW2 4665   6.815   6.941   6.753 -1.5348  0.7976  0.2063
 1256SOL     OW 4666   4.789   1.749   3.382  0.3738  0.1775  0.0592
 1256SOL    HW1 4667   4.850   1.688   3.331 -0.5168 -0.6116 -0.0894
 1256SOL    HW2 4668   4.842   1.825   3.419  1.4674 -0.5574  0.0528
 1257SOL     OW 4669   4.769   2.165   3.922 -0.1145  1.1364 -0.6500
 1257SOL    HW1 4670   4.687   2.185   3.868 -1.4590  1.9534  1.5615
 1257SOL    HW2 4671   4.829   2.245   3.924 -0.0001  1.0597 -1.0302
 1258SOL     OW 4672   2.733   6.486   1.506  0.0186  0.2480 -0.0104
 1258SOL    HW1 4673   2.650   6.461   1.455  0.6643 -0.3479 -0.7896
 1258SOL    HW2 4674   2.737   6.585   1.517  0.3948  0.4992 -2.0672
 1259SOL     OW 4675   2.992   3.471   4.680 -0.0811  0.3372 -0.1651
 1259SOL    HW1 4676   2.999   3.383   4.634  0.6887  0.1741  0.2579
 1259SOL    HW2 4677   2.985   3.544   4.612  1.6884  0.1616 -0.5798
 1260SOL     OW 4678   2.204   0.711   6.231 -0.2356 -0.2647 -0.2003
 1260SOL    HW1 4679   2.114   0.707   6.187  0.0734  0.8369 -0.9926
 1260SOL    HW2 4680   2.199   0.770   6.312  0.3466  2.2343 -1.8658
 1261SOL     OW 4681   6.556   3.410   1.562 -0.0951 -0.6596 -0.0195
 1261SOL    HW1 4682   6.601   3.451   1.483 -2.4876 -0.1483 -1.2211
 1261SOL    HW2 4683   6.572   3.311   1.562 -0.0098 -0.6621 -1.1196
 1262SOL     OW 4684   4.882   6.720   3.227  0.3598 -0.2134  0.1813
 1262SOL    HW1 4685   4.857   6.807   3.268  1.9148  0.3514  0.0226
 1262SOL    HW2 4686   4.937   6.736   3.145 -0.0782 -1.3404 -0.3463
 1263SOL     OW 4687   0.638   0.937   2.077 -0.0238  0.3000 -0.7407
 1263SOL    HW1 4688   0.663   0.913   1.983 -0.1631 -3.2825 -0.0236
 1263SOL    HW2 4689   0.721   0.958   2.129  0.2626  0.3090 -1.1946
 1264SOL     OW 4690   1.531   1.891   4.235 -0.1250  0.0552 -0.5399
 1264SOL    HW1 4691   1.611   1.950   4.241  0.0600 -0.1285 -1.1557
 1264SOL    HW2 4692   1.512   1.851   4.325 -0.2281  1.0120 -0.1261
 1265SOL     OW 4693   5.820   4.588   5.129 -0.5352 -0.0351 -0.1625
 1265SOL    HW1 4694   5.729   4.596   5.090 -0.1954 -0.5106 -1.0670
 1265SOL    HW2 4695   5.837   4.666   5.190 -1.4866  0.1245 -0.0885
 1266SOL     OW 4696   0.975   0.644   5.590 -0.1585 -0.7707  0.3302
 1266SOL    HW1 4697   1.045   0.711   5.615 -2.0162 -0.0853  4.4572
 1266SOL    HW2 4698   1.010   0.587   5.516  3.4265  1.5623 -0.0512
 1267SOL     OW 4699   3.990   0.160   2.895  0.8980  0.0761 -0.2382
 1267SOL    HW1 4700   3.966   0.191   2.803  1.0135  0.9152 -0.0011
 1267SOL    HW2 4701   4.041   0.075   2.890 -1.1921 -1.2133 -0.8185
 1268SOL     OW 4702   4.334   3.454   6.564 -0.3955  0.7840 -0.4188
 1268SOL    HW1 4703   4.349   3.553   6.558  2.5882  0.4658 -0.0156
 1268SOL    HW2 4704   4.338   3.426   6.660 -0.1611  0.1708 -0.6041
 1269SOL     OW 4705   5.757   1.975   3.021  1.0169 -0.0703  0.1223
 1269SOL    HW1 4706   5.772   1.898   3.083  0.8381 -0.3967 -0.2303
 1269SOL    HW2 4707   5.664   2.010   3.031 -0.2961 -2.4100 -2.3898
 1270SOL     OW 4708   0.722   6.668   0.989 -0.5168  0.0746 -0.1909
 1270SOL    HW1 4709   0.690   6.573   0.982 -0.4272  0.0138  0.1737
 1270SOL    HW2 4710   0.645   6.730   0.975 -0.2785 -0.0130 -2.0486
 1271SOL     OW 4711   2.416   2.925   1.412 -0.0801 -0.3485  0.5544
 1271SOL    HW1 4712   2.317   2.907   1.410  0.0653 -1.2170  0.7861
 1271SOL    HW2 4713   2.452   2.902   1.502  0.2665  0.4070  0.6209
 1272SOL     OW 4714   0.231   3.547   4.185  0.3972  0.8388  0.3378
 1272SOL    HW1 4715   0.313   3.590   4.223  0.1972  0.4808  1.2090
 1272SOL    HW2 4716   0.257   3.487   4.110  0.7218  2.1363 -0.6080
 1273SOL     OW 4717   1.667   4.648   5.572 -0.3861  0.4097 -0.1336
 1273SOL    HW1 4718   1.702   4.607   5.657 -0.7279 -1.8188 -0.9968
 1273SOL    HW2 4719   1.662   4.577   5.501 -3.7608  1.3049 -0.9394
 1274SOL     OW 4720   6.725   4.631   1.554  0.0947 -0.0478 -0.6074
 1274SOL    HW1 4721   6.627   4.648   1.559  0.0402  0.1282 -1.9178
 1274SOL    HW2 4722   6.750   4.559   1.620 -0.8088  0.2595  0.0973
 1275SOL     OW 4723   1.076   6.878   2.823 -0.2211 -0.1557 -0.1486
 1275SOL    HW1 4724   1.070   6.788   2.865  0.6220  0.6798  1.8809
 1275SOL    HW2 4725   1.079   6.868   2.723  2.0723 -2.5040  0.0533
 1276SOL     OW 4726   6.362   6.794   3.174 -0.5210  0.4402 -0.1652
 1276SOL    HW1 4727   6.462   6.799   3.168 -0.3082 -1.2922  1.0885
 1276SOL    HW2 4728   6.330   6.713   3.126 -0.9271 -0.9275  2.2359
 1277SOL     OW 4729   1.763   6.208   0.348 -0.1544  0.0021 -0.2189
 1277SOL    HW1 4730   1.741   6.172   0.257 -0.2703  0.0732 -0.2188
 1277SOL    HW2 4731   1.855   6.177   0.374  0.2688  0.7761 -0.7639
 1278SOL     OW 4732   1.558   5.094   3.669  0.2671 -0.4975  0.3160
 1278SOL    HW1 4733   1.551   5.075   3.571  1.9655 -1.3588  0.3181
 1278SOL    HW2 4734   1.629   5.163   3.684 -1.1134  0.8519  0.8491
 1279SOL     OW 4735   2.014   3.030   0.819 -0.1381  0.3116 -0.4531
 1279SOL    HW1 4736   2.050   3.123   0.812  0.0637  0.3550  0.8474
 1279SOL    HW2 4737   1.915   3.035   0.837  0.0476  0.3174  0.6323
 1280SOL     OW 4738   2.540   2.374   3.921  0.2085  0.1813  0.2193
 1280SOL    HW1 4739   2.590   2.416   3.845  0.1972  0.0427  0.1346
 1280SOL    HW2 4740   2.456   2.332   3.886  0.2972 -0.0466  0.2814
 1281SOL     OW 4741   4.451   4.542   3.884  0.1510 -0.1665  0.9041
 1281SOL    HW1 4742   4.468   4.467   3.819  0.3736  0.5918  0.0712
 1281SOL    HW2 4743   4.417   4.504   3.970 -0.8652 -1.1526  0.1095
 1282SOL     OW 4744   6.073   2.209   1.217  0.3590  0.5680  0.0298
 1282SOL    HW1 4745   6.084   2.110   1.211  0.5821  0.4505  1.6933
 1282SOL    HW2 4746   6.009   2.230   1.291 -1.7965  1.6151 -2.0159
 1283SOL     OW 4747   0.735   3.160   4.685  0.1303  0.1508 -0.2980
 1283SOL    HW1 4748   0.703   3.251   4.709 -1.5679 -0.3929 -0.3447
 1283SOL    HW2 4749   0.773   3.115   4.766 -1.0519  0.1084  0.2435
 1284SOL     OW 4750   4.040   1.794   4.508 -0.4894  0.5213  0.3683
 1284SOL    HW1 4751   4.060   1.794   4.605  0.9784  0.9606  0.0852
 1284SOL    HW2 4752   4.099   1.860   4.461 -0.5602 -0.2966 -0.9335
 1285SOL     OW 4753   3.725   6.844   4.007 -0.1532  0.2297 -0.7023
 1285SOL    HW1 4754   3.689   6.916   3.947  0.8885  0.3639 -1.1948
 1285SOL    HW2 4755   3.708   6.755   3.966  0.4569  0.3158 -1.1680
 1286SOL     OW 4756   5.663   1.161   2.283 -0.3484  0.4572 -0.1039
 1286SOL    HW1 4757   5.577   1.114   2.302  0.2164  0.0428  1.6223
 1286SOL    HW2 4758   5.653   1.258   2.305  0.2197  0.0301  2.4014
 1287SOL     OW 4759   6.862   5.668   6.032 -0.0915 -0.5572  0.1262
 1287SOL    HW1 4760   6.845   5.587   5.977  0.2406 -0.2976 -0.3651
 1287SOL    HW2 4761   6.934   5.723   5.989 -0.0060 -0.2253  0.6857
 1288SOL     OW 4762   5.790   4.743   6.568  0.0162  0.4692  0.0335
 1288SOL    HW1 4763   5.887   4.728   6.588  0.1856 -0.1652 -1.1632
 1288SOL    HW2 4764   5.761   4.830   6.609  0.9073  0.3398  0.9726
 1289SOL     OW 4765   6.687   6.987   2.026  0.0390 -0.2513  0.2251
 1289SOL    HW1 4766   6.735   7.062   2.072  0.3717 -0.0810 -0.3834
 1289SOL    HW2 4767   6.666   7.013   1.932 -0.0878 -0.8200  0.0879
 1290SOL     OW 4768   1.244   6.993   5.878 -0.6208 -0.0077  0.1528
 1290SOL    HW1 4769   1.157   6.954   5.849 -0.1379 -0.5219 -0.6475
 1290SOL    HW2 4770   1.304   7.003   5.799  0.9463 -1.9817  0.9754
 1291SOL     OW 4771   6.282   4.786   2.933  0.0988  0.1302 -0.1362
 1291SOL    HW1 4772   6.370   4.753   2.901  1.3938  0.8856  2.3680
 1291SOL    HW2 4773   6.280   4.784   3.033 -2.3687  1.0456 -0.1013
 1292SOL     OW 4774   2.828   6.017   2.913  0.0850  0.0783 -0.0416
 1292SOL    HW1 4775   2.863   5.949   2.978  0.1418  1.1779  1.1328
 1292SOL    HW2 4776   2.770   6.083   2.962  0.8588  1.4788 -0.9311
 1293SOL     OW 4777   4.446   1.076   6.761  0.0212 -0.3492 -0.2195
 1293SOL    HW1 4778   4.512   1.145   6.730 -0.1280  0.0319  0.2880
 1293SOL    HW2 4779   4.471   1.045   6.853  0.5596 -1.5953 -0.7675
 1294SOL     OW 4780   1.690   4.442   5.371  0.2669 -0.2865 -0.2643
 1294SOL    HW1 4781   1.626   4.417   5.298  0.9011 -0.4005 -0.7840
 1294SOL    HW2 4782   1.666   4.393   5.455  0.5361 -1.4203 -0.8359
 1295SOL     OW 4783   5.893   3.813   2.828 -0.3224  0.2182  0.2487
 1295SOL    HW1 4784   5.945   3.863   2.758  0.5910  0.1351  0.8523
 1295SOL    HW2 4785   5.850   3.878   2.890  1.2848  0.3051  1.3407
 1296SOL     OW 4786   3.671   0.491   5.537 -0.7142 -0.2876  0.2009
 1296SOL    HW1 4787   3.700   0.525   5.448 -1.0420  0.0399  0.2182
 1296SOL    HW2 4788   3.750   0.450   5.584 -0.1713  0.9552  0.4194
 1297SOL     OW 4789   0.511   1.223   0.431 -0.2734  0.0084 -0.1485
 1297SOL    HW1 4790   0.462   1.302   0.466  1.1146  0.3068  1.2502
 1297SOL    HW2 4791   0.452   1.170   0.370 -1.2587  2.0590 -1.0571
 1298SOL     OW 4792   3.703   5.485   1.311 -0.0784  0.1410  0.2709
 1298SOL    HW1 4793   3.682   5.543   1.389 -0.9326 -1.7543  1.5358
 1298SOL    HW2 4794   3.715   5.390   1.342  1.4540 -0.3769 -1.6604
 1299SOL     OW 4795   0.667   3.894   5.325 -0.0183 -1.1918  0.2838
 1299SOL    HW1 4796   0.634   3.986   5.348  0.9553 -0.4048 -1.3113
 1299SOL    HW2 4797   0.606   3.853   5.258 -0.6087 -1.8605  1.2002
 1300SOL     OW 4798   0.164   4.995   0.853  0.8253 -0.0744  0.5420
 1300SOL    HW1 4799   0.092   4.929   0.833  0.0623 -0.3304  3.5551
 1300SOL    HW2 4800   0.245   4.946   0.885  2.5586  0.2007 -2.9549
 1301SOL     OW 4801   6.884   6.187   0.017 -0.4187 -0.0376  0.4681
 1301SOL    HW1 4802   6.872   6.286   0.007 -0.2350 -0.0478  0.1423
 1301SOL    HW2 4803   6.980   6.166   0.029 -0.1378 -0.3623 -1.8599
 1302SOL     OW 4804   5.362   4.930   5.449  0.2470  0.1454  0.4189
 1302SOL    HW1 4805   5.289   4.862   5.447  0.0548  0.3276 -2.1860
 1302SOL    HW2 4806   5.448   4.887   5.474 -0.0320 -0.9266 -0.3913
 1303SOL     OW 4807   2.888   0.684   2.052  0.2377  0.3367  0.0444
 1303SOL    HW1 4808   2.820   0.670   1.980 -0.2290  0.5337  0.4441
 1303SOL    HW2 4809   2.930   0.596   2.076  0.5104  0.2916 -0.5765
 1304SOL     OW 4810   1.670   0.482   0.231  0.4066  0.0709 -0.1182
 1304SOL    HW1 4811   1.675   0.443   0.323 -2.1722 -0.2038 -0.0244
 1304SOL    HW2 4812   1.647   0.579   0.236  0.5202  0.1198 -0.4758
 1305SOL     OW 4813   3.776   3.861   6.869  0.1075 -0.1604  0.0663
 1305SOL    HW1 4814   3.762   3.959   6.881  0.4000 -0.0574 -0.3878
 1305SOL    HW2 4815   3.804   3.843   6.774 -0.9212 -0.7863 -0.1286
 1306SOL     OW 4816   3.723   3.536   6.082 -0.3598  0.1777 -0.4859
 1306SOL    HW1 4817   3.758   3.571   5.995 -1.3460  0.0876 -0.9263
 1306SOL    HW2 4818   3.646   3.592   6.112 -1.2081 -0.8866 -0.6084
 1307SOL     OW 4819   1.254   2.508   4.673 -0.1996  0.5078  0.0657
 1307SOL    HW1 4820   1.189   2.584   4.664 -0.0198  0.6984  0.3508
 1307SOL    HW2 4821   1.347   2.545   4.680 -0.2827  0.4016  2.5769
 1308SOL     OW 4822   0.243   4.489   6.245  0.6531 -0.1444 -0.8128
 1308SOL    HW1 4823   0.306   4.411   6.251 -0.3766 -0.9983 -0.6056
 1308SOL    HW2 4824   0.219   4.506   6.150 -0.4435 -1.2283 -0.7649
 1309SOL     OW 4825   6.775   3.726   6.651  0.6652 -0.5684 -0.9166
 1309SOL    HW1 4826   6.852   3.786   6.669 -0.6418  0.8223  0.2656
 1309SOL    HW2 4827   6.785   3.685   6.560  1.0386  2.3187 -2.2590
 1310SOL     OW 4828   1.584   3.486   3.929  0.0302  0.7946  0.2608
 1310SOL    HW1 4829   1.590   3.443   3.839  0.3417  3.5424 -1.1278
 1310SOL    HW2 4830   1.490   3.516   3.946  0.1470  1.0260  0.5077
 1311SOL     OW 4831   6.824   6.214   6.296  0.2957 -0.3087 -0.3439
 1311SOL    HW1 4832   6.760   6.207   6.373  0.9630 -0.3814  0.2165
 1311SOL    HW2 4833   6.787   6.165   6.217 -0.0125 -0.9707  0.2012
 1312SOL     OW 4834   1.462   1.551   5.160  0.8351  0.4444  0.3723
 1312SOL    HW1 4835   1.389   1.588   5.217 -0.4086  0.2782 -1.0588
 1312SOL    HW2 4836   1.488   1.618   5.091  2.4920  0.7340  1.2345
 1313SOL     OW 4837   5.937   6.263   4.257  0.3053 -0.7298  0.5506
 1313SOL    HW1 4838   6.008   6.284   4.325  0.2765 -0.8287  0.6128
 1313SOL    HW2 4839   5.964   6.182   4.205  0.7187 -0.1702 -0.1277
 1314SOL     OW 4840   2.657   2.138   5.078 -0.5408  0.3645 -0.1432
 1314SOL    HW1 4841   2.750   2.162   5.050 -0.1846 -1.4092 -0.6131
 1314SOL    HW2 4842   2.654   2.041   5.102 -2.1117  0.5777  0.6057
 1315SOL     OW 4843   6.954   7.000   4.125 -0.6008 -0.0810  0.5684
 1315SOL    HW1 4844   6.917   7.080   4.170 -1.9946 -1.4425  1.9612
 1315SOL    HW2 4845   6.880   6.940   4.095  0.3810 -0.6510 -0.8949
 1316SOL     OW 4846   4.671   0.730   5.713 -0.1800  0.4427  0.3356
 1316SOL    HW1 4847   4.741   0.705   5.646 -3.0045  1.9864 -3.5760
 1316SOL    HW2 4848   4.670   0.829   5.725 -1.0787  0.3605  1.0781
 1317SOL     OW 4849   3.625   2.621   6.072  0.3326  0.2728  0.0740
 1317SOL    HW1 4850   3.707   2.623   6.015  0.3692  1.8651  0.1329
 1317SOL    HW2 4851   3.544   2.620   6.013  0.3729 -0.7631  0.0175
 1318SOL     OW 4852   1.538   2.227   0.075  0.0776 -0.4338  0.2154
 1318SOL    HW1 4853   1.487   2.220  -0.010 -2.3737  0.2536  1.5405
 1318SOL    HW2 4854   1.487   2.182   0.149  2.4208 -1.5824  1.2658
 1319SOL     OW 4855   0.109   0.786   0.743 -0.3376  0.5869  0.2162
 1319SOL    HW1 4856   0.159   0.766   0.827  0.9957 -0.3598 -0.7619
 1319SOL    HW2 4857   0.143   0.728   0.669 -0.2680  2.5741 -1.4058
 1320SOL     OW 4858   4.566   3.599   6.088  0.1642 -0.6475  0.3413
 1320SOL    HW1 4859   4.586   3.507   6.122 -0.1336 -0.6600  0.4842
 1320SOL    HW2 4860   4.484   3.596   6.031 -0.4180 -0.2995  1.1467
 1321SOL     OW 4861   4.425   3.014   6.957  0.3426  0.6855  0.3702
 1321SOL    HW1 4862   4.410   3.021   7.056 -0.7135 -0.1195  0.2855
 1321SOL    HW2 4863   4.446   2.919   6.933  0.4787  0.8541 -0.1992
 1322SOL     OW 4864   2.594   1.586   1.260 -0.1416  0.0708  0.6701
 1322SOL    HW1 4865   2.557   1.517   1.322 -0.9025 -0.9498 -0.8570
 1322SOL    HW2 4866   2.636   1.542   1.181 -0.8925  1.3233 -0.4869
 1323SOL     OW 4867   2.400   6.781   0.084 -0.2137  0.3312  0.8231
 1323SOL    HW1 4868   2.354   6.870   0.094  0.6772  0.9375 -0.2456
 1323SOL    HW2 4869   2.493   6.787   0.120  0.2197  0.1619 -0.2303
 1324SOL     OW 4870   0.847   4.211   1.277  0.7266  0.3314  0.1128
 1324SOL    HW1 4871   0.793   4.195   1.359 -0.1574  0.6893 -0.3873
 1324SOL    HW2 4872   0.937   4.245   1.303  1.2661 -1.6372  1.0217
 1325SOL     OW 4873   3.283   6.203   6.790  0.2625  0.0280  0.4952
 1325SOL    HW1 4874   3.230   6.259   6.854  1.2691  0.2098  1.1953
 1325SOL    HW2 4875   3.324   6.126   6.840 -0.2341 -0.7429 -0.2524
 1326SOL     OW 4876   5.374   3.179   3.198 -0.5380  0.0571  0.1449
 1326SOL    HW1 4877   5.451   3.186   3.262 -1.4779 -0.0990  1.3163
 1326SOL    HW2 4878   5.328   3.091   3.210 -1.9685  0.8554  0.7147
 1327SOL     OW 4879   5.281   6.345   2.908 -0.5756  0.3975  0.2415
 1327SOL    HW1 4880   5.351   6.276   2.927 -0.2825  0.9677  1.3004
 1327SOL    HW2 4881   5.243   6.330   2.817  1.0039  0.1582 -0.4007
 1328SOL     OW 4882   0.922   3.378   5.283 -0.1197 -0.7132 -0.0686
 1328SOL    HW1 4883   0.837   3.352   5.329 -0.2007  0.1313  0.2815
 1328SOL    HW2 4884   0.913   3.471   5.247  1.5414  0.5147  2.3558
 1329SOL     OW 4885   1.073   1.852   3.173 -0.1170  0.1942 -0.1219
 1329SOL    HW1 4886   1.047   1.948   3.186  1.5660  0.9655 -1.8531
 1329SOL    HW2 4887   1.025   1.815   3.093 -0.0755 -0.1155 -0.0032
 1330SOL     OW 4888   6.164   1.897   2.275  0.3108  0.4894 -0.7118
 1330SOL    HW1 4889   6.188   1.876   2.370 -0.9897 -1.7070 -0.8177
 1330SOL    HW2 4890   6.090   1.964   2.274 -0.1774 -0.0267 -0.1419
 1331SOL     OW 4891   4.847   0.511   2.609 -0.0464  0.5000  0.4474
 1331SOL    HW1 4892   4.789   0.513   2.528  1.0585 -0.9402 -0.4397
 1331SOL    HW2 4893   4.844   0.599   2.656 -0.8093  1.3095 -1.0836
 1332SOL     OW 4894   6.005   7.000   1.082  0.3884  0.5869  0.2073
 1332SOL    HW1 4895   5.947   6.980   1.160  0.5321  1.9966  0.6917
 1332SOL    HW2 4896   6.100   6.980   1.104  0.2711 -0.3890 -0.1151
 1333SOL     OW 4897   3.066   3.319   3.066 -0.1727  0.3418  0.1773
 1333SOL    HW1 4898   3.018   3.363   3.142  0.7132 -0.2201  1.0823
 1333SOL    HW2 4899   3.063   3.220   3.077  1.1411  0.2924  0.2465
 1334SOL     OW 4900   0.834   3.003   1.141  0.0529  0.3942  0.4612
 1334SOL    HW1 4901   0.756   2.963   1.190 -1.3354  2.4741  0.0877
 1334SOL    HW2 4902   0.802   3.078   1.084  1.8579 -0.7647 -2.3196
 1335SOL     OW 4903   1.322   4.915   2.114  0.0712 -0.4054  0.6347
 1335SOL    HW1 4904   1.281   4.940   2.026  0.5018 -0.3693  0.4415
 1335SOL    HW2 4905   1.409   4.964   2.126 -0.6050  0.5893  1.6605
 1336SOL     OW 4906   1.015   0.354   4.381 -0.3018 -0.2717  0.1247
 1336SOL    HW1 4907   0.985   0.268   4.422 -1.3639 -0.4473 -0.9719
 1336SOL    HW2 4908   1.114   0.362   4.389 -0.3330 -0.9396  1.4582
 1337SOL     OW 4909   5.104   1.708   3.865 -0.0570  0.1149  0.5078
 1337SOL    HW1 4910   5.121   1.807   3.862  1.1474 -0.1053 -0.5075
 1337SOL    HW2 4911   5.185   1.661   3.900  0.1141 -0.6590 -0.8686
 1338SOL     OW 4912   6.604   3.827   4.501 -0.0439  0.5900 -0.1733
 1338SOL    HW1 4913   6.656   3.792   4.423 -2.0685 -0.6343 -1.0713
 1338SOL    HW2 4914   6.511   3.850   4.471 -0.6850  0.7166  1.7548
 1339SOL     OW 4915   6.672   5.984   0.003 -0.7431 -0.2988 -0.2816
 1339SOL    HW1 4916   6.722   5.903  -0.025 -1.6773 -0.9571 -0.0908
 1339SOL    HW2 4917   6.736   6.053   0.038  0.3370  0.0838 -2.8048
 1340SOL     OW 4918   5.754   3.850   1.365  0.1517 -0.1072  0.2515
 1340SOL    HW1 4919   5.777   3.908   1.444  1.2419 -1.0596  0.6612
 1340SOL    HW2 4920   5.754   3.754   1.394  0.1562 -0.4390 -0.8237
 1341SOL     OW 4921   6.099   6.466   1.223 -0.6517 -0.1200 -0.2440
 1341SOL    HW1 4922   6.001   6.446   1.219 -0.5140 -0.8701  0.1307
 1341SOL    HW2 4923   6.150   6.397   1.173 -0.4256  1.2896 -2.0965
 1342SOL     OW 4924   4.039   6.758   2.219  0.0294 -0.0952  0.3636
 1342SOL    HW1 4925   4.099   6.742   2.298  0.2776 -2.7508 -0.2396
 1342SOL    HW2 4926   4.031   6.673   2.167 -3.1012  0.5850 -0.4321
 1343SOL     OW 4927   6.230   5.608   1.616  0.1179 -0.2011  0.0939
 1343SOL    HW1 4928   6.279   5.656   1.689  1.9570  0.0996 -1.2816
 1343SOL    HW2 4929   6.280   5.525   1.591 -0.7942 -0.5940 -0.4529
 1344SOL     OW 4930   6.523   0.711   5.227 -0.0132  0.0086  0.2729
 1344SOL    HW1 4931   6.610   0.753   5.201  0.5781 -1.2122  0.2089
 1344SOL    HW2 4932   6.523   0.692   5.325 -0.7132  1.1019  0.5079
 1345SOL     OW 4933   5.823   6.459   1.744  0.0478  0.1371 -0.2863
 1345SOL    HW1 4934   5.900   6.465   1.680  0.4121 -0.2612  0.1105
 1345SOL    HW2 4935   5.818   6.543   1.798  1.1215 -0.4103  0.7097
 1346SOL     OW 4936   2.008   4.361   5.118  0.2113  0.8954 -0.2799
 1346SOL    HW1 4937   2.049   4.421   5.186  0.3352  2.5806 -1.7504
 1346SOL    HW2 4938   2.041   4.268   5.131 -0.3859  0.9932  2.3948
 1347SOL     OW 4939   0.993   6.650   6.205 -0.2903  0.1771 -0.4207
 1347SOL    HW1 4940   0.934   6.730   6.202  0.0220  0.7689  3.5845
 1347SOL    HW2 4941   0.939   6.569   6.228  0.0405  0.1587  0.3044
 1348SOL     OW 4942   6.643   6.185   6.799  0.2616  0.6132 -0.1730
 1348SOL    HW1 4943   6.673   6.128   6.875  0.2598  1.2892  0.3474
 1348SOL    HW2 4944   6.602   6.269   6.835 -1.9568 -0.1051 -0.8542
 1349SOL     OW 4945   4.265   1.789   1.979 -0.6608 -0.2406  0.2728
 1349SOL    HW1 4946   4.189   1.768   1.918 -1.0531  0.6752  0.4221
 1349SOL    HW2 4947   4.301   1.880   1.957 -0.2315 -0.2718  0.8203
 1350SOL     OW 4948   1.129   2.104   1.207  0.3372  0.0409 -0.0677
 1350SOL    HW1 4949   1.148   2.199   1.183 -1.7090  0.8531  1.3071
 1350SOL    HW2 4950   1.151   2.089   1.304 -2.7036  0.1660  0.7222
 1351SOL     OW 4951   0.037   2.696   3.792  0.1288  0.0489  0.4748
 1351SOL    HW1 4952  -0.047   2.662   3.832  0.0545 -1.7388 -1.0698
 1351SOL    HW2 4953   0.016   2.766   3.724  0.1307  1.6033  1.9956
 1352SOL     OW 4954   6.524   6.462   2.661  0.0413 -0.3539 -0.9125
 1352SOL    HW1 4955   6.440   6.435   2.708  1.2426  1.3759  2.5857
 1352SOL    HW2 4956   6.506   6.544   2.606 -0.1289  2.0608  2.3930
 1353SOL     OW 4957   0.153   6.414   6.016 -0.2811 -0.3985  0.4190
 1353SOL    HW1 4958   0.241   6.372   5.995  0.2307  0.9513 -0.2241
 1353SOL    HW2 4959   0.167   6.505   6.055 -1.3891 -0.3419  0.7338
 1354SOL     OW 4960   5.745   2.399   0.149 -0.3288 -0.2207 -0.0477
 1354SOL    HW1 4961   5.777   2.337   0.221 -1.2923 -0.7221 -0.0352
 1354SOL    HW2 4962   5.762   2.358   0.060 -0.3347 -0.1918 -0.0620
 1355SOL     OW 4963   5.086   3.407   6.054 -0.0707 -0.6506  0.1600
 1355SOL    HW1 4964   5.165   3.467   6.056 -0.1511 -0.5616  0.9846
 1355SOL    HW2 4965   5.116   3.312   6.050  0.1161 -0.6234 -4.8298
 1356SOL     OW 4966   2.156   3.947   1.584 -0.7496 -0.4513  0.1094
 1356SOL    HW1 4967   2.226   3.968   1.515 -0.4516  1.6394  0.9813
 1356SOL    HW2 4968   2.199   3.930   1.672 -1.2737 -0.3113  0.4002
 1357SOL     OW 4969   0.473   2.417   5.036 -0.2034 -0.2512  0.0866
 1357SOL    HW1 4970   0.498   2.487   4.969  1.2246 -1.4076 -0.6415
 1357SOL    HW2 4971   0.520   2.434   5.122 -0.6641  0.2379  0.2503
 1358SOL     OW 4972   1.305   6.880   0.952  0.2788  0.0204 -0.8336
 1358SOL    HW1 4973   1.327   6.787   0.922  2.2660 -0.3690  1.5348
 1358SOL    HW2 4974   1.226   6.876   1.015  1.7467 -0.4902  1.0894
 1359SOL     OW 4975   4.875   5.865   0.641  0.2560 -0.2433 -0.0421
 1359SOL    HW1 4976   4.798   5.916   0.602  0.1544 -0.0547  0.4071
 1359SOL    HW2 4977   4.935   5.927   0.691  0.3226 -0.5046  0.2060
 1360SOL     OW 4978   2.310   2.023   1.501 -0.0908 -0.7339 -0.6330
 1360SOL    HW1 4979   2.351   2.093   1.442 -0.0105 -0.3747 -0.1536
 1360SOL    HW2 4980   2.215   2.009   1.475 -0.1184 -0.4177 -0.6996
 1361SOL     OW 4981   6.388   6.006   5.684  0.0409  0.3963  0.3052
 1361SOL    HW1 4982   6.445   6.019   5.765 -1.1737  0.7368  1.1303
 1361SOL    HW2 4983   6.295   5.983   5.712 -0.4978  0.9248 -0.9820
 1362SOL     OW 4984   3.639   3.192   3.339  0.5472 -0.6291  0.3876
 1362SOL    HW1 4985   3.668   3.171   3.245 -1.7956 -1.5616 -0.2022
 1362SOL    HW2 4986   3.624   3.106   3.388 -0.8856 -0.2068  0.7173
 1363SOL     OW 4987   2.142   6.939   3.196 -0.1544 -0.1459 -0.1676
 1363SOL    HW1 4988   2.102   7.022   3.158  0.7166  1.5242  2.3223
 1363SOL    HW2 4989   2.120   6.932   3.293  1.0792 -2.0285  0.0440
 1364SOL     OW 4990   4.436   2.782   1.542  0.2769 -0.3517 -0.6549
 1364SOL    HW1 4991   4.336   2.789   1.547  0.1118 -2.4977  0.2172
 1364SOL    HW2 4992   4.471   2.746   1.629  1.6428 -1.1284 -1.4831
 1365SOL     OW 4993   6.483   3.350   2.080 -0.4977 -0.4515  0.6918
 1365SOL    HW1 4994   6.406   3.406   2.048 -0.9784 -0.7428  1.3369
 1365SOL    HW2 4995   6.471   3.328   2.176 -1.1114 -2.9908  0.0882
 1366SOL     OW 4996   4.325   6.624   5.185  0.4680  0.9666  0.3305
 1366SOL    HW1 4997   4.337   6.670   5.097  0.1669 -0.1710 -0.3277
 1366SOL    HW2 4998   4.414   6.590   5.217  0.2866 -0.4782 -0.6082
 1367SOL     OW 4999   3.214   0.654   4.425 -0.5454  0.3514  0.4071
 1367SOL    HW1 5000   3.129   0.613   4.458 -0.3085  0.3187  0.9823
 1367SOL    HW2 5001   3.200   0.688   4.332 -0.9841 -0.2849  0.2282
 1368SOL     OW 5002   5.173   6.684   4.696 -0.2388 -0.0210 -0.5257
 1368SOL    HW1 5003   5.105   6.755   4.713  1.7554  1.8161  0.1377
 1368SOL    HW2 5004   5.204   6.646   4.782  0.4422 -0.0046 -0.7624
 1369SOL     OW 5005   0.800   1.260   4.265  0.0207 -0.0634  1.0654
 1369SOL    HW1 5006   0.852   1.344   4.246 -2.4551  1.0571 -1.3389
 1369SOL    HW2 5007   0.707   1.283   4.291 -1.4702 -1.9849 -2.0088
 1370SOL     OW 5008   1.731   0.048   1.191  0.2877 -0.0230  0.4230
 1370SOL    HW1 5009   1.796   0.027   1.118 -0.2965  1.2049 -0.4870
 1370SOL    HW2 5010   1.655  -0.017   1.188  0.0414  0.2913 -0.3641
 1371SOL     OW 5011   2.051   1.220   6.935  0.5673 -0.2936  0.5890
 1371SOL    HW1 5012   1.992   1.301   6.936 -0.5485 -1.0640 -0.5889
 1371SOL    HW2 5013   2.080   1.201   6.841  2.8293  0.1369  1.1569
 1372SOL     OW 5014   2.121   6.625   4.405  0.2732 -0.3557  0.0826
 1372SOL    HW1 5015   2.188   6.556   4.377 -0.9439 -0.7915 -1.8855
 1372SOL    HW2 5016   2.093   6.606   4.499  2.0253 -0.8383  0.5602
 1373SOL     OW 5017   1.928   6.818   1.592  0.0004 -0.1210 -0.3505
 1373SOL    HW1 5018   1.976   6.813   1.504 -0.4900  1.1346 -0.7129
 1373SOL    HW2 5019   1.834   6.849   1.576 -0.2344 -0.3318  0.5819
 1374SOL     OW 5020   5.499   2.177   2.409 -0.2261 -0.6340  0.1613
 1374SOL    HW1 5021   5.565   2.178   2.485 -0.5793  0.4068  0.4604
 1374SOL    HW2 5022   5.500   2.266   2.363 -0.6669 -0.9668 -0.5008
 1375SOL     OW 5023   0.109   3.951   5.075 -0.3854  0.1517  0.2150
 1375SOL    HW1 5024   0.114   3.960   5.174  1.2921  1.0012  0.0843
 1375SOL    HW2 5025   0.198   3.972   5.035 -0.3512 -2.4981 -1.3316
 1376SOL     OW 5026   5.294   2.800   2.199  0.1651 -0.2670 -0.1913
 1376SOL    HW1 5027   5.214   2.771   2.251  0.9286 -0.0050  1.1731
 1376SOL    HW2 5028   5.284   2.897   2.176 -0.5027 -0.5538 -1.2061
 1377SOL     OW 5029   6.871   5.750   5.377  0.2508  0.5516  0.1308
 1377SOL    HW1 5030   6.796   5.690   5.406  0.8204 -0.0918  0.2785
 1377SOL    HW2 5031   6.936   5.698   5.323  1.7349  0.5573  1.8240
 1378SOL     OW 5032   0.775   2.642   0.721 -0.5758  0.5352  0.8747
 1378SOL    HW1 5033   0.745   2.549   0.744 -1.9608  1.1991  1.9189
 1378SOL    HW2 5034   0.844   2.638   0.648 -1.2881 -1.2484  0.2375
 1379SOL     OW 5035   2.519   6.037   1.906 -0.0451 -0.2130 -0.1768
 1379SOL    HW1 5036   2.489   5.956   1.855 -0.3028 -0.0034 -0.3597
 1379SOL    HW2 5037   2.556   6.009   1.994  2.0075 -0.7455 -1.1549
 1380SOL     OW 5038   4.697   4.790   2.453 -0.9152  0.4148  0.3655
 1380SOL    HW1 5039   4.795   4.786   2.429 -0.1855  2.5191  2.5536
 1380SOL    HW2 5040   4.662   4.882   2.432 -2.4647 -0.3105 -0.3710
 1381SOL     OW 5041   6.518   6.961   1.630  0.2224  0.5462 -0.3897
 1381SOL    HW1 5042   6.449   7.019   1.673  1.1866  1.3404  0.1054
 1381SOL    HW2 5043   6.604   7.011   1.620 -0.0310  0.5677 -3.6245
 1382SOL     OW 5044   1.087   4.503   6.212 -0.3359  0.3980  0.4169
 1382SOL    HW1 5045   1.129   4.440   6.278 -1.4922  0.4121  1.2082
 1382SOL    HW2 5046   1.081   4.594   6.253 -3.1428 -0.0815  1.2821
 1383SOL     OW 5047   1.951   0.990   0.053  0.3220  0.2163  0.4822
 1383SOL    HW1 5048   1.861   1.026   0.077  0.6557  1.5781 -0.2179
 1383SOL    HW2 5049   2.002   1.060   0.003  1.8419 -0.4685  1.0340
 1384SOL     OW 5050   3.181   3.094   0.946  0.1794 -0.0225 -0.0118
 1384SOL    HW1 5051   3.097   3.057   0.986 -0.0049  0.5605  0.1489
 1384SOL    HW2 5052   3.259   3.072   1.005 -0.3693  2.7637  1.9551
 1385SOL     OW 5053   4.814   3.897   2.724 -0.6197 -0.6294  0.2723
 1385SOL    HW1 5054   4.727   3.866   2.686 -1.7971  0.7536  1.7472
 1385SOL    HW2 5055   4.812   3.995   2.739  1.3432 -0.5023  0.0397
 1386SOL     OW 5056   1.753   3.157   5.957  0.3552  0.0885  0.0358
 1386SOL    HW1 5057   1.839   3.116   5.926 -0.0028 -1.3845  0.8825
 1386SOL    HW2 5058   1.711   3.097   6.025 -1.8127  0.2940 -1.0628
 1387SOL     OW 5059   1.518   2.606   4.717  0.0974 -0.0512  0.5546
 1387SOL    HW1 5060   1.572   2.661   4.781 -0.0096 -0.5401  1.0836
 1387SOL    HW2 5061   1.574   2.583   4.637  0.2402  0.5530  0.4823
 1388SOL     OW 5062   6.670   1.383   5.679 -0.2253  0.2439  0.6194
 1388SOL    HW1 5063   6.756   1.432   5.696 -1.0095  1.2476  1.8558
 1388SOL    HW2 5064   6.690   1.297   5.631  1.4548  0.4715  0.8405
 1389SOL     OW 5065   1.012   6.142   3.907 -0.1821  0.0333 -0.1153
 1389SOL    HW1 5066   0.972   6.232   3.888 -0.3953 -0.3207 -1.4806
 1389SOL    HW2 5067   1.104   6.153   3.943 -0.5793  0.8137  0.7065
 1390SOL     OW 5068   5.435   2.197   2.752 -0.3432  0.2351  0.6580
 1390SOL    HW1 5069   5.400   2.108   2.783  0.1122  0.4557  1.8791
 1390SOL    HW2 5070   5.384   2.270   2.797 -0.4727  0.5974 -0.0660
 1391SOL     OW 5071   0.109   2.318   4.225 -0.2372  0.7999 -0.5634
 1391SOL    HW1 5072   0.020   2.273   4.221  0.6427 -1.4597  2.0597
 1391SOL    HW2 5073   0.097   2.411   4.261 -1.4776 -0.0267  1.3603
 1392SOL     OW 5074   0.359   5.885   6.989 -0.2238  0.6395  0.2606
 1392SOL    HW1 5075   0.433   5.913   7.049  0.2412 -3.6494  2.0401
 1392SOL    HW2 5076   0.393   5.818   6.923 -2.4070 -1.5748  1.2195
 1393SOL     OW 5077   5.158   0.923   6.292 -0.6673  0.2141 -0.4025
 1393SOL    HW1 5078   5.211   1.002   6.324 -1.3946  0.6500 -0.2724
 1393SOL    HW2 5079   5.193   0.894   6.203 -0.8663  1.1375 -0.7880
 1394SOL     OW 5080   5.120   0.369   4.837 -0.5271  0.4091 -0.1337
 1394SOL    HW1 5081   5.106   0.369   4.738 -0.8308  0.0912 -0.0921
 1394SOL    HW2 5082   5.172   0.450   4.864  1.1414 -0.4117 -0.7677
 1395SOL     OW 5083   1.268   3.969   3.406  0.1122 -0.3657 -0.3126
 1395SOL    HW1 5084   1.172   3.996   3.398 -0.4848 -1.9313  1.0672
 1395SOL    HW2 5085   1.296   3.922   3.323 -0.7418 -1.1171 -0.1869
 1396SOL     OW 5086   1.761   6.873   3.390  0.5290  0.0450  0.2262
 1396SOL    HW1 5087   1.753   6.888   3.489 -0.6250 -1.4856  0.4109
 1396SOL    HW2 5088   1.823   6.797   3.373  1.1520  0.6573 -0.2674
 1397SOL     OW 5089   1.073   4.955   4.566  0.1765  0.0996 -0.1142
 1397SOL    HW1 5090   1.029   5.023   4.625  3.5344  3.2664 -0.8563
 1397SOL    HW2 5091   1.019   4.944   4.482  0.0174  2.8517 -0.4709
 1398SOL     OW 5092   2.691   0.001   6.880 -0.1489 -0.3725 -0.1037
 1398SOL    HW1 5093   2.673   0.079   6.820 -0.3646 -0.0689  0.3448
 1398SOL    HW2 5094   2.638  -0.078   6.850  1.0350 -0.7304 -1.3206
 1399SOL     OW 5095   2.443   1.179   6.992 -0.1090  0.3777  0.0120
 1399SOL    HW1 5096   2.469   1.241   6.918 -0.9872  1.8746  0.9150
 1399SOL    HW2 5097   2.372   1.116   6.961 -0.0530  0.6043 -0.5716
 1400SOL     OW 5098   0.620   1.429   5.557  0.4619  0.3058  0.7993
 1400SOL    HW1 5099   0.719   1.432   5.545  0.3232  1.7450 -0.1573
 1400SOL    HW2 5100   0.576   1.418   5.468 -0.2976  2.0941  0.9096
 1401SOL     OW 5101   5.527   1.129   3.478  0.4911 -0.3704 -0.8635
 1401SOL    HW1 5102   5.559   1.224   3.475  0.8168 -0.4095  0.5550
 1401SOL    HW2 5103   5.574   1.075   3.408 -0.1078  0.6167 -2.0649
 1402SOL     OW 5104   1.329   6.634   3.350  0.1433  0.2413 -0.3238
 1402SOL    HW1 5105   1.390   6.635   3.272 -0.0453 -0.8157 -0.5066
 1402SOL    HW2 5106   1.281   6.546   3.354 -1.5244  1.1116 -0.3105
 1403SOL     OW 5107   2.376   3.690   5.914 -0.5118 -0.3045 -0.3008
 1403SOL    HW1 5108   2.305   3.698   5.843  0.0032  1.0926 -0.6949
 1403SOL    HW2 5109   2.408   3.781   5.939 -0.5463 -0.7930  1.6246
 1404SOL     OW 5110   4.723   4.927   0.284  0.0963  0.4622  0.1064
 1404SOL    HW1 5111   4.685   4.867   0.354  0.7170 -0.7233 -0.5482
 1404SOL    HW2 5112   4.657   4.999   0.262 -0.8311 -0.2229  0.5982
 1405SOL     OW 5113   6.838   5.218   6.253 -0.2011  0.5961 -0.3309
 1405SOL    HW1 5114   6.816   5.315   6.266 -3.6015 -0.1634  0.4648
 1405SOL    HW2 5115   6.863   5.177   6.341 -0.1609  0.4381 -0.4152
 1406SOL     OW 5116   2.743   3.200   1.264 -0.0409 -0.1712 -0.3208
 1406SOL    HW1 5117   2.657   3.218   1.312  0.3473 -0.8375  0.6522
 1406SOL    HW2 5118   2.731   3.215   1.166 -1.0744  0.4099 -0.1157
 1407SOL     OW 5119   0.574   3.330   2.597 -1.1168  0.4720  0.1095
 1407SOL    HW1 5120   0.491   3.338   2.652 -0.7954 -2.1875  1.1392
 1407SOL    HW2 5121   0.629   3.254   2.631  0.4756  0.4919 -2.1945
 1408SOL     OW 5122   0.322   0.048   6.908 -0.7648  0.6286  0.4467
 1408SOL    HW1 5123   0.335  -0.050   6.893 -0.7486  0.6487  0.3326
 1408SOL    HW2 5124   0.224   0.070   6.905 -0.6685  0.9863 -1.8223
 1409SOL     OW 5125   0.487   1.419   6.477  0.9518 -0.5658  0.5891
 1409SOL    HW1 5126   0.529   1.481   6.544 -0.5976 -1.6041  2.6211
 1409SOL    HW2 5127   0.391   1.444   6.464  1.1095 -0.6607 -0.9783
 1410SOL     OW 5128   2.173   0.941   0.232 -0.2019 -0.0782  0.3552
 1410SOL    HW1 5129   2.098   0.942   0.165 -0.2222 -1.8365  0.3021
 1410SOL    HW2 5130   2.241   0.874   0.204 -0.0810 -0.6571  1.9480
 1411SOL     OW 5131   1.459   3.888   1.472 -0.0050  0.6473 -0.0882
 1411SOL    HW1 5132   1.520   3.813   1.497  0.7069  1.5011  0.7786
 1411SOL    HW2 5133   1.487   3.971   1.518 -0.8979  1.4246 -0.8978
 1412SOL     OW 5134   1.922   2.013   0.628  0.2139  0.5259 -0.1338
 1412SOL    HW1 5135   2.005   1.957   0.627 -0.3813 -0.4782  1.7889
 1412SOL    HW2 5136   1.922   2.072   0.708 -0.1903  1.7335 -0.9908
 1413SOL     OW 5137   1.300   0.066   6.117  0.1534  0.1543  0.1631
 1413SOL    HW1 5138   1.337   0.159   6.123 -2.0928  1.1553 -0.2561
 1413SOL    HW2 5139   1.294   0.039   6.021 -2.0033  0.8711  0.0391
 1414SOL     OW 5140   0.169   5.041   1.758  0.6659  0.2886 -0.0307
 1414SOL    HW1 5141   0.078   5.007   1.779 -0.2660  2.9101  0.5522
 1414SOL    HW2 5142   0.200   5.003   1.670 -0.5642 -1.3363  0.1981
 1415SOL     OW 5143   1.890   1.146   4.128  0.0133  0.2636 -0.2400
 1415SOL    HW1 5144   1.940   1.103   4.203  0.2420 -0.6789 -0.9043
 1415SOL    HW2 5145   1.907   1.244   4.128  0.6123  0.1701  0.4767
 1416SOL     OW 5146   2.057   6.767   5.986 -0.1077 -0.3726 -0.3926
 1416SOL    HW1 5147   2.123   6.726   6.049  1.4979  2.2685 -0.2003
 1416SOL    HW2 5148   2.106   6.816   5.914 -1.8731  0.7616 -0.8835
 1417SOL     OW 5149   3.500   5.072   0.551  0.0683 -0.3242 -0.5779
 1417SOL    HW1 5150   3.591   5.032   0.547 -0.3203 -1.6874  2.1332
 1417SOL    HW2 5151   3.431   4.999   0.560 -0.9526  0.7821  1.0798
 1418SOL     OW 5152   5.104   3.726   5.549  0.4977  0.0406  0.7079
 1418SOL    HW1 5153   5.063   3.663   5.483 -0.9234  1.4986  0.1413
 1418SOL    HW2 5154   5.034   3.787   5.586  1.6239  0.5647  2.0926
 1419SOL     OW 5155   2.544   6.439   0.522  0.4146  0.7696 -0.2882
 1419SOL    HW1 5156   2.570   6.496   0.443 -1.3070  0.7901 -0.8755
 1419SOL    HW2 5157   2.539   6.344   0.494  1.7828  0.4842  0.3287
 1420SOL     OW 5158   2.576   6.885   1.701  0.2736  0.7091  0.2408
 1420SOL    HW1 5159   2.498   6.836   1.740  0.8383  0.7630  1.4834
 1420SOL    HW2 5160   2.544   6.952   1.634 -0.5288 -1.3168 -1.5325
 1421SOL     OW 5161   0.922   3.671   5.179 -0.2537  0.0679 -0.2236
 1421SOL    HW1 5162   0.915   3.763   5.215  0.9325  0.1540 -0.1816
 1421SOL    HW2 5163   0.861   3.661   5.100 -0.1507  0.9797 -0.4238
 1422SOL     OW 5164   0.411   3.071   2.221 -0.3253  0.3664 -0.4943
 1422SOL    HW1 5165   0.462   3.000   2.270  0.2149  1.4034  0.4693
 1422SOL    HW2 5166   0.471   3.147   2.200 -0.5581  0.0007 -2.7446
 1423SOL     OW 5167   4.645   0.213   4.455 -0.9467 -0.5473 -0.1885
 1423SOL    HW1 5168   4.681   0.261   4.535 -0.5805  0.0164 -0.6771
 1423SOL    HW2 5169   4.578   0.271   4.409  1.1653  0.5424 -2.0993
 1424SOL     OW 5170   6.207   3.802   1.553 -0.4462 -0.1190  0.2872
 1424SOL    HW1 5171   6.301   3.779   1.526  0.3606  1.8921  1.1484
 1424SOL    HW2 5172   6.154   3.718   1.566  1.5855 -1.3684  0.9762
 1425SOL     OW 5173   5.847   6.959   4.856  0.3769 -0.1317 -0.6947
 1425SOL    HW1 5174   5.909   6.897   4.807  1.5424  0.6886 -0.2869
 1425SOL    HW2 5175   5.894   6.999   4.934 -0.6602  0.5520 -0.4023
 1426SOL     OW 5176   2.920   1.269   0.708 -0.6985  0.1001 -0.0241
 1426SOL    HW1 5177   3.016   1.256   0.735 -0.5203  2.4030  0.6019
 1426SOL    HW2 5178   2.874   1.327   0.775 -2.2052  0.0594 -0.9813
 1427SOL     OW 5179   2.022   6.382   2.537  0.5914  0.1541 -0.1708
 1427SOL    HW1 5180   1.923   6.371   2.528  0.6785 -0.0096 -1.0207
 1427SOL    HW2 5181   2.043   6.421   2.626 -0.2201 -0.0734  0.1289
 1428SOL     OW 5182   1.477   2.178   4.247 -0.5889 -0.0032  0.2737
 1428SOL    HW1 5183   1.452   2.134   4.160 -1.6377 -0.1729  0.6475
 1428SOL    HW2 5184   1.430   2.132   4.322  0.3073  0.1528  0.9399
 1429SOL     OW 5185   0.020   2.072   6.932 -1.1241  0.3235  0.2024
 1429SOL    HW1 5186  -0.039   2.018   6.992 -2.3174  1.4691  0.1104
 1429SOL    HW2 5187  -0.036   2.133   6.876  0.1257  1.0886 -0.2608
 1430SOL     OW 5188   2.194   5.018   4.662  0.0605 -0.1853  0.0621
 1430SOL    HW1 5189   2.279   4.993   4.615 -0.1022 -2.5143  0.8990
 1430SOL    HW2 5190   2.141   4.936   4.681 -2.3809  1.2037 -0.3444
 1431SOL     OW 5191   2.071   3.293   1.945 -0.1919  0.0174 -0.5679
 1431SOL    HW1 5192   2.087   3.226   2.018  1.0463  0.8207 -0.0590
 1431SOL    HW2 5193   2.127   3.374   1.962 -2.5973  1.7583 -0.4744
 1432SOL     OW 5194   5.602   2.775   1.982  0.0910  0.3215  0.0033
 1432SOL    HW1 5195   5.641   2.712   1.916  0.4949  1.3623 -0.7770
 1432SOL    HW2 5196   5.588   2.728   2.069  0.4809 -0.7983 -0.5246
 1433SOL     OW 5197   1.665   0.679   2.567 -0.6942  0.2593  0.0974
 1433SOL    HW1 5198   1.699   0.719   2.482 -0.6395 -2.5376 -1.3283
 1433SOL    HW2 5199   1.695   0.734   2.644  1.6432  1.4032 -1.5119
 1434SOL     OW 5200   5.512   3.522   5.059  0.2585 -0.6094  0.0037
 1434SOL    HW1 5201   5.556   3.590   5.001 -1.5356  0.5382 -0.0679
 1434SOL    HW2 5202   5.578   3.491   5.128  1.3035  0.7509 -0.3315
 1435SOL     OW 5203   1.582   1.583   3.446  0.8253 -0.4732 -0.4839
 1435SOL    HW1 5204   1.656   1.622   3.500  0.7794 -0.9502 -0.0698
 1435SOL    HW2 5205   1.498   1.635   3.461  1.4189  1.0760 -2.1891
 1436SOL     OW 5206   6.010   0.263   1.117 -0.0815 -0.0120 -0.0297
 1436SOL    HW1 5207   6.065   0.248   1.035 -0.3293  1.3978 -0.4727
 1436SOL    HW2 5208   5.984   0.175   1.157  1.7835 -0.7081 -0.2782
 1437SOL     OW 5209   3.967   0.181   1.284  0.3028 -0.0734  0.2203
 1437SOL    HW1 5210   3.889   0.154   1.227  0.5709 -1.0732  0.3131
 1437SOL    HW2 5211   4.050   0.141   1.246  0.7766  0.9397  0.1574
 1438SOL     OW 5212   2.370   1.178   3.907  0.6484  0.0764  0.5949
 1438SOL    HW1 5213   2.295   1.195   3.843  0.3588  2.5259  1.4607
 1438SOL    HW2 5214   2.441   1.125   3.862 -0.0390  0.7355 -1.3888
 1439SOL     OW 5215   5.438   4.778   6.500 -0.1508  0.0400 -0.3980
 1439SOL    HW1 5216   5.480   4.767   6.409 -0.3463  0.6676 -0.5666
 1439SOL    HW2 5217   5.421   4.688   6.539  0.0716 -0.2379 -0.9221
 1440SOL     OW 5218   3.681   2.889   2.158  0.2402  0.5162 -0.2337
 1440SOL    HW1 5219   3.584   2.881   2.178  0.2678  1.7948  0.4743
 1440SOL    HW2 5220   3.734   2.877   2.242  0.5918  1.6834 -0.2774
 1441SOL     OW 5221   0.753   2.746   4.968 -0.6433  0.1414 -0.1627
 1441SOL    HW1 5222   0.842   2.767   4.929 -0.1382 -2.4929 -0.6671
 1441SOL    HW2 5223   0.751   2.772   5.065  0.4955  0.6593 -0.2752
 1442SOL     OW 5224   5.285   1.140   6.501 -0.2153 -0.1566 -0.5903
 1442SOL    HW1 5225   5.195   1.169   6.469 -0.2852  0.0401 -0.2205
 1442SOL    HW2 5226   5.349   1.138   6.424 -0.3221  0.5292 -0.6976
 1443SOL     OW 5227   0.699   3.258   5.366 -0.0081 -0.1666 -0.1204
 1443SOL    HW1 5228   0.647   3.174   5.383  0.8269 -0.4474  1.2283
 1443SOL    HW2 5229   0.647   3.336   5.400 -0.0493 -0.3255  0.1891
 1444SOL     OW 5230   5.013   2.066   3.281  0.7335 -0.2838  1.0745
 1444SOL    HW1 5231   4.944   2.138   3.294 -0.0601 -0.7992 -0.0793
 1444SOL    HW2 5232   5.019   2.010   3.363 -0.6292 -0.5660  1.0003
 1445SOL     OW 5233   4.332   1.643   0.296  0.3062 -0.1159  0.3476
 1445SOL    HW1 5234   4.309   1.688   0.210  0.5364 -0.1438  0.2711
 1445SOL    HW2 5235   4.415   1.683   0.335  1.5070 -1.5644 -0.5780
 1446SOL     OW 5236   3.484   4.886   2.234 -0.5571  0.4532  0.2746
 1446SOL    HW1 5237   3.531   4.844   2.156 -0.9558 -0.7598  0.6573
 1446SOL    HW2 5238   3.549   4.939   2.288  0.2932 -0.8096  0.5349
 1447SOL     OW 5239   6.462   1.225   3.751 -0.3458 -0.3578  0.1512
 1447SOL    HW1 5240   6.450   1.324   3.742  0.7245 -0.2910 -0.7723
 1447SOL    HW2 5241   6.372   1.181   3.755 -0.8330  0.6137  0.1422
 1448SOL     OW 5242   0.279   2.334   0.898 -0.0725  0.8285  0.0924
 1448SOL    HW1 5243   0.187   2.297   0.884  0.1131  0.7653 -1.1400
 1448SOL    HW2 5244   0.336   2.266   0.943 -0.1033  0.1037 -0.9311
 1449SOL     OW 5245   4.848   4.836   1.078 -0.3812  0.6097 -0.6035
 1449SOL    HW1 5246   4.920   4.868   1.018  1.5258  1.1589  1.8088
 1449SOL    HW2 5247   4.804   4.914   1.122  0.2968  0.1906  0.8951
 1450SOL     OW 5248   5.474   2.436   3.752 -0.1099 -0.0353 -0.0439
 1450SOL    HW1 5249   5.457   2.485   3.837  0.9249 -0.6594  0.5430
 1450SOL    HW2 5250   5.457   2.338   3.765 -2.3911  0.1335 -1.2635
 1451SOL     OW 5251   2.335   6.540   0.216 -0.0403 -0.2473 -0.2013
 1451SOL    HW1 5252   2.272   6.496   0.152  0.3368  0.7288 -1.2772
 1451SOL    HW2 5253   2.361   6.630   0.181  2.0113 -0.6444  0.1580
 1452SOL     OW 5254   6.126   1.297   3.334  0.1305  0.9129 -0.3403
 1452SOL    HW1 5255   6.181   1.218   3.360 -2.2686 -0.4783  0.7614
 1452SOL    HW2 5256   6.172   1.381   3.365  0.9486 -0.2838  1.8781
 1453SOL     OW 5257   5.661   3.894   5.313 -0.3901  0.2953 -0.0648
 1453SOL    HW1 5258   5.757   3.896   5.284 -0.4349  1.0426 -0.1856
 1453SOL    HW2 5259   5.602   3.909   5.233 -0.5998 -0.0081  0.0335
 1454SOL     OW 5260   3.804   4.644   1.460  0.5275  0.1827 -0.0514
 1454SOL    HW1 5261   3.753   4.609   1.539 -0.7998 -0.6312 -1.2368
 1454SOL    HW2 5262   3.820   4.569   1.395  0.6344  1.0738 -1.0641
 1455SOL     OW 5263   1.793   2.055   2.662 -0.4429  0.1658 -0.8398
 1455SOL    HW1 5264   1.731   2.007   2.599  0.9391 -0.1975 -1.9752
 1455SOL    HW2 5265   1.880   2.072   2.616 -0.6083  3.1590 -0.2272
 1456SOL     OW 5266   0.746   5.548   4.582  0.3589  0.0043  0.2113
 1456SOL    HW1 5267   0.706   5.469   4.535  0.2973  0.4748 -0.5534
 1456SOL    HW2 5268   0.816   5.590   4.523  0.7887  0.1877  0.8416
 1457SOL     OW 5269   1.520   0.261   1.881  0.4039  0.1174 -0.1930
 1457SOL    HW1 5270   1.449   0.328   1.857 -1.1257 -0.7331  1.7059
 1457SOL    HW2 5271   1.607   0.308   1.893 -0.4945  1.6974  0.4715
 1458SOL     OW 5272   1.135   5.748   6.983  0.4149  0.1472 -0.5598
 1458SOL    HW1 5273   1.109   5.661   6.940 -1.6497  0.3661  0.1171
 1458SOL    HW2 5274   1.156   5.815   6.913 -1.2987  0.0361 -1.2459
 1459SOL     OW 5275   3.295   5.918   0.479 -0.5321 -0.2034  0.4465
 1459SOL    HW1 5276   3.339   5.899   0.566  0.4447  3.4719  0.9488
 1459SOL    HW2 5277   3.365   5.926   0.407 -1.1718 -1.6025 -0.3685
 1460SOL     OW 5278   3.553   0.402   0.701 -0.5034  0.1162  0.3243
 1460SOL    HW1 5279   3.600   0.332   0.756 -1.0175 -1.0082 -0.6147
 1460SOL    HW2 5280   3.601   0.489   0.711  0.1992 -0.3721  1.4839
 1461SOL     OW 5281   3.807   6.005   1.141 -0.2462  0.5989  0.0286
 1461SOL    HW1 5282   3.834   5.960   1.055  0.7553  0.3855  0.4351
 1461SOL    HW2 5283   3.789   6.101   1.123  0.8832  0.7744 -0.2856
 1462SOL     OW 5284   0.380   1.066   0.009  0.2446  0.0954 -0.1993
 1462SOL    HW1 5285   0.305   1.005  -0.017 -0.8431  1.0364  0.6590
 1462SOL    HW2 5286   0.362   1.158  -0.024  2.2483 -0.1235 -2.1581
 1463SOL     OW 5287   6.788   2.615   0.955 -0.7053  0.1317 -0.1852
 1463SOL    HW1 5288   6.765   2.519   0.965 -4.3214  0.7348 -1.2172
 1463SOL    HW2 5289   6.735   2.670   1.019  1.0972  1.5227  0.2178
 1464SOL     OW 5290   0.135   1.238   1.311 -0.6548  0.0687 -0.5015
 1464SOL    HW1 5291   0.175   1.183   1.384  0.4447 -0.7162 -1.6410
 1464SOL    HW2 5292   0.153   1.335   1.327  1.2025 -0.2204 -0.6645
 1465SOL     OW 5293   6.148   0.117   5.895 -0.0984  0.5192 -0.2069
 1465SOL    HW1 5294   6.089   0.058   5.840 -1.0325  1.8941 -0.7385
 1465SOL    HW2 5295   6.243   0.085   5.888 -0.5491 -0.7692 -0.6448
 1466SOL     OW 5296   5.722   6.673   3.848  0.1930 -0.6260 -0.2060
 1466SOL    HW1 5297   5.709   6.757   3.795 -2.6381 -0.9809 -0.2195
 1466SOL    HW2 5298   5.818   6.664   3.873  0.6528  2.4548 -0.4642
 1467SOL     OW 5299   6.088   2.503   3.363  0.3347  0.0956 -0.2308
 1467SOL    HW1 5300   6.033   2.446   3.425  1.2793 -1.8954 -1.1365
 1467SOL    HW2 5301   6.027   2.554   3.302 -0.5499 -0.7051 -0.0431
 1468SOL     OW 5302   5.627   5.548   2.084 -0.3954 -0.1749  0.6819
 1468SOL    HW1 5303   5.569   5.532   2.164  0.6574 -1.6970  1.1994
 1468SOL    HW2 5304   5.584   5.509   2.003 -1.1652  0.8013  0.6009
 1469SOL     OW 5305   0.757   0.921   2.594 -0.0960 -0.2994  0.1647
 1469SOL    HW1 5306   0.693   0.995   2.616  0.8838  1.2079 -1.7506
 1469SOL    HW2 5307   0.822   0.911   2.669 -0.7581  0.1880  0.8282
 1470SOL     OW 5308   1.038   0.390   2.540  0.0856  0.2119  0.0609
 1470SOL    HW1 5309   1.131   0.394   2.576  0.2151 -0.2165 -0.2187
 1470SOL    HW2 5310   1.040   0.399   2.441 -0.1132 -0.4426 -0.0103
 1471SOL     OW 5311   4.969   6.347   1.369  0.2546 -0.9265  0.0880
 1471SOL    HW1 5312   4.971   6.446   1.383 -0.7738 -0.7219 -1.0013
 1471SOL    HW2 5313   5.011   6.325   1.281 -3.2478 -0.9426 -1.7708
 1472SOL     OW 5314   4.416   6.191   4.743 -0.1236 -0.5005  0.0239
 1472SOL    HW1 5315   4.469   6.192   4.658 -0.1955 -0.5932 -0.0219
 1472SOL    HW2 5316   4.452   6.119   4.803  0.0605 -0.2976  0.1551
 1473SOL     OW 5317   5.581   4.015   3.804  0.1860  0.1463 -0.6186
 1473SOL    HW1 5318   5.496   4.043   3.759  0.2267  1.1843 -0.0904
 1473SOL    HW2 5319   5.611   3.927   3.767 -1.5881 -0.6936 -0.1788
 1474SOL     OW 5320   5.189   6.382   4.059 -0.1529  0.5635 -0.0632
 1474SOL    HW1 5321   5.225   6.441   4.131 -0.9601  0.3120  0.5516
 1474SOL    HW2 5322   5.095   6.408   4.038 -0.8702 -1.1031  0.9003
 1475SOL     OW 5323   3.629   0.345   2.690  0.2908  0.1361 -0.2002
 1475SOL    HW1 5324   3.558   0.374   2.754 -1.2298  0.1092 -1.8203
 1475SOL    HW2 5325   3.631   0.245   2.685  1.9017  0.0336  1.3726
 1476SOL     OW 5326   6.610   2.949   0.581  0.3452 -0.0099 -0.0017
 1476SOL    HW1 5327   6.656   2.884   0.641 -0.7655  1.4788  2.6239
 1476SOL    HW2 5328   6.527   2.906   0.544 -0.0519 -0.3495  1.2069
 1477SOL     OW 5329   3.906   5.773   2.690  0.3399 -0.0226 -0.0069
 1477SOL    HW1 5330   3.961   5.827   2.753  0.7293 -0.9701  0.4888
 1477SOL    HW2 5331   3.815   5.758   2.730 -0.2686  1.4508 -0.7778
 1478SOL     OW 5332   5.800   4.972   1.297 -0.2084 -0.1970 -0.0659
 1478SOL    HW1 5333   5.774   4.904   1.366  0.4915  0.6647  1.0836
 1478SOL    HW2 5334   5.847   4.927   1.221 -1.7520 -1.2803 -0.4346
 1479SOL     OW 5335   0.769   3.313   1.311  0.4874  0.3258  0.2783
 1479SOL    HW1 5336   0.674   3.286   1.294  0.1535  0.5126  1.7016
 1479SOL    HW2 5337   0.825   3.291   1.231 -1.0688  1.9107 -1.3375
 1480SOL     OW 5338   1.854   0.937   0.940 -0.2956  0.1247  0.3119
 1480SOL    HW1 5339   1.939   0.913   0.986 -0.3919 -0.3990  0.2299
 1480SOL    HW2 5340   1.857   1.032   0.910  0.7505 -0.2308 -0.7739
 1481SOL     OW 5341   6.487   2.512   6.143 -0.3492 -0.0743  0.1295
 1481SOL    HW1 5342   6.515   2.555   6.228  0.5346 -1.6139  0.6485
 1481SOL    HW2 5343   6.513   2.570   6.066  0.8063  0.3258  0.8024
 1482SOL     OW 5344   5.703   5.686   4.590  0.0415  0.1081 -0.4965
 1482SOL    HW1 5345   5.611   5.664   4.555 -0.3889  1.2161 -0.1217
 1482SOL    HW2 5346   5.769   5.675   4.516 -0.6527  0.9908 -1.2792
 1483SOL     OW 5347   6.295   3.057   6.355 -0.5277 -0.7094  0.1371
 1483SOL    HW1 5348   6.231   3.104   6.293 -1.2687 -2.7774 -0.7703
 1483SOL    HW2 5349   6.289   3.098   6.446 -1.7390  0.3855 -0.3967
 1484SOL     OW 5350   0.025   0.498   2.770  0.0536 -0.6646  0.4236
 1484SOL    HW1 5351   0.084   0.559   2.718  0.5926 -0.2600  1.4877
 1484SOL    HW2 5352  -0.026   0.551   2.839 -0.4516 -1.2246  0.4898
 1485SOL     OW 5353   5.608   3.226   2.937 -0.1463 -0.3422 -0.0597
 1485SOL    HW1 5354   5.684   3.289   2.956 -0.2328 -0.3620  0.3519
 1485SOL    HW2 5355   5.575   3.242   2.844 -1.6143  1.7941  0.7248
 1486SOL     OW 5356   5.518   1.629   0.815  0.5732  0.0935  0.1339
 1486SOL    HW1 5357   5.485   1.673   0.898 -1.7220  1.1635 -1.2466
 1486SOL    HW2 5358   5.590   1.563   0.838 -1.0077 -0.7339  3.1176
 1487SOL     OW 5359   6.612   2.298   4.419 -0.1956  0.3937 -0.3905
 1487SOL    HW1 5360   6.628   2.287   4.517  2.0955  1.5644 -0.5554
 1487SOL    HW2 5361   6.514   2.299   4.401 -0.6651 -0.4084  1.8008
 1488SOL     OW 5362   4.798   2.923   4.608 -0.0584  0.2954  0.1933
 1488SOL    HW1 5363   4.705   2.886   4.612 -0.0892  0.2041 -0.9954
 1488SOL    HW2 5364   4.827   2.949   4.700 -0.6875 -1.0597  0.8147
 1489SOL     OW 5365   3.263   6.839   5.785 -0.1790  0.5136  0.3997
 1489SOL    HW1 5366   3.198   6.873   5.852  0.7636  3.4668 -0.0283
 1489SOL    HW2 5367   3.349   6.813   5.830  0.2225  1.8781  0.4831
 1490SOL     OW 5368   2.425   0.710   0.444  0.6357 -0.2153  0.4025
 1490SOL    HW1 5369   2.427   0.623   0.493  1.2190 -0.7702 -0.5716
 1490SOL    HW2 5370   2.406   0.784   0.508 -2.7058 -1.3074  0.9002
 1491SOL     OW 5371   0.818   5.290   3.181 -0.2443  0.1510 -0.0433
 1491SOL    HW1 5372   0.835   5.266   3.277 -1.3070 -0.7997 -0.0798
 1491SOL    HW2 5373   0.729   5.254   3.153  0.1462  0.2502 -1.4568
 1492SOL     OW 5374   6.956   3.125   0.432 -0.3075 -0.5544 -0.1233
 1492SOL    HW1 5375   6.983   3.031   0.413  1.5000  0.3399 -2.4202
 1492SOL    HW2 5376   6.859   3.137   0.412 -0.6367 -1.9533  0.5046
 1493SOL     OW 5377   0.548   2.125   5.018  0.1631 -0.3157  1.0758
 1493SOL    HW1 5378   0.554   2.224   5.035 -0.7417 -0.4025  2.0413
 1493SOL    HW2 5379   0.501   2.109   4.931 -0.7784  0.1133  1.4855
 1494SOL     OW 5380   4.779   2.947   5.137 -0.3718  0.2203 -0.0105
 1494SOL    HW1 5381   4.770   3.035   5.182  1.6262 -0.1539  1.2393
 1494SOL    HW2 5382   4.757   2.874   5.202  0.4723 -0.2696 -0.2583
 1495SOL     OW 5383   1.622   3.365   3.283  0.2613 -0.0139  0.3504
 1495SOL    HW1 5384   1.561   3.352   3.362 -1.2581  0.1960 -0.7404
 1495SOL    HW2 5385   1.593   3.445   3.231 -0.4683 -1.6383 -1.8921
 1496SOL     OW 5386   1.097   5.709   3.339 -0.3071 -0.7134  0.6587
 1496SOL    HW1 5387   1.046   5.779   3.291 -1.0146 -0.3691  1.8517
 1496SOL    HW2 5388   1.187   5.697   3.297 -0.0778  1.0770  0.5781
 1497SOL     OW 5389   4.694   4.387   5.543 -0.4633  0.0885  0.2590
 1497SOL    HW1 5390   4.605   4.349   5.569  0.5527 -1.7177  1.2902
 1497SOL    HW2 5391   4.710   4.369   5.446 -0.9949 -0.0643  0.1936
 1498SOL     OW 5392   4.065   3.717   5.876 -0.8313  0.1603 -0.3777
 1498SOL    HW1 5393   4.117   3.658   5.938 -1.4500  1.0127  0.9774
 1498SOL    HW2 5394   4.082   3.688   5.782 -0.3828 -1.5719  0.1961
 1499SOL     OW 5395   6.990   4.623   4.184  0.0928  0.0511 -0.2621
 1499SOL    HW1 5396   6.921   4.639   4.255 -0.8201 -0.0326 -1.1035
 1499SOL    HW2 5397   6.993   4.526   4.161  1.6062 -0.2026  0.8403
 1500SOL     OW 5398   4.079   0.148   6.233  0.7686  0.0218 -0.0112
 1500SOL    HW1 5399   4.164   0.200   6.227  0.2853  0.8173 -0.1026
 1500SOL    HW2 5400   4.018   0.175   6.159  0.5012 -0.6737 -0.0534
 1501SOL     OW 5401   4.059   1.419   0.099 -0.2828  0.5897  0.1904
 1501SOL    HW1 5402   3.983   1.471   0.136 -0.0703  0.2206  1.1739
 1501SOL    HW2 5403   4.108   1.373   0.173  0.7898  0.6705 -0.4367
 1502SOL     OW 5404   6.360   5.231   6.825 -0.4931 -0.3582  0.2871
 1502SOL    HW1 5405   6.424   5.308   6.820 -2.0624  0.9940  0.4220
 1502SOL    HW2 5406   6.360   5.194   6.918  1.7209 -1.8849 -0.2233
 1503SOL     OW 5407   3.850   3.524   5.630 -0.2126 -0.4063  0.3438
 1503SOL    HW1 5408   3.897   3.438   5.607 -2.2543 -0.9699 -2.1890
 1503SOL    HW2 5409   3.896   3.600   5.585  0.2894 -0.4396  0.7803
 1504SOL     OW 5410   1.947   5.118   3.691 -0.0401  0.2437 -0.1322
 1504SOL    HW1 5411   2.006   5.190   3.654 -0.0262  0.3871  0.1662
 1504SOL    HW2 5412   1.941   5.043   3.626  1.7610 -0.4927  0.4724
 1505SOL     OW 5413   4.756   5.415   2.731 -0.2465  0.3165 -0.1748
 1505SOL    HW1 5414   4.738   5.472   2.811 -1.2828 -0.6535  0.3111
 1505SOL    HW2 5415   4.737   5.467   2.648  1.2392  1.4726  0.1669
 1506SOL     OW 5416   3.445   5.379   1.884 -0.3635 -0.0637  0.2505
 1506SOL    HW1 5417   3.359   5.363   1.933 -0.2624 -1.0252  0.1353
 1506SOL    HW2 5418   3.522   5.351   1.941 -0.1794 -0.1024 -0.0130
 1507SOL     OW 5419   3.583   1.818   4.246 -0.1405 -0.1796  0.0156
 1507SOL    HW1 5420   3.644   1.796   4.322 -0.7512  0.5023  0.7225
 1507SOL    HW2 5421   3.492   1.841   4.282 -0.6008 -0.4236 -0.9642
 1508SOL     OW 5422   4.050   6.297   0.098 -0.3320  0.3610 -0.2034
 1508SOL    HW1 5423   4.139   6.327   0.063  0.6961 -0.6279  1.3838
 1508SOL    HW2 5424   3.989   6.375   0.108  0.4035  1.0796 -1.1766
 1509SOL     OW 5425   6.659   0.485   6.911 -0.2800 -0.2973 -0.2129
 1509SOL    HW1 5426   6.649   0.520   6.818 -1.0084 -2.0165 -0.8131
 1509SOL    HW2 5427   6.756   0.471   6.931 -0.1588 -0.6238 -0.9915
 1510SOL     OW 5428   1.281   2.721   2.862 -0.3064 -0.0898 -0.5445
 1510SOL    HW1 5429   1.201   2.696   2.808 -0.5392 -0.8479  0.1393
 1510SOL    HW2 5430   1.364   2.684   2.819 -0.6693 -2.4148  0.6271
 1511SOL     OW 5431   3.091   1.817   1.467  0.7090 -0.4904 -0.2207
 1511SOL    HW1 5432   3.009   1.858   1.508  0.5293 -1.0193 -0.0407
 1511SOL    HW2 5433   3.162   1.808   1.536  1.2003  0.6584 -0.5443
 1512SOL     OW 5434   3.118   6.829   1.852  0.2083 -0.4267 -0.1170
 1512SOL    HW1 5435   3.134   6.760   1.782 -1.1188  0.0834 -0.9682
 1512SOL    HW2 5436   3.019   6.839   1.867  0.4012 -2.3187  3.6775
 1513SOL     OW 5437   3.244   0.427   3.360 -0.0794 -0.3674 -0.3888
 1513SOL    HW1 5438   3.294   0.476   3.289 -1.4830 -0.0890 -1.2208
 1513SOL    HW2 5439   3.198   0.492   3.420 -0.9505 -0.6282 -0.7568
 1514SOL     OW 5440   3.722   0.835   6.286  0.3594 -0.4350  0.1836
 1514SOL    HW1 5441   3.710   0.910   6.352  0.6737 -1.0846  0.9982
 1514SOL    HW2 5442   3.633   0.805   6.253  0.2723  1.2327 -1.2589
 1515SOL     OW 5443   5.756   4.616   4.040 -0.1201  0.0307 -0.3194
 1515SOL    HW1 5444   5.816   4.540   4.016  0.3802  0.7401 -1.3940
 1515SOL    HW2 5445   5.670   4.581   4.077  0.0116 -1.0606 -1.0220
 1516SOL     OW 5446   0.246   6.294   0.769  0.0083 -0.4169  0.1046
 1516SOL    HW1 5447   0.148   6.294   0.747 -0.2639 -0.0439  1.2352
 1516SOL    HW2 5448   0.262   6.231   0.846  0.8840 -1.5342 -0.9587
 1517SOL     OW 5449   5.604   5.970   3.066 -0.2462  0.0633 -0.4144
 1517SOL    HW1 5450   5.613   5.874   3.091  3.0833 -0.0115 -1.4856
 1517SOL    HW2 5451   5.539   5.979   2.991 -0.2489 -1.4046 -0.6093
 1518SOL     OW 5452   6.377   4.089   2.611  0.3970  0.9273  0.2894
 1518SOL    HW1 5453   6.302   4.133   2.561  1.4339  2.1808 -0.2422
 1518SOL    HW2 5454   6.463   4.135   2.588  1.5745 -1.4194 -0.2889
 1519SOL     OW 5455   6.079   4.603   1.639  0.0636  0.3945  0.6350
 1519SOL    HW1 5456   6.105   4.642   1.728  0.3487 -2.1365  1.7383
 1519SOL    HW2 5457   6.160   4.564   1.596  0.4143  3.5106 -1.8958
 1520SOL     OW 5458   0.861   1.432   3.283 -0.0629  0.3024  0.2324
 1520SOL    HW1 5459   0.946   1.390   3.315 -0.4874  1.5802  3.5090
 1520SOL    HW2 5460   0.824   1.491   3.355 -3.4930  0.1914 -1.2199
 1521SOL     OW 5461   3.392   4.275   5.657  0.3372  0.1989  0.2058
 1521SOL    HW1 5462   3.402   4.321   5.569 -1.2247  0.5388  0.1881
 1521SOL    HW2 5463   3.451   4.319   5.724  0.2347  1.0541 -0.2490
 1522SOL     OW 5464   0.805   2.350   0.047 -0.5042  0.0309  0.2898
 1522SOL    HW1 5465   0.847   2.386  -0.036  0.2195  1.5354  1.2610
 1522SOL    HW2 5466   0.707   2.369   0.046 -0.8067 -1.3797 -0.9046
 1523SOL     OW 5467   6.577   2.643   0.456 -0.0212 -0.4749  0.5428
 1523SOL    HW1 5468   6.524   2.564   0.427  1.2215 -1.6432  1.3441
 1523SOL    HW2 5469   6.637   2.673   0.382 -0.3767 -0.3678  0.2945
 1524SOL     OW 5470   0.591   6.449   2.923  0.4717  0.2335  0.3431
 1524SOL    HW1 5471   0.521   6.468   2.992 -0.1183 -0.7421  0.0245
 1524SOL    HW2 5472   0.633   6.535   2.894 -0.7945  0.8668  0.3232
 1525SOL     OW 5473   5.347   3.978   6.821  0.8886 -0.2409 -0.2156
 1525SOL    HW1 5474   5.287   4.010   6.894 -0.7804 -2.4538 -0.5209
 1525SOL    HW2 5475   5.367   3.881   6.833  1.3357 -0.4387 -2.1951
 1526SOL     OW 5476   7.020   1.497   6.185  0.1442  0.6233 -0.0296
 1526SOL    HW1 5477   7.043   1.541   6.098 -1.4022 -1.3111 -1.4958
 1526SOL    HW2 5478   6.923   1.471   6.185  0.5296 -1.0033  1.5719
 1527SOL     OW 5479   1.553   3.752   6.184  0.6968  0.0415 -0.3966
 1527SOL    HW1 5480   1.488   3.800   6.126  0.8291  0.9509  0.1929
 1527SOL    HW2 5481   1.504   3.689   6.244  0.2029  1.5911  0.8941
 1528SOL     OW 5482   2.083   5.531   6.137 -0.4242  0.2644  0.6379
 1528SOL    HW1 5483   2.066   5.629   6.125  1.4766  0.6507  0.8955
 1528SOL    HW2 5484   2.178   5.510   6.113 -0.5147 -1.3457  1.5670
 1529SOL     OW 5485   3.968   1.191   4.676  0.8300 -0.0794 -0.0502
 1529SOL    HW1 5486   3.930   1.244   4.600 -1.9538 -0.7129  0.8014
 1529SOL    HW2 5487   3.936   1.096   4.670  1.4296 -0.3973  1.3646
 1530SOL     OW 5488   3.941   0.266   2.591  0.2175  0.3357 -0.2651
 1530SOL    HW1 5489   4.007   0.310   2.530 -1.3544  0.0370 -2.2927
 1530SOL    HW2 5490   3.852   0.311   2.583 -0.1272  0.1023  1.6551
 1531SOL     OW 5491   6.704   6.744   5.691 -0.3125 -0.4497  0.0448
 1531SOL    HW1 5492   6.777   6.677   5.676  0.4667  0.3657  0.0684
 1531SOL    HW2 5493   6.642   6.712   5.762  0.4700 -0.8204  0.5760
 1532SOL     OW 5494   4.185   1.576   5.755  0.1634  0.4037  0.0592
 1532SOL    HW1 5495   4.097   1.571   5.801 -0.4733  0.1335 -1.1576
 1532SOL    HW2 5496   4.251   1.622   5.814 -1.3181  2.4751  0.2095
 1533SOL     OW 5497   5.175   1.064   0.813 -0.5532  0.0923 -0.1382
 1533SOL    HW1 5498   5.150   1.090   0.720 -1.2585 -2.2155 -0.6620
 1533SOL    HW2 5499   5.147   0.969   0.830 -1.1534  0.6828  2.7096
 1534SOL     OW 5500   0.142   6.526   1.418 -0.3296 -0.1066  0.1859
 1534SOL    HW1 5501   0.067   6.485   1.367 -1.3338 -1.3402  2.4877
 1534SOL    HW2 5502   0.227   6.514   1.368 -1.0795 -2.2349 -0.7013
 1535SOL     OW 5503   3.815   5.561   3.521 -0.7291  0.5123  0.0979
 1535SOL    HW1 5504   3.890   5.593   3.579  2.1076 -1.6408 -2.1073
 1535SOL    HW2 5505   3.811   5.461   3.525 -4.0277  0.5584  0.6263
 1536SOL     OW 5506   2.977   5.300   3.717 -0.2876 -0.3829 -0.1238
 1536SOL    HW1 5507   2.985   5.374   3.650  1.0051 -0.1570  0.2541
 1536SOL    HW2 5508   3.063   5.291   3.767 -1.9075  1.1756  3.3283
 1537SOL     OW 5509   2.529   5.670   3.629  0.2114 -0.0104  0.9005
 1537SOL    HW1 5510   2.540   5.747   3.565 -0.1912 -0.9241 -0.3195
 1537SOL    HW2 5511   2.432   5.651   3.643  0.1966 -2.2041 -1.3204
 1538SOL     OW 5512   2.836   5.400   6.250 -0.4677 -0.1791  0.1333
 1538SOL    HW1 5513   2.830   5.315   6.303 -0.2364  1.1020  2.3111
 1538SOL    HW2 5514   2.932   5.424   6.237 -0.4993 -0.7639 -1.4366
 1539SOL     OW 5515   4.186   6.013   4.754 -0.3149 -0.2284 -0.0626
 1539SOL    HW1 5516   4.192   5.986   4.850  0.5342 -0.1718 -0.0954
 1539SOL    HW2 5517   4.220   6.107   4.744  0.7652 -0.6689 -0.6064
 1540SOL     OW 5518   0.418   0.335   4.737  0.1537 -0.2854 -0.2592
 1540SOL    HW1 5519   0.344   0.271   4.753 -3.6885  3.9402  0.8963
 1540SOL    HW2 5520   0.466   0.354   4.823  2.4117 -2.5105 -0.8863
 1541SOL     OW 5521   4.353   2.273   0.707  0.2420  0.1366 -0.5783
 1541SOL    HW1 5522   4.328   2.216   0.628 -0.3652  0.0075 -0.3027
 1541SOL    HW2 5523   4.299   2.357   0.705 -0.2691 -0.1711  0.0614
 1542SOL     OW 5524   6.212   6.765   1.977 -0.4515  0.0530  0.1128
 1542SOL    HW1 5525   6.280   6.795   2.044 -0.6353  0.7073  0.0151
 1542SOL    HW2 5526   6.147   6.703   2.021  1.0202 -1.7553 -0.1255
 1543SOL     OW 5527   3.774   3.227   3.600 -0.1042  0.0314  0.1489
 1543SOL    HW1 5528   3.808   3.161   3.668  1.6154 -0.2755 -0.9230
 1543SOL    HW2 5529   3.812   3.317   3.620 -2.4204  0.7452  1.5865
 1544SOL     OW 5530   3.174   4.037   3.092  0.4217 -0.7088  0.3792
 1544SOL    HW1 5531   3.228   3.992   3.021  0.6982  0.0738  0.0799
 1544SOL    HW2 5532   3.232   4.100   3.144 -0.1179 -0.1151  0.2770
 1545SOL     OW 5533   5.535   6.967   3.166  0.4615  0.0097  0.3603
 1545SOL    HW1 5534   5.477   6.897   3.123  1.1928  0.0927 -0.8210
 1545SOL    HW2 5535   5.489   7.055   3.161  0.0617 -0.1713  0.7571
 1546SOL     OW 5536   6.186   0.720   6.807  0.0441 -0.0947  0.1636
 1546SOL    HW1 5537   6.280   0.703   6.838  0.0180 -2.6233 -0.9218
 1546SOL    HW2 5538   6.123   0.661   6.858 -0.6786 -0.1050 -0.7261
 1547SOL     OW 5539   2.081   6.775   6.756  0.3144 -0.3353  0.4792
 1547SOL    HW1 5540   1.998   6.752   6.805  0.4848 -1.6987  0.1851
 1547SOL    HW2 5541   2.062   6.778   6.658 -0.1439  2.8901  0.5766
 1548SOL     OW 5542   6.228   5.198   3.730 -0.2904 -0.0252  0.4220
 1548SOL    HW1 5543   6.227   5.236   3.637  0.9627 -0.2216  0.3114
 1548SOL    HW2 5544   6.189   5.106   3.729  0.6406 -0.4285 -0.1073
 1549SOL     OW 5545   0.204   1.076   1.511  0.0509  0.3941  0.2970
 1549SOL    HW1 5546   0.293   1.050   1.475  0.0099  1.2134 -0.4535
 1549SOL    HW2 5547   0.213   1.101   1.607  0.9751  2.0136 -0.1646
 1550SOL     OW 5548   2.509   6.265   2.268  0.4885  0.0988 -0.3632
 1550SOL    HW1 5549   2.441   6.330   2.234  0.0515 -0.6996 -1.0531
 1550SOL    HW2 5550   2.477   6.226   2.354  0.7094  0.7114  0.0068
 1551SOL     OW 5551   0.055   4.268   2.522  0.1484  0.5108  0.2555
 1551SOL    HW1 5552   0.018   4.196   2.463  0.0970  0.7379  0.0124
 1551SOL    HW2 5553   0.154   4.258   2.528  0.4798  1.8964 -1.7928
 1552SOL     OW 5554   0.006   0.193   1.192 -0.0006 -0.1864 -0.3417
 1552SOL    HW1 5555  -0.049   0.245   1.126 -0.2626  0.7704  0.5864
 1552SOL    HW2 5556   0.101   0.221   1.185 -0.1735  0.6268  0.3036
 1553SOL     OW 5557   3.698   2.323   0.125  0.3710  0.2918 -0.4779
 1553SOL    HW1 5558   3.784   2.369   0.144 -0.6483  2.0870  0.0394
 1553SOL    HW2 5559   3.679   2.327   0.027  0.5091  0.5679 -0.4941
 1554SOL     OW 5560   3.296   1.186   1.976  0.0583  0.5020 -0.6125
 1554SOL    HW1 5561   3.318   1.265   2.033 -1.6365 -0.5140  1.5715
 1554SOL    HW2 5562   3.273   1.216   1.884  0.8079  2.4007 -0.2123
 1555SOL     OW 5563   4.034   6.986   6.417  0.5358 -0.2654 -0.9562
 1555SOL    HW1 5564   3.969   7.028   6.481  3.1282  1.6208  0.6748
 1555SOL    HW2 5565   4.057   7.051   6.345 -0.2443 -1.3710 -2.2568
 1556SOL     OW 5566   4.060   1.580   0.373  0.4580 -0.4561 -0.1672
 1556SOL    HW1 5567   4.155   1.577   0.341  0.3305  0.6145 -0.6910
 1556SOL    HW2 5568   4.022   1.487   0.373  0.6992 -0.6142 -2.4768
 1557SOL     OW 5569   1.712   4.357   1.677  0.2833  0.7923 -0.0447
 1557SOL    HW1 5570   1.674   4.296   1.608 -1.3677  2.4544 -0.6853
 1557SOL    HW2 5571   1.712   4.311   1.766  0.8765 -0.7809 -0.8186
 1558SOL     OW 5572   4.303   4.564   5.618 -0.5441  0.4073  0.0513
 1558SOL    HW1 5573   4.210   4.600   5.611 -0.7255 -0.0129  0.2730
 1558SOL    HW2 5574   4.361   4.630   5.665 -0.5038  1.0789 -0.8939
 1559SOL     OW 5575   3.315   5.647   2.670  0.1692 -0.3806  0.3394
 1559SOL    HW1 5576   3.230   5.697   2.689  0.5790  0.3142  0.3909
 1559SOL    HW2 5577   3.359   5.622   2.756 -0.2309 -1.1811  0.3160
 1560SOL     OW 5578   3.588   0.933   0.988  0.3011  0.0457 -0.3953
 1560SOL    HW1 5579   3.627   1.021   0.961 -0.8613  0.7310  0.0910
 1560SOL    HW2 5580   3.528   0.900   0.916  1.3668 -0.7740 -0.9350
 1561SOL     OW 5581   5.936   6.105   0.794 -0.1976  0.5667 -0.0101
 1561SOL    HW1 5582   5.959   6.202   0.787 -1.0197  0.7723  0.1213
 1561SOL    HW2 5583   5.880   6.078   0.716  0.3935  0.0814 -0.2812
 1562SOL     OW 5584   3.388   0.516   3.145  0.2675  0.3131  0.4944
 1562SOL    HW1 5585   3.477   0.481   3.114 -0.0332 -0.0043 -0.0198
 1562SOL    HW2 5586   3.358   0.589   3.083 -0.7930 -0.9859 -0.5746
 1563SOL     OW 5587   1.999   2.591   6.070  0.2509 -0.2925 -0.0309
 1563SOL    HW1 5588   1.999   2.555   5.976  2.1727 -0.5861  0.0323
 1563SOL    HW2 5589   2.009   2.516   6.135  2.7201  0.1316  0.1794
 1564SOL     OW 5590   6.870   1.749   2.842 -0.1453 -0.7129 -0.0482
 1564SOL    HW1 5591   6.909   1.798   2.764 -1.4922  1.8003  0.7438
 1564SOL    HW2 5592   6.786   1.704   2.815 -0.4209 -0.1419 -0.1627
 1565SOL     OW 5593   4.278   0.336   2.897 -0.2534 -0.4785  0.5954
 1565SOL    HW1 5594   4.298   0.240   2.917 -0.1793 -0.7485 -0.7372
 1565SOL    HW2 5595   4.181   0.345   2.873  0.0307 -0.4324 -0.5409
 1566SOL     OW 5596   5.230   3.460   4.211  0.5786  0.2716  0.2562
 1566SOL    HW1 5597   5.220   3.393   4.138 -3.2058  0.3781  0.4470
 1566SOL    HW2 5598   5.293   3.532   4.184  2.4159 -1.7667 -1.1578
 1567SOL     OW 5599   6.430   5.635   5.836 -0.1815 -0.1439 -0.1809
 1567SOL    HW1 5600   6.446   5.547   5.880 -0.1530  0.4778  1.0870
 1567SOL    HW2 5601   6.340   5.670   5.862 -1.2647 -0.8885 -2.6037
 1568SOL     OW 5602   3.395   5.445   2.232  0.5213  0.3567 -0.5176
 1568SOL    HW1 5603   3.372   5.446   2.330  0.6001 -2.0958 -0.4036
 1568SOL    HW2 5604   3.389   5.351   2.198  3.0218  0.7594 -2.2794
 1569SOL     OW 5605   2.825   2.266   2.578 -0.5652  0.4083 -0.1314
 1569SOL    HW1 5606   2.848   2.221   2.491 -1.1304 -0.7934  0.3086
 1569SOL    HW2 5607   2.874   2.221   2.653 -0.4831  1.0973  0.2368
 1570SOL     OW 5608   2.576   5.491   5.121 -0.3814 -0.2446 -0.1402
 1570SOL    HW1 5609   2.545   5.404   5.159 -0.1117 -0.4105 -0.3038
 1570SOL    HW2 5610   2.601   5.553   5.196  0.4808 -0.6942 -0.0565
 1571SOL     OW 5611   0.921   3.071   4.865  0.4326 -0.0813  0.4028
 1571SOL    HW1 5612   0.900   3.108   4.956  0.1261  0.6233  0.0533
 1571SOL    HW2 5613   1.015   3.095   4.841 -0.2445  1.9147 -0.4825
 1572SOL     OW 5614   4.516   5.071   3.142  0.2310 -0.0895 -0.3791
 1572SOL    HW1 5615   4.501   4.975   3.119 -0.2694  0.2256 -1.4512
 1572SOL    HW2 5616   4.488   5.088   3.237  0.1182 -0.9514 -0.2523
 1573SOL     OW 5617   4.870   5.659   0.822  1.0026  0.2364  0.3260
 1573SOL    HW1 5618   4.806   5.687   0.894  1.3601 -0.0609  0.7647
 1573SOL    HW2 5619   4.897   5.739   0.770  2.9123  0.9797  2.2970
 1574SOL     OW 5620   5.943   4.573   2.144 -0.2900 -0.4064  0.2698
 1574SOL    HW1 5621   5.950   4.667   2.109 -1.7779 -0.2158  0.4203
 1574SOL    HW2 5622   5.889   4.573   2.228 -1.2839 -1.5371 -0.3387
 1575SOL     OW 5623   0.591   1.596   6.206  0.5047  0.6396  0.1108
 1575SOL    HW1 5624   0.551   1.614   6.296 -0.1992  0.6837 -0.2084
 1575SOL    HW2 5625   0.647   1.513   6.210 -1.6374 -0.8680 -0.0348
 1576SOL     OW 5626   3.024   0.368   6.816  0.2439  0.4932 -0.2585
 1576SOL    HW1 5627   3.109   0.315   6.824 -0.7834 -0.9662  1.7218
 1576SOL    HW2 5628   2.986   0.356   6.724  1.1796 -0.3924 -0.5482
 1577SOL     OW 5629   3.854   4.883   4.831  0.3606 -0.3836  0.2069
 1577SOL    HW1 5630   3.754   4.883   4.834  0.3753  0.1023  0.8563
 1577SOL    HW2 5631   3.891   4.871   4.923  0.9029 -0.4553 -0.0123
 1578SOL     OW 5632   6.029   1.149   1.699 -0.5381  0.6990 -0.0170
 1578SOL    HW1 5633   6.072   1.225   1.651 -1.9237  1.1510 -0.6006
 1578SOL    HW2 5634   5.960   1.107   1.640  0.9871 -1.8175 -0.1695
 1579SOL     OW 5635   1.424   2.272   1.089 -0.0322  0.2458 -0.6595
 1579SOL    HW1 5636   1.505   2.328   1.106  0.5745 -1.0152  0.7514
 1579SOL    HW2 5637   1.378   2.253   1.175 -1.2714  0.0785 -1.3369
 1580SOL     OW 5638   3.163   3.974   1.550  0.3735 -0.3164 -0.5485
 1580SOL    HW1 5639   3.065   3.991   1.558  0.2437 -1.2713  0.0351
 1580SOL    HW2 5640   3.181   3.921   1.467  0.5629  0.9046 -1.3303
 1581SOL     OW 5641   6.540   4.324   5.085 -0.3299 -0.2608  1.2470
 1581SOL    HW1 5642   6.560   4.336   5.182  0.2410  2.8610  0.8350
 1581SOL    HW2 5643   6.624   4.336   5.032 -1.1045  0.7836  0.2155
 1582SOL     OW 5644   3.995   6.717   4.974  0.0950 -0.4259 -0.0953
 1582SOL    HW1 5645   4.089   6.682   4.981  0.1994  0.0423  1.1317
 1582SOL    HW2 5646   3.982   6.790   5.042 -1.3676 -0.9545  0.2211
 1583SOL     OW 5647   2.545   6.154   6.252 -0.3222  0.1978  0.8553
 1583SOL    HW1 5648   2.585   6.063   6.248  0.8746  0.7510 -0.3623
 1583SOL    HW2 5649   2.547   6.188   6.346  0.4419 -0.4974  1.0936
 1584SOL     OW 5650   6.510   3.035   5.631  0.5488 -0.8521  0.3507
 1584SOL    HW1 5651   6.415   3.008   5.615  0.8994 -1.8095 -0.2170
 1584SOL    HW2 5652   6.570   2.957   5.613  1.5617  0.1429 -0.6892
 1585SOL     OW 5653   2.623   0.442   2.067  0.1837  0.0879 -0.0356
 1585SOL    HW1 5654   2.625   0.502   1.988 -0.2450 -0.3793 -0.4082
 1585SOL    HW2 5655   2.583   0.354   2.042  1.1756 -0.5074  0.4041
 1586SOL     OW 5656   4.499   5.217   1.687 -0.3998  0.2060 -0.1447
 1586SOL    HW1 5657   4.474   5.284   1.757 -0.1333  0.5314 -0.3513
 1586SOL    HW2 5658   4.447   5.133   1.699  1.5550 -0.7891  2.1253
 1587SOL     OW 5659   2.560   5.395   1.394  0.2338  0.2180 -0.0624
 1587SOL    HW1 5660   2.549   5.424   1.299 -0.6241  1.8617  0.4877
 1587SOL    HW2 5661   2.472   5.362   1.429  0.5730 -0.4924  0.1354
 1588SOL     OW 5662   5.617   1.328   2.015 -0.5120  0.1453 -0.5824
 1588SOL    HW1 5663   5.691   1.281   1.967 -2.5177 -0.7077 -3.0665
 1588SOL    HW2 5664   5.654   1.377   2.094  2.3149 -2.0413 -0.4015
 1589SOL     OW 5665   6.533   5.203   5.296  0.2672  0.6793  0.3288
 1589SOL    HW1 5666   6.608   5.201   5.361  0.5255  0.8022  0.0403
 1589SOL    HW2 5667   6.502   5.297   5.283  1.0871  0.8349 -0.6932
 1590SOL     OW 5668   1.075   1.848   4.495 -0.1951  0.0750  0.0406
 1590SOL    HW1 5669   1.156   1.835   4.552 -0.2021  1.9467  0.5317
 1590SOL    HW2 5670   1.092   1.811   4.404  2.4722  3.1255 -0.8787
 1591SOL     OW 5671   2.786   5.633   1.191 -0.1219  0.1763 -0.0511
 1591SOL    HW1 5672   2.857   5.699   1.167  0.3687 -0.9147 -1.7790
 1591SOL    HW2 5673   2.721   5.675   1.254  1.6505  1.4278  1.0485
 1592SOL     OW 5674   1.778   4.296   6.533  0.6839 -0.1350 -0.2947
 1592SOL    HW1 5675   1.746   4.329   6.622  0.1199 -1.0612 -0.1328
 1592SOL    HW2 5676   1.874   4.269   6.541  0.4329 -0.9258  0.2585
 1593SOL     OW 5677   4.350   1.591   1.174 -0.2516 -0.1350  0.2782
 1593SOL    HW1 5678   4.430   1.585   1.234  0.5126  0.8095 -0.5872
 1593SOL    HW2 5679   4.293   1.510   1.185  1.9249 -1.8946 -0.6096
 1594SOL     OW 5680   6.254   1.499   3.442 -0.0334  0.5072  0.0176
 1594SOL    HW1 5681   6.335   1.491   3.500  0.6792  1.8760 -0.7393
 1594SOL    HW2 5682   6.279   1.544   3.356 -1.1046 -1.2847 -1.2891
 1595SOL     OW 5683   1.334   2.677   6.939 -0.2772 -0.0885 -0.0394
 1595SOL    HW1 5684   1.314   2.773   6.917  0.4508 -0.2367 -1.4390
 1595SOL    HW2 5685   1.414   2.673   6.999 -0.2238  0.1764 -0.0909
 1596SOL     OW 5686   5.452   4.354   3.459  0.2513  0.0606 -0.0442
 1596SOL    HW1 5687   5.360   4.391   3.448 -0.4911 -1.6271  0.1243
 1596SOL    HW2 5688   5.517   4.429   3.472 -1.1066  1.2794  0.0048
 1597SOL     OW 5689   3.026   5.221   1.392  0.5170 -0.0397 -0.0276
 1597SOL    HW1 5690   2.966   5.223   1.472 -0.1159 -0.6165 -0.4759
 1597SOL    HW2 5691   2.977   5.180   1.314  1.9803 -2.0191  0.0076
 1598SOL     OW 5692   0.872   4.366   3.921  0.2096 -1.1876  0.1027
 1598SOL    HW1 5693   0.940   4.328   3.859  1.9757 -0.1591  1.3219
 1598SOL    HW2 5694   0.864   4.465   3.905  0.6499 -0.9183  1.4376
 1599SOL     OW 5695   5.054   4.412   2.234  0.8355 -0.1135 -0.2477
 1599SOL    HW1 5696   5.042   4.450   2.326 -0.3991 -2.7819  0.7877
 1599SOL    HW2 5697   5.137   4.450   2.193  0.3803  2.6337  1.1214
 1600SOL     OW 5698   6.444   1.580   1.974  0.2906  0.3795  0.6411
 1600SOL    HW1 5699   6.347   1.560   1.980 -0.0860  2.1861  1.2483
 1600SOL    HW2 5700   6.472   1.634   2.054  1.1632  2.2126 -0.8412
 1601SOL     OW 5701   6.490   2.383   4.108 -0.5113  0.0409  0.1653
 1601SOL    HW1 5702   6.589   2.386   4.122 -0.6568 -1.1054  1.6814
 1601SOL    HW2 5703   6.462   2.288   4.090 -1.1976  0.5292 -1.5286
 1602SOL     OW 5704   1.434   0.854   5.984 -0.2855  0.1111  0.3141
 1602SOL    HW1 5705   1.518   0.817   5.945  0.2251  0.5270  0.9905
 1602SOL    HW2 5706   1.355   0.808   5.944  0.2183  0.4178 -1.0821
 1603SOL     OW 5707   3.933   5.246   2.719 -0.9455 -0.0966 -0.2330
 1603SOL    HW1 5708   4.012   5.234   2.778 -0.4193 -2.6009 -1.2977
 1603SOL    HW2 5709   3.921   5.164   2.663 -3.3015  0.8997 -1.3227
 1604SOL     OW 5710   3.525   6.166   1.510  0.2468 -0.2567  0.6456
 1604SOL    HW1 5711   3.603   6.190   1.568  0.9857  0.7695 -0.7190
 1604SOL    HW2 5712   3.543   6.078   1.466  0.4638 -0.2190  0.6558
 1605SOL     OW 5713   3.922   5.463   0.452 -0.1771 -0.4238  0.0673
 1605SOL    HW1 5714   3.851   5.526   0.419  1.8747  1.7583 -0.4556
 1605SOL    HW2 5715   3.916   5.454   0.551 -1.7398 -1.0671 -0.0535
 1606SOL     OW 5716   3.036   0.167   5.988 -0.0826  0.1339 -0.5902
 1606SOL    HW1 5717   3.007   0.225   6.064  0.5128  0.2137 -0.4204
 1606SOL    HW2 5718   3.122   0.201   5.951  0.9931 -1.3801  0.3863
 1607SOL     OW 5719   4.441   4.575   4.184 -0.2806  0.3566 -0.2299
 1607SOL    HW1 5720   4.426   4.494   4.240 -1.1365  0.3788 -0.4120
 1607SOL    HW2 5721   4.530   4.616   4.208 -1.0884  1.0156  1.9322
 1608SOL     OW 5722   5.431   0.796   4.172  0.4023  0.2180  0.1873
 1608SOL    HW1 5723   5.481   0.876   4.139 -0.2881  0.2412 -0.8398
 1608SOL    HW2 5724   5.367   0.766   4.103 -0.7837 -0.0206  1.3488
 1609SOL     OW 5725   2.509   1.011   6.361 -0.2122 -0.3845 -0.0594
 1609SOL    HW1 5726   2.462   0.947   6.300 -0.7058  0.7152 -0.8400
 1609SOL    HW2 5727   2.488   1.105   6.335  0.1751  0.1156  1.3405
 1610SOL     OW 5728   6.228   1.520   2.525  0.5331 -0.2252  0.2406
 1610SOL    HW1 5729   6.228   1.443   2.460 -0.2810  0.7592 -0.9815
 1610SOL    HW2 5730   6.152   1.509   2.589  1.2858 -1.1562  1.0132
 1611SOL     OW 5731   2.289   3.830   0.487 -0.7869  0.5735  0.3102
 1611SOL    HW1 5732   2.274   3.819   0.586 -1.3427 -2.1901 -0.0075
 1611SOL    HW2 5733   2.376   3.876   0.472 -1.5371  2.7757  2.0542
 1612SOL     OW 5734   3.848   1.336   1.489  0.1283  0.3241 -0.5929
 1612SOL    HW1 5735   3.928   1.386   1.453  0.4031  0.9856  0.8638
 1612SOL    HW2 5736   3.873   1.291   1.575 -0.6883 -0.6871 -0.8642
 1613SOL     OW 5737   1.122   5.799   3.969  0.7481  0.4481 -0.0630
 1613SOL    HW1 5738   1.125   5.700   3.978 -1.2174  0.4667  1.6079
 1613SOL    HW2 5739   1.125   5.823   3.872  1.0756 -1.2342 -0.5089
 1614SOL     OW 5740   0.120   0.912   0.365 -0.0522 -0.6724  0.2790
 1614SOL    HW1 5741   0.178   0.992   0.350 -1.1579  0.5602  2.0639
 1614SOL    HW2 5742   0.033   0.924   0.316 -1.0456  0.2927  2.1229
 1615SOL     OW 5743   0.117   3.490   0.578  0.1373 -0.0583 -0.0187
 1615SOL    HW1 5744   0.110   3.408   0.634 -1.2840 -0.3347 -0.5581
 1615SOL    HW2 5745   0.027   3.516   0.545  0.4396  2.1704  0.7276
 1616SOL     OW 5746   1.798   5.509   3.594 -0.3379 -0.2574  0.0601
 1616SOL    HW1 5747   1.817   5.605   3.576 -0.6035 -0.0827  0.6913
 1616SOL    HW2 5748   1.867   5.452   3.548  1.3045  0.3282  1.7059
 1617SOL     OW 5749   6.237   5.575   2.559 -0.3090 -0.3665  0.3661
 1617SOL    HW1 5750   6.295   5.522   2.621 -0.0790 -1.9146 -1.1021
 1617SOL    HW2 5751   6.287   5.592   2.474 -1.3373 -0.0684 -0.1946
 1618SOL     OW 5752   1.902   4.930   5.564  0.2079 -0.5612  0.5277
 1618SOL    HW1 5753   1.875   4.979   5.647 -1.0170 -0.0550 -0.1541
 1618SOL    HW2 5754   1.946   4.994   5.501 -0.2513 -0.6032  0.1596
 1619SOL     OW 5755   1.713   5.449   0.254  0.2544  0.2238 -0.4437
 1619SOL    HW1 5756   1.761   5.429   0.168 -0.1855  0.3278 -0.7172
 1619SOL    HW2 5757   1.780   5.462   0.327  0.5917 -1.0861 -0.5057
 1620SOL     OW 5758   2.642   6.873   2.634  0.4309 -0.0422  0.4575
 1620SOL    HW1 5759   2.577   6.798   2.645  0.2443  0.3337  2.2084
 1620SOL    HW2 5760   2.595   6.954   2.600  0.5777 -0.5930 -1.1477
 1621SOL     OW 5761   3.797   4.750   0.519  0.1439  0.4624 -0.3919
 1621SOL    HW1 5762   3.790   4.715   0.612 -0.6740  1.7608  0.0510
 1621SOL    HW2 5763   3.888   4.731   0.483  0.0224 -1.2887  0.1494
 1622SOL     OW 5764   6.560   5.015   3.253 -0.5660  0.1249  0.3829
 1622SOL    HW1 5765   6.476   5.044   3.207  0.4174  0.9708 -0.9795
 1622SOL    HW2 5766   6.616   4.961   3.190  0.1528  0.0108  1.0938
 1623SOL     OW 5767   0.532   3.504   4.475 -0.2738  0.3953  0.1795
 1623SOL    HW1 5768   0.501   3.518   4.569 -0.8652 -1.5392  0.3234
 1623SOL    HW2 5769   0.577   3.415   4.467  1.8021  1.4755 -0.9145
 1624SOL     OW 5770   3.338   2.178   1.334 -0.4142 -0.4727  0.2298
 1624SOL    HW1 5771   3.280   2.246   1.377 -0.0636 -0.0993  0.1188
 1624SOL    HW2 5772   3.418   2.223   1.294  0.2088 -1.0286  0.8236
 1625SOL     OW 5773   6.540   6.686   1.704  0.0113 -0.4219  0.0845
 1625SOL    HW1 5774   6.557   6.674   1.801 -0.6259 -0.6126  0.1723
 1625SOL    HW2 5775   6.531   6.783   1.683  1.3645 -0.2983  0.0054
 1626SOL     OW 5776   3.799   2.640   1.675  0.2414 -0.1077 -0.0782
 1626SOL    HW1 5777   3.810   2.544   1.698 -1.7367 -0.3180  0.1722
 1626SOL    HW2 5778   3.702   2.663   1.674  0.6857  2.5121  2.5609
 1627SOL     OW 5779   4.736   1.519   6.577  0.5113  0.1744  0.3583
 1627SOL    HW1 5780   4.657   1.474   6.619 -0.1533  0.2768 -0.7304
 1627SOL    HW2 5781   4.802   1.450   6.549  0.2665 -0.0067  0.2187
 1628SOL     OW 5782   5.043   1.076   0.296 -0.2820  0.3897  0.1002
 1628SOL    HW1 5783   5.075   0.985   0.271  1.3901  1.2933 -1.1908
 1628SOL    HW2 5784   5.080   1.144   0.233  1.1626  2.3683  2.8519
 1629SOL     OW 5785   3.015   1.927   3.048 -0.4971  0.7596  0.1093
 1629SOL    HW1 5786   3.083   1.880   3.105  0.6888  1.1213 -0.9561
 1629SOL    HW2 5787   3.014   1.886   2.957 -0.3997  1.9179 -0.4307
 1630SOL     OW 5788   6.526   4.811   6.526 -0.4964  0.6863 -0.6647
 1630SOL    HW1 5789   6.559   4.744   6.460 -0.7142  0.6789 -0.7694
 1630SOL    HW2 5790   6.434   4.841   6.499 -0.9130  0.1016  0.0576
 1631SOL     OW 5791   0.558   2.908   0.252  0.1556 -0.3480  1.2090
 1631SOL    HW1 5792   0.602   2.823   0.279  0.0822 -0.3990  1.1687
 1631SOL    HW2 5793   0.628   2.979   0.238  0.4530 -1.0011 -0.9840
 1632SOL     OW 5794   0.173   4.962   2.708 -0.2145 -0.0836  0.5058
 1632SOL    HW1 5795   0.092   5.006   2.670 -0.9387 -2.0510 -0.3891
 1632SOL    HW2 5796   0.244   4.957   2.637 -1.3143 -3.1304 -0.5512
 1633SOL     OW 5797   4.916   1.700   6.066 -0.5430 -0.0600  0.3060
 1633SOL    HW1 5798   4.948   1.649   6.145  0.9591  0.7006  0.2200
 1633SOL    HW2 5799   4.908   1.797   6.090 -0.0422  0.1809 -0.4666
 1634SOL     OW 5800   6.137   4.693   3.883  0.1520 -0.1921 -0.3495
 1634SOL    HW1 5801   6.070   4.767   3.889 -0.2254 -0.4402 -1.2677
 1634SOL    HW2 5802   6.162   4.663   3.975  0.0645  0.8494  0.0316
 1635SOL     OW 5803   4.497   6.715   3.589  0.4579  0.0253 -0.2662
 1635SOL    HW1 5804   4.563   6.778   3.629  0.1475 -0.3090  0.7953
 1635SOL    HW2 5805   4.545   6.645   3.537  0.7936  1.3239 -1.7892
 1636SOL     OW 5806   5.436   6.002   0.933 -0.2890 -0.3842  0.3226
 1636SOL    HW1 5807   5.528   6.037   0.954 -0.7368  0.5666  0.7685
 1636SOL    HW2 5808   5.409   6.033   0.842 -0.3378 -0.2799  0.3714
 1637SOL     OW 5809   1.341   0.035   3.531  0.1870 -0.1239 -0.6047
 1637SOL    HW1 5810   1.405  -0.002   3.463  0.6703 -0.2690 -0.0759
 1637SOL    HW2 5811   1.265  -0.028   3.543 -0.5656  0.4907 -1.9368
 1638SOL     OW 5812   6.435   2.894   1.915  0.3366  0.1430 -0.7044
 1638SOL    HW1 5813   6.408   2.872   2.008 -0.5940  2.0120 -0.4818
 1638SOL    HW2 5814   6.463   2.810   1.867  0.8088 -0.8442  1.2148
 1639SOL     OW 5815   5.752   2.200   0.757 -0.3222  0.2149 -0.0223
 1639SOL    HW1 5816   5.713   2.231   0.844 -1.8628 -0.9571 -0.2489
 1639SOL    HW2 5817   5.804   2.116   0.772 -0.3724  0.1530 -0.1972
 1640SOL     OW 5818   6.891   2.233   6.808 -0.0650 -0.8786 -0.6323
 1640SOL    HW1 5819   6.807   2.202   6.763 -0.1414 -1.2676 -0.2312
 1640SOL    HW2 5820   6.925   2.315   6.763 -1.9135  0.6280  0.5543
 1641SOL     OW 5821   5.369   0.153   3.104 -0.2947  0.2083 -0.1574
 1641SOL    HW1 5822   5.327   0.154   3.013 -2.0479 -3.2838  0.4422
 1641SOL    HW2 5823   5.299   0.175   3.172  0.3254  0.0924  0.5156
 1642SOL     OW 5824   5.211   3.904   6.113 -0.4032  0.1164  0.2616
 1642SOL    HW1 5825   5.198   4.003   6.112 -0.1073  0.2166  2.0909
 1642SOL    HW2 5826   5.212   3.872   6.208  0.7688 -1.4697 -0.2508
 1643SOL     OW 5827   3.789   0.154   3.301 -0.4177  0.2024  0.4744
 1643SOL    HW1 5828   3.879   0.156   3.257 -0.4753  1.2297  0.3801
 1643SOL    HW2 5829   3.729   0.092   3.251  0.8822 -2.3876  1.8886
 1644SOL     OW 5830   6.937   4.693   3.171  0.2987  0.2214 -0.2260
 1644SOL    HW1 5831   7.016   4.754   3.167  1.0527 -0.4920  1.8926
 1644SOL    HW2 5832   6.927   4.645   3.084  1.7822  0.8527 -0.7821
 1645SOL     OW 5833   2.435   0.297   5.493  0.0695 -0.6136  0.1262
 1645SOL    HW1 5834   2.502   0.308   5.419 -1.0710 -1.1578 -1.0369
 1645SOL    HW2 5835   2.472   0.335   5.578  0.7322  1.6175 -1.0966
 1646SOL     OW 5836   1.147   6.076   0.898  0.2402  0.0685  0.2377
 1646SOL    HW1 5837   1.190   6.131   0.969  1.1567 -0.6564  0.2656
 1646SOL    HW2 5838   1.184   5.983   0.901  0.8088  0.1904 -1.6086
 1647SOL     OW 5839   3.590   3.345   6.305  0.6322  0.0279 -0.3502
 1647SOL    HW1 5840   3.655   3.413   6.274 -0.1462 -0.7640 -4.2594
 1647SOL    HW2 5841   3.627   3.253   6.289 -0.4467 -0.4320 -0.3041
 1648SOL     OW 5842   5.072   0.650   1.594 -0.2773 -0.4906 -0.2863
 1648SOL    HW1 5843   5.152   0.592   1.610 -0.4132 -0.6655 -0.2435
 1648SOL    HW2 5844   4.991   0.606   1.632 -0.1064  0.5863  1.4062
 1649SOL     OW 5845   5.097   0.858   3.049  0.1699  0.6402  0.1609
 1649SOL    HW1 5846   5.012   0.812   3.075 -0.7844  1.6605 -1.0213
 1649SOL    HW2 5847   5.173   0.795   3.060 -0.9783 -0.9534 -0.5640
 1650SOL     OW 5848   3.269   3.001   5.503  0.0641  0.3007  0.4833
 1650SOL    HW1 5849   3.357   2.956   5.491  0.5944  1.2611  0.7138
 1650SOL    HW2 5850   3.281   3.100   5.501 -1.0254  0.4488  0.4083
 1651SOL     OW 5851   1.373   4.857   6.213 -0.0108 -1.2699 -0.2596
 1651SOL    HW1 5852   1.436   4.781   6.197 -0.7509 -1.5878 -1.8445
 1651SOL    HW2 5853   1.354   4.903   6.126  0.5687  0.8671  0.6810
 1652SOL     OW 5854   1.865   2.835   4.021  0.3469  0.1587 -0.4231
 1652SOL    HW1 5855   1.830   2.771   3.953  0.5690  0.4764 -0.8340
 1652SOL    HW2 5856   1.965   2.839   4.015  0.2992  0.9398 -0.7545
 1653SOL     OW 5857   0.223   3.175   1.007 -0.3453  0.0500  0.1154
 1653SOL    HW1 5858   0.315   3.197   0.976 -0.9059  1.3824 -0.6804
 1653SOL    HW2 5859   0.161   3.250   0.983 -1.5918 -0.7131  0.8567
 1654SOL     OW 5860   1.559   2.348   2.681 -0.1368  0.1217 -0.3134
 1654SOL    HW1 5861   1.630   2.389   2.625 -0.3622  0.6928 -0.1841
 1654SOL    HW2 5862   1.510   2.279   2.628  2.0329 -2.0311  0.2653
 1655SOL     OW 5863   6.862   6.470   4.449  0.1639  0.1498  0.2385
 1655SOL    HW1 5864   6.875   6.548   4.511  0.2311 -0.3702  0.8822
 1655SOL    HW2 5865   6.765   6.460   4.429  0.0788 -0.0381  0.7323
 1656SOL     OW 5866   0.727   4.339   1.728  0.4870  0.2480  0.2925
 1656SOL    HW1 5867   0.729   4.437   1.747  1.1555  0.2490  0.2430
 1656SOL    HW2 5868   0.818   4.309   1.700  0.0025 -0.1462 -0.9144
 1657SOL     OW 5869   6.477   6.881   6.214  0.4133 -0.0030  0.0184
 1657SOL    HW1 5870   6.420   6.939   6.272  4.9622  4.1029  1.0006
 1657SOL    HW2 5871   6.492   6.793   6.259 -1.0846  0.6698  1.9639
 1658SOL     OW 5872   5.780   6.904   0.128 -0.2362  0.2506 -0.1201
 1658SOL    HW1 5873   5.745   6.830   0.185  0.5058  0.3948  0.5422
 1658SOL    HW2 5874   5.863   6.874   0.081 -1.0426  0.0117 -1.4312
 1659SOL     OW 5875   4.230   6.383   5.734 -0.1938 -0.4007 -0.3386
 1659SOL    HW1 5876   4.245   6.471   5.689 -1.1594  0.4836  0.9946
 1659SOL    HW2 5877   4.253   6.309   5.671  2.0943  0.7750 -0.9941
 1660SOL     OW 5878   1.169   1.330   1.067 -0.0900 -0.6745  0.1149
 1660SOL    HW1 5879   1.191   1.275   1.147  2.7454  2.3403  1.6725
 1660SOL    HW2 5880   1.095   1.393   1.089  3.1728  2.8985  2.0942
 1661SOL     OW 5881   5.418   5.077   3.342 -0.3243 -0.8507 -0.0297
 1661SOL    HW1 5882   5.322   5.049   3.343 -1.0692  1.4564 -0.8743
 1661SOL    HW2 5883   5.457   5.059   3.252 -0.5269 -0.1068 -0.2728
 1662SOL     OW 5884   6.595   2.075   3.480  0.0124 -0.3194 -0.0888
 1662SOL    HW1 5885   6.579   2.127   3.396  0.3564 -2.5331 -1.6122
 1662SOL    HW2 5886   6.527   2.101   3.549  0.3096  2.2416 -0.6478
 1663SOL     OW 5887   5.719   3.625   6.901  0.2591  0.5389 -0.0930
 1663SOL    HW1 5888   5.758   3.708   6.861 -0.1708  0.3122 -1.0299
 1663SOL    HW2 5889   5.792   3.559   6.918  0.5107  0.8239 -0.0554
 1664SOL     OW 5890   0.634   6.575   0.703 -0.4839 -0.3270 -0.5702
 1664SOL    HW1 5891   0.544   6.594   0.742  1.7473  2.2151  4.2850
 1664SOL    HW2 5892   0.669   6.488   0.740  0.4192  0.5491  0.7346
 1665SOL     OW 5893   1.470   3.775   6.791 -0.1584  0.2716 -0.0907
 1665SOL    HW1 5894   1.391   3.836   6.781 -1.7938 -1.2957  2.1280
 1665SOL    HW2 5895   1.511   3.759   6.701 -2.1341  1.4359 -1.2831
 1666SOL     OW 5896   5.339   0.076   6.070  0.1361  0.0185 -0.3332
 1666SOL    HW1 5897   5.417   0.045   6.125 -0.4526 -0.3830  0.2912
 1666SOL    HW2 5898   5.265   0.106   6.131 -0.9535 -1.4746 -0.8630
 1667SOL     OW 5899   6.688   4.261   6.513  0.0815 -0.2193 -0.0866
 1667SOL    HW1 5900   6.591   4.249   6.491 -0.7194  0.1954  2.8299
 1667SOL    HW2 5901   6.735   4.173   6.508 -0.1206 -0.2499 -2.6303
 1668SOL     OW 5902   5.553   4.541   0.854 -0.2017 -0.2543 -0.5097
 1668SOL    HW1 5903   5.456   4.558   0.871 -1.0544 -4.1183 -0.5478
 1668SOL    HW2 5904   5.570   4.535   0.756 -0.6323 -2.4338 -0.4976
 1669SOL     OW 5905   6.038   4.537   5.462  0.2828  0.5555 -0.1505
 1669SOL    HW1 5906   6.108   4.608   5.455  0.1294  0.5634 -2.1996
 1669SOL    HW2 5907   6.046   4.475   5.384 -0.2051 -1.1438  1.0930
 1670SOL     OW 5908   3.209   4.633   6.709  0.3212  0.2916  0.1878
 1670SOL    HW1 5909   3.206   4.543   6.751  1.1046  1.7519  3.7362
 1670SOL    HW2 5910   3.300   4.650   6.671 -0.1261 -0.7067 -1.4282
 1671SOL     OW 5911   6.537   2.053   0.865 -0.0409  0.1600  0.6228
 1671SOL    HW1 5912   6.508   1.976   0.808  0.1120  1.5005 -1.3670
 1671SOL    HW2 5913   6.621   2.029   0.913 -0.1416 -0.9954  0.2490
 1672SOL     OW 5914   6.998   3.781   1.286  0.1702 -0.2633 -0.2551
 1672SOL    HW1 5915   6.903   3.803   1.305  0.0285 -0.0879 -1.1069
 1672SOL    HW2 5916   7.052   3.865   1.278  0.2483 -0.3295 -0.4602
 1673SOL     OW 5917   1.149   6.878   3.592  0.5330 -0.0079  0.0365
 1673SOL    HW1 5918   1.086   6.865   3.669  1.0710  0.0761  0.4960
 1673SOL    HW2 5919   1.109   6.837   3.510  0.3594 -0.9243  0.5616
 1674SOL     OW 5920   4.892   1.784   2.668 -0.1423  0.0742  0.0154
 1674SOL    HW1 5921   4.854   1.730   2.593 -0.1863  4.0147 -3.1094
 1674SOL    HW2 5922   4.847   1.873   2.672  2.4857  1.4586  2.2397
 1675SOL     OW 5923   5.565   0.433   1.363  0.3654 -0.5723 -0.5325
 1675SOL    HW1 5924   5.633   0.502   1.385  1.0832 -1.5334  0.3634
 1675SOL    HW2 5925   5.600   0.342   1.387  0.3425 -1.5235 -3.6993
 1676SOL     OW 5926   7.002   3.320   2.240 -0.2375 -0.0271 -0.4117
 1676SOL    HW1 5927   7.060   3.238   2.244 -1.3820 -0.8273  0.5674
 1676SOL    HW2 5928   7.048   3.394   2.288 -0.2736 -0.8559  0.9847
 1677SOL     OW 5929   3.328   2.902   2.658  0.3514  0.3107  0.1350
 1677SOL    HW1 5930   3.270   2.953   2.722  0.0854  1.6772 -1.1422
 1677SOL    HW2 5931   3.381   2.835   2.708 -0.9997  0.2583  1.5878
 1678SOL     OW 5932   0.573   0.866   0.866 -0.3488 -0.4674 -0.1003
 1678SOL    HW1 5933   0.549   0.769   0.853 -0.3178 -0.5629  0.5337
 1678SOL    HW2 5934   0.490   0.920   0.877 -0.3806 -0.9945  3.5282
 1679SOL     OW 5935   6.810   3.980   6.174  0.2712 -0.5917  0.9278
 1679SOL    HW1 5936   6.835   4.073   6.150  1.2948 -1.1851 -0.4247
 1679SOL    HW2 5937   6.781   3.977   6.270 -1.0679  1.3316  0.6419
 1680SOL     OW 5938   6.372   2.886   3.492 -0.2662  0.1608  0.2040
 1680SOL    HW1 5939   6.365   2.799   3.445  0.4010  0.2908 -0.1482
 1680SOL    HW2 5940   6.408   2.955   3.430 -0.8992  0.7228  0.4435
 1681SOL     OW 5941   2.714   6.845   4.333 -0.0533  0.2017 -0.0310
 1681SOL    HW1 5942   2.668   6.762   4.300  0.3686  0.3104 -0.9249
 1681SOL    HW2 5943   2.765   6.824   4.417 -1.9882  0.1543  1.1964
 1682SOL     OW 5944   4.374   6.518   3.243  0.0943 -0.0266  0.1143
 1682SOL    HW1 5945   4.412   6.469   3.164  0.2384 -0.4076  0.4135
 1682SOL    HW2 5946   4.448   6.559   3.296  0.2144 -1.4938  1.1781
 1683SOL     OW 5947   6.113   5.866   2.985 -0.1576  0.1088  0.0544
 1683SOL    HW1 5948   6.032   5.906   3.027 -1.4177 -0.7328 -1.4355
 1683SOL    HW2 5949   6.127   5.906   2.894 -0.2300 -1.2793 -0.6045
 1684SOL     OW 5950   0.764   4.796   1.544  0.1062 -0.0510  0.4118
 1684SOL    HW1 5951   0.667   4.782   1.524 -0.2736  2.0218  0.5797
 1684SOL    HW2 5952   0.807   4.845   1.468  0.9470 -0.5948  0.5179
 1685SOL     OW 5953   0.270   1.944   0.266  0.3621  0.2425 -0.7559
 1685SOL    HW1 5954   0.299   2.015   0.201  1.4354 -0.5271 -1.1479
 1685SOL    HW2 5955   0.201   1.981   0.327  0.3639  1.4081 -1.4309
 1686SOL     OW 5956   4.309   5.528   2.183 -0.6991  0.2141 -0.3002
 1686SOL    HW1 5957   4.353   5.521   2.272 -0.3547 -0.2208 -0.4981
 1686SOL    HW2 5958   4.236   5.461   2.175 -1.1147  0.6384 -0.1373
 1687SOL     OW 5959   5.127   3.989   1.076 -0.2212  0.1219  0.3059
 1687SOL    HW1 5960   5.045   4.035   1.044  0.6563  2.1048  0.7591
 1687SOL    HW2 5961   5.117   3.965   1.173 -0.0741  0.8940  0.5215
 1688SOL     OW 5962   1.120   6.709   4.236 -0.0060 -0.7908  0.2248
 1688SOL    HW1 5963   1.195   6.731   4.298 -0.3236  0.5718  0.1473
 1688SOL    HW2 5964   1.042   6.768   4.256 -0.8302 -1.7351 -0.1349
 1689SOL     OW 5965   3.841   2.133   2.243  0.4260 -0.1327  0.0780
 1689SOL    HW1 5966   3.802   2.211   2.194 -0.4173  0.2125  1.2598
 1689SOL    HW2 5967   3.906   2.165   2.311  0.1076 -0.4552  0.5428
 1690SOL     OW 5968   5.666   5.880   3.521 -0.1891 -0.0557  0.0738
 1690SOL    HW1 5969   5.752   5.907   3.562 -0.2753  0.0543  0.1826
 1690SOL    HW2 5970   5.606   5.959   3.513 -0.1860 -0.0847 -0.2334
 1691SOL     OW 5971   3.550   2.225   6.449  0.4030  0.7025  0.0051
 1691SOL    HW1 5972   3.602   2.233   6.534 -2.6314  1.2680  1.9876
 1691SOL    HW2 5973   3.552   2.130   6.418  3.8561  0.9745 -0.9998
 1692SOL     OW 5974   3.936   3.341   6.396  0.4359 -0.0167  0.3146
 1692SOL    HW1 5975   3.879   3.259   6.408  0.0307  0.1767 -0.2557
 1692SOL    HW2 5976   4.032   3.314   6.387  0.6698 -0.2614  2.8410
 1693SOL     OW 5977   4.836   1.087   4.945 -0.9574 -0.3900  0.1367
 1693SOL    HW1 5978   4.825   0.993   4.979 -0.6068 -0.2352  0.6870
 1693SOL    HW2 5979   4.866   1.085   4.850  1.6527 -0.8846  0.9002
 1694SOL     OW 5980   4.049   1.677   5.524  0.4891  0.8581  0.4312
 1694SOL    HW1 5981   4.102   1.720   5.452  0.9284 -0.4090 -0.0288
 1694SOL    HW2 5982   4.110   1.632   5.589  0.0161 -0.8827 -0.2727
 1695SOL     OW 5983   3.458   6.523   5.611  0.2708  0.4479  0.1668
 1695SOL    HW1 5984   3.363   6.542   5.637  0.5011  1.1477  0.5189
 1695SOL    HW2 5985   3.468   6.533   5.512  0.1138  1.0094  0.2047
 1696SOL     OW 5986   5.260   6.700   6.652  0.3201 -0.5423  0.2682
 1696SOL    HW1 5987   5.200   6.741   6.584  1.1243 -1.5316 -1.0980
 1696SOL    HW2 5988   5.231   6.606   6.671  1.1459 -0.8805 -0.0753
 1697SOL     OW 5989   4.125   2.209   3.696 -0.0208 -0.3693 -0.0481
 1697SOL    HW1 5990   4.036   2.219   3.651 -0.0491 -0.0650  0.0725
 1697SOL    HW2 5991   4.153   2.113   3.694 -0.2831 -0.4421 -0.2194
 1698SOL     OW 5992   3.392   1.227   2.479 -0.3966 -0.5041  0.7646
 1698SOL    HW1 5993   3.450   1.240   2.559 -0.2568 -0.0496  0.5955
 1698SOL    HW2 5994   3.440   1.169   2.413  0.9542  1.8256 -0.4328
 1699SOL     OW 5995   2.283   0.327   6.768 -0.2934  0.1942  0.0710
 1699SOL    HW1 5996   2.257   0.235   6.739  2.0621 -0.6186  0.3263
 1699SOL    HW2 5997   2.254   0.342   6.862  0.3109 -0.7547  0.4260
 1700SOL     OW 5998   0.196   1.153   2.843 -0.1903 -0.7209 -0.1668
 1700SOL    HW1 5999   0.131   1.080   2.864  1.3367 -2.3664 -0.8550
 1700SOL    HW2 6000   0.215   1.207   2.925 -2.9736  0.3708 -0.1102
 1701SOL     OW 6001   6.104   0.355   4.136  0.0568 -0.4698  0.1313
 1701SOL    HW1 6002   6.120   0.259   4.163 -2.2570 -0.9463  0.0337
 1701SOL    HW2 6003   6.008   0.377   4.149  0.9408  2.6835  2.6459
 1702SOL     OW 6004   0.973   2.014   0.977  0.2033 -0.6064  0.2325
 1702SOL    HW1 6005   1.020   1.931   0.947 -0.4874 -0.7958 -0.3650
 1702SOL    HW2 6006   1.021   2.053   1.055  0.5157 -1.5959  0.5554
 1703SOL     OW 6007   1.653   6.933   2.301 -0.1216 -1.0619  0.0198
 1703SOL    HW1 6008   1.602   6.877   2.367  1.0193 -2.2906 -0.0900
 1703SOL    HW2 6009   1.616   6.919   2.210 -1.5817  0.4946  0.3297
 1704SOL     OW 6010   3.265   2.827   1.593 -0.1056 -0.3717 -0.3338
 1704SOL    HW1 6011   3.280   2.742   1.544 -0.7292 -0.2991 -0.6611
 1704SOL    HW2 6012   3.181   2.820   1.647  0.1723 -0.1840  0.1255
 1705SOL     OW 6013   4.743   2.519   1.228 -0.1369 -0.4591 -0.3526
 1705SOL    HW1 6014   4.678   2.543   1.300  1.5225  0.9378  0.7437
 1705SOL    HW2 6015   4.707   2.551   1.139 -0.9020  0.3741  0.2325
 1706SOL     OW 6016   0.793   3.563   6.958  0.3830 -0.0312 -0.5278
 1706SOL    HW1 6017   0.763   3.599   6.869 -1.0132  1.7605  0.5920
 1706SOL    HW2 6018   0.751   3.474   6.973 -2.4953  1.2338 -0.1843
 1707SOL     OW 6019   4.473   3.016   1.395  0.2151 -0.1034 -0.3040
 1707SOL    HW1 6020   4.466   2.921   1.425 -1.1391  0.2548  0.5853
 1707SOL    HW2 6021   4.397   3.038   1.333  1.1333  0.1116 -1.4028
 1708SOL     OW 6022   5.044   5.759   1.169  0.1142  0.0626 -0.0437
 1708SOL    HW1 6023   5.019   5.808   1.252 -3.0561  1.5778 -1.7068
 1708SOL    HW2 6024   4.990   5.675   1.162 -0.2792  0.3670 -0.9009
 1709SOL     OW 6025   3.975   5.684   0.797 -0.2860 -0.0785 -0.1556
 1709SOL    HW1 6026   3.946   5.588   0.789  1.7191 -0.7390  0.0841
 1709SOL    HW2 6027   3.953   5.718   0.889  0.9576 -1.0258  0.5174
 1710SOL     OW 6028   5.962   4.339   0.797  0.2986 -0.2839  0.0793
 1710SOL    HW1 6029   5.888   4.289   0.753 -1.1215  1.7470 -0.0105
 1710SOL    HW2 6030   5.934   4.434   0.812  2.0775  0.0205  2.0887
 1711SOL     OW 6031   4.164   2.303   0.354  0.1013  0.4510 -0.3022
 1711SOL    HW1 6032   4.080   2.349   0.385 -0.5850 -0.0249 -1.3618
 1711SOL    HW2 6033   4.139   2.219   0.304  1.1510  0.8081 -1.4826
 1712SOL     OW 6034   0.086   6.046   0.449 -0.1793  0.2623 -0.0993
 1712SOL    HW1 6035   0.169   5.989   0.449 -1.0699 -1.1031 -1.2292
 1712SOL    HW2 6036   0.095   6.117   0.379  0.0284  0.0889 -0.2513
 1713SOL     OW 6037   2.708   0.061   3.594  0.2534 -0.2854 -0.2599
 1713SOL    HW1 6038   2.782   0.118   3.628 -0.9042  1.9850 -1.2947
 1713SOL    HW2 6039   2.735   0.019   3.508  0.2192  0.9585 -0.9052
 1714SOL     OW 6040   3.384   2.013   1.554 -0.3351  0.3348  0.5055
 1714SOL    HW1 6041   3.478   2.025   1.585  0.6425 -1.9125 -1.3096
 1714SOL    HW2 6042   3.372   2.057   1.465 -0.0891 -1.8018 -0.6432
 1715SOL     OW 6043   2.626   5.693   1.414  0.3906 -0.2923  0.0852
 1715SOL    HW1 6044   2.540   5.717   1.459 -0.3160 -2.6595  0.1307
 1715SOL    HW2 6045   2.618   5.602   1.373  1.8601  0.6910 -2.6401
 1716SOL     OW 6046   4.145   6.953   2.616 -0.1435 -0.4706  0.5239
 1716SOL    HW1 6047   4.145   6.974   2.714  0.0603  0.0351  0.4162
 1716SOL    HW2 6048   4.239   6.950   2.582 -0.0985 -2.2434  0.6687
 1717SOL     OW 6049   1.850   6.151   3.658  0.2564 -0.4433 -0.8266
 1717SOL    HW1 6050   1.897   6.239   3.647  1.3502 -0.8304  0.4703
 1717SOL    HW2 6051   1.917   6.078   3.670 -0.6171 -1.5941 -2.4794
 1718SOL     OW 6052   0.005   1.123   2.054 -0.2029 -0.5889  0.1274
 1718SOL    HW1 6053   0.083   1.184   2.066 -0.8809 -0.2911  4.3403
 1718SOL    HW2 6054   0.037   1.029   2.052  0.3356 -0.5481  2.9424
 1719SOL     OW 6055   1.516   4.945   1.773  0.6229  0.0625  0.1363
 1719SOL    HW1 6056   1.544   5.035   1.740 -0.0309  0.3908  0.4391
 1719SOL    HW2 6057   1.446   4.907   1.712  1.4473 -0.5897 -0.4192
 1720SOL     OW 6058   6.509   3.917   0.361  0.0440  0.0988 -0.2559
 1720SOL    HW1 6059   6.505   3.836   0.419 -0.3185 -0.3782 -0.9236
 1720SOL    HW2 6060   6.505   3.889   0.265  1.9042  0.7737 -0.5775
 1721SOL     OW 6061   0.664   3.038   1.838 -0.3266 -0.2218  0.4819
 1721SOL    HW1 6062   0.727   2.961   1.829  1.2905  1.0912  0.0119
 1721SOL    HW2 6063   0.691   3.095   1.915 -1.1083  0.2334  0.4325
 1722SOL     OW 6064   2.369   1.700   5.800  0.0793 -0.5217  0.8144
 1722SOL    HW1 6065   2.364   1.788   5.846  1.9129  1.9927 -3.2102
 1722SOL    HW2 6066   2.293   1.692   5.735  0.9120 -1.0233 -0.1280
 1723SOL     OW 6067   4.347   3.935   0.170 -0.2514 -0.2045  0.0819
 1723SOL    HW1 6068   4.427   3.885   0.136 -0.7533 -1.1416  0.2378
 1723SOL    HW2 6069   4.265   3.905   0.120 -0.7819 -0.6013  1.1582
 1724SOL     OW 6070   6.080   3.611   0.924  0.2527 -0.2193 -0.1264
 1724SOL    HW1 6071   6.028   3.607   1.010 -0.6759 -0.9776 -0.7050
 1724SOL    HW2 6072   6.165   3.559   0.936  1.8715  2.5220  1.4062
 1725SOL     OW 6073   0.798   5.572   5.810  0.3469 -0.0172 -0.1941
 1725SOL    HW1 6074   0.896   5.580   5.827  0.2423  0.7057  0.1180
 1725SOL    HW2 6075   0.748   5.635   5.870 -0.2004  0.8107 -1.4764
 1726SOL     OW 6076   5.410   3.164   1.959  0.0682  0.3955 -0.2356
 1726SOL    HW1 6077   5.423   3.113   1.874  1.5648  1.5301 -0.7465
 1726SOL    HW2 6078   5.327   3.133   2.005  0.8996 -2.4850 -0.4881
 1727SOL     OW 6079   3.687   3.692   3.459 -1.0308  0.1409  0.0721
 1727SOL    HW1 6080   3.738   3.714   3.376 -0.3307 -1.6460  0.0044
 1727SOL    HW2 6081   3.660   3.777   3.504  0.4837  1.1388 -0.8118
 1728SOL     OW 6082   4.527   2.257   4.262 -0.3194  0.1997 -0.4834
 1728SOL    HW1 6083   4.592   2.308   4.205 -0.0563  0.4944  0.0582
 1728SOL    HW2 6084   4.436   2.260   4.221 -0.4586  1.6843 -0.1566
 1729SOL     OW 6085   6.993   1.333   3.482 -0.3716 -0.5373  0.2024
 1729SOL    HW1 6086   7.083   1.337   3.524 -0.4504 -2.2187  0.5986
 1729SOL    HW2 6087   6.927   1.383   3.539  0.3311  1.0352 -0.2905
 1730SOL     OW 6088   2.674   0.252   4.917 -0.5044 -0.1445  0.0903
 1730SOL    HW1 6089   2.761   0.299   4.932  0.1303 -1.1844 -0.2238
 1730SOL    HW2 6090   2.629   0.237   5.005  0.1445 -0.5293  0.3690
 1731SOL     OW 6091   6.057   3.877   1.349  0.3100  0.2307 -0.4358
 1731SOL    HW1 6092   6.122   3.888   1.424  0.5366  1.0581 -0.7475
 1731SOL    HW2 6093   5.964   3.875   1.386  0.4917 -1.1584  0.0297
 1732SOL     OW 6094   1.823   2.833   0.093 -0.4865 -0.0802  0.2087
 1732SOL    HW1 6095   1.894   2.775   0.131 -0.1494 -1.6495 -2.5935
 1732SOL    HW2 6096   1.839   2.928   0.121  2.6230 -0.3917 -0.2255
 1733SOL     OW 6097   3.755   1.783   4.476  0.5361 -0.3674 -0.3873
 1733SOL    HW1 6098   3.855   1.776   4.481  0.4662 -1.4761 -0.3247
 1733SOL    HW2 6099   3.728   1.878   4.490  1.4253 -0.4725  2.8301
 1734SOL     OW 6100   6.483   3.726   1.488  0.5000  0.3442 -0.5145
 1734SOL    HW1 6101   6.524   3.692   1.573 -2.1216 -0.8397  0.3902
 1734SOL    HW2 6102   6.430   3.653   1.445  0.6820  1.3166 -2.5023
 1735SOL     OW 6103   4.323   5.861   5.517 -0.2542 -0.6451 -0.5300
 1735SOL    HW1 6104   4.278   5.889   5.602 -0.3591  0.9276 -1.0687
 1735SOL    HW2 6105   4.276   5.902   5.439  0.0420 -1.8004 -1.3404
 1736SOL     OW 6106   4.202   3.279   6.370  0.4519 -0.3548  0.0835
 1736SOL    HW1 6107   4.215   3.207   6.438  0.5868  0.0408  0.4837
 1736SOL    HW2 6108   4.253   3.360   6.398 -0.7103  0.3248  0.2818
 1737SOL     OW 6109   2.527   2.530   4.350  0.1814  0.6923  0.7370
 1737SOL    HW1 6110   2.554   2.479   4.431 -0.7605  1.0055  1.2579
 1737SOL    HW2 6111   2.463   2.603   4.376  0.1296  1.0082 -0.2384
 1738SOL     OW 6112   2.001   5.205   4.710  0.1463 -0.4848  0.1736
 1738SOL    HW1 6113   1.925   5.146   4.685  0.3609 -1.8528  2.4968
 1738SOL    HW2 6114   2.081   5.149   4.731  1.2761  0.8389 -0.4330
 1739SOL     OW 6115   0.777   0.643   3.766 -0.0900 -0.3631  0.3611
 1739SOL    HW1 6116   0.785   0.660   3.668  0.3022  1.7045  0.7176
 1739SOL    HW2 6117   0.700   0.582   3.783 -1.1623  0.5368 -1.1071
 1740SOL     OW 6118   6.344   2.673   4.234  0.0419 -0.1345  0.7794
 1740SOL    HW1 6119   6.344   2.762   4.279  2.1034  0.1495  0.3287
 1740SOL    HW2 6120   6.427   2.623   4.259 -0.9438 -1.8337  0.8050
 1741SOL     OW 6121   0.308   2.097   5.258  0.0414 -0.6830 -0.3875
 1741SOL    HW1 6122   0.303   2.135   5.165 -0.5849 -0.6400 -0.3382
 1741SOL    HW2 6123   0.255   2.155   5.320  1.1193 -0.2491  0.1594
 1742SOL     OW 6124   5.763   0.108   4.658  0.1245 -0.3856  0.4590
 1742SOL    HW1 6125   5.852   0.143   4.687 -0.2064  0.2432  0.7313
 1742SOL    HW2 6126   5.746   0.019   4.701  1.2409 -1.1990 -0.7236
 1743SOL     OW 6127   0.898   2.837   1.815 -0.7213 -0.0039 -0.1487
 1743SOL    HW1 6128   0.880   2.807   1.722  0.4770  0.3761 -0.5114
 1743SOL    HW2 6129   0.918   2.758   1.873 -0.0160 -0.1147 -0.5426
 1744SOL     OW 6130   4.239   1.778   4.073 -0.3856  0.1546 -0.7770
 1744SOL    HW1 6131   4.322   1.729   4.046 -1.2562 -1.6346 -0.3409
 1744SOL    HW2 6132   4.186   1.722   4.137 -0.9399  2.1061  0.5860
 1745SOL     OW 6133   6.235   6.839   0.895  0.2572  0.1297  0.2634
 1745SOL    HW1 6134   6.314   6.875   0.844 -1.0668  1.3684 -1.0040
 1745SOL    HW2 6135   6.237   6.875   0.989  1.0961  0.2959  0.1927
 1746SOL     OW 6136   2.208   5.115   3.225 -0.0484 -0.0022  0.2399
 1746SOL    HW1 6137   2.170   5.055   3.155 -0.4306 -1.7127  1.8540
 1746SOL    HW2 6138   2.154   5.199   3.230 -0.5632 -0.2498 -0.8736
 1747SOL     OW 6139   3.376   6.407   2.106 -0.2501 -0.4913 -0.0136
 1747SOL    HW1 6140   3.397   6.457   2.022  2.6474  0.0107  0.9053
 1747SOL    HW2 6141   3.312   6.333   2.085 -0.2070  0.0685 -2.4917
 1748SOL     OW 6142   0.433   1.210   4.891  0.3325  0.3588  0.3298
 1748SOL    HW1 6143   0.396   1.124   4.925  0.9269 -0.0010  0.0899
 1748SOL    HW2 6144   0.491   1.193   4.811  0.7231  0.9376  0.4766
 1749SOL     OW 6145   3.158   0.179   0.112 -0.4751  0.0049  0.4370
 1749SOL    HW1 6146   3.086   0.249   0.110 -1.0574 -0.5650  0.8904
 1749SOL    HW2 6147   3.139   0.111   0.041  1.9214  2.0122 -2.3875
 1750SOL     OW 6148   2.298   6.647   0.582 -0.0235 -0.2551 -0.1319
 1750SOL    HW1 6149   2.389   6.683   0.559  0.2060 -0.8143 -0.1306
 1750SOL    HW2 6150   2.232   6.677   0.514 -0.0596  1.0534  0.4560
 1751SOL     OW 6151   6.632   2.553   4.614  0.2719  0.3378  0.0243
 1751SOL    HW1 6152   6.636   2.606   4.530  1.0769  0.2331 -0.0127
 1751SOL    HW2 6153   6.630   2.614   4.693 -2.1658  0.4867 -0.0784
 1752SOL     OW 6154   5.847   0.931   1.144  0.2414  0.4061  0.1375
 1752SOL    HW1 6155   5.789   0.935   1.226  1.2209 -0.1634  0.8931
 1752SOL    HW2 6156   5.819   0.854   1.087 -0.6201  0.9662 -0.2140
 1753SOL     OW 6157   6.270   1.793   2.531 -0.0752  0.0725  0.6677
 1753SOL    HW1 6158   6.265   1.693   2.529 -0.2942  0.0857  0.5055
 1753SOL    HW2 6159   6.357   1.821   2.571  0.0662 -0.1843  0.5436
 1754SOL     OW 6160   3.556   4.955   2.850  0.2350 -0.4591 -0.2412
 1754SOL    HW1 6161   3.479   4.909   2.807  0.5198 -0.5834 -0.6189
 1754SOL    HW2 6162   3.522   5.013   2.925 -0.1566 -1.0035  0.0086
 1755SOL     OW 6163   5.452   0.361   5.696  0.3236 -0.4715 -0.3016
 1755SOL    HW1 6164   5.373   0.389   5.751  0.6826 -0.7602  0.3703
 1755SOL    HW2 6165   5.446   0.264   5.675  0.7128 -0.5856  0.1089
 1756SOL     OW 6166   5.385   0.621   5.862  0.3792 -0.1423  0.1149
 1756SOL    HW1 6167   5.482   0.629   5.885  0.2969 -0.3303  0.5393
 1756SOL    HW2 6168   5.369   0.656   5.770  0.5008  1.9031  0.8061
 1757SOL     OW 6169   2.457   6.063   4.830  0.0767  0.0848  0.4152
 1757SOL    HW1 6170   2.466   6.044   4.732 -0.9620 -3.1815  0.8158
 1757SOL    HW2 6171   2.541   6.038   4.877  0.0122  0.1085  0.5440
 1758SOL     OW 6172   1.224   4.373   2.536 -0.0920 -0.1269  0.1901
 1758SOL    HW1 6173   1.127   4.367   2.515  0.0582  0.3674 -0.6969
 1758SOL    HW2 6174   1.275   4.311   2.477  0.0342 -1.4441  1.5958
 1759SOL     OW 6175   6.785   5.840   0.382 -0.1190 -0.4106  0.4296
 1759SOL    HW1 6176   6.874   5.806   0.352 -0.4412 -0.1384 -0.9395
 1759SOL    HW2 6177   6.768   5.929   0.339 -1.6725 -1.1350 -0.5675
 1760SOL     OW 6178   5.535   2.169   3.742  0.4304  0.6679 -0.4925
 1760SOL    HW1 6179   5.492   2.088   3.783 -0.0619  1.7397  1.1900
 1760SOL    HW2 6180   5.635   2.160   3.749  0.3639  0.6055  0.5136
 1761SOL     OW 6181   5.968   0.704   1.644 -0.4608  0.2790 -0.6071
 1761SOL    HW1 6182   5.871   0.690   1.664  0.1741 -0.8118  2.0284
 1761SOL    HW2 6183   6.012   0.616   1.627  0.0294  0.8000 -2.2548
 1762SOL     OW 6184   5.898   1.158   5.296 -0.5340 -0.1775  0.2239
 1762SOL    HW1 6185   5.854   1.183   5.382 -1.1375  0.6841 -0.3220
 1762SOL    HW2 6186   5.853   1.077   5.258 -0.5743 -0.2782  0.4879
 1763SOL     OW 6187   1.762   3.752   3.921  0.5867 -0.2048 -0.0696
 1763SOL    HW1 6188   1.761   3.656   3.894 -0.3243 -0.4107  0.6323
 1763SOL    HW2 6189   1.691   3.768   3.990  1.1529  0.8359  0.2979
 1764SOL     OW 6190   0.293   4.534   3.781  0.0370  0.5868  0.7166
 1764SOL    HW1 6191   0.341   4.507   3.697 -1.2536  0.4729 -0.0238
 1764SOL    HW2 6192   0.273   4.452   3.835  0.5973  0.6248  0.9818
 1765SOL     OW 6193   4.916   3.596   3.062 -0.1616  0.1302 -0.1326
 1765SOL    HW1 6194   4.958   3.657   2.995 -0.9597  1.1190  0.2530
 1765SOL    HW2 6195   4.892   3.510   3.017  1.1906 -0.0291 -0.6224
 1766SOL     OW 6196   5.790   5.708   3.320  0.1649  0.4556 -0.2555
 1766SOL    HW1 6197   5.765   5.788   3.374 -0.2899 -0.0919  0.3549
 1766SOL    HW2 6198   5.874   5.668   3.355  0.4736  0.7419 -0.6535
 1767SOL     OW 6199   5.988   4.282   2.119  0.0063 -0.7903  0.1322
 1767SOL    HW1 6200   5.986   4.375   2.156  0.4115 -0.7875  0.1448
 1767SOL    HW2 6201   5.994   4.286   2.019  2.0013 -0.7893  0.2139
 1768SOL     OW 6202   5.584   3.660   1.014  0.2003  0.3670 -0.2908
 1768SOL    HW1 6203   5.625   3.743   1.050 -0.6857  0.2156  1.1620
 1768SOL    HW2 6204   5.625   3.580   1.059 -0.5074  0.1415 -0.0183
 1769SOL     OW 6205   0.651   0.781   0.572  0.8573  0.2819  0.1449
 1769SOL    HW1 6206   0.562   0.824   0.585  0.6214  0.1876 -1.0493
 1769SOL    HW2 6207   0.653   0.692   0.619  0.5862  0.6086  0.7836
 1770SOL     OW 6208   2.084   4.468   0.279  0.9063 -0.0102 -0.3266
 1770SOL    HW1 6209   1.993   4.452   0.316  0.8736  0.3292 -0.2593
 1770SOL    HW2 6210   2.149   4.486   0.353  0.9906 -0.0703 -0.3850
 1771SOL     OW 6211   1.185   2.503   6.032 -0.0701  0.6537 -0.6931
 1771SOL    HW1 6212   1.226   2.412   6.040  1.7824  1.3792 -1.1995
 1771SOL    HW2 6213   1.226   2.563   6.101 -0.7508  1.2738 -0.8235
 1772SOL     OW 6214   5.957   3.681   1.573 -0.2330  0.2782 -0.1567
 1772SOL    HW1 6215   5.925   3.776   1.580 -1.4745 -0.0262 -1.2741
 1772SOL    HW2 6216   5.879   3.621   1.552  0.2621 -1.2229  1.9250
 1773SOL     OW 6217   2.676   0.461   6.926 -0.1905 -0.0570 -0.3126
 1773SOL    HW1 6218   2.742   0.474   7.000  1.5839  0.1127 -1.8491
 1773SOL    HW2 6219   2.711   0.393   6.862 -0.3258  1.7972 -2.4572
 1774SOL     OW 6220   4.724   6.015   6.906 -0.0518  0.5386 -0.1945
 1774SOL    HW1 6221   4.668   6.000   6.987 -0.7978  2.3001 -0.3325
 1774SOL    HW2 6222   4.817   6.036   6.932  0.2446 -0.9760  0.0899
 1775SOL     OW 6223   1.743   4.912   0.213  0.3612  0.3662 -0.2590
 1775SOL    HW1 6224   1.689   4.981   0.262  0.1532 -1.0575  1.6092
 1775SOL    HW2 6225   1.824   4.890   0.267 -1.5550 -3.7149  1.3267
 1776SOL     OW 6226   4.782   2.925   5.562  0.0846 -0.1382 -0.6026
 1776SOL    HW1 6227   4.817   3.007   5.516 -0.0923  0.1341 -0.2588
 1776SOL    HW2 6228   4.736   2.866   5.495  3.0408 -1.5682 -1.5269
 1777SOL     OW 6229   4.311   6.254   5.143 -0.1100  0.0536 -0.9376
 1777SOL    HW1 6230   4.245   6.325   5.167  0.9422  0.7146  0.0866
 1777SOL    HW2 6231   4.365   6.285   5.064 -0.3493 -0.0657 -1.1503
 1778SOL     OW 6232   5.582   0.912   3.774 -0.3607 -0.2733  0.4192
 1778SOL    HW1 6233   5.643   0.890   3.698 -0.0032 -0.4418  0.7580
 1778SOL    HW2 6234   5.501   0.959   3.738  0.1152  0.2439  0.0090
 1779SOL     OW 6235   3.780   0.897   4.432  0.1708  0.2581 -0.1829
 1779SOL    HW1 6236   3.686   0.888   4.400  0.4501  1.5162 -1.4075
 1779SOL    HW2 6237   3.822   0.979   4.394  2.4416 -1.3259 -1.3679
 1780SOL     OW 6238   2.588   5.886   6.307  0.5105  0.1730  0.1220
 1780SOL    HW1 6239   2.668   5.828   6.318 -0.2166 -0.8026  0.4341
 1780SOL    HW2 6240   2.543   5.865   6.220  0.7795  0.9591 -0.2132
 1781SOL     OW 6241   5.695   0.166   5.847  0.0091 -0.3553 -0.2535
 1781SOL    HW1 6242   5.626   0.236   5.862 -0.3558 -0.9071  0.7023
 1781SOL    HW2 6243   5.779   0.190   5.897 -0.8169 -1.6114  1.8446
 1782SOL     OW 6244   6.883   2.331   1.796  0.8321  0.2661  0.0145
 1782SOL    HW1 6245   6.881   2.245   1.744  1.2515  0.4528 -0.3175
 1782SOL    HW2 6246   6.847   2.315   1.888 -0.4235  0.0370 -0.4830
 1783SOL     OW 6247   0.310   3.466   1.199 -0.2932 -0.0835  0.2202
 1783SOL    HW1 6248   0.241   3.412   1.249 -0.0310 -1.4988 -0.8683
 1783SOL    HW2 6249   0.286   3.468   1.101  0.1776  1.0721  0.1131
 1784SOL     OW 6250   2.035   5.530   2.967 -0.2604 -0.4311  0.2836
 1784SOL    HW1 6251   1.938   5.546   2.949 -0.0101 -0.9245 -1.7368
 1784SOL    HW2 6252   2.082   5.507   2.882  1.4763 -1.0912  1.3510
 1785SOL     OW 6253   0.837   4.200   6.134  0.0428  0.2352 -0.2169
 1785SOL    HW1 6254   0.848   4.101   6.143  0.4697  0.2674 -0.3730
 1785SOL    HW2 6255   0.749   4.220   6.091  0.1662 -0.0948 -0.6291
 1786SOL     OW 6256   3.367   5.435   2.507  0.5354  0.3635  0.1226
 1786SOL    HW1 6257   3.348   5.351   2.558 -0.7963 -0.6044 -1.8168
 1786SOL    HW2 6258   3.343   5.514   2.563  1.3471 -0.5344  1.8182
 1787SOL     OW 6259   1.780   3.618   5.029 -0.2666 -0.1988 -0.2340
 1787SOL    HW1 6260   1.790   3.649   4.934 -0.8993 -1.1582 -0.6347
 1787SOL    HW2 6261   1.719   3.680   5.078  0.3786  0.5305 -0.3292
 1788SOL     OW 6262   4.928   3.780   6.390 -0.1350  0.1493 -0.0022
 1788SOL    HW1 6263   4.857   3.795   6.321 -1.5466  1.2081  1.6142
 1788SOL    HW2 6264   4.912   3.693   6.437  0.5253 -0.3214 -0.6228
 1789SOL     OW 6265   5.358   1.030   2.970 -0.3528  0.5727 -0.6619
 1789SOL    HW1 6266   5.276   1.085   2.959 -1.8663 -1.5140 -0.3838
 1789SOL    HW2 6267   5.356   0.983   3.058  2.4117  2.3994  0.5115
 1790SOL     OW 6268   1.486   0.736   3.860  0.2343  0.3349  0.5389
 1790SOL    HW1 6269   1.398   0.744   3.812  0.7780  1.0036 -0.3949
 1790SOL    HW2 6270   1.470   0.723   3.957 -0.9103 -0.7575  0.2312
 1791SOL     OW 6271   4.992   0.522   5.820  0.0324  0.0479  0.4657
 1791SOL    HW1 6272   4.906   0.535   5.871  0.1073 -0.4415  0.7204
 1791SOL    HW2 6273   5.037   0.611   5.808  0.5319  0.0643  2.1901
 1792SOL     OW 6274   1.110   2.576   5.764  0.0245 -0.1432  0.2023
 1792SOL    HW1 6275   1.139   2.536   5.851  0.1469 -0.0389  0.2087
 1792SOL    HW2 6276   1.125   2.675   5.766  1.5014 -0.3363 -0.5312
 1793SOL     OW 6277   1.084   0.987   6.230  0.0353  0.1463  0.2801
 1793SOL    HW1 6278   1.129   1.071   6.201 -1.1472  0.7757  0.2217
 1793SOL    HW2 6279   1.003   1.009   6.286 -1.7682 -0.8326 -1.7939
 1794SOL     OW 6280   1.656   0.261   5.403 -0.0771 -0.0231 -0.2514
 1794SOL    HW1 6281   1.565   0.291   5.373 -0.2534  0.6719  0.9324
 1794SOL    HW2 6282   1.725   0.326   5.372 -0.2747  0.7703  0.9231
 1795SOL     OW 6283   5.532   4.056   1.437 -0.0191 -0.7557  1.1894
 1795SOL    HW1 6284   5.559   4.000   1.359  1.4706 -1.4110  2.1405
 1795SOL    HW2 6285   5.476   4.132   1.405  0.8179 -0.8249 -0.5614
 1796SOL     OW 6286   6.901   5.399   6.861 -0.0281 -0.2447 -0.5054
 1796SOL    HW1 6287   6.862   5.447   6.939  0.2684 -1.8540  0.6851
 1796SOL    HW2 6288   6.856   5.430   6.777  1.0504  2.9930 -0.0071
 1797SOL     OW 6289   2.560   6.144   5.423 -0.0234  0.4290  0.3757
 1797SOL    HW1 6290   2.519   6.096   5.346 -1.8326  1.4325  0.6555
 1797SOL    HW2 6291   2.562   6.084   5.503  1.9664 -0.6551 -0.3989
 1798SOL     OW 6292   2.604   5.017   5.436 -0.1445  0.7540  0.6375
 1798SOL    HW1 6293   2.571   4.954   5.365  1.2098  0.0484  0.6077
 1798SOL    HW2 6294   2.527   5.044   5.494 -0.4518 -3.1825  2.4412
 1799SOL     OW 6295   3.371   0.648   0.562  0.1252 -0.6957 -0.3046
 1799SOL    HW1 6296   3.462   0.616   0.587 -0.6788 -2.5899  0.4615
 1799SOL    HW2 6297   3.344   0.609   0.474  0.4650  0.7900 -1.0998
 1800SOL     OW 6298   4.739   4.236   5.881 -0.0141 -0.4564 -0.1299
 1800SOL    HW1 6299   4.810   4.266   5.817  0.1103 -1.0960 -0.3022
 1800SOL    HW2 6300   4.684   4.164   5.839  0.3179 -1.1694  0.6101
 1801SOL     OW 6301   1.833   0.074   3.575 -0.2785 -0.9078 -0.7877
 1801SOL    HW1 6302   1.909   0.024   3.534  0.3725 -0.2758 -0.3615
 1801SOL    HW2 6303   1.854   0.172   3.577 -0.6674 -0.8307  0.2658
 1802SOL     OW 6304   0.366   3.997   4.974  0.3386  0.3189  0.4525
 1802SOL    HW1 6305   0.426   4.067   5.014  1.4371 -0.5692  0.4207
 1802SOL    HW2 6306   0.403   3.968   4.886 -0.2201 -0.1572  0.3675
 1803SOL     OW 6307   1.298   0.918   2.333  0.4758  0.3453 -0.4696
 1803SOL    HW1 6308   1.320   0.967   2.249  2.0439 -0.3155 -0.4887
 1803SOL    HW2 6309   1.200   0.922   2.350  0.1752  0.7790 -2.1497
 1804SOL     OW 6310   2.645   1.026   5.551 -0.5144 -0.1934  0.8040
 1804SOL    HW1 6311   2.705   0.961   5.503 -0.7454 -0.4267  0.8255
 1804SOL    HW2 6312   2.693   1.066   5.628 -0.5946 -0.8679  1.2100
 1805SOL     OW 6313   4.675   3.205   1.368 -0.3073 -0.5378 -0.0709
 1805SOL    HW1 6314   4.609   3.141   1.405 -0.0310  0.4319  2.2698
 1805SOL    HW2 6315   4.627   3.287   1.335 -0.7643 -2.1489 -3.9510
 1806SOL     OW 6316   6.061   0.457   1.976  0.0690 -0.8839 -0.5482
 1806SOL    HW1 6317   5.994   0.531   1.972 -0.9960 -1.8356 -0.7486
 1806SOL    HW2 6318   6.133   0.481   2.042  0.1090  0.5974 -1.0865
 1807SOL     OW 6319   4.602   1.984   4.092 -0.0436  0.1881 -0.0573
 1807SOL    HW1 6320   4.646   1.905   4.136 -0.9181  0.9955  2.3937
 1807SOL    HW2 6321   4.673   2.046   4.058  0.7461  0.5265  2.0717
 1808SOL     OW 6322   4.429   2.720   6.808 -0.2905 -0.1340 -0.0817
 1808SOL    HW1 6323   4.466   2.784   6.740  1.0597 -1.4877 -0.6875
 1808SOL    HW2 6324   4.478   2.733   6.895  0.3052 -0.6091 -0.3329
 1809SOL     OW 6325   6.457   6.699   4.406  0.1994 -0.0644 -0.2413
 1809SOL    HW1 6326   6.434   6.796   4.394 -2.4091 -0.4339  1.0499
 1809SOL    HW2 6327   6.513   6.688   4.488  0.7658  0.3564 -0.5627
 1810SOL     OW 6328   6.865   0.940   3.305 -0.1305 -0.6848 -0.4576
 1810SOL    HW1 6329   6.767   0.920   3.312 -0.1631 -0.7089 -0.9749
 1810SOL    HW2 6330   6.878   1.023   3.250 -0.0690  1.3426  2.3708
 1811SOL     OW 6331   4.540   4.429   3.609  0.3379  0.0373 -0.2236
 1811SOL    HW1 6332   4.447   4.452   3.581 -0.0742 -1.0220  0.2250
 1811SOL    HW2 6333   4.590   4.393   3.530  0.2603  0.2890 -0.3887
 1812SOL     OW 6334   5.729   5.442   5.631  0.4933 -0.4214  0.6949
 1812SOL    HW1 6335   5.750   5.506   5.557 -1.6012 -0.5861 -0.0900
 1812SOL    HW2 6336   5.778   5.470   5.714  1.4260  0.8319 -0.2460
 1813SOL     OW 6337   4.892   4.084   1.407  0.1334  0.2266  0.2533
 1813SOL    HW1 6338   4.910   4.149   1.481  0.7019 -0.8909  1.1241
 1813SOL    HW2 6339   4.976   4.035   1.385 -0.6372 -1.3810  0.7621
 1814SOL     OW 6340   0.542   5.559   0.716  0.1323  0.6670  0.0084
 1814SOL    HW1 6341   0.589   5.632   0.665 -1.4505  2.6622  1.2624
 1814SOL    HW2 6342   0.598   5.532   0.794 -0.4106  2.6172  1.1577
 1815SOL     OW 6343   3.350   6.038   3.031  0.2998  1.1862  0.2300
 1815SOL    HW1 6344   3.343   6.079   3.122 -0.2994  1.9496 -0.1518
 1815SOL    HW2 6345   3.419   6.085   2.977  2.3280 -0.7102  1.0132
 1816SOL     OW 6346   4.151   6.002   5.022 -0.2083  1.0099 -0.0649
 1816SOL    HW1 6347   4.227   6.052   5.063  0.2003  0.0149  0.4473
 1816SOL    HW2 6348   4.068   6.019   5.074  0.5238 -1.1086  1.9826
 1817SOL     OW 6349   0.396   3.163   3.266 -0.2087  0.7895 -0.1514
 1817SOL    HW1 6350   0.307   3.205   3.251 -0.9265 -0.9263 -0.9380
 1817SOL    HW2 6351   0.433   3.130   3.179  0.1844 -0.4144  0.4404
 1818SOL     OW 6352   2.479   0.797   6.592  0.8307  0.4048 -0.5280
 1818SOL    HW1 6353   2.475   0.776   6.494  0.0598  1.2341 -0.6864
 1818SOL    HW2 6354   2.472   0.895   6.606 -1.0672  0.1746  0.4509
 1819SOL     OW 6355   6.777   4.306   3.757  0.4035  0.0822 -0.4249
 1819SOL    HW1 6356   6.812   4.399   3.770  2.6413 -0.6911 -0.5015
 1819SOL    HW2 6357   6.684   4.311   3.721  0.2016  2.2769  0.2106
 1820SOL     OW 6358   2.651   6.136   3.124  0.1993  0.1267 -0.3316
 1820SOL    HW1 6359   2.556   6.121   3.097  0.5250  0.7008 -1.8568
 1820SOL    HW2 6360   2.658   6.222   3.174 -0.4954 -1.2004  2.2291
 1821SOL     OW 6361   4.500   1.361   2.243 -0.1047  0.1201 -0.2265
 1821SOL    HW1 6362   4.454   1.426   2.304  0.1140  0.3975 -0.3536
 1821SOL    HW2 6363   4.461   1.270   2.255 -0.9389  0.4229 -0.5982
 1822SOL     OW 6364   1.044   3.199   3.241 -0.3466  0.0550 -0.0647
 1822SOL    HW1 6365   0.996   3.118   3.275  1.0835 -0.8707 -0.1468
 1822SOL    HW2 6366   0.987   3.245   3.173 -1.1894 -0.9110 -0.0385
 1823SOL     OW 6367   3.717   6.836   2.416 -0.1171 -0.1145 -0.1002
 1823SOL    HW1 6368   3.758   6.900   2.481 -1.4454  0.3749  0.2876
 1823SOL    HW2 6369   3.779   6.759   2.401  0.6599  0.2952  0.9212
 1824SOL     OW 6370   4.164   2.258   2.105 -0.4653  0.2924 -0.1253
 1824SOL    HW1 6371   4.130   2.179   2.156 -1.0211  0.0999 -0.7798
 1824SOL    HW2 6372   4.090   2.296   2.050 -0.2322  1.3468  0.2626
 1825SOL     OW 6373   3.091   1.755   6.874 -0.2004 -0.1195  0.2901
 1825SOL    HW1 6374   3.191   1.749   6.865 -0.2088 -0.0771  0.1624
 1825SOL    HW2 6375   3.059   1.839   6.831 -0.6592 -1.7482 -2.8810
 1826SOL     OW 6376   3.486   0.943   6.997  0.0416  0.3876  0.1941
 1826SOL    HW1 6377   3.461   0.848   6.978 -0.9757  0.8721 -1.0153
 1826SOL    HW2 6378   3.550   0.975   6.927  0.9936  0.3684  1.0405
 1827SOL     OW 6379   5.176   0.236   2.912 -0.2687  0.4662  0.3685
 1827SOL    HW1 6380   5.235   0.246   2.832 -0.1731 -0.6686  0.2686
 1827SOL    HW2 6381   5.144   0.325   2.942  1.4922  1.1125  0.4277
 1828SOL     OW 6382   2.433   2.785   5.583 -0.4090 -0.1572 -0.7751
 1828SOL    HW1 6383   2.394   2.737   5.661 -0.8862  0.5133 -0.5918
 1828SOL    HW2 6384   2.366   2.849   5.546  0.2162  0.3763 -1.0089
 1829SOL     OW 6385   4.669   0.632   1.358 -0.0276  0.1658  0.4879
 1829SOL    HW1 6386   4.604   0.645   1.283  1.6895  0.9863 -0.9520
 1829SOL    HW2 6387   4.622   0.594   1.437 -1.8360 -1.2756 -1.1694
 1830SOL     OW 6388   5.266   1.536   5.820  0.2684  0.0135 -0.2121
 1830SOL    HW1 6389   5.239   1.626   5.855 -0.1816 -0.4999  0.7951
 1830SOL    HW2 6390   5.227   1.523   5.729  1.0301  1.1642 -0.7250
 1831SOL     OW 6391   3.053   2.849   1.753  0.2042  0.1637 -0.1398
 1831SOL    HW1 6392   3.087   2.939   1.778 -1.0731  0.6787 -0.2186
 1831SOL    HW2 6393   3.069   2.785   1.828  0.9570  0.4907 -0.0195
 1832SOL     OW 6394   2.835   1.180   5.746 -0.5003  1.0227  0.3778
 1832SOL    HW1 6395   2.799   1.264   5.705 -1.3910  0.6135  0.3147
 1832SOL    HW2 6396   2.935   1.187   5.751 -0.0491  0.3139 -3.7931
 1833SOL     OW 6397   0.667   1.575   6.630 -0.0411 -0.0493 -0.1185
 1833SOL    HW1 6398   0.761   1.545   6.645 -0.4379 -2.0773 -1.2640
 1833SOL    HW2 6399   0.666   1.649   6.563  0.8242  1.1923  1.1779
 1834SOL     OW 6400   1.148   3.284   0.490 -0.0154  0.1900  0.5007
 1834SOL    HW1 6401   1.139   3.363   0.551  0.6051 -0.6886  1.7706
 1834SOL    HW2 6402   1.121   3.201   0.539  0.1023 -0.4884 -0.5638
 1835SOL     OW 6403   6.075   5.564   2.870  0.4520 -0.2841  0.3614
 1835SOL    HW1 6404   6.133   5.491   2.832  0.8193  0.3346 -0.3052
 1835SOL    HW2 6405   6.060   5.633   2.800  0.4953  0.5077  1.1188
 1836SOL     OW 6406   6.047   2.514   2.304  0.0336 -0.6261  0.1621
 1836SOL    HW1 6407   5.957   2.519   2.261  0.8059 -1.9135 -1.7363
 1836SOL    HW2 6408   6.079   2.420   2.304  1.0735 -0.3193  1.5706
 1837SOL     OW 6409   4.471   1.401   6.964  0.1065 -0.3404  0.5126
 1837SOL    HW1 6410   4.558   1.417   7.012 -0.2977  1.2300  0.7731
 1837SOL    HW2 6411   4.427   1.319   7.002  0.9177 -0.4768  1.1916
 1838SOL     OW 6412   4.186   1.813   1.285 -0.1512 -0.0684 -0.0400
 1838SOL    HW1 6413   4.227   1.835   1.373  1.0269 -0.2552 -0.5159
 1838SOL    HW2 6414   4.238   1.739   1.242 -0.6240  0.1127 -0.9479
 1839SOL     OW 6415   5.391   1.730   1.456 -0.5584 -0.1820 -0.7873
 1839SOL    HW1 6416   5.410   1.800   1.388  2.1584 -1.2244 -1.2205
 1839SOL    HW2 6417   5.316   1.759   1.514 -0.1864  2.5963 -1.5791
 1840SOL     OW 6418   4.177   0.357   4.366  0.4088 -0.3345  0.3095
 1840SOL    HW1 6419   4.125   0.310   4.437 -0.0209  0.8499  0.8030
 1840SOL    HW2 6420   4.193   0.451   4.393  0.8463 -0.0490 -0.8659
 1841SOL     OW 6421   0.681   0.951   1.723  0.1294 -0.4163  0.0611
 1841SOL    HW1 6422   0.719   0.922   1.635 -1.4440  0.3541 -0.9218
 1841SOL    HW2 6423   0.604   0.892   1.748  2.4164 -2.6046  2.5258
 1842SOL     OW 6424   0.304   5.576   1.452 -0.2279  0.0871 -0.5919
 1842SOL    HW1 6425   0.248   5.513   1.398  0.9747  0.2646 -2.1143
 1842SOL    HW2 6426   0.299   5.551   1.548 -1.4407 -1.0277 -0.9132
 1843SOL     OW 6427   0.392   1.725   0.412  0.0235  0.5898  0.4862
 1843SOL    HW1 6428   0.322   1.736   0.483  1.3149  2.7083  1.5290
 1843SOL    HW2 6429   0.383   1.798   0.345  1.8839  1.5990  1.2652
 1844SOL     OW 6430   6.610   4.673   4.971  0.3641  0.3554 -0.1982
 1844SOL    HW1 6431   6.521   4.654   4.929  0.3421 -0.1840  0.0746
 1844SOL    HW2 6432   6.600   4.743   5.041 -0.4705 -1.7644  1.9597
 1845SOL     OW 6433   1.936   1.809   2.347  0.3293 -0.4428 -0.0313
 1845SOL    HW1 6434   1.949   1.880   2.416  1.2351 -0.1677 -0.4686
 1845SOL    HW2 6435   1.981   1.725   2.378 -0.8663 -0.8883  0.5524
 1846SOL     OW 6436   1.543   1.436   1.643  0.4394 -0.4387 -0.1755
 1846SOL    HW1 6437   1.499   1.380   1.573  0.4338  0.5581 -0.9900
 1846SOL    HW2 6438   1.501   1.526   1.645  0.0332 -0.6276  1.5434
 1847SOL     OW 6439   1.869   5.727   6.584  0.8084 -0.6033 -0.2434
 1847SOL    HW1 6440   1.938   5.678   6.636  2.3043  0.2097 -1.3853
 1847SOL    HW2 6441   1.778   5.691   6.605  1.5137 -1.3013  1.7292
 1848SOL     OW 6442   5.320   0.958   3.235 -0.0137  0.1792  0.1711
 1848SOL    HW1 6443   5.312   1.057   3.232 -2.9860  0.0049 -2.5980
 1848SOL    HW2 6444   5.256   0.921   3.303 -0.3880  0.1168 -0.2065
 1849SOL     OW 6445   5.353   3.527   2.876 -0.4418  0.0511  0.2601
 1849SOL    HW1 6446   5.340   3.455   2.944  0.4624 -1.2119 -0.8352
 1849SOL    HW2 6447   5.329   3.615   2.915 -1.4657 -0.8248  1.6939
 1850SOL     OW 6448   3.983   1.346   0.606 -0.0202 -0.1709  0.4700
 1850SOL    HW1 6449   3.963   1.260   0.652 -1.3127 -0.3378 -0.3626
 1850SOL    HW2 6450   4.020   1.412   0.672  0.8135 -1.2851  1.1484
 1851SOL     OW 6451   5.174   5.179   4.258 -0.0346  0.0623 -0.3012
 1851SOL    HW1 6452   5.101   5.212   4.318  0.0917 -2.2236  1.2410
 1851SOL    HW2 6453   5.263   5.208   4.294 -0.0572  2.8762 -2.1980
 1852SOL     OW 6454   1.821   0.860   1.856 -0.0048 -0.4186  1.2555
 1852SOL    HW1 6455   1.874   0.800   1.796  0.3401 -0.8696  1.9955
 1852SOL    HW2 6456   1.739   0.891   1.807  0.8819  0.2211  0.1349
 1853SOL     OW 6457   1.467   3.113   6.841  0.2639 -0.0558  0.2490
 1853SOL    HW1 6458   1.458   3.209   6.813 -0.1918 -0.3061 -0.4961
 1853SOL    HW2 6459   1.439   3.103   6.937 -2.4029  0.1106 -0.4525
 1854SOL     OW 6460   1.276   5.782   5.070  0.5236  0.1083 -0.0360
 1854SOL    HW1 6461   1.208   5.709   5.078  0.1165  0.6353  2.3350
 1854SOL    HW2 6462   1.232   5.869   5.094  1.4999  0.8233 -0.7901
 1855SOL     OW 6463   5.446   4.798   5.160  0.3510 -0.2356  0.4104
 1855SOL    HW1 6464   5.426   4.717   5.214  0.0872  0.2577  1.0631
 1855SOL    HW2 6465   5.401   4.878   5.200 -2.0748 -0.2435 -1.9565
 1856SOL     OW 6466   3.620   4.305   0.087 -0.6436 -0.1861  0.2440
 1856SOL    HW1 6467   3.702   4.317   0.142  0.0322 -0.8580 -0.5782
 1856SOL    HW2 6468   3.539   4.308   0.145  0.0427 -0.8233  1.2528
 1857SOL     OW 6469   3.237   1.116   0.074  0.4569  0.3839  0.5186
 1857SOL    HW1 6470   3.258   1.052   0.001  1.1898  0.5592  0.5583
 1857SOL    HW2 6471   3.210   1.066   0.156  1.8629  0.0501  0.8158
 1858SOL     OW 6472   4.174   1.124   5.718 -0.0811 -0.5009  0.7713
 1858SOL    HW1 6473   4.125   1.080   5.794  0.0638 -1.4336  0.3365
 1858SOL    HW2 6474   4.259   1.075   5.700 -0.4451 -0.7332 -0.4443
 1859SOL     OW 6475   0.802   6.688   2.906 -0.0754  0.0845  0.6278
 1859SOL    HW1 6476   0.825   6.626   2.830 -1.3120 -1.7195  1.6402
 1859SOL    HW2 6477   0.873   6.682   2.976 -1.4819 -2.4677  1.9871
 1860SOL     OW 6478   4.408   0.052   4.458 -0.1681  0.2907  0.6864
 1860SOL    HW1 6479   4.495   0.098   4.475  1.8631 -2.3445 -1.6176
 1860SOL    HW2 6480   4.380   0.068   4.363 -1.1939 -0.4816  0.8433
 1861SOL     OW 6481   1.573   7.006   3.223  1.0278  0.0496 -0.3756
 1861SOL    HW1 6482   1.550   7.096   3.260  0.8889  0.0556 -0.4745
 1861SOL    HW2 6483   1.659   6.974   3.263  0.0177 -0.7300  1.3143
 1862SOL     OW 6484   3.219   6.918   5.520 -0.0644 -0.6541  0.0535
 1862SOL    HW1 6485   3.270   6.995   5.483 -0.6134  0.3560  1.3490
 1862SOL    HW2 6486   3.263   6.886   5.604  0.8479 -2.5632 -1.0662
 1863SOL     OW 6487   6.146   0.968   6.940  0.8984 -0.0567 -0.0847
 1863SOL    HW1 6488   6.171   0.944   7.034  1.5755 -0.1620 -0.2844
 1863SOL    HW2 6489   6.145   0.886   6.884 -2.6615 -0.5379  0.4704
 1864SOL     OW 6490   3.748   5.371   6.704 -0.1147  0.5229 -0.4028
 1864SOL    HW1 6491   3.648   5.369   6.710 -0.2264  1.1883 -1.6329
 1864SOL    HW2 6492   3.783   5.453   6.748 -0.0644  0.0925  0.3791
 1865SOL     OW 6493   6.944   2.277   5.711  0.5538  0.0869 -0.2580
 1865SOL    HW1 6494   7.009   2.209   5.677  2.2960  1.5478  0.0163
 1865SOL    HW2 6495   6.851   2.243   5.699  1.2651 -1.2667 -2.4479
 1866SOL     OW 6496   0.902   3.990   3.736  0.5186 -1.0276  0.3021
 1866SOL    HW1 6497   0.969   4.021   3.804  0.5312 -3.8508  1.6882
 1866SOL    HW2 6498   0.812   3.981   3.780 -0.4160  0.7893 -1.0667
 1867SOL     OW 6499   0.659   3.829   0.381  0.3542 -0.1508 -0.0807
 1867SOL    HW1 6500   0.730   3.894   0.353 -0.3328  0.4702 -0.4084
 1867SOL    HW2 6501   0.695   3.770   0.454  1.8040 -1.0263 -1.4238
 1868SOL     OW 6502   6.537   2.520   6.582  0.0491 -0.1595 -0.0353
 1868SOL    HW1 6503   6.452   2.530   6.635 -0.1754 -1.8945 -0.0103
 1868SOL    HW2 6504   6.594   2.449   6.623 -0.3041 -1.8523 -2.2665
 1869SOL     OW 6505   6.897   1.690   4.451  0.2255 -0.9386  0.0532
 1869SOL    HW1 6506   6.928   1.702   4.356  1.3545  1.4597  0.6227
 1869SOL    HW2 6507   6.801   1.715   4.458 -0.1753 -2.2312 -0.6366
 1870SOL     OW 6508   6.729   0.287   5.939  0.2475  0.5233  0.2580
 1870SOL    HW1 6509   6.744   0.199   5.894 -0.2683  0.6493 -0.1610
 1870SOL    HW2 6510   6.816   0.336   5.944  0.3215  0.4960 -0.5853
 1871SOL     OW 6511   1.452   6.685   6.644 -0.3220  0.2484  0.1459
 1871SOL    HW1 6512   1.537   6.708   6.691  0.3381 -0.7715 -0.5243
 1871SOL    HW2 6513   1.443   6.741   6.561  0.3328 -0.5410 -0.4627
 1872SOL     OW 6514   0.914   3.081   2.640  0.0884 -1.0166  0.6573
 1872SOL    HW1 6515   1.006   3.093   2.601  0.3332  1.3478  1.7695
 1872SOL    HW2 6516   0.851   3.053   2.569  1.3525 -1.0499 -0.4901
 1873SOL     OW 6517   0.839   1.393   0.920  0.4150  0.1063 -0.5028
 1873SOL    HW1 6518   0.866   1.372   1.014 -2.1035  1.3964  0.6002
 1873SOL    HW2 6519   0.890   1.335   0.857  2.1469 -0.8320  1.6277
 1874SOL     OW 6520   1.629   0.805   6.691 -0.6823  0.5631  0.5810
 1874SOL    HW1 6521   1.720   0.839   6.669 -0.4723  0.7896  1.7306
 1874SOL    HW2 6522   1.598   0.743   6.619  0.8820 -0.4937  0.7789
 1875SOL     OW 6523   0.815   6.810   2.417  0.2325 -0.6809 -0.3145
 1875SOL    HW1 6524   0.800   6.839   2.323 -1.0410 -1.0775 -0.2564
 1875SOL    HW2 6525   0.757   6.864   2.479 -1.5790 -2.6648 -0.1287
 1876SOL     OW 6526   6.232   3.997   0.560 -0.5131  0.3160  0.3515
 1876SOL    HW1 6527   6.257   3.934   0.633 -0.2194 -1.4191 -1.1820
 1876SOL    HW2 6528   6.315   4.032   0.515 -0.6891 -0.6529 -0.7805
 1877SOL     OW 6529   0.183   2.269   1.799  0.3182  0.1049 -0.0251
 1877SOL    HW1 6530   0.151   2.284   1.893 -0.7622 -2.1458  0.0359
 1877SOL    HW2 6531   0.105   2.256   1.739  1.0338 -0.2324 -0.9047
 1878SOL     OW 6532   4.854   3.454   5.601  0.2815 -0.6545 -0.1187
 1878SOL    HW1 6533   4.769   3.474   5.649  0.7369  2.9172 -0.5378
 1878SOL    HW2 6534   4.927   3.438   5.668  0.2319  1.0757  0.4025
 1879SOL     OW 6535   3.706   0.099   3.887  0.2783  0.0945  0.1032
 1879SOL    HW1 6536   3.632   0.154   3.926  0.1726  0.2508 -0.3014
 1879SOL    HW2 6537   3.788   0.107   3.943  0.2976  0.7604 -0.0087
 1880SOL     OW 6538   1.366   2.842   3.775  0.3935  0.1563  0.0529
 1880SOL    HW1 6539   1.331   2.749   3.762  0.2355  0.1199  0.6838
 1880SOL    HW2 6540   1.447   2.856   3.717  0.4394 -0.3845 -0.0186
 1881SOL     OW 6541   1.126   1.092   3.839  0.5413 -0.4389 -0.3480
 1881SOL    HW1 6542   1.207   1.115   3.784  1.0607 -0.4963  0.3747
 1881SOL    HW2 6543   1.044   1.103   3.783  0.8639  1.8130 -0.4548
 1882SOL     OW 6544   3.756   3.573   0.570 -0.2726  0.4299  0.0651
 1882SOL    HW1 6545   3.774   3.544   0.664  0.2867  0.4519 -0.0317
 1882SOL    HW2 6546   3.699   3.655   0.571 -0.7714  0.0901  0.3665
 1883SOL     OW 6547   2.346   1.600   2.365 -0.2772 -0.0759 -0.1637
 1883SOL    HW1 6548   2.442   1.604   2.337  0.0623  1.3875  1.0393
 1883SOL    HW2 6549   2.334   1.527   2.432  0.6224  1.3369  1.6443
 1884SOL     OW 6550   5.513   1.367   6.489 -0.2357 -0.0473  0.2481
 1884SOL    HW1 6551   5.513   1.267   6.475  3.4323 -0.3243  1.2263
 1884SOL    HW2 6552   5.515   1.387   6.586 -0.4579  0.9914  0.0456
 1885SOL     OW 6553   5.399   0.839   1.959 -0.4151  0.0425  0.2172
 1885SOL    HW1 6554   5.485   0.890   1.964 -0.1215 -0.3284 -0.8503
 1885SOL    HW2 6555   5.345   0.872   1.882 -1.2750  0.3277  0.9330
 1886SOL     OW 6556   4.965   2.034   5.969  0.2860 -0.4615  0.4383
 1886SOL    HW1 6557   4.961   2.027   6.069  0.2055  0.6118  0.5158
 1886SOL    HW2 6558   5.001   2.123   5.943  1.8838 -1.3203 -0.4901
 1887SOL     OW 6559   6.839   6.396   4.761 -0.1131  0.1533 -0.2541
 1887SOL    HW1 6560   6.853   6.326   4.691  0.0407 -1.1729  1.0401
 1887SOL    HW2 6561   6.751   6.381   4.805  1.5733 -1.8497  2.7870
 1888SOL     OW 6562   2.397   1.107   5.499  0.7023 -0.4355 -0.0537
 1888SOL    HW1 6563   2.378   1.195   5.543 -0.8018 -0.5005 -0.5115
 1888SOL    HW2 6564   2.493   1.084   5.512  1.5647  2.0512 -1.2790
 1889SOL     OW 6565   2.967   2.652   6.619  0.5184 -0.7943  0.1485
 1889SOL    HW1 6566   3.015   2.614   6.699  2.1540  2.5375  0.9279
 1889SOL    HW2 6567   3.023   2.723   6.578 -1.4061 -0.6850 -2.5231
 1890SOL     OW 6568   6.635   6.133   0.955  0.2015 -0.2562 -0.4895
 1890SOL    HW1 6569   6.618   6.045   0.999 -0.5978 -0.1902 -0.6518
 1890SOL    HW2 6570   6.672   6.119   0.863  0.1097 -0.4184 -0.5015
 1891SOL     OW 6571   5.728   2.390   5.188  0.1850 -0.4945  0.2550
 1891SOL    HW1 6572   5.669   2.353   5.117 -0.0979 -1.3292  0.9181
 1891SOL    HW2 6573   5.674   2.449   5.249  0.9552  2.6562 -1.8521
 1892SOL     OW 6574   4.909   1.156   2.718  0.4931  0.5191 -0.1932
 1892SOL    HW1 6575   4.922   1.108   2.804  0.9073  1.2540  0.1606
 1892SOL    HW2 6576   4.989   1.214   2.699 -0.2012  1.4470 -0.3561
 1893SOL     OW 6577   2.375   6.017   5.669 -0.9371 -0.6307 -0.1904
 1893SOL    HW1 6578   2.289   6.015   5.619 -1.0219 -0.7322 -0.0444
 1893SOL    HW2 6579   2.369   6.083   5.744 -1.0368 -0.9445  0.0798
 1894SOL     OW 6580   4.464   3.498   1.638 -0.3416  0.6062  0.2117
 1894SOL    HW1 6581   4.538   3.445   1.680 -1.6317 -0.6905  0.9454
 1894SOL    HW2 6582   4.401   3.437   1.590 -1.0236  1.6560 -0.2839
 1895SOL     OW 6583   3.518   5.631   4.209  0.2374  0.0066 -0.8706
 1895SOL    HW1 6584   3.456   5.553   4.199  1.4764 -1.0492 -0.6445
 1895SOL    HW2 6585   3.610   5.604   4.180  1.3463  0.4713  1.8950
 1896SOL     OW 6586   6.136   1.834   5.963  0.0361 -0.7311 -0.0962
 1896SOL    HW1 6587   6.229   1.826   5.929 -0.0139 -0.9066 -0.1935
 1896SOL    HW2 6588   6.080   1.761   5.925 -0.3967 -0.0149 -0.8724
 1897SOL     OW 6589   1.386   3.544   2.901  0.0961 -0.0641 -0.7205
 1897SOL    HW1 6590   1.440   3.597   2.966 -0.3457  0.3795 -0.7126
 1897SOL    HW2 6591   1.354   3.459   2.945  0.4020 -0.1139 -0.5886
 1898SOL     OW 6592   6.543   0.337   5.564  0.3584  0.1173 -0.2782
 1898SOL    HW1 6593   6.608   0.303   5.496 -0.3460  0.6558 -1.2522
 1898SOL    HW2 6594   6.525   0.266   5.632  0.5096 -0.6943 -1.0752
 1899SOL     OW 6595   1.248   2.243   2.745  0.1109 -0.1803 -0.1022
 1899SOL    HW1 6596   1.213   2.167   2.691 -1.2305  0.3770 -0.0331
 1899SOL    HW2 6597   1.290   2.311   2.685  0.3127 -0.4411 -0.2588
 1900SOL     OW 6598   4.528   5.545   0.728  0.1286  0.0487  0.1524
 1900SOL    HW1 6599   4.448   5.490   0.704  0.0481  0.6001 -0.8728
 1900SOL    HW2 6600   4.498   5.635   0.759  0.3689  0.5821 -1.1086
 1901SOL     OW 6601   1.219   1.142   5.391  0.3369 -0.1215 -0.7116
 1901SOL    HW1 6602   1.214   1.241   5.377 -0.6851  0.0446  0.6184
 1901SOL    HW2 6603   1.128   1.107   5.411  0.7375 -1.2967 -0.8833
 1902SOL     OW 6604   0.867   2.757   6.244  0.2461 -0.6616 -0.4974
 1902SOL    HW1 6605   0.882   2.743   6.146  1.6779 -0.0331 -0.3992
 1902SOL    HW2 6606   0.955   2.755   6.292 -0.0453  2.1276  0.3399
 1903SOL     OW 6607   1.776   5.354   2.423 -0.2140  0.2988  0.1227
 1903SOL    HW1 6608   1.716   5.337   2.345 -0.2860  0.4838  0.1361
 1903SOL    HW2 6609   1.788   5.269   2.475 -0.5261  0.2765  0.1629
 1904SOL     OW 6610   0.219   2.283   5.058  0.3476  0.0530 -0.0779
 1904SOL    HW1 6611   0.311   2.321   5.049  0.6060 -0.3998  0.6368
 1904SOL    HW2 6612   0.152   2.358   5.060  0.8543  0.4868  1.3825
 1905SOL     OW 6613   6.607   2.700   4.363 -0.2326  0.1510  0.0904
 1905SOL    HW1 6614   6.614   2.786   4.413 -0.0258  0.9138 -1.2106
 1905SOL    HW2 6615   6.624   2.716   4.265 -0.7124 -1.2737 -0.2567
 1906SOL     OW 6616   4.653   0.094   0.337  0.5003 -0.8107 -0.2745
 1906SOL    HW1 6617   4.646  -0.003   0.312  0.8445 -1.2047  1.1006
 1906SOL    HW2 6618   4.735   0.108   0.394  0.8328  0.4190 -1.0167
 1907SOL     OW 6619   4.172   5.580   4.466 -0.5748  0.0317 -0.1099
 1907SOL    HW1 6620   4.218   5.491   4.466 -1.3369 -0.3872  0.5557
 1907SOL    HW2 6621   4.078   5.568   4.499 -1.0428  0.9182 -1.0811
 1908SOL     OW 6622   6.297   0.645   0.411  1.0723 -0.4285 -0.3569
 1908SOL    HW1 6623   6.299   0.641   0.511  1.2620 -2.0494 -0.3907
 1908SOL    HW2 6624   6.203   0.631   0.379  1.1874 -1.1718 -0.4065
 1909SOL     OW 6625   4.568   4.387   4.968 -0.3131  0.3484  0.7296
 1909SOL    HW1 6626   4.488   4.443   4.992  0.1032  1.1006  0.4008
 1909SOL    HW2 6627   4.612   4.354   5.051 -1.2853 -0.5553  0.9122
 1910SOL     OW 6628   5.991   2.795   5.038 -0.3234  0.0057  0.1281
 1910SOL    HW1 6629   6.018   2.876   4.986 -1.7057 -0.2566 -1.0505
 1910SOL    HW2 6630   5.936   2.735   4.980 -1.4823 -0.5589  1.7477
 1911SOL     OW 6631   0.440   2.110   6.109 -0.2690  0.0836  0.1291
 1911SOL    HW1 6632   0.529   2.108   6.063  0.5869 -0.5684  1.7222
 1911SOL    HW2 6633   0.415   2.205   6.128  1.0025  0.2377  1.2618
 1912SOL     OW 6634   2.743   5.527   4.210 -0.1641  0.2531  0.0183
 1912SOL    HW1 6635   2.735   5.438   4.164 -0.0152  0.0698  0.3433
 1912SOL    HW2 6636   2.655   5.552   4.248 -0.5810  0.9507 -1.3484
 1913SOL     OW 6637   1.120   3.907   2.544 -0.9430  0.3301 -0.3848
 1913SOL    HW1 6638   1.194   3.907   2.611  0.6182  1.6426 -2.0211
 1913SOL    HW2 6639   1.114   3.816   2.502  0.0341  0.3176 -0.5258
 1914SOL     OW 6640   4.313   1.230   4.656  0.3078  0.4302 -0.3053
 1914SOL    HW1 6641   4.243   1.234   4.727  0.5568 -0.3480  0.0045
 1914SOL    HW2 6642   4.346   1.322   4.636 -1.3027  0.8813 -0.9775
 1915SOL     OW 6643   3.726   1.083   4.832 -0.0007 -0.5446 -0.0733
 1915SOL    HW1 6644   3.749   1.150   4.903  2.4823  0.0964 -1.3583
 1915SOL    HW2 6645   3.661   1.016   4.869 -1.0579  1.4192  1.8453
 1916SOL     OW 6646   3.570   5.776   3.185  0.4039 -0.5357 -0.4271
 1916SOL    HW1 6647   3.519   5.815   3.108  1.2414  2.3091  0.3427
 1916SOL    HW2 6648   3.647   5.835   3.207  1.4901 -2.4483  1.2312
 1917SOL     OW 6649   3.598   2.996   3.619 -0.0108  0.3820  0.3359
 1917SOL    HW1 6650   3.508   2.999   3.662 -0.5142 -0.9839 -0.5461
 1917SOL    HW2 6651   3.633   3.089   3.606 -0.0742  0.8699  3.1375
 1918SOL     OW 6652   5.334   6.649   4.921  0.2506 -0.2382 -0.2917
 1918SOL    HW1 6653   5.394   6.703   4.861  0.5829  0.0812  0.3200
 1918SOL    HW2 6654   5.313   6.702   5.003 -1.3679 -0.0931 -0.7494
 1919SOL     OW 6655   5.842   5.235   1.299 -0.3892  0.2328  0.0695
 1919SOL    HW1 6656   5.769   5.270   1.240 -1.7132 -1.4747  0.6096
 1919SOL    HW2 6657   5.822   5.141   1.324  1.6296 -0.0252  0.9066
 1920SOL     OW 6658   4.953   6.374   3.925 -0.0910 -0.3250 -0.0310
 1920SOL    HW1 6659   4.929   6.284   3.961 -1.7523  0.7496  1.7672
 1920SOL    HW2 6660   4.870   6.424   3.902  0.7525  1.1410  0.0003
 1921SOL     OW 6661   2.156   5.284   0.981  1.2906 -0.4659  0.2571
 1921SOL    HW1 6662   2.113   5.222   0.916  2.3799 -2.0861  1.0311
 1921SOL    HW2 6663   2.242   5.319   0.943  1.6559 -0.9878  0.5920
 1922SOL     OW 6664   3.674   2.443   0.520  0.4124 -0.3565  0.1800
 1922SOL    HW1 6665   3.674   2.352   0.480 -1.7217 -0.4977  0.3728
 1922SOL    HW2 6666   3.673   2.437   0.619  0.6036 -0.1314  0.1963
 1923SOL     OW 6667   0.735   3.509   1.660  0.1938 -0.2810  0.1835
 1923SOL    HW1 6668   0.814   3.509   1.599 -0.8289 -0.8043 -1.1946
 1923SOL    HW2 6669   0.692   3.419   1.660 -1.3040  0.3987 -0.3359
 1924SOL     OW 6670   2.232   4.741   5.010  0.0719 -0.1502 -0.3012
 1924SOL    HW1 6671   2.238   4.667   5.078  0.5954  0.0340 -0.1499
 1924SOL    HW2 6672   2.253   4.704   4.920 -1.3868 -0.5717 -0.4984
 1925SOL     OW 6673   2.673   2.601   6.633  0.1777 -0.0540 -0.2153
 1925SOL    HW1 6674   2.767   2.629   6.651 -0.1871  1.3389 -0.3115
 1925SOL    HW2 6675   2.612   2.642   6.701 -0.3790 -0.8159 -0.2442
 1926SOL     OW 6676   0.834   6.749   1.476 -0.0735 -0.0518  0.3443
 1926SOL    HW1 6677   0.819   6.838   1.518  1.0209  0.4767 -0.3333
 1926SOL    HW2 6678   0.854   6.761   1.378  0.2862 -1.0215  0.2851
 1927SOL     OW 6679   4.737   1.906   0.606  0.6974 -0.4079  0.6296
 1927SOL    HW1 6680   4.646   1.946   0.618 -0.0243 -1.9688  0.6146
 1927SOL    HW2 6681   4.729   1.817   0.561  2.1815 -0.8675  1.1998
 1928SOL     OW 6682   6.736   5.977   5.414 -0.2389 -0.0184 -0.2234
 1928SOL    HW1 6683   6.708   6.021   5.328  0.6053  0.5067 -0.2481
 1928SOL    HW2 6684   6.815   5.918   5.396  0.7157  1.0281  0.3756
 1929SOL     OW 6685   1.460   6.355   1.384 -0.2061  1.2586 -0.1903
 1929SOL    HW1 6686   1.530   6.399   1.328  1.7324 -1.9815 -0.5540
 1929SOL    HW2 6687   1.499   6.328   1.471 -0.8376 -0.9630 -0.5413
 1930SOL     OW 6688   5.369   4.458   5.053  0.5142  0.0975  0.5534
 1930SOL    HW1 6689   5.293   4.464   4.988 -0.2608 -3.2082  1.0026
 1930SOL    HW2 6690   5.455   4.479   5.006 -0.3549  1.0336 -0.6738
 1931SOL     OW 6691   1.235   1.374   6.786  0.2161  0.2445 -0.2634
 1931SOL    HW1 6692   1.154   1.375   6.845  0.3617  1.3388 -0.0764
 1931SOL    HW2 6693   1.316   1.355   6.841  0.2859  0.7357 -0.1979
 1932SOL     OW 6694   5.983   2.456   2.887  0.5559 -0.0218 -0.1114
 1932SOL    HW1 6695   5.942   2.370   2.916  0.3395  0.2464  0.3900
 1932SOL    HW2 6696   5.912   2.527   2.883  0.7127  0.1113 -0.6180
 1933SOL     OW 6697   0.780   3.459   0.588  0.1315 -0.1810 -0.0986
 1933SOL    HW1 6698   0.719   3.494   0.517  0.7489 -0.5188 -0.8131
 1933SOL    HW2 6699   0.784   3.359   0.582 -2.4578 -0.5898  2.5936
 1934SOL     OW 6700   5.813   5.397   4.169 -0.1851 -0.1004 -0.1967
 1934SOL    HW1 6701   5.795   5.301   4.191  0.0271  0.1752  1.3337
 1934SOL    HW2 6702   5.736   5.452   4.199  0.1958  0.3256  0.0112
 1935SOL     OW 6703   3.070   0.011   2.759 -0.1171  0.2087  0.0942
 1935SOL    HW1 6704   3.085   0.016   2.660 -0.4381 -0.6166  0.0015
 1935SOL    HW2 6705   3.147   0.055   2.806  0.2255  0.2653 -0.5091
 1936SOL     OW 6706   4.163   4.811   5.389 -0.6698 -0.1638  0.1039
 1936SOL    HW1 6707   4.154   4.910   5.377 -0.0140 -0.1981 -0.7702
 1936SOL    HW2 6708   4.239   4.792   5.452 -2.4241 -0.0670  2.4001
 1937SOL     OW 6709   6.073   3.360   3.929  0.6553  0.9675  0.0276
 1937SOL    HW1 6710   6.100   3.354   4.025 -1.8702  1.8572  0.8804
 1937SOL    HW2 6711   6.120   3.290   3.876 -0.2862 -1.7510  2.5273
 1938SOL     OW 6712   6.222   0.396   4.730  0.1030  0.4258 -0.0555
 1938SOL    HW1 6713   6.228   0.458   4.652 -0.9474 -0.3415 -0.7821
 1938SOL    HW2 6714   6.314   0.374   4.763  0.7300 -0.9167 -2.4554
 1939SOL     OW 6715   3.727   1.646   4.070 -0.0119  0.0743 -0.0247
 1939SOL    HW1 6716   3.683   1.708   4.134  2.4778  1.5244  0.4336
 1939SOL    HW2 6717   3.753   1.562   4.117 -0.2159  0.1903  0.2933
 1940SOL     OW 6718   5.749   5.358   6.505 -0.4268 -0.1956  0.0012
 1940SOL    HW1 6719   5.756   5.457   6.493  1.6751 -0.2423  0.4526
 1940SOL    HW2 6720   5.781   5.333   6.596  2.9688 -1.5852 -1.4171
 1941SOL     OW 6721   6.046   5.039   0.429  0.0027  0.3582 -0.2691
 1941SOL    HW1 6722   6.135   5.015   0.469 -0.7164 -0.5652  0.8144
 1941SOL    HW2 6723   6.023   4.973   0.357  0.7225  1.3047 -1.4180
 1942SOL     OW 6724   6.519   4.217   3.384  0.1068  0.3617  0.0429
 1942SOL    HW1 6725   6.500   4.249   3.476 -0.3340 -0.5638  0.2871
 1942SOL    HW2 6726   6.601   4.261   3.349 -0.7874  2.1681  0.1344
 1943SOL     OW 6727   4.458   7.019   0.892  0.1769 -0.5791 -0.2418
 1943SOL    HW1 6728   4.389   7.024   0.820  0.7438 -1.3061 -0.8508
 1943SOL    HW2 6729   4.434   6.946   0.956  0.0500 -0.4058 -0.0896
 1944SOL     OW 6730   5.244   0.042   1.550  0.1282  0.3690  0.1794
 1944SOL    HW1 6731   5.166   0.081   1.500 -0.0913 -0.3697 -0.0751
 1944SOL    HW2 6732   5.317   0.020   1.486 -0.1536 -0.5790  0.1576
 1945SOL     OW 6733   2.779   6.756   2.425 -0.1202  0.2010  0.5531
 1945SOL    HW1 6734   2.741   6.797   2.508  0.5399  0.9107  0.5193
 1945SOL    HW2 6735   2.846   6.687   2.449 -1.1342 -0.7961  0.6094
 1946SOL     OW 6736   0.856   0.364   0.770 -0.3835 -0.0545 -0.0228
 1946SOL    HW1 6737   0.880   0.459   0.791 -0.1843  0.1282 -1.0237
 1946SOL    HW2 6738   0.861   0.309   0.853 -1.0707  0.9252  0.6877
 1947SOL     OW 6739   6.013   1.108   6.416 -0.3214  0.4031 -0.2950
 1947SOL    HW1 6740   5.973   1.025   6.376  0.2200  0.3610 -0.7483
 1947SOL    HW2 6741   6.029   1.092   6.513 -0.5130  0.0875 -0.3095
 1948SOL     OW 6742   0.931   3.024   7.017  0.1815 -0.0833  0.0268
 1948SOL    HW1 6743   1.018   3.074   7.022  1.1679 -1.4998 -1.5387
 1948SOL    HW2 6744   0.890   3.019   7.107  0.9332  1.9822  0.5277
 1949SOL     OW 6745   3.998   5.299   5.722  0.5043  0.0146  0.0776
 1949SOL    HW1 6746   3.919   5.336   5.673 -0.0944 -2.6873 -1.1816
 1949SOL    HW2 6747   4.042   5.372   5.774 -3.2854  1.5026  1.5361
 1950SOL     OW 6748   2.966   3.851   0.233  0.4809 -0.7375 -0.0073
 1950SOL    HW1 6749   2.953   3.770   0.176 -1.5417 -1.9374  2.0011
 1950SOL    HW2 6750   3.043   3.837   0.295  0.3049 -1.0292  0.1490
 1951SOL     OW 6751   5.800   4.647   5.488  0.0738 -0.3634  0.4533
 1951SOL    HW1 6752   5.866   4.694   5.429  0.7528  1.1174  2.2841
 1951SOL    HW2 6753   5.839   4.560   5.518  0.5626 -0.1929  0.3236
 1952SOL     OW 6754   3.978   4.577   6.410  0.0421 -0.0267 -0.3334
 1952SOL    HW1 6755   4.032   4.661   6.413 -0.4118  0.2730 -0.4839
 1952SOL    HW2 6756   4.040   4.498   6.409  0.5490  0.3362 -2.4162
 1953SOL     OW 6757   0.774   3.744   4.572 -0.0908 -0.3175 -0.0135
 1953SOL    HW1 6758   0.756   3.708   4.664  1.1030 -0.5048  0.1665
 1953SOL    HW2 6759   0.687   3.758   4.524 -0.8913  1.6978  1.8478
 1954SOL     OW 6760   3.178   2.091   3.455 -0.3937 -0.3740 -0.2645
 1954SOL    HW1 6761   3.213   2.007   3.497  1.1812  0.8783  1.0865
 1954SOL    HW2 6762   3.171   2.162   3.525 -0.8952  0.8630 -1.5319
 1955SOL     OW 6763   5.501   5.405   1.873  0.1356 -0.0205 -0.4055
 1955SOL    HW1 6764   5.417   5.350   1.882  0.4197 -0.2671  0.9692
 1955SOL    HW2 6765   5.574   5.348   1.835 -0.1910  0.0633 -1.1635
 1956SOL     OW 6766   4.926   1.064   2.968  0.0509 -0.3296 -0.5157
 1956SOL    HW1 6767   4.987   0.989   2.991  0.4990  0.1032 -0.2819
 1956SOL    HW2 6768   4.916   1.125   3.046  0.7054  0.5445 -1.1010
 1957SOL     OW 6769   1.654   5.701   0.095 -0.4938  0.6556  0.6505
 1957SOL    HW1 6770   1.612   5.767   0.158 -0.3976 -0.6064  2.1050
 1957SOL    HW2 6771   1.670   5.615   0.143 -0.7776 -0.5099 -1.2462
 1958SOL     OW 6772   3.591   4.481   6.406 -0.3923  0.9593 -0.5263
 1958SOL    HW1 6773   3.669   4.420   6.420  0.5649  2.0398 -0.9764
 1958SOL    HW2 6774   3.508   4.427   6.392 -0.5657 -0.3284  3.9302
 1959SOL     OW 6775   3.063   1.414   6.660  0.1073 -0.4896 -0.3261
 1959SOL    HW1 6776   3.106   1.437   6.573  1.1369  0.2461  0.3540
 1959SOL    HW2 6777   3.133   1.404   6.730 -0.7138 -1.0323  0.4417
 1960SOL     OW 6778   4.687   0.234   1.901  0.1647  0.7534 -0.0651
 1960SOL    HW1 6779   4.592   0.207   1.916  0.5135 -1.0080 -0.7926
 1960SOL    HW2 6780   4.698   0.266   1.807  0.1767  1.5447  0.1999
 1961SOL     OW 6781   6.393   5.444   5.259  0.2209 -0.5075 -0.0712
 1961SOL    HW1 6782   6.433   5.508   5.194  0.6154 -1.3173 -0.6401
 1961SOL    HW2 6783   6.331   5.493   5.321  0.6276  0.4358 -0.4006
 1962SOL     OW 6784   5.316   6.615   2.353 -0.1944 -0.3462  0.1985
 1962SOL    HW1 6785   5.353   6.541   2.298  0.5156  1.4165 -1.8433
 1962SOL    HW2 6786   5.369   6.624   2.437  0.0261 -1.7924  0.2374
 1963SOL     OW 6787   1.246   0.596   3.032  0.3382  0.0828  0.1479
 1963SOL    HW1 6788   1.202   0.567   3.117  1.0986 -0.3781  0.3898
 1963SOL    HW2 6789   1.338   0.558   3.027  0.1172 -0.3534 -1.1256
 1964SOL     OW 6790   6.303   6.050   1.796 -0.3840  0.1446 -0.4275
 1964SOL    HW1 6791   6.398   6.078   1.803 -0.2060 -0.4651 -0.3188
 1964SOL    HW2 6792   6.251   6.119   1.745 -0.0500  0.8374  0.1610
 1965SOL     OW 6793   2.676   6.824   5.312  0.0358 -0.2889  0.6302
 1965SOL    HW1 6794   2.578   6.805   5.311  0.3178 -1.9475  1.1945
 1965SOL    HW2 6795   2.725   6.746   5.351  1.6069  0.4360  0.2079
 1966SOL     OW 6796   6.153   0.226   6.156 -0.2258  0.1701  0.1427
 1966SOL    HW1 6797   6.131   0.198   6.062  0.9652  0.5320 -0.2611
 1966SOL    HW2 6798   6.130   0.322   6.168 -0.0802  0.2068  0.1244
 1967SOL     OW 6799   4.508   2.653   5.121  0.1771  0.2895  0.2493
 1967SOL    HW1 6800   4.489   2.708   5.202 -0.2679  1.7871 -0.8223
 1967SOL    HW2 6801   4.434   2.588   5.105 -0.3769  0.8914  0.3311
 1968SOL     OW 6802   3.630   5.576   6.532  0.0832  0.3425 -0.4323
 1968SOL    HW1 6803   3.670   5.493   6.570  0.1351  0.4216 -0.3141
 1968SOL    HW2 6804   3.530   5.568   6.532  0.0658  0.5205  0.1294
 1969SOL     OW 6805   1.223   2.037   2.205 -0.0213 -0.5386  0.4523
 1969SOL    HW1 6806   1.183   2.028   2.114  0.3546  0.1605  0.2104
 1969SOL    HW2 6807   1.232   1.946   2.247  0.2583 -0.9167 -0.4036
 1970SOL     OW 6808   3.458   6.164   3.524 -0.5788 -0.0485 -0.4211
 1970SOL    HW1 6809   3.432   6.255   3.558 -1.0597  0.4643 -2.0674
 1970SOL    HW2 6810   3.552   6.167   3.492 -0.4526 -0.2610 -0.0766
 1971SOL     OW 6811   1.487   1.712   4.494  0.1961  0.7834  0.0678
 1971SOL    HW1 6812   1.570   1.657   4.506 -0.3732 -0.0251  0.3533
 1971SOL    HW2 6813   1.423   1.664   4.434  1.1681  2.7860 -2.8072
 1972SOL     OW 6814   2.325   5.220   2.636  0.2968 -0.2356  0.0215
 1972SOL    HW1 6815   2.382   5.278   2.577  0.4514 -0.9992 -0.5981
 1972SOL    HW2 6816   2.241   5.195   2.587  0.5633 -1.1204  0.0059
 1973SOL     OW 6817   2.954   2.535   5.878 -0.0081  0.1826  0.1036
 1973SOL    HW1 6818   2.934   2.515   5.782 -1.5804  2.9366 -0.2515
 1973SOL    HW2 6819   3.048   2.567   5.887 -0.2044  1.0317 -0.7438
 1974SOL     OW 6820   5.891   6.497   4.158  0.2840  0.0674  0.4570
 1974SOL    HW1 6821   5.889   6.416   4.217  1.1103  0.6716  1.3460
 1974SOL    HW2 6822   5.811   6.496   4.097 -0.3712 -0.7972  1.2979
 1975SOL     OW 6823   3.265   1.887   4.674  0.1639 -0.3347  0.2478
 1975SOL    HW1 6824   3.197   1.821   4.641 -0.3449  0.4627 -0.3568
 1975SOL    HW2 6825   3.267   1.886   4.774 -2.5495  1.3220  0.4206
 1976SOL     OW 6826   2.289   4.984   1.033  0.1495  0.0207  0.0618
 1976SOL    HW1 6827   2.342   5.017   1.111  0.6690 -0.5270 -0.0584
 1976SOL    HW2 6828   2.200   5.031   1.032  0.5032  0.7225  0.4326
 1977SOL     OW 6829   3.147   2.209   5.980  0.3881 -0.0644  0.0475
 1977SOL    HW1 6830   3.179   2.255   5.898  0.7516  0.2992  0.3880
 1977SOL    HW2 6831   3.076   2.143   5.956 -2.4253  2.7976 -0.1595
 1978SOL     OW 6832   1.177   1.302   6.514  0.2918 -0.3671 -0.2016
 1978SOL    HW1 6833   1.078   1.303   6.498  0.2683 -0.0105 -0.0481
 1978SOL    HW2 6834   1.197   1.338   6.605  0.6474  0.9110 -0.7653
 1979SOL     OW 6835   5.619   4.724   2.348  0.9019  0.7103  0.9059
 1979SOL    HW1 6836   5.597   4.690   2.257  2.9422  0.5086  0.4221
 1979SOL    HW2 6837   5.553   4.689   2.414 -0.6181  0.8712 -0.4821
 1980SOL     OW 6838   4.744   1.613   2.443  0.5063 -0.6876 -0.1410
 1980SOL    HW1 6839   4.759   1.524   2.402 -0.9468  0.1317 -2.6518
 1980SOL    HW2 6840   4.673   1.606   2.513  0.8186 -1.5919  0.0949
 1981SOL     OW 6841   4.718   3.357   1.718 -0.4341  0.3602  0.5449
 1981SOL    HW1 6842   4.691   3.308   1.635 -0.4764  1.5174 -0.1571
 1981SOL    HW2 6843   4.784   3.303   1.769  0.5914  0.1612 -0.9278
 1982SOL     OW 6844   5.022   0.167   4.983  0.1507 -0.1085 -0.3700
 1982SOL    HW1 6845   5.112   0.163   5.026 -0.5553  0.8495  1.3340
 1982SOL    HW2 6846   5.021   0.239   4.914  0.3780  0.7068  0.4585
 1983SOL     OW 6847   0.591   3.289   2.203  0.5249  0.1947  0.1036
 1983SOL    HW1 6848   0.583   3.343   2.119  0.8260  0.0149 -0.0446
 1983SOL    HW2 6849   0.616   3.348   2.279  0.3733  0.3391  0.0412
 1984SOL     OW 6850   3.978   1.976   6.989  0.3982  0.0172 -0.1374
 1984SOL    HW1 6851   3.906   2.024   6.939 -0.5625 -1.0838  0.1331
 1984SOL    HW2 6852   4.024   1.911   6.928  0.0669 -0.4306  0.0822
 1985SOL     OW 6853   7.013   1.361   1.571 -0.4578 -0.5274 -0.3183
 1985SOL    HW1 6854   7.023   1.345   1.473 -3.2230 -1.4437 -0.5203
 1985SOL    HW2 6855   6.981   1.278   1.616  2.6047 -0.7336  1.7768
 1986SOL     OW 6856   1.571   3.570   0.133 -0.1247  0.0608  0.5250
 1986SOL    HW1 6857   1.584   3.622   0.218  1.4293 -1.0177  0.9876
 1986SOL    HW2 6858   1.543   3.477   0.155 -2.0801  0.4295 -0.2722
 1987SOL     OW 6859   0.602   2.719   6.200  0.5349 -0.8974 -0.2530
 1987SOL    HW1 6860   0.687   2.748   6.244  0.3329  1.1253 -1.0845
 1987SOL    HW2 6861   0.528   2.716   6.267  0.4279  1.2561 -0.2173
 1988SOL     OW 6862   4.410   4.570   6.349  0.2215 -0.2788  0.0438
 1988SOL    HW1 6863   4.407   4.669   6.364 -1.4811 -0.3258  0.2289
 1988SOL    HW2 6864   4.501   4.543   6.319  0.4035  1.5182 -1.1479
 1989SOL     OW 6865   2.113   0.690   2.119 -0.3106  0.0169  0.2542
 1989SOL    HW1 6866   2.190   0.665   2.060  1.7192 -1.5011  3.3078
 1989SOL    HW2 6867   2.053   0.610   2.130 -0.4469  0.1592  0.5560
 1990SOL     OW 6868   1.351   2.629   1.768 -0.1800 -0.0687 -0.0450
 1990SOL    HW1 6869   1.443   2.634   1.729  0.2704  2.2687  1.1270
 1990SOL    HW2 6870   1.320   2.534   1.768  1.9123 -0.8187 -1.1666
 1991SOL     OW 6871   5.107   5.348   3.880  0.3369 -0.2493  0.2149
 1991SOL    HW1 6872   5.135   5.422   3.941  0.6146 -0.5812  0.4909
 1991SOL    HW2 6873   5.076   5.269   3.934  0.2819 -0.4283 -0.0736
 1992SOL     OW 6874   1.255   1.632   3.734 -0.2494  0.4302  0.0989
 1992SOL    HW1 6875   1.240   1.542   3.693  0.1672  1.0764 -1.5518
 1992SOL    HW2 6876   1.193   1.698   3.692 -0.6936  0.9017  1.4366
 1993SOL     OW 6877   3.253   2.952   3.527  0.2589 -0.6337 -0.2499
 1993SOL    HW1 6878   3.182   2.882   3.523 -1.0377  0.4603  1.6075
 1993SOL    HW2 6879   3.215   3.040   3.496  0.4556  0.1508  1.5643
 1994SOL     OW 6880   6.552   2.890   2.180  0.2170 -0.1432  0.0539
 1994SOL    HW1 6881   6.622   2.936   2.126  0.8681  0.2190  1.1748
 1994SOL    HW2 6882   6.581   2.795   2.198 -0.5845 -0.6591 -1.2728
 1995SOL     OW 6883   2.468   3.235   1.345 -0.0590  0.0211 -0.4484
 1995SOL    HW1 6884   2.454   3.199   1.437  0.3681  0.4916 -0.1970
 1995SOL    HW2 6885   2.473   3.158   1.280  1.5080 -0.4523  0.1698
 1996SOL     OW 6886   1.504   4.196   0.070 -0.2300  0.2218  0.4599
 1996SOL    HW1 6887   1.475   4.285   0.106 -0.5662  0.7171 -1.0058
 1996SOL    HW2 6888   1.600   4.201   0.043 -0.2573  0.1502  0.3482
 1997SOL     OW 6889   6.056   1.408   3.675  0.2059 -0.6229  0.0693
 1997SOL    HW1 6890   6.074   1.359   3.590  1.5992  0.4494 -0.2818
 1997SOL    HW2 6891   6.045   1.505   3.656  0.8192 -0.3244  1.1315
 1998SOL     OW 6892   3.029   5.728   5.488  0.1406 -0.0412 -0.0174
 1998SOL    HW1 6893   2.970   5.780   5.426 -0.7672  0.2761  1.0863
 1998SOL    HW2 6894   2.979   5.650   5.525  0.9445 -0.7165 -0.3147
 1999SOL     OW 6895   1.411   0.551   3.474  0.2114 -0.7777 -0.4754
 1999SOL    HW1 6896   1.460   0.588   3.395  2.0113 -0.9826  0.4786
 1999SOL    HW2 6897   1.391   0.625   3.538 -0.4092 -0.7528 -0.6950
 2000SOL     OW 6898   5.189   2.603   4.413 -0.2930 -0.0896  0.1733
 2000SOL    HW1 6899   5.131   2.678   4.446 -0.1803 -0.5344  1.4286
 2000SOL    HW2 6900   5.278   2.607   4.459 -0.3268 -1.0557  0.3405
 2001SOL     OW 6901   0.745   3.949   1.138 -0.1825  0.5567  0.6443
 2001SOL    HW1 6902   0.653   3.919   1.116  0.2301 -1.2981  1.2945
 2001SOL    HW2 6903   0.755   3.961   1.236  0.3835  0.2959  0.6270
 2002SOL     OW 6904   1.548   6.514   5.017 -0.0823 -0.2467  0.1673
 2002SOL    HW1 6905   1.457   6.512   4.976 -0.3855  1.3081  0.7124
 2002SOL    HW2 6906   1.617   6.497   4.946 -0.7215 -0.0872 -0.5015
 2003SOL     OW 6907   6.939   5.064   2.640  0.0854 -0.4895  0.1560
 2003SOL    HW1 6908   6.888   4.992   2.687  1.3132 -0.5769  1.4098
 2003SOL    HW2 6909   6.959   5.138   2.704  0.5748  0.0419 -0.6014
 2004SOL     OW 6910   1.995   1.086   5.363 -0.3633 -0.3029 -0.2055
 2004SOL    HW1 6911   2.073   1.023   5.372 -0.1855 -0.1796 -0.8055
 2004SOL    HW2 6912   1.976   1.101   5.266 -1.3174 -0.5457 -0.0662
 2005SOL     OW 6913   3.152   0.372   4.742  0.2677 -0.9208  0.5012
 2005SOL    HW1 6914   3.180   0.306   4.672 -0.2105 -0.9368  0.3187
 2005SOL    HW2 6915   3.223   0.442   4.753  0.3065 -0.8635 -0.0754
 2006SOL     OW 6916   3.025   6.204   4.092 -0.1741 -0.3413 -0.2051
 2006SOL    HW1 6917   3.039   6.152   4.177 -1.3714 -2.0450 -0.9794
 2006SOL    HW2 6918   3.028   6.141   4.014  0.4724  1.1273 -1.4131
 2007SOL     OW 6919   0.288   4.147   0.718 -0.3485 -0.0172  0.4294
 2007SOL    HW1 6920   0.222   4.141   0.792  0.9397  2.1301  1.8739
 2007SOL    HW2 6921   0.380   4.158   0.756  0.3902  0.9773 -1.4657
 2008SOL     OW 6922   6.603   0.248   4.049  0.1765 -0.3997  0.0571
 2008SOL    HW1 6923   6.642   0.257   3.957  0.9330 -0.6065  0.3496
 2008SOL    HW2 6924   6.667   0.284   4.116 -0.9071  0.8981  0.4165
 2009SOL     OW 6925   1.506   5.582   0.498  0.0173  0.4677 -0.6255
 2009SOL    HW1 6926   1.444   5.644   0.450 -2.9455 -1.1985  0.7440
 2009SOL    HW2 6927   1.504   5.492   0.454  0.5174  0.0677  0.1466
 2010SOL     OW 6928   0.245   6.202   6.212  0.7493  0.1072 -0.6155
 2010SOL    HW1 6929   0.171   6.238   6.156  1.0506  1.2322 -0.3329
 2010SOL    HW2 6930   0.297   6.135   6.160  1.0068  1.0967 -1.6899
 2011SOL     OW 6931   6.359   4.635   4.844  0.2613 -0.0331  0.2733
 2011SOL    HW1 6932   6.395   4.690   4.769  1.0812  0.6601  1.1471
 2011SOL    HW2 6933   6.336   4.544   4.811  1.3573  0.0105 -0.6582
 2012SOL     OW 6934   7.020   3.374   0.928  0.5450  0.5770 -0.2716
 2012SOL    HW1 6935   6.971   3.444   0.877  0.8269 -0.2423 -1.7182
 2012SOL    HW2 6936   6.961   3.337   0.999 -0.7942 -0.0448 -1.6544
 2013SOL     OW 6937   4.362   0.977   3.668 -0.1533  0.5107  0.0717
 2013SOL    HW1 6938   4.416   0.945   3.746 -0.9623 -1.8400 -0.2329
 2013SOL    HW2 6939   4.268   0.943   3.677 -0.8667  2.1090 -0.8304
 2014SOL     OW 6940   3.661   4.875   3.422  1.1268 -0.1536  0.3907
 2014SOL    HW1 6941   3.612   4.876   3.509 -0.7734 -1.2560 -0.5963
 2014SOL    HW2 6942   3.645   4.962   3.374  0.3942 -0.3658  0.2330
 2015SOL     OW 6943   3.669   6.759   6.369 -0.2430 -0.6039 -0.2948
 2015SOL    HW1 6944   3.583   6.722   6.335 -0.1310 -1.1800  0.0382
 2015SOL    HW2 6945   3.660   6.781   6.466 -0.2639  0.1177 -0.4548
 2016SOL     OW 6946   5.819   5.329   0.959 -0.3623  0.1009 -0.3562
 2016SOL    HW1 6947   5.777   5.368   1.041  1.9622  0.2562  0.8493
 2016SOL    HW2 6948   5.839   5.402   0.894 -2.0278  0.0011 -1.0342
 2017SOL     OW 6949   6.448   6.900   2.366  0.0348  0.5644  0.1852
 2017SOL    HW1 6950   6.466   6.882   2.269  2.2616 -0.0521  0.6669
 2017SOL    HW2 6951   6.427   6.997   2.378  1.1071  0.9302 -0.7444
 2018SOL     OW 6952   6.891   4.647   5.360  0.0540 -0.3958 -0.0204
 2018SOL    HW1 6953   6.868   4.647   5.263 -1.4915 -0.8227  0.3262
 2018SOL    HW2 6954   6.919   4.556   5.389  0.3763 -0.2999 -0.0136
 2019SOL     OW 6955   4.432   2.433   3.269  0.1268  0.2712  0.8356
 2019SOL    HW1 6956   4.422   2.386   3.357 -0.2274 -0.5039  0.3823
 2019SOL    HW2 6957   4.503   2.503   3.278  3.7283 -3.0115  0.4692
 2020SOL     OW 6958   3.797   6.081   4.192 -0.2349  0.3014 -0.0317
 2020SOL    HW1 6959   3.766   5.990   4.164  2.4417 -0.6540 -0.2359
 2020SOL    HW2 6960   3.808   6.083   4.291 -1.2080  0.7479  0.0770
 2021SOL     OW 6961   6.747   0.095   1.597  0.0037  0.1259 -1.0403
 2021SOL    HW1 6962   6.783   0.107   1.689 -0.1344 -1.1107 -0.8062
 2021SOL    HW2 6963   6.817   0.053   1.539  0.2539  1.3260 -1.6421
 2022SOL     OW 6964   2.552   1.639   2.014  0.3204 -0.3849 -0.3756
 2022SOL    HW1 6965   2.526   1.561   1.957  0.8703 -1.0776  0.2914
 2022SOL    HW2 6966   2.533   1.724   1.966 -2.4418 -0.8502 -0.2369
 2023SOL     OW 6967   0.815   2.407   4.805  0.0044  0.1180  0.4880
 2023SOL    HW1 6968   0.902   2.402   4.854  0.0038 -1.1028  0.4021
 2023SOL    HW2 6969   0.815   2.487   4.745  0.0026  1.6629  2.4350
 2024SOL     OW 6970   6.967   0.047   3.222 -0.1219 -0.0695  0.3065
 2024SOL    HW1 6971   7.028   0.126   3.225 -0.1819 -0.0221  0.2852
 2024SOL    HW2 6972   6.914   0.049   3.137  0.5618 -0.6465 -0.1515
 2025SOL     OW 6973   1.859   1.924   6.789 -0.1180  0.4316 -0.4463
 2025SOL    HW1 6974   1.795   1.999   6.809  1.6843  1.7192  0.9020
 2025SOL    HW2 6975   1.894   1.887   6.875  1.0522 -0.1180 -1.1377
 2026SOL     OW 6976   1.347   1.170   3.671  0.0309 -0.5363 -0.2418
 2026SOL    HW1 6977   1.416   1.126   3.614  0.7199  0.6157 -0.3370
 2026SOL    HW2 6978   1.313   1.252   3.624  0.7892  0.5814  1.0826
 2027SOL     OW 6979   5.778   1.531   2.507  0.5705 -0.3925  0.6282
 2027SOL    HW1 6980   5.861   1.478   2.524 -0.1876 -1.1766  1.9992
 2027SOL    HW2 6981   5.720   1.531   2.589 -0.1843  1.2506  0.1492
 2028SOL     OW 6982   4.973   3.717   6.824  0.1873 -0.6229  0.3814
 2028SOL    HW1 6983   5.062   3.732   6.781 -0.2103  0.3547 -0.1168
 2028SOL    HW2 6984   4.982   3.722   6.924  0.8664 -1.5518  0.3759
 2029SOL     OW 6985   1.554   0.732   0.247  0.1661 -0.1399  0.0050
 2029SOL    HW1 6986   1.538   0.729   0.149  1.7128  0.4386 -0.2915
 2029SOL    HW2 6987   1.578   0.825   0.274 -0.2906 -0.2802  0.9492
 2030SOL     OW 6988   2.123   5.115   2.440 -0.1293  0.3687  0.2093
 2030SOL    HW1 6989   2.091   5.028   2.402  1.3302 -0.7267  1.4031
 2030SOL    HW2 6990   2.044   5.175   2.454 -1.1921 -0.8012 -0.5048
 2031SOL     OW 6991   6.468   0.316   3.324  0.3398  0.0192  0.4329
 2031SOL    HW1 6992   6.373   0.285   3.330  0.6470 -0.8523  1.1683
 2031SOL    HW2 6993   6.476   0.407   3.364 -0.3058  0.3894 -0.2704
 2032SOL     OW 6994   5.055   5.603   1.794  0.1610  0.1312  0.3126
 2032SOL    HW1 6995   5.002   5.594   1.710  0.6232  1.9746 -0.2244
 2032SOL    HW2 6996   5.153   5.605   1.772  0.2632  1.6867  0.7332
 2033SOL     OW 6997   5.113   5.704   0.574  0.2081  0.3138 -0.6424
 2033SOL    HW1 6998   5.157   5.741   0.656  0.2104  0.6140 -0.7765
 2033SOL    HW2 6999   5.021   5.742   0.565 -0.4106 -0.9551  0.0932
 2034SOL     OW 7000   3.156   5.743   1.654  0.2833 -0.7619 -0.0934
 2034SOL    HW1 7001   3.227   5.674   1.666 -0.5726 -1.9594 -1.5503
 2034SOL    HW2 7002   3.194   5.822   1.606  1.3616  0.0134  1.9143
 2035SOL     OW 7003   1.735   3.284   1.274  0.0129 -0.4169 -0.1967
 2035SOL    HW1 7004   1.644   3.327   1.272 -1.0539 -2.4693  0.7574
 2035SOL    HW2 7005   1.801   3.347   1.315 -0.7398  1.4469 -1.6721
 2036SOL     OW 7006   0.928   6.164   0.771  0.2293  0.2730 -0.4799
 2036SOL    HW1 7007   0.936   6.199   0.678 -1.8590  0.3849 -0.6726
 2036SOL    HW2 7008   1.013   6.117   0.796  0.0578 -1.8402 -3.3138
 2037SOL     OW 7009   0.901   1.272   6.482  0.2134 -0.5028  0.2208
 2037SOL    HW1 7010   0.841   1.253   6.404 -1.2010  3.2777  0.2136
 2037SOL    HW2 7011   0.858   1.239   6.566 -0.3657 -0.6617 -0.1318
 2038SOL     OW 7012   0.927   0.257   4.020  0.1133 -0.0444 -0.1920
 2038SOL    HW1 7013   0.991   0.307   4.079 -0.2843 -1.9033  1.9407
 2038SOL    HW2 7014   0.839   0.304   4.018  0.2569  0.2532  0.3700
 2039SOL     OW 7015   6.689   3.958   2.358 -0.1864  0.3594  0.2881
 2039SOL    HW1 7016   6.653   3.864   2.362 -0.9479  0.5666 -1.1383
 2039SOL    HW2 7017   6.698   3.986   2.263 -1.2234  2.2175  0.6908
 2040SOL     OW 7018   3.896   3.190   4.266 -0.5923  0.4450  0.3444
 2040SOL    HW1 7019   3.836   3.117   4.233  2.0715 -2.1540  0.8054
 2040SOL    HW2 7020   3.897   3.191   4.366 -0.5945  1.1109  0.3421
 2041SOL     OW 7021   4.678   2.878   0.752 -0.5320 -0.2444 -0.1221
 2041SOL    HW1 7022   4.704   2.952   0.690  0.2275 -0.4635 -0.0781
 2041SOL    HW2 7023   4.632   2.916   0.832 -1.9356  0.0063 -1.0117
 2042SOL     OW 7024   4.751   5.255   6.974  0.1740 -0.4490 -0.0111
 2042SOL    HW1 7025   4.664   5.301   6.993  1.5189  1.5132  1.9493
 2042SOL    HW2 7026   4.782   5.279   6.882  0.6605  2.5320  0.8169
 2043SOL     OW 7027   4.988   4.410   3.132  0.1871  0.3270 -0.0055
 2043SOL    HW1 7028   5.040   4.357   3.066  1.2022  0.5225  0.6231
 2043SOL    HW2 7029   4.972   4.355   3.214  0.1704  0.5758  0.1600
 2044SOL     OW 7030   5.324   0.705   3.069  0.2511 -0.1699  0.0073
 2044SOL    HW1 7031   5.380   0.731   3.148  0.4578 -1.1570  0.1972
 2044SOL    HW2 7032   5.384   0.680   2.993  0.0708 -0.8014  0.0686
 2045SOL     OW 7033   2.212   5.739   6.855 -0.3205 -0.1769  0.3147
 2045SOL    HW1 7034   2.149   5.680   6.803 -1.4697 -0.4184  1.9262
 2045SOL    HW2 7035   2.245   5.812   6.795 -0.0657 -1.5375 -1.2952
 2046SOL     OW 7036   6.695   6.217   5.572 -0.5005 -0.6264  0.2709
 2046SOL    HW1 7037   6.626   6.240   5.503 -1.2607 -0.2323  1.1439
 2046SOL    HW2 7038   6.732   6.126   5.552 -0.0984 -0.1959 -1.1172
 2047SOL     OW 7039   6.810   2.999   6.020  0.0592 -0.0522 -0.6111
 2047SOL    HW1 7040   6.827   2.933   6.092 -2.3001 -2.5139 -2.1126
 2047SOL    HW2 7041   6.891   3.006   5.962  1.2618  0.4337  1.0588
 2048SOL     OW 7042   2.777   6.590   5.422  0.2283 -0.5643 -0.4817
 2048SOL    HW1 7043   2.797   6.495   5.395 -1.0726 -1.1522  0.4881
 2048SOL    HW2 7044   2.780   6.597   5.522 -0.9380  0.1046 -0.4760
 2049SOL     OW 7045   4.541   3.970   0.609 -0.0055 -0.1595 -0.2705
 2049SOL    HW1 7046   4.453   3.948   0.566  0.3930 -0.6675 -0.8386
 2049SOL    HW2 7047   4.530   3.975   0.708 -1.5792  3.6742 -0.4442
 2050SOL     OW 7048   4.875   3.141   6.415  0.1239  0.0402  0.4525
 2050SOL    HW1 7049   4.859   3.161   6.318 -1.9756 -2.2466  0.2185
 2050SOL    HW2 7050   4.820   3.062   6.442  0.7411  0.5293  3.5136
 2051SOL     OW 7051   1.879   6.138   6.145 -0.3284 -0.0855  0.2702
 2051SOL    HW1 7052   1.932   6.121   6.228 -1.1179  0.1683  0.8446
 2051SOL    HW2 7053   1.926   6.099   6.066  1.3734  1.3188  0.5521
 2052SOL     OW 7054   1.391   2.321   6.643  0.6743  0.3194 -0.3542
 2052SOL    HW1 7055   1.352   2.238   6.603  1.1433 -0.0628 -0.0206
 2052SOL    HW2 7056   1.471   2.298   6.697  1.4636  1.1190 -1.1525
 2053SOL     OW 7057   3.839   0.564   4.884 -0.2174 -0.1912  0.1681
 2053SOL    HW1 7058   3.889   0.537   4.802  1.4327 -0.4982  1.2166
 2053SOL    HW2 7059   3.902   0.567   4.962 -0.8096  3.9964  0.7215
 2054SOL     OW 7060   0.296   2.547   1.831 -0.7557  0.0256  0.5531
 2054SOL    HW1 7061   0.220   2.519   1.773  0.1713  0.5148 -0.9528
 2054SOL    HW2 7062   0.360   2.603   1.778  0.5296 -0.1608  1.8443
 2055SOL     OW 7063   0.157   2.313   3.944 -0.1196  0.3257  0.2605
 2055SOL    HW1 7064   0.095   2.245   3.903 -0.0879 -0.3957  1.3822
 2055SOL    HW2 7065   0.150   2.310   4.043  0.6482  1.2686  0.3645
 2056SOL     OW 7066   2.129   0.022   0.952  0.5181  0.0385 -0.5524
 2056SOL    HW1 7067   2.196   0.005   1.024 -1.2692 -0.0189  1.1765
 2056SOL    HW2 7068   2.160  -0.021   0.867  3.1544  0.9325 -0.1369
 2057SOL     OW 7069   6.466   1.137   2.399 -0.2512 -0.2727 -0.0608
 2057SOL    HW1 7070   6.418   1.169   2.318 -1.1219 -2.5510 -0.5179
 2057SOL    HW2 7071   6.401   1.118   2.473  0.1304 -1.4448  0.0033
 2058SOL     OW 7072   5.514   6.816   1.955  0.1978 -0.0612  0.1143
 2058SOL    HW1 7073   5.479   6.793   2.046 -0.2714 -3.4918 -0.7938
 2058SOL    HW2 7074   5.438   6.826   1.891  0.5924  0.5645 -0.2675
 2059SOL     OW 7075   3.144   0.717   5.855 -0.0674 -0.0782  0.3897
 2059SOL    HW1 7076   3.084   0.736   5.933  0.7810 -2.6059  1.7841
 2059SOL    HW2 7077   3.101   0.648   5.796  0.3640  0.0059 -0.0298
 2060SOL     OW 7078   0.214   4.740   3.480 -0.6579 -0.2366  0.0553
 2060SOL    HW1 7079   0.159   4.783   3.409  0.4949  3.8384  1.3558
 2060SOL    HW2 7080   0.157   4.724   3.561 -0.6919  0.9853  0.2972
 2061SOL     OW 7081   6.613   6.937   1.066  0.8938  0.4496 -0.0488
 2061SOL    HW1 7082   6.653   6.937   0.975  1.7001  0.0559  0.3038
 2061SOL    HW2 7083   6.654   6.865   1.121 -0.1556  0.1681  0.3843
 2062SOL     OW 7084   5.053   2.311   1.899  0.2903  0.1423 -0.3352
 2062SOL    HW1 7085   5.005   2.383   1.949  0.3558  0.1943 -0.3470
 2062SOL    HW2 7086   5.059   2.336   1.803  2.7147  1.4282  0.0855
 2063SOL     OW 7087   2.861   1.335   6.459  0.1050 -0.4784  1.0949
 2063SOL    HW1 7088   2.944   1.390   6.455  0.6054 -1.2791 -1.3281
 2063SOL    HW2 7089   2.885   1.240   6.481  0.5431 -1.6276 -3.2963
 2064SOL     OW 7090   0.184   2.098   6.697 -0.8530 -0.1688 -0.3915
 2064SOL    HW1 7091   0.263   2.157   6.715 -0.1893 -0.7981 -1.1865
 2064SOL    HW2 7092   0.133   2.084   6.782 -1.0922  1.6278 -0.2017
 2065SOL     OW 7093   6.338   5.189   3.087  0.3962 -0.3891 -0.0100
 2065SOL    HW1 7094   6.254   5.164   3.135  0.1349 -0.2919 -0.4131
 2065SOL    HW2 7095   6.355   5.287   3.099  0.2716 -0.3428 -0.2050
 2066SOL     OW 7096   2.967   6.324   2.458 -0.2714  0.3955 -0.0835
 2066SOL    HW1 7097   2.880   6.313   2.508  1.0019  0.6807  2.3613
 2066SOL    HW2 7098   2.997   6.419   2.464  0.6354  0.1198 -0.1575
 2067SOL     OW 7099   0.567   5.812   2.327 -0.0370 -0.1199 -0.1208
 2067SOL    HW1 7100   0.589   5.894   2.380  1.5244 -0.3859 -0.3154
 2067SOL    HW2 7101   0.529   5.742   2.387  2.5055 -0.7421  0.9156
 2068SOL     OW 7102   1.870   1.762   0.415 -0.5701 -0.0678 -0.4291
 2068SOL    HW1 7103   1.852   1.747   0.512  1.9703  0.0876  0.1509
 2068SOL    HW2 7104   1.868   1.675   0.366  0.1328 -0.4278  0.1718
 2069SOL     OW 7105   1.271   6.780   1.892  0.8711 -0.1047 -0.1343
 2069SOL    HW1 7106   1.224   6.864   1.863  1.8550  0.6262  0.3139
 2069SOL    HW2 7107   1.305   6.731   1.812  0.5504  0.0845 -0.3887
 2070SOL     OW 7108   1.488   1.688   2.999 -0.1916  0.1707 -0.4736
 2070SOL    HW1 7109   1.445   1.769   3.039  1.9444  0.0538  2.4856
 2070SOL    HW2 7110   1.514   1.625   3.073  3.2656 -0.5660 -2.1008
 2071SOL     OW 7111   0.389   6.296   3.421 -0.1627 -1.0859  0.7326
 2071SOL    HW1 7112   0.468   6.352   3.398 -1.3622  1.2336  1.9602
 2071SOL    HW2 7113   0.352   6.255   3.337  0.4542  0.3694 -0.2998
 2072SOL     OW 7114   5.683   6.309   2.333 -0.2093 -0.6817 -0.6209
 2072SOL    HW1 7115   5.729   6.348   2.253 -1.5389  0.9845 -0.6136
 2072SOL    HW2 7116   5.751   6.289   2.404  0.6523  0.5217 -1.0761
 2073SOL     OW 7117   4.175   6.654   6.002  0.1218 -0.0983  0.2064
 2073SOL    HW1 7118   4.142   6.626   5.912  0.6423 -0.6868  0.1847
 2073SOL    HW2 7119   4.119   6.612   6.073  0.5078 -0.6964  0.1648
 2074SOL     OW 7120   4.930   1.443   0.286 -0.1408 -0.5826  0.5470
 2074SOL    HW1 7121   4.993   1.473   0.358  0.1061  0.4177 -0.0762
 2074SOL    HW2 7122   4.862   1.380   0.326  1.2886 -1.7854  1.2015
 2075SOL     OW 7123   3.407   2.620   6.527  0.2986 -0.2813  0.7876
 2075SOL    HW1 7124   3.388   2.657   6.618 -1.9725 -0.2935  0.3839
 2075SOL    HW2 7125   3.331   2.561   6.498  0.3099  0.7458 -1.6322
 2076SOL     OW 7126   4.815   0.849   0.846  0.3510 -0.0323 -0.0624
 2076SOL    HW1 7127   4.795   0.862   0.749  0.6306  0.3047 -0.0760
 2076SOL    HW2 7128   4.784   0.929   0.897 -1.0627 -0.7939  0.3188
 2077SOL     OW 7129   6.249   5.612   3.819 -0.1522 -0.1455 -0.5782
 2077SOL    HW1 7130   6.216   5.648   3.732  0.3421  1.5041 -0.1170
 2077SOL    HW2 7131   6.343   5.580   3.809  0.4434  1.4325 -0.3490
 2078SOL     OW 7132   3.731   5.118   0.785 -0.3816 -0.0260 -0.5358
 2078SOL    HW1 7133   3.636   5.094   0.802 -1.0065  1.4719 -1.6180
 2078SOL    HW2 7134   3.770   5.161   0.867 -0.4180 -1.2042  0.1178
 2079SOL     OW 7135   4.712   0.216   3.832 -0.2411  0.0663 -0.0984
 2079SOL    HW1 7136   4.676   0.168   3.912  0.9392  0.8223  0.9297
 2079SOL    HW2 7137   4.680   0.171   3.749 -2.0116 -0.3704  0.7663
 2080SOL     OW 7138   2.395   2.140   4.702 -0.1837 -0.2835 -0.1018
 2080SOL    HW1 7139   2.354   2.136   4.793  0.3750  1.1088  0.2432
 2080SOL    HW2 7140   2.390   2.234   4.667 -0.5332 -0.8244 -1.5926
 2081SOL     OW 7141   6.869   5.746   6.374  0.7789 -0.1346 -0.3387
 2081SOL    HW1 7142   6.950   5.768   6.429  0.3693 -1.7357  1.0155
 2081SOL    HW2 7143   6.869   5.648   6.354 -0.2042  0.0672 -1.3798
 2082SOL     OW 7144   3.850   1.129   1.296  0.6164 -0.0481  0.4659
 2082SOL    HW1 7145   3.841   1.196   1.369 -0.6216  0.5051 -0.1722
 2082SOL    HW2 7146   3.947   1.119   1.271  0.8524  1.2000  0.8383
 2083SOL     OW 7147   3.911   4.950   4.218 -0.1179 -0.2158 -0.9384
 2083SOL    HW1 7148   3.946   4.992   4.135 -1.2698  1.6970 -0.5098
 2083SOL    HW2 7149   3.986   4.902   4.265  0.6384 -0.9630 -2.8035
 2084SOL     OW 7150   6.500   3.323   4.831 -0.4827 -0.1887 -0.1837
 2084SOL    HW1 7151   6.450   3.252   4.781  0.4310  0.0740 -1.5292
 2084SOL    HW2 7152   6.591   3.291   4.854 -1.0524 -0.4824  1.8189
 2085SOL     OW 7153   6.228   1.553   0.227  0.5111  0.3103  0.1768
 2085SOL    HW1 7154   6.159   1.547   0.154  0.6086 -1.6629  0.1912
 2085SOL    HW2 7155   6.319   1.560   0.186  0.4731  0.4631  0.1193
 2086SOL     OW 7156   1.930   6.268   6.692  0.1514 -0.2160  0.3344
 2086SOL    HW1 7157   1.882   6.182   6.708  1.4799 -0.9519  0.5403
 2086SOL    HW2 7158   1.963   6.305   6.779  1.4255 -0.6263  0.0471
 2087SOL     OW 7159   5.152   4.745   4.374  0.3586 -0.1850 -0.3162
 2087SOL    HW1 7160   5.201   4.809   4.316 -1.9301  0.3151 -1.8212
 2087SOL    HW2 7161   5.111   4.794   4.451  0.8836 -0.3473  0.0774
 2088SOL     OW 7162   2.694   0.814   0.002 -0.1084  0.1474 -0.3554
 2088SOL    HW1 7163   2.669   0.855   0.090 -0.6803 -1.0280  0.0593
 2088SOL    HW2 7164   2.617   0.760  -0.032  0.1416  0.5153 -1.5429
 2089SOL     OW 7165   4.673   6.942   1.075 -0.3177  0.3575  0.3201
 2089SOL    HW1 7166   4.688   6.843   1.075 -2.2454  0.0110  1.0345
 2089SOL    HW2 7167   4.613   6.967   0.999 -0.3228  0.8795  0.4872
 2090SOL     OW 7168   3.694   3.225   3.060 -0.0455 -0.1912 -0.0455
 2090SOL    HW1 7169   3.725   3.288   2.989  0.1218  1.5987  1.5207
 2090SOL    HW2 7170   3.628   3.161   3.022  1.0533 -0.1987 -2.0944
 2091SOL     OW 7171   1.007   4.315   1.040 -0.1007 -0.6325  0.0272
 2091SOL    HW1 7172   0.990   4.366   0.956  0.3035  0.2265  0.4545
 2091SOL    HW2 7173   0.936   4.245   1.051  1.0699 -2.2974 -2.1704
 2092SOL     OW 7174   0.366   0.125   0.143  0.6475  0.4346  0.2704
 2092SOL    HW1 7175   0.358   0.046   0.204 -0.3703  0.1813 -0.1793
 2092SOL    HW2 7176   0.318   0.107   0.057  0.3926  1.5457  0.1610
 2093SOL     OW 7177   1.354   3.075   0.968  0.0610 -0.2026 -0.2893
 2093SOL    HW1 7178   1.299   3.012   1.022 -0.2458 -0.8626 -1.3248
 2093SOL    HW2 7179   1.378   3.155   1.022  0.9355 -1.4572  1.2574
 2094SOL     OW 7180   4.952   6.283   2.825  0.2058 -0.3755 -0.0589
 2094SOL    HW1 7181   4.917   6.331   2.745 -1.7322 -0.9341  0.4015
 2094SOL    HW2 7182   4.954   6.345   2.903  2.1330  0.1800 -0.4890
 2095SOL     OW 7183   6.329   4.152   5.672  0.6028  0.2795 -0.4829
 2095SOL    HW1 7184   6.267   4.229   5.680  0.4387  0.0095  1.3110
 2095SOL    HW2 7185   6.389   4.149   5.752  0.6942 -1.3474 -0.5674
 2096SOL     OW 7186   4.877   3.947   3.397  0.2672  0.0626 -0.1736
 2096SOL    HW1 7187   4.832   3.995   3.473 -0.1572 -0.0756 -0.3331
 2096SOL    HW2 7188   4.832   3.858   3.383  0.1605  0.2038 -0.7655
 2097SOL     OW 7189   4.859   3.446   4.654 -0.5136  0.1057 -0.0727
 2097SOL    HW1 7190   4.779   3.468   4.597 -1.8559 -1.4448  1.0856
 2097SOL    HW2 7191   4.930   3.405   4.597 -1.2057 -0.0038 -0.8823
 2098SOL     OW 7192   3.177   0.522   5.428  0.6211  0.4227 -0.5388
 2098SOL    HW1 7193   3.266   0.522   5.382  1.5926 -0.7004  1.2267
 2098SOL    HW2 7194   3.132   0.434   5.412  0.1946  0.6734 -0.7348
 2099SOL     OW 7195   2.390   0.842   3.261 -0.0212 -0.7369  0.0302
 2099SOL    HW1 7196   2.333   0.874   3.185 -1.6306  1.8723  2.1608
 2099SOL    HW2 7197   2.335   0.785   3.322 -0.5151  1.7428  2.0671
 2100SOL     OW 7198   3.820   3.460   1.280 -0.2144 -0.0743  0.5630
 2100SOL    HW1 7199   3.875   3.383   1.249  0.7130  1.2607 -1.2941
 2100SOL    HW2 7200   3.726   3.449   1.249 -0.4018 -1.0388  1.4096
 2101SOL     OW 7201   1.288   6.047   2.345  0.1364 -0.4533  0.2922
 2101SOL    HW1 7202   1.277   5.978   2.417 -0.0478 -1.2825 -0.5066
 2101SOL    HW2 7203   1.272   6.138   2.383 -0.0994 -0.8891  1.2651
 2102SOL     OW 7204   0.112   2.882   0.996 -0.2338 -0.0124 -0.0118
 2102SOL    HW1 7205   0.130   2.821   1.073  4.4675  0.2697 -0.6341
 2102SOL    HW2 7206   0.118   2.977   1.026 -3.0310  0.2340  0.0427
 2103SOL     OW 7207   3.716   2.879   4.386  0.4762 -0.3065 -0.4760
 2103SOL    HW1 7208   3.619   2.872   4.360  0.4231 -0.3469 -0.2725
 2103SOL    HW2 7209   3.759   2.789   4.375  0.7909 -0.0235 -1.7135
 2104SOL     OW 7210   2.200   3.758   5.648  0.0291  0.0474 -0.1903
 2104SOL    HW1 7211   2.230   3.711   5.565  0.1887 -1.6752  0.7996
 2104SOL    HW2 7212   2.134   3.829   5.623 -0.2058 -0.6580 -1.7524
 2105SOL     OW 7213   5.710   6.066   1.495  0.8465  0.3393 -0.7800
 2105SOL    HW1 7214   5.797   6.050   1.540  0.7077  1.3074 -0.1268
 2105SOL    HW2 7215   5.638   6.015   1.541  0.9307  0.1999 -0.8027
 2106SOL     OW 7216   5.156   5.011   0.556 -0.2245  0.8030 -0.0621
 2106SOL    HW1 7217   5.121   5.048   0.470  2.9930  0.7318 -1.5423
 2106SOL    HW2 7218   5.210   5.081   0.602  2.4931 -0.6741 -0.8322
 2107SOL     OW 7219   4.716   2.498   6.933  0.5905  0.0609  0.4401
 2107SOL    HW1 7220   4.776   2.444   6.992  1.1951 -1.5123 -1.4833
 2107SOL    HW2 7221   4.621   2.487   6.962  0.5690 -2.9208 -0.4037
 2108SOL     OW 7222   4.020   5.069   5.330  0.3323 -0.0775 -0.6243
 2108SOL    HW1 7223   3.949   5.139   5.336  0.7194  0.2842 -0.2542
 2108SOL    HW2 7224   4.106   5.111   5.300  0.9427 -0.1222  0.9884
 2109SOL     OW 7225   5.106   5.150   2.790  0.1144  0.0647 -0.4138
 2109SOL    HW1 7226   5.150   5.238   2.806  0.2474 -0.3565  1.8448
 2109SOL    HW2 7227   5.007   5.161   2.786  0.1292  0.3050 -0.0705
 2110SOL     OW 7228   2.380   5.524   6.318 -0.1984 -0.1525  0.2110
 2110SOL    HW1 7229   2.362   5.565   6.228  1.1518 -0.3357 -0.1714
 2110SOL    HW2 7230   2.398   5.426   6.306 -3.4042 -0.9474  1.1069
 2111SOL     OW 7231   1.759   3.230   0.802  0.6824  0.0424 -0.1500
 2111SOL    HW1 7232   1.674   3.194   0.764  0.0074  1.1997  0.1890
 2111SOL    HW2 7233   1.791   3.170   0.876 -0.4420  0.1573  0.4512
 2112SOL     OW 7234   5.217   3.249   6.914 -0.0160  0.0053  0.1834
 2112SOL    HW1 7235   5.138   3.276   6.969  0.7561  2.3412  0.2543
 2112SOL    HW2 7236   5.224   3.309   6.834  1.3417 -0.5530 -0.1424
 2113SOL     OW 7237   5.743   0.226   3.273 -0.6819  0.0395 -0.9537
 2113SOL    HW1 7238   5.743   0.153   3.205 -1.2413  1.0922 -2.1271
 2113SOL    HW2 7239   5.690   0.304   3.239  1.2058  1.6385 -0.4671
 2114SOL     OW 7240   2.447   3.897   5.556 -0.0700 -0.0218  0.7527
 2114SOL    HW1 7241   2.363   3.853   5.525  1.0305 -1.7011 -0.0173
 2114SOL    HW2 7242   2.457   3.885   5.655 -0.4271 -0.3406  0.7509
 2115SOL     OW 7243   3.274   5.532   3.110  0.0255 -0.0654 -0.4409
 2115SOL    HW1 7244   3.197   5.569   3.161 -1.2839 -1.3584 -1.4112
 2115SOL    HW2 7245   3.330   5.475   3.170 -1.1152 -1.0141 -0.2357
 2116SOL     OW 7246   1.219   4.755   4.991 -0.7267  0.2660  0.0535
 2116SOL    HW1 7247   1.245   4.699   5.069 -1.5277 -0.4733 -0.2040
 2116SOL    HW2 7248   1.184   4.843   5.024 -2.8353 -0.7416  0.6495
 2117SOL     OW 7249   0.577   3.366   6.460  0.2099 -0.2094 -0.0235
 2117SOL    HW1 7250   0.635   3.358   6.541  2.7808  0.6919 -1.6677
 2117SOL    HW2 7251   0.583   3.282   6.406 -0.6613 -0.3933  0.1407
 2118SOL     OW 7252   6.532   3.789   3.594  0.1957 -0.0954 -0.1743
 2118SOL    HW1 7253   6.470   3.817   3.520  0.2233 -0.6893 -0.4318
 2118SOL    HW2 7254   6.615   3.750   3.554 -0.1098 -1.1230  0.1569
 2119SOL     OW 7255   1.809   5.956   6.934  0.0232  0.3890 -1.0529
 2119SOL    HW1 7256   1.825   5.967   6.836  1.9300 -0.8586 -0.9308
 2119SOL    HW2 7257   1.853   5.872   6.966 -0.1723  0.9989  0.9704
 2120SOL     OW 7258   0.671   5.280   1.392  0.2364  0.5405  0.2611
 2120SOL    HW1 7259   0.735   5.258   1.318 -0.2104 -0.1898  0.0906
 2120SOL    HW2 7260   0.661   5.380   1.398  0.2495  0.6066 -0.6887
 2121SOL     OW 7261   6.811   5.011   4.193 -0.2102 -0.1187 -0.7796
 2121SOL    HW1 7262   6.842   4.952   4.119  1.1000  0.0396 -0.3781
 2121SOL    HW2 7263   6.883   5.078   4.215 -0.2003 -0.7329  1.2121
 2122SOL     OW 7264   4.850   4.315   6.687  0.3722 -0.5079  0.0685
 2122SOL    HW1 7265   4.843   4.367   6.772 -3.3499 -2.0279  0.8917
 2122SOL    HW2 7266   4.916   4.241   6.699  1.6095  0.6585  0.7630
 2123SOL     OW 7267   5.571   3.469   4.537  0.1734  0.1204  0.1382
 2123SOL    HW1 7268   5.505   3.460   4.611 -0.6521 -2.5100 -0.7641
 2123SOL    HW2 7269   5.612   3.560   4.538 -0.8485  0.6378  2.8921
 2124SOL     OW 7270   2.386   0.978   0.786  0.8933 -0.0189 -0.0632
 2124SOL    HW1 7271   2.430   1.038   0.852  0.1113  1.1492 -0.5642
 2124SOL    HW2 7272   2.451   0.955   0.713  2.2322 -2.5288  1.7887
 2125SOL     OW 7273   2.434   5.261   2.300  0.2457  0.8190  0.3030
 2125SOL    HW1 7274   2.531   5.237   2.304 -0.1711 -2.1525 -3.0103
 2125SOL    HW2 7275   2.409   5.288   2.207 -2.5381 -1.1166  0.3477
 2126SOL     OW 7276   1.987   1.947   1.419 -0.2176  0.1903  0.1172
 2126SOL    HW1 7277   2.001   1.869   1.358 -1.0490 -0.7512  1.0881
 2126SOL    HW2 7278   1.913   2.004   1.384 -0.4637 -0.1603  0.0673
 2127SOL     OW 7279   5.627   4.790   4.452 -0.6684 -0.8207 -0.1530
 2127SOL    HW1 7280   5.558   4.750   4.392 -0.9055 -0.9201  0.1841
 2127SOL    HW2 7281   5.706   4.819   4.397 -1.2463 -0.0993 -0.6300
 2128SOL     OW 7282   6.858   4.702   0.955 -0.5353  0.2575  0.2619
 2128SOL    HW1 7283   6.785   4.641   0.924 -0.1779 -0.4821  0.8631
 2128SOL    HW2 7284   6.832   4.743   1.043 -0.7269  0.9037 -0.0862
 2129SOL     OW 7285   5.200   0.676   6.053  0.3034  0.4212 -0.1036
 2129SOL    HW1 7286   5.263   0.636   5.986 -0.8763 -1.4187 -0.1934
 2129SOL    HW2 7287   5.126   0.724   6.004  0.2349  0.3411 -0.0796
 2130SOL     OW 7288   4.388   5.586   2.834  0.2954 -0.2858  0.0657
 2130SOL    HW1 7289   4.453   5.649   2.791 -0.2138 -0.3894 -0.8943
 2130SOL    HW2 7290   4.397   5.496   2.792 -0.8353 -0.1615 -0.4865
 2131SOL     OW 7291   6.680   3.572   6.854  0.6260  0.3751 -0.5766
 2131SOL    HW1 7292   6.728   3.628   6.786 -0.9574  2.0847 -0.3599
 2131SOL    HW2 7293   6.582   3.592   6.851  0.3253 -0.5695  1.2560
 2132SOL     OW 7294   3.831   1.685   1.248  0.7138 -0.3882  0.0684
 2132SOL    HW1 7295   3.771   1.703   1.327  1.2285  0.0165  0.3762
 2132SOL    HW2 7296   3.914   1.639   1.279  2.7556  3.1549  0.4858
 2133SOL     OW 7297   3.987   3.571   5.146  0.1035  0.2414 -0.0356
 2133SOL    HW1 7298   3.917   3.627   5.191  0.7227 -0.5291  2.0116
 2133SOL    HW2 7299   3.943   3.508   5.082 -1.0496  0.0642  0.8875
 2134SOL     OW 7300   0.297   6.959   1.187 -0.0173 -0.9275 -0.0133
 2134SOL    HW1 7301   0.214   6.904   1.190 -0.5034 -0.1730  0.5393
 2134SOL    HW2 7302   0.299   7.011   1.101 -2.2044  2.1783  1.6172
 2135SOL     OW 7303   0.599   5.242   4.574  0.6050 -0.3487  0.1252
 2135SOL    HW1 7304   0.604   5.151   4.616  0.4130 -0.0756  0.7555
 2135SOL    HW2 7305   0.542   5.301   4.631 -1.8322 -0.6711 -1.8408
 2136SOL     OW 7306   2.727   4.653   0.612 -0.2001 -0.3641  0.2839
 2136SOL    HW1 7307   2.717   4.621   0.706 -1.8754 -1.3009 -0.1783
 2136SOL    HW2 7308   2.822   4.641   0.582  0.7209  1.3091  2.3022
 2137SOL     OW 7309   2.243   4.700   5.379 -0.7040 -0.7982  0.0751
 2137SOL    HW1 7310   2.171   4.668   5.441 -0.1236  1.3903  2.0380
 2137SOL    HW2 7311   2.211   4.782   5.331 -0.1992 -0.9655 -0.5540
 2138SOL     OW 7312   6.153   0.819   0.173 -0.4368 -0.0952  0.4645
 2138SOL    HW1 7313   6.115   0.733   0.208 -0.0281  0.0618  1.3131
 2138SOL    HW2 7314   6.146   0.890   0.243  0.6569  0.1571  0.3417
 2139SOL     OW 7315   6.982   0.326   5.725 -0.4628  0.6651  0.0706
 2139SOL    HW1 7316   6.994   0.226   5.725 -0.9593  0.5559 -2.1334
 2139SOL    HW2 7317   7.070   0.370   5.740  0.0925 -0.1212 -0.7764
 2140SOL     OW 7318   3.493   0.689   3.441 -0.2863  0.4440 -0.3193
 2140SOL    HW1 7319   3.449   0.672   3.353  0.1404  0.6685 -0.5796
 2140SOL    HW2 7320   3.587   0.654   3.438  0.0217  1.2443 -0.2552
 2141SOL     OW 7321   6.105   4.149   2.349 -0.4384 -0.1357  0.2091
 2141SOL    HW1 7322   6.059   4.195   2.272  0.5003  2.9922  1.3706
 2141SOL    HW2 7323   6.104   4.050   2.334 -2.7760  0.1608 -2.4012
 2142SOL     OW 7324   0.433   2.658   2.948 -0.3082  0.8274 -0.3188
 2142SOL    HW1 7325   0.380   2.684   3.029 -0.2780  0.3262 -0.1304
 2142SOL    HW2 7326   0.373   2.650   2.869 -1.0550 -2.2645  0.4079
 2143SOL     OW 7327   1.854   5.372   0.024  0.6798 -0.1534  0.1476
 2143SOL    HW1 7328   1.822   5.430  -0.051  0.8195  0.0051  0.2095
 2143SOL    HW2 7329   1.833   5.277   0.004 -0.1992 -0.0127  0.3829
 2144SOL     OW 7330   5.582   5.475   2.590  0.3475  0.2388 -0.3835
 2144SOL    HW1 7331   5.648   5.437   2.525  0.9291  0.1858  0.2261
 2144SOL    HW2 7332   5.603   5.571   2.606  1.0426 -0.0797  0.7348
 2145SOL     OW 7333   6.364   1.372   4.125 -0.4081 -0.0371 -0.5399
 2145SOL    HW1 7334   6.275   1.334   4.150 -0.1604  0.6827  1.7129
 2145SOL    HW2 7335   6.365   1.394   4.028 -2.1145 -1.5235 -0.9374
 2146SOL     OW 7336   1.403   2.424   0.397  0.5314  0.5155  0.3684
 2146SOL    HW1 7337   1.503   2.423   0.394  0.5427  1.2531  0.2988
 2146SOL    HW2 7338   1.372   2.503   0.450 -0.0252  1.1951 -0.9212
 2147SOL     OW 7339   6.210   6.425   3.741 -0.6125  0.1657  0.1369
 2147SOL    HW1 7340   6.184   6.455   3.833  0.6941  0.8871  0.2974
 2147SOL    HW2 7341   6.194   6.499   3.676  1.1636  0.7436  0.2831
 2148SOL     OW 7342   0.097   1.524   5.907 -0.2314  0.7612 -0.1610
 2148SOL    HW1 7343   0.181   1.524   5.852  0.5686  0.6930  1.0079
 2148SOL    HW2 7344   0.018   1.530   5.847  0.5854  0.2213 -1.3384
 2149SOL     OW 7345   3.455   6.637   6.243 -0.3642  0.1645  0.2405
 2149SOL    HW1 7346   3.456   6.692   6.159 -0.7617  0.0548  0.1591
 2149SOL    HW2 7347   3.370   6.654   6.292  0.2829  0.9403  1.1040
 2150SOL     OW 7348   3.938   2.492   0.419 -0.0718  0.7627 -0.5089
 2150SOL    HW1 7349   3.969   2.585   0.440  3.3897 -0.7235  1.9721
 2150SOL    HW2 7350   3.856   2.471   0.472  1.7057  1.0627  2.6012
 2151SOL     OW 7351   2.037   5.579   0.160 -0.1166 -0.4452 -0.1233
 2151SOL    HW1 7352   1.995   5.526   0.085  0.3096 -0.1648 -0.5611
 2151SOL    HW2 7353   2.134   5.558   0.164  0.1015  0.4787 -0.4499
 2152SOL     OW 7354   3.396   5.175   4.247 -0.2436  0.1114 -0.0089
 2152SOL    HW1 7355   3.422   5.079   4.251 -1.6821 -0.2637  1.4313
 2152SOL    HW2 7356   3.419   5.220   4.334 -1.7106  0.4496  0.2374
 2153SOL     OW 7357   4.450   2.475   4.821  0.8843 -0.2684 -0.4826
 2153SOL    HW1 7358   4.465   2.568   4.787 -0.4303  0.2822  0.3390
 2153SOL    HW2 7359   4.386   2.478   4.897 -0.7292 -2.0253 -1.6598
 2154SOL     OW 7360   4.409   1.728   4.452  0.2215  0.2966 -0.0304
 2154SOL    HW1 7361   4.423   1.792   4.527  0.3996  0.2506 -0.0241
 2154SOL    HW2 7362   4.322   1.749   4.406 -0.9588 -0.9879  1.4923
 2155SOL     OW 7363   4.294   2.416   1.596  0.0367 -0.1901 -0.3759
 2155SOL    HW1 7364   4.246   2.488   1.646  0.9796 -0.0240  0.3332
 2155SOL    HW2 7365   4.286   2.329   1.646  0.2592 -0.2109 -0.3721
 2156SOL     OW 7366   5.232   6.130   4.882  0.0946 -0.5617  0.4739
 2156SOL    HW1 7367   5.251   6.228   4.883 -3.7127  0.3843 -0.9480
 2156SOL    HW2 7368   5.180   6.105   4.964 -0.9722 -0.8272 -0.2590
 2157SOL     OW 7369   4.964   0.135   4.586 -0.7641  0.2107  0.6277
 2157SOL    HW1 7370   4.980   0.227   4.550 -2.2446  0.9513  1.7260
 2157SOL    HW2 7371   4.968   0.068   4.512 -2.0850  1.4568 -0.6154
 2158SOL     OW 7372   3.484   1.239   6.976 -0.2506 -0.0998  0.0111
 2158SOL    HW1 7373   3.548   1.303   7.020  0.4461  0.1938 -1.3816
 2158SOL    HW2 7374   3.430   1.193   7.046  0.7209  0.4578  1.1637
 2159SOL     OW 7375   0.721   0.704   5.130 -0.1612  0.3316  0.8268
 2159SOL    HW1 7376   0.689   0.744   5.216  1.0803 -0.0666  1.5015
 2159SOL    HW2 7377   0.675   0.617   5.114  1.0434 -0.6014  2.1682
 2160SOL     OW 7378   5.575   0.668   0.799 -0.3369  0.3631 -0.3300
 2160SOL    HW1 7379   5.492   0.687   0.746 -0.1991  1.2697 -0.2394
 2160SOL    HW2 7380   5.653   0.663   0.738 -0.3634  0.1224 -0.3464
 2161SOL     OW 7381   1.883   1.975   3.418 -0.3663  0.5229  0.1580
 2161SOL    HW1 7382   1.818   1.950   3.346 -0.3397  0.9634 -0.0249
 2161SOL    HW2 7383   1.855   2.062   3.459 -0.0045  0.6152  0.2160
 2162SOL     OW 7384   1.582   6.585   0.606  0.5390 -0.2611  0.3693
 2162SOL    HW1 7385   1.566   6.491   0.576  1.2013  0.2524 -1.7501
 2162SOL    HW2 7386   1.506   6.642   0.575  1.6536  0.4419 -1.1167
 2163SOL     OW 7387   2.316   2.581   4.009  0.0943  0.4004  0.3510
 2163SOL    HW1 7388   2.341   2.652   3.943  1.8369  0.9952  1.5620
 2163SOL    HW2 7389   2.380   2.504   4.001  0.5056  0.6045  1.5115
 2164SOL     OW 7390   0.642   1.748   2.703 -0.1966 -0.1709 -0.2064
 2164SOL    HW1 7391   0.543   1.759   2.715 -0.5089 -0.0262 -2.3733
 2164SOL    HW2 7392   0.671   1.663   2.747 -0.8541  0.8090  2.2691
 2165SOL     OW 7393   6.650   1.486   3.312 -0.3696  0.2516 -0.2680
 2165SOL    HW1 7394   6.703   1.566   3.285 -0.1815  0.0816 -0.4005
 2165SOL    HW2 7395   6.566   1.516   3.358 -0.1880  0.5191 -0.1096
 2166SOL     OW 7396   6.826   4.553   2.654 -0.5397  0.5710  0.0261
 2166SOL    HW1 7397   6.891   4.527   2.583 -0.2678  1.5221 -0.0864
 2166SOL    HW2 7398   6.865   4.530   2.744  0.9983  3.1459  0.1091
 2167SOL     OW 7399   2.058   2.449   4.967 -0.1608 -0.7207 -0.7166
 2167SOL    HW1 7400   1.994   2.481   4.897  0.2029 -0.2395 -0.8254
 2167SOL    HW2 7401   2.067   2.518   5.039  0.9080 -0.4204 -1.1394
 2168SOL     OW 7402   0.378   3.233   4.302  0.3593 -0.0465 -0.1786
 2168SOL    HW1 7403   0.379   3.285   4.217 -0.6191  0.9165  0.3705
 2168SOL    HW2 7404   0.461   3.253   4.354  0.8599 -0.4743 -0.7922
 2169SOL     OW 7405   6.489   1.273   1.696 -0.2962 -0.3999 -0.5216
 2169SOL    HW1 7406   6.551   1.257   1.619 -0.0393 -0.4272 -0.3125
 2169SOL    HW2 7407   6.460   1.368   1.697 -0.7081 -0.5189 -0.9508
 2170SOL     OW 7408   0.937   3.193   4.477  0.9157  0.1457 -0.3304
 2170SOL    HW1 7409   0.883   3.177   4.560  0.2639 -0.2571 -0.8205
 2170SOL    HW2 7410   1.016   3.250   4.499 -0.2577  1.6222  0.2164
 2171SOL     OW 7411   5.864   5.402   2.142  0.3069  0.2728  0.4301
 2171SOL    HW1 7412   5.788   5.448   2.095 -0.5876 -3.5057 -2.2673
 2171SOL    HW2 7413   5.936   5.381   2.076 -0.1498 -3.5930  0.9556
 2172SOL     OW 7414   1.739   0.881   4.362 -0.5221  0.0980  0.5455
 2172SOL    HW1 7415   1.676   0.959   4.358  2.1443  2.3756 -0.1896
 2172SOL    HW2 7416   1.808   0.897   4.433  1.1222 -0.7375 -0.7983
 2173SOL     OW 7417   5.522   0.259   6.546 -0.1954 -0.6248  0.2790
 2173SOL    HW1 7418   5.613   0.225   6.522  0.3900  0.2398  1.1882
 2173SOL    HW2 7419   5.474   0.288   6.464  1.5544  1.8041  0.0062
 2174SOL     OW 7420   4.824   6.967   5.861  0.6339 -0.0534 -0.4431
 2174SOL    HW1 7421   4.759   6.904   5.904  1.3138  1.0922  2.5195
 2174SOL    HW2 7422   4.896   6.915   5.816 -0.1435 -1.3508 -0.2266
 2175SOL     OW 7423   2.783   2.400   6.464  0.3529 -0.2803 -0.6696
 2175SOL    HW1 7424   2.734   2.463   6.524 -1.8169 -1.9860 -0.5237
 2175SOL    HW2 7425   2.778   2.433   6.370 -2.5889 -1.1602 -0.9076
 2176SOL     OW 7426   6.884   1.983   2.568 -0.3563  0.1784  0.3043
 2176SOL    HW1 7427   6.969   1.940   2.537  0.2755 -1.2766  3.6637
 2176SOL    HW2 7428   6.810   1.958   2.505  1.3725  0.3434 -1.9206
 2177SOL     OW 7429   1.057   6.297   4.734  0.3195  0.2816  0.2701
 2177SOL    HW1 7430   1.089   6.249   4.652  0.8586  1.6229 -0.3348
 2177SOL    HW2 7431   1.002   6.376   4.707  1.7727  1.6462  1.1144
 2178SOL     OW 7432   1.916   1.290   4.733 -0.2931 -0.3634 -0.3578
 2178SOL    HW1 7433   1.836   1.255   4.783 -0.3770 -0.6606 -0.6944
 2178SOL    HW2 7434   1.898   1.383   4.703  0.0880  0.1396  0.9026
 2179SOL     OW 7435   0.342   3.966   0.079  0.5260  0.7602  0.6824
 2179SOL    HW1 7436   0.381   4.046   0.126  0.2660  2.2679 -1.4998
 2179SOL    HW2 7437   0.393   3.949  -0.005  0.9109 -1.7867  1.3560
 2180SOL     OW 7438   7.016   5.539   4.608 -0.0558 -0.3751  0.3544
 2180SOL    HW1 7439   7.003   5.627   4.562 -1.1604 -0.5764  0.2594
 2180SOL    HW2 7440   6.979   5.466   4.552  0.2449 -0.8270  0.7370
 2181SOL     OW 7441   2.449   4.942   4.589  0.1202 -0.7571  0.6160
 2181SOL    HW1 7442   2.520   5.012   4.591 -1.6588  1.1348  0.8892
 2181SOL    HW2 7443   2.483   4.861   4.541  2.8630 -0.4541  1.8448
 2182SOL     OW 7444   1.142   6.127   4.510  0.0358  0.0087  0.0366
 2182SOL    HW1 7445   1.219   6.064   4.523 -0.5542 -0.4251  1.7179
 2182SOL    HW2 7446   1.082   6.092   4.438  1.1255  0.0954 -0.9479
 2183SOL     OW 7447   3.648   2.200   0.407  0.4400 -0.5174 -0.2415
 2183SOL    HW1 7448   3.668   2.104   0.429 -1.0082 -0.7931 -0.0608
 2183SOL    HW2 7449   3.665   2.217   0.310  0.1428 -1.1173 -0.4021
 2184SOL     OW 7450   0.847   1.969   5.708  0.3148 -0.3112 -0.5075
 2184SOL    HW1 7451   0.873   2.053   5.659  2.3086 -1.6269 -1.8657
 2184SOL    HW2 7452   0.816   1.901   5.641  0.5210 -1.2717  0.3614
 2185SOL     OW 7453   1.220   1.316   6.155 -0.2527  0.4324 -0.4408
 2185SOL    HW1 7454   1.250   1.239   6.099  0.4737  1.5262 -1.6268
 2185SOL    HW2 7455   1.291   1.388   6.153 -0.3875  0.6747  1.5758
 2186SOL     OW 7456   3.001   3.894   4.816  0.0571  0.3440  0.0113
 2186SOL    HW1 7457   2.985   3.895   4.914  0.1547  3.7214  0.1017
 2186SOL    HW2 7458   2.916   3.918   4.768  0.4893  0.6564 -0.6045
 2187SOL     OW 7459   2.469   5.730   3.043 -0.3512 -0.0337 -0.3818
 2187SOL    HW1 7460   2.547   5.758   3.099 -1.5789 -1.6239  2.3574
 2187SOL    HW2 7461   2.484   5.637   3.009 -0.3556  0.2845 -1.2685
 2188SOL     OW 7462   4.016   0.277   0.856  0.3675 -0.3855  0.0750
 2188SOL    HW1 7463   3.956   0.357   0.853  1.7799  0.7491  0.4850
 2188SOL    HW2 7464   4.089   0.293   0.922  0.6773 -2.0459  0.1737
 2189SOL     OW 7465   1.754   2.115   2.947 -0.0253 -0.5557  0.0480
 2189SOL    HW1 7466   1.772   2.100   2.850 -0.3445  1.7623 -0.4315
 2189SOL    HW2 7467   1.694   2.194   2.958  0.0608 -0.7192  2.1444
 2190SOL     OW 7468   6.962   4.920   1.826 -0.1106 -0.3802  0.4094
 2190SOL    HW1 7469   6.936   4.915   1.729  1.7129 -3.5497 -0.0780
 2190SOL    HW2 7470   6.921   4.843   1.875 -1.6800  1.6163  2.4646
 2191SOL     OW 7471   3.183   5.880   0.048  0.0608  0.1940 -0.1141
 2191SOL    HW1 7472   3.093   5.900   0.011  0.2634 -2.2248 -2.1456
 2191SOL    HW2 7473   3.174   5.824   0.131 -0.3038  0.6057  0.1253
 2192SOL     OW 7474   6.337   1.631   0.778 -0.0447  0.4866  0.1271
 2192SOL    HW1 7475   6.304   1.582   0.697  2.3238 -0.7420 -0.1722
 2192SOL    HW2 7476   6.272   1.618   0.853 -1.3472  0.0736 -1.0122
 2193SOL     OW 7477   1.804   5.743   6.236  0.1124 -0.1753  0.6840
 2193SOL    HW1 7478   1.745   5.678   6.283 -0.6838  0.1396  0.1465
 2193SOL    HW2 7479   1.894   5.746   6.281 -0.6037  0.0953  2.1610
 2194SOL     OW 7480   1.201   3.073   4.793 -0.3232  0.7077  0.0725
 2194SOL    HW1 7481   1.191   3.049   4.697 -1.2843 -0.1350  0.3650
 2194SOL    HW2 7482   1.253   3.002   4.840 -1.8946 -0.1098  0.6406
 2195SOL     OW 7483   6.086   2.790   5.850 -0.2501  0.1613  0.0587
 2195SOL    HW1 7484   6.168   2.805   5.905 -0.0924 -0.2041 -0.0750
 2195SOL    HW2 7485   6.015   2.749   5.906 -1.7379  3.9358  1.2681
 2196SOL     OW 7486   1.367   6.489   6.953 -0.2917  0.3389 -0.3469
 2196SOL    HW1 7487   1.309   6.570   6.959 -0.3768  0.2803 -0.3665
 2196SOL    HW2 7488   1.361   6.450   6.861 -0.0921  0.4274 -0.3969
 2197SOL     OW 7489   3.782   0.269   4.425  0.5931 -0.2438 -0.1593
 2197SOL    HW1 7490   3.713   0.199   4.447  2.8646 -2.1082  1.5557
 2197SOL    HW2 7491   3.854   0.229   4.369 -0.1076  1.9500 -2.8527
 2198SOL     OW 7492   2.215   1.272   0.143  0.1345 -0.2166  0.9943
 2198SOL    HW1 7493   2.123   1.254   0.110 -0.6223  2.3416  1.4846
 2198SOL    HW2 7494   2.282   1.229   0.083 -1.3230 -0.0169 -0.8450
 2199SOL     OW 7495   4.069   5.281   4.795 -0.1137 -0.4764  0.3742
 2199SOL    HW1 7496   4.025   5.198   4.763 -0.7381  0.7470 -2.2408
 2199SOL    HW2 7497   4.024   5.361   4.754  1.7709  1.0566  1.1001
 2200SOL     OW 7498   3.893   0.427   4.645  0.0883  0.2036 -0.1886
 2200SOL    HW1 7499   3.840   0.362   4.592  0.0434  0.0029  0.0990
 2200SOL    HW2 7500   3.989   0.397   4.649 -0.2312 -0.7197  1.2887
 2201SOL     OW 7501   6.818   4.015   4.548  0.3429  0.0953  0.1622
 2201SOL    HW1 7502   6.874   3.945   4.592 -0.3881 -1.3364 -1.1188
 2201SOL    HW2 7503   6.744   3.972   4.497 -0.9559  1.8831  0.4584
 2202SOL     OW 7504   3.836   0.879   2.521  0.0849 -0.3585  0.0646
 2202SOL    HW1 7505   3.835   0.882   2.422  0.1411  0.6713  0.0854
 2202SOL    HW2 7506   3.857   0.970   2.557  0.1052 -0.7284  1.0154
 2203SOL     OW 7507   0.569   3.716   1.648 -0.4433 -0.0933 -0.0810
 2203SOL    HW1 7508   0.622   3.632   1.651 -0.6961 -0.3088  4.0271
 2203SOL    HW2 7509   0.471   3.695   1.649 -0.5112  0.2121  0.4838
 2204SOL     OW 7510   5.152   2.885   2.908 -0.0829  0.2748 -0.6069
 2204SOL    HW1 7511   5.052   2.883   2.908 -0.2892  3.8154 -0.6368
 2204SOL    HW2 7512   5.186   2.829   2.833 -1.9498 -1.7825 -0.0208
 2205SOL     OW 7513   1.677   6.210   0.742 -0.6079  0.3053 -0.2453
 2205SOL    HW1 7514   1.667   6.249   0.651 -1.8005  2.7279  0.8239
 2205SOL    HW2 7515   1.703   6.283   0.806  0.5422 -1.3938  1.3114
 2206SOL     OW 7516   3.336   1.962   4.949  0.1847 -0.0630  0.5517
 2206SOL    HW1 7517   3.430   1.997   4.950  0.6096 -0.8389 -2.8417
 2206SOL    HW2 7518   3.274   2.035   4.921  0.1008 -0.2058  0.3685
 2207SOL     OW 7519   2.474   5.990   0.026 -0.4878  0.0701 -0.4742
 2207SOL    HW1 7520   2.472   5.906   0.080 -1.8538  0.8403  0.7768
 2207SOL    HW2 7521   2.460   5.968  -0.070  0.7908 -1.2493 -0.3844
 2208SOL     OW 7522   6.758   0.552   3.012 -0.1116  0.1911 -0.8434
 2208SOL    HW1 7523   6.820   0.612   3.063  0.0842 -1.7290  1.3444
 2208SOL    HW2 7524   6.765   0.458   3.047 -3.1857 -0.4073 -1.4965
 2209SOL     OW 7525   2.884   6.863   4.843 -0.5220  0.2783 -0.4590
 2209SOL    HW1 7526   2.871   6.962   4.838 -0.8206  0.2007 -1.2902
 2209SOL    HW2 7527   2.860   6.831   4.935 -0.3127  0.9858 -0.1483
 2210SOL     OW 7528   4.668   6.115   0.640  0.2447  0.3752 -0.4465
 2210SOL    HW1 7529   4.634   6.039   0.695 -1.2930 -0.5653 -2.5530
 2210SOL    HW2 7530   4.591   6.162   0.596  1.3948  0.9271 -1.9665
 2211SOL     OW 7531   6.982   1.637   0.205 -0.0828 -0.7297 -0.4492
 2211SOL    HW1 7532   6.945   1.544   0.210 -1.3037 -0.3911 -2.1780
 2211SOL    HW2 7533   7.057   1.639   0.139  0.3076 -0.5725 -0.0106
 2212SOL     OW 7534   2.313   5.669   6.526  0.1498 -0.7347  0.0412
 2212SOL    HW1 7535   2.325   5.605   6.450  1.0831 -0.4423 -0.0666
 2212SOL    HW2 7536   2.296   5.761   6.490  0.1357 -0.6795  0.1857
 2213SOL     OW 7537   3.053   1.500   4.427 -0.2036  0.0611 -0.2812
 2213SOL    HW1 7538   3.064   1.437   4.504 -0.8874  0.9535  0.5692
 2213SOL    HW2 7539   3.134   1.497   4.369  0.3305 -0.6079  0.4841
 2214SOL     OW 7540   4.099   5.209   6.240 -0.2491  0.2122  0.1777
 2214SOL    HW1 7541   4.058   5.136   6.185 -0.8722  0.5485  0.1904
 2214SOL    HW2 7542   4.172   5.253   6.188 -0.1080 -0.1890  0.0352
 2215SOL     OW 7543   4.858   6.217   0.481 -0.1696  0.2089 -0.1713
 2215SOL    HW1 7544   4.928   6.283   0.508  1.1914 -1.1469 -0.2280
 2215SOL    HW2 7545   4.797   6.199   0.558 -0.3326  1.2217 -0.0495
 2216SOL     OW 7546   1.648   0.271   6.186 -0.1708 -0.1263 -0.2011
 2216SOL    HW1 7547   1.744   0.280   6.214  0.1114 -0.0764 -1.1479
 2216SOL    HW2 7548   1.632   0.177   6.156 -0.6660 -0.3782  0.8113
 2217SOL     OW 7549   6.638   6.509   3.700 -0.3165 -0.2140 -0.1800
 2217SOL    HW1 7550   6.707   6.572   3.735 -0.7924  0.3607 -0.2508
 2217SOL    HW2 7551   6.589   6.552   3.624 -0.1726 -0.9459 -0.6995
 2218SOL     OW 7552   6.634   5.714   4.214  0.8367 -0.1150  0.1015
 2218SOL    HW1 7553   6.719   5.680   4.175  0.4605 -0.7514 -0.1881
 2218SOL    HW2 7554   6.569   5.734   4.140  0.0031 -1.6328  0.3768
 2219SOL     OW 7555   6.430   1.371   0.956 -0.0761  0.1529  0.2034
 2219SOL    HW1 7556   6.493   1.448   0.966  0.2374 -0.1473  0.5556
 2219SOL    HW2 7557   6.439   1.332   0.864  0.6228 -0.2127  0.4217
 2220SOL     OW 7558   0.024   4.267   5.676  0.1315  0.0086  0.6611
 2220SOL    HW1 7559   0.051   4.172   5.658 -2.4109 -0.3815 -1.8434
 2220SOL    HW2 7560   0.069   4.327   5.611 -0.2316  0.1569  0.5415
 2221SOL     OW 7561   6.507   1.074   3.501  0.0912  0.3596 -0.4310
 2221SOL    HW1 7562   6.593   1.118   3.473 -0.1353  1.4034  0.4307
 2221SOL    HW2 7563   6.491   1.092   3.598 -0.3085 -1.1846 -0.1847
 2222SOL     OW 7564   5.363   5.710   2.503  0.6610  0.6707  0.2699
 2222SOL    HW1 7565   5.306   5.678   2.579  0.8696  0.9267  0.5391
 2222SOL    HW2 7566   5.459   5.706   2.530  0.9158 -1.3482 -0.7727
 2223SOL     OW 7567   6.304   5.687   5.358 -0.0151 -0.3305  0.0886
 2223SOL    HW1 7568   6.230   5.705   5.423 -1.0974 -0.6926 -1.0137
 2223SOL    HW2 7569   6.390   5.724   5.395 -0.7298  0.1263  1.3758
 2224SOL     OW 7570   6.878   3.611   0.574 -0.0532  0.2321  0.0957
 2224SOL    HW1 7571   6.831   3.539   0.625  0.2201 -0.7833 -1.0643
 2224SOL    HW2 7572   6.859   3.601   0.476  0.9570  1.0163 -0.1976
 2225SOL     OW 7573   1.389   4.618   3.107  0.4139  0.2529  0.6869
 2225SOL    HW1 7574   1.472   4.669   3.129  2.4535 -1.8978 -1.4234
 2225SOL    HW2 7575   1.311   4.681   3.108  2.1848  2.6083  1.6664
 2226SOL     OW 7576   3.546   5.642   0.154  0.4030  0.1880 -0.5564
 2226SOL    HW1 7577   3.576   5.628   0.060 -0.5969 -0.2340 -0.8300
 2226SOL    HW2 7578   3.504   5.558   0.189 -0.1128  0.6318 -0.0748
 2227SOL     OW 7579   4.324   1.753   2.243  0.1456  0.4533  0.0366
 2227SOL    HW1 7580   4.314   1.841   2.289  1.0458  0.9084 -0.6150
 2227SOL    HW2 7581   4.293   1.762   2.148  1.0935  0.3176 -0.2949
 2228SOL     OW 7582   5.093   5.772   6.569 -0.5286 -0.6053  0.4100
 2228SOL    HW1 7583   4.993   5.763   6.566 -0.5789 -0.3370  1.1218
 2228SOL    HW2 7584   5.133   5.729   6.488 -1.2587 -0.1628 -0.1910
 2229SOL     OW 7585   3.006   3.905   3.291  0.2499  0.0831  0.6091
 2229SOL    HW1 7586   3.020   3.917   3.389  1.2306 -0.5987  0.5606
 2229SOL    HW2 7587   3.053   3.978   3.241 -0.4445  0.5668  0.6394
 2230SOL     OW 7588   6.638   6.875   7.008 -0.4668  0.6268  0.0839
 2230SOL    HW1 7589   6.574   6.804   7.039 -0.0106  1.8316  4.3757
 2230SOL    HW2 7590   6.589   6.962   7.000 -0.3303  0.5687 -1.8780
 2231SOL     OW 7591   3.216   6.390   0.030  0.0068 -0.4652  0.0109
 2231SOL    HW1 7592   3.228   6.462  -0.039  0.5938 -2.6751 -2.3137
 2231SOL    HW2 7593   3.304   6.370   0.073 -0.0059 -0.3833  0.0770
 2232SOL     OW 7594   1.672   1.358   5.312  0.5185 -0.2693  0.4869
 2232SOL    HW1 7595   1.635   1.430   5.254  1.7855 -0.4471 -0.6004
 2232SOL    HW2 7596   1.744   1.309   5.262 -1.0933 -3.1078  0.7328
 2233SOL     OW 7597   1.088   3.549   2.088  0.4182  0.0696  0.0711
 2233SOL    HW1 7598   1.175   3.507   2.112  1.4644  2.5373  0.8637
 2233SOL    HW2 7599   1.103   3.620   2.020 -0.7075  1.5734  1.3281
 2234SOL     OW 7600   6.740   2.635   2.184  0.1071  0.0847  0.1440
 2234SOL    HW1 7601   6.823   2.634   2.238 -0.2506  2.3938  0.8348
 2234SOL    HW2 7602   6.761   2.608   2.090  1.2840 -0.9757  0.6820
 2235SOL     OW 7603   2.379   2.182   3.620 -0.0306  0.9036 -0.5278
 2235SOL    HW1 7604   2.290   2.192   3.574 -0.4926  1.4359  0.4429
 2235SOL    HW2 7605   2.445   2.243   3.576  0.0310  0.0807 -1.6303
 2236SOL     OW 7606   0.903   3.944   6.196  0.5008  0.2247 -0.4230
 2236SOL    HW1 7607   0.889   3.858   6.246  2.6631  1.2368  2.2219
 2236SOL    HW2 7608   0.978   3.933   6.131  3.0693  0.7637  2.2225
 2237SOL     OW 7609   0.009   3.698   5.283 -0.1672 -0.7056  0.0736
 2237SOL    HW1 7610  -0.072   3.651   5.317 -0.7727 -0.1403 -0.5589
 2237SOL    HW2 7611   0.036   3.660   5.194  0.4684 -1.1211  0.4388
 2238SOL     OW 7612   4.959   2.990   1.313  0.4468  0.4771  0.2008
 2238SOL    HW1 7613   5.037   2.963   1.257 -0.4211 -2.9455  0.3816
 2238SOL    HW2 7614   4.971   2.955   1.406 -1.4250 -0.5547  0.1069
 2239SOL     OW 7615   3.415   0.747   1.950  0.2724  0.1303 -0.7885
 2239SOL    HW1 7616   3.504   0.782   1.920 -0.0872  1.5581 -0.2995
 2239SOL    HW2 7617   3.343   0.809   1.917 -0.2351  1.1742  2.0532
 2240SOL     OW 7618   3.926   4.871   3.495 -0.0656  0.5332  0.0653
 2240SOL    HW1 7619   3.830   4.878   3.468  0.0196  3.9824  0.2125
 2240SOL    HW2 7620   3.932   4.858   3.594 -0.4423  1.5422  0.2376
 2241SOL     OW 7621   1.133   6.764   0.647 -0.0215  0.5492 -0.2619
 2241SOL    HW1 7622   1.081   6.818   0.582  0.9003  1.9737  0.1419
 2241SOL    HW2 7623   1.071   6.720   0.712 -0.8909 -0.2464 -1.5835
 2242SOL     OW 7624   5.940   4.159   3.933  0.1977 -0.3030 -0.4324
 2242SOL    HW1 7625   5.981   4.239   3.889 -0.1319  1.0889  1.6486
 2242SOL    HW2 7626   6.011   4.092   3.954  0.9477  0.6813  0.2592
 2243SOL     OW 7627   1.219   5.870   1.199  0.7193  0.5705  0.0326
 2243SOL    HW1 7628   1.274   5.864   1.282 -1.2859  1.5456  1.5319
 2243SOL    HW2 7629   1.275   5.903   1.124  2.1459  1.6611  1.5055
 2244SOL     OW 7630   2.993   1.622   0.740 -0.0870 -0.2909  0.3473
 2244SOL    HW1 7631   2.960   1.546   0.796  0.1542 -0.5587  0.1262
 2244SOL    HW2 7632   2.914   1.669   0.699 -0.3639  0.7378  1.9619
 2245SOL     OW 7633   1.037   0.875   1.647 -0.6980 -0.5551  0.7958
 2245SOL    HW1 7634   1.109   0.942   1.630 -0.3423 -1.5829 -2.5686
 2245SOL    HW2 7635   1.077   0.792   1.686 -0.2350 -0.6441  0.1497
 2246SOL     OW 7636   6.767   1.153   5.499 -0.3773 -0.4028  0.0635
 2246SOL    HW1 7637   6.797   1.063   5.534 -0.8151 -0.6879 -0.2919
 2246SOL    HW2 7638   6.700   1.140   5.427 -1.6025  0.2303  1.0454
 2247SOL     OW 7639   3.531   3.473   2.501 -0.1788  0.9491  0.0093
 2247SOL    HW1 7640   3.604   3.406   2.499 -1.5710 -0.6468  0.3273
 2247SOL    HW2 7641   3.476   3.465   2.417 -1.6277  0.1613  0.9879
 2248SOL     OW 7642   4.984   3.504   0.146  0.0488 -0.3022 -0.0139
 2248SOL    HW1 7643   4.992   3.604   0.140  2.0905 -0.3662  0.7479
 2248SOL    HW2 7644   4.910   3.480   0.209  1.7873  0.8437  2.6564
 2249SOL     OW 7645   3.538   6.667   3.407  0.4722  0.0974  0.4650
 2249SOL    HW1 7646   3.489   6.601   3.463 -1.9035  0.7577 -0.7129
 2249SOL    HW2 7647   3.606   6.715   3.463 -0.3969 -0.6799  2.2474
 2250SOL     OW 7648   4.035   5.601   6.223  0.1139  0.3331  0.1599
 2250SOL    HW1 7649   4.036   5.634   6.317  1.4139  0.0139  0.2657
 2250SOL    HW2 7650   3.957   5.539   6.210  0.6101 -0.5466  1.3437
 2251SOL     OW 7651   6.454   0.303   5.086  0.4049 -0.1580  0.0264
 2251SOL    HW1 7652   6.526   0.288   5.018 -1.1915  1.1242 -2.0652
 2251SOL    HW2 7653   6.488   0.368   5.155  0.7519  1.8665 -1.9290
 2252SOL     OW 7654   4.087   6.634   3.770 -0.4111  0.3473 -0.5476
 2252SOL    HW1 7655   4.021   6.580   3.822 -0.4345  1.1770  0.3324
 2252SOL    HW2 7656   4.055   6.729   3.766 -0.1889  0.3785 -1.7316
 2253SOL     OW 7657   6.873   3.395   1.944  0.7540  0.4406  0.1276
 2253SOL    HW1 7658   6.924   3.475   1.912  0.0564  2.0836  2.8232
 2253SOL    HW2 7659   6.925   3.350   2.016  0.7825 -1.1603 -0.8464
 2254SOL     OW 7660   3.274   3.802   2.715  0.0079  0.2931  0.0203
 2254SOL    HW1 7661   3.254   3.705   2.728 -0.4852  0.3163 -0.5310
 2254SOL    HW2 7662   3.299   3.843   2.803 -0.8966 -0.0816  0.4696
 2255SOL     OW 7663   3.194   4.224   6.667 -0.0230  0.4336 -0.2489
 2255SOL    HW1 7664   3.117   4.179   6.713  0.7144 -0.4860  0.1109
 2255SOL    HW2 7665   3.160   4.274   6.588 -0.9620 -0.1658 -0.2444
 2256SOL     OW 7666   5.439   0.415   2.254  0.4936 -0.0933 -0.4140
 2256SOL    HW1 7667   5.465   0.320   2.238  1.1194 -0.1097  0.5867
 2256SOL    HW2 7668   5.402   0.454   2.170  1.3450 -0.8658 -1.1777
 2257SOL     OW 7669   6.538   0.980   4.978 -0.6299 -0.1356 -0.6650
 2257SOL    HW1 7670   6.523   0.882   4.969  2.3683 -0.7567  0.0186
 2257SOL    HW2 7671   6.587   1.014   4.898  0.4278  0.2731  0.1319
 2258SOL     OW 7672   2.676   6.608   4.812  0.5141 -0.4437 -0.3835
 2258SOL    HW1 7673   2.753   6.648   4.862  0.0694 -0.2464  0.1620
 2258SOL    HW2 7674   2.590   6.635   4.856  0.1578 -1.1950 -0.5952
 2259SOL     OW 7675   5.302   1.909   4.874 -0.4202  1.0329  0.1030
 2259SOL    HW1 7676   5.208   1.878   4.859  0.2026  0.1441 -2.5398
 2259SOL    HW2 7677   5.318   1.992   4.821  0.7910  0.0847 -1.0849
 2260SOL     OW 7678   1.048   3.608   1.201 -0.2610 -0.2655  0.3214
 2260SOL    HW1 7679   0.989   3.687   1.185 -1.1395 -0.5552  1.9240
 2260SOL    HW2 7680   1.016   3.531   1.145 -0.6062 -0.0558  0.2249
 2261SOL     OW 7681   5.631   4.751   0.128  0.4583  0.6169 -0.1230
 2261SOL    HW1 7682   5.657   4.750   0.225  2.1800  0.6980 -0.5433
 2261SOL    HW2 7683   5.575   4.670   0.108 -1.1193  1.3368  1.2145
 2262SOL     OW 7684   0.251   1.087   4.280 -0.6468  0.5600 -0.0588
 2262SOL    HW1 7685   0.160   1.076   4.319 -0.0980  0.4848  1.2555
 2262SOL    HW2 7686   0.298   0.998   4.277 -1.0430  0.3584 -1.9261
 2263SOL     OW 7687   0.446   5.429   4.714  0.4450  0.1033 -0.0383
 2263SOL    HW1 7688   0.363   5.449   4.662  2.0482  3.1326 -1.7683
 2263SOL    HW2 7689   0.441   5.473   4.803  0.6115  1.3483 -0.6194
 2264SOL     OW 7690   1.684   0.117   4.110  0.0677 -0.4087 -0.2408
 2264SOL    HW1 7691   1.623   0.044   4.140 -0.3534  0.3844  0.9122
 2264SOL    HW2 7692   1.777   0.082   4.101 -0.2842 -1.2779 -0.5685
 2265SOL     OW 7693   2.240   5.832   4.105 -0.0541 -0.2795 -0.1850
 2265SOL    HW1 7694   2.317   5.811   4.165 -1.7694 -0.8485  1.9692
 2265SOL    HW2 7695   2.248   5.926   4.072  2.0110 -0.6282 -0.7910
 2266SOL     OW 7696   4.601   2.093   6.892  0.5010  0.0759 -0.4108
 2266SOL    HW1 7697   4.537   2.017   6.905 -0.5638  0.9760 -0.2490
 2266SOL    HW2 7698   4.694   2.060   6.906 -0.0374 -0.8599  1.2496
 2267SOL     OW 7699   5.225   3.235   4.951  0.0197 -0.0914 -0.4277
 2267SOL    HW1 7700   5.128   3.211   4.952 -0.1533  0.5915  0.1448
 2267SOL    HW2 7701   5.238   3.323   4.998  0.7181  0.6034 -1.8659
 2268SOL     OW 7702   6.064   4.640   5.835 -0.3302 -0.2210 -0.1387
 2268SOL    HW1 7703   6.005   4.687   5.769 -3.1218 -3.0054  0.1687
 2268SOL    HW2 7704   6.122   4.707   5.881 -0.6137  2.2352 -3.0101
 2269SOL     OW 7705   1.857   3.091   0.204  0.3542  0.3299 -0.0409
 2269SOL    HW1 7706   1.950   3.128   0.215  0.2757  0.7772 -0.8603
 2269SOL    HW2 7707   1.806   3.106   0.289  1.4105 -1.0603  0.8958
 2270SOL     OW 7708   4.562   2.086   4.690 -0.1547 -0.2622  0.3169
 2270SOL    HW1 7709   4.623   2.132   4.755  0.6693  1.0150 -1.2905
 2270SOL    HW2 7710   4.467   2.114   4.708  0.3313  2.2622 -0.6707
 2271SOL     OW 7711   4.452   5.001   5.158  0.5663  0.0452  0.3434
 2271SOL    HW1 7712   4.406   4.929   5.105  1.9386 -0.2517 -0.5123
 2271SOL    HW2 7713   4.385   5.048   5.215 -0.6092 -1.0048 -0.1042
 2272SOL     OW 7714   0.284   1.140   0.260 -0.4670 -0.0974 -0.1434
 2272SOL    HW1 7715   0.314   1.142   0.164 -1.0209 -0.8126 -0.3426
 2272SOL    HW2 7716   0.272   1.233   0.293  1.8523  0.2454 -0.0722
 2273SOL     OW 7717   0.004   2.271   4.591  0.6076 -0.2822 -0.1438
 2273SOL    HW1 7718  -0.015   2.339   4.520  0.7496 -0.6691 -0.5609
 2273SOL    HW2 7719  -0.071   2.270   4.657  0.2611 -0.2171 -0.5293
 2274SOL     OW 7720   1.416   1.365   0.985 -0.2159 -0.4378  0.2607
 2274SOL    HW1 7721   1.324   1.336   1.011 -1.1407  0.4764 -1.7509
 2274SOL    HW2 7722   1.431   1.459   1.017 -0.1796 -0.4134  0.1719
 2275SOL     OW 7723   5.110   3.944   1.368 -0.1279 -0.3344 -0.1366
 2275SOL    HW1 7724   5.051   3.864   1.369 -0.3419 -0.1712  0.4445
 2275SOL    HW2 7725   5.199   3.921   1.407  0.7841 -1.0099 -2.4534
 2276SOL     OW 7726   0.497   1.410   2.011 -0.4678 -0.5665 -0.6235
 2276SOL    HW1 7727   0.419   1.387   1.952 -2.5330 -0.8900  2.0281
 2276SOL    HW2 7728   0.472   1.487   2.069  1.2062 -0.7050  0.3185
 2277SOL     OW 7729   4.071   3.742   3.953  0.6520 -0.2214 -0.4591
 2277SOL    HW1 7730   4.075   3.787   4.042  1.2025  0.9452 -1.0496
 2277SOL    HW2 7731   4.121   3.656   3.957  0.9222 -0.0429  0.2772
 2278SOL     OW 7732   0.749   1.667   4.223  0.2175 -0.5860  0.5708
 2278SOL    HW1 7733   0.707   1.659   4.314  2.3053 -1.2304  1.5214
 2278SOL    HW2 7734   0.730   1.758   4.186  0.2656  0.0857  2.1268
 2279SOL     OW 7735   0.062   0.293   5.404 -0.6708  0.4184 -0.0157
 2279SOL    HW1 7736   0.042   0.291   5.502 -0.0694  2.3234  0.1909
 2279SOL    HW2 7737  -0.003   0.352   5.357  0.2352  1.1186 -0.4326
 2280SOL     OW 7738   4.575   2.158   5.032 -0.6784 -0.7591  0.3439
 2280SOL    HW1 7739   4.603   2.253   5.047  2.1231 -1.7336  2.0167
 2280SOL    HW2 7740   4.489   2.141   5.081 -0.5336  0.5684  1.1263
 2281SOL     OW 7741   6.064   5.510   4.521 -0.0243  0.1422  0.3751
 2281SOL    HW1 7742   6.131   5.494   4.448  0.1952  0.6098  0.4720
 2281SOL    HW2 7743   6.045   5.424   4.567 -0.1713 -0.1624 -0.2375
 2282SOL     OW 7744   4.328   6.288   0.323 -0.8672  0.5048  0.0445
 2282SOL    HW1 7745   4.230   6.296   0.305 -0.5466  1.0776 -1.6797
 2282SOL    HW2 7746   4.378   6.339   0.253  0.7959 -2.5368 -1.1454
 2283SOL     OW 7747   1.168   6.109   2.732 -0.4482  0.8215  0.2204
 2283SOL    HW1 7748   1.155   6.161   2.648 -2.0478  1.5482  0.8601
 2283SOL    HW2 7749   1.100   6.138   2.800  0.5459 -0.0089  1.6408
 2284SOL     OW 7750   2.546   3.982   0.429 -0.2857  0.1706  0.7187
 2284SOL    HW1 7751   2.567   3.992   0.332 -1.7671 -0.2346  0.3441
 2284SOL    HW2 7752   2.631   3.967   0.480  0.4329 -0.3623 -0.5982
 2285SOL     OW 7753   1.172   4.699   0.144  0.2348  0.5756  0.0246
 2285SOL    HW1 7754   1.131   4.716   0.234  1.7157  2.6457  0.3701
 2285SOL    HW2 7755   1.108   4.647   0.088  0.4637 -3.7759  3.2656
 2286SOL     OW 7756   6.015   0.326   3.215 -0.1080  0.0581 -0.1939
 2286SOL    HW1 7757   5.963   0.241   3.220  1.7835 -1.3152 -2.0173
 2286SOL    HW2 7758   6.077   0.331   3.294  0.7471 -1.0105 -0.7557
 2287SOL     OW 7759   1.130   0.808   2.870 -0.3635 -0.1020 -0.0616
 2287SOL    HW1 7760   1.196   0.751   2.920  1.8496  1.1956 -1.2933
 2287SOL    HW2 7761   1.103   0.761   2.786  0.7240  0.2024 -0.6103
 2288SOL     OW 7762   1.707   6.575   3.283 -0.1699 -0.4246  0.2116
 2288SOL    HW1 7763   1.657   6.659   3.261 -0.4799 -0.4855  0.6598
 2288SOL    HW2 7764   1.652   6.495   3.259  0.7172 -0.5429 -1.5972
 2289SOL     OW 7765   2.735   4.968   2.102  0.0158 -0.3213 -0.1779
 2289SOL    HW1 7766   2.668   4.961   2.027 -0.2091 -0.2321  0.0142
 2289SOL    HW2 7767   2.749   4.877   2.142 -2.2312  0.0828  1.7278
 2290SOL     OW 7768   1.543   5.577   1.582 -0.7016  0.9927 -0.1897
 2290SOL    HW1 7769   1.495   5.523   1.514 -0.0401 -1.1463  0.9572
 2290SOL    HW2 7770   1.641   5.577   1.561  0.2333 -3.2903  2.7706
 2291SOL     OW 7771   3.562   6.750   4.914  0.1121  0.6230  0.1232
 2291SOL    HW1 7772   3.651   6.724   4.876 -0.6878 -0.4336 -1.0851
 2291SOL    HW2 7773   3.514   6.667   4.945 -1.4267  0.8919 -1.4200
 2292SOL     OW 7774   2.304   1.454   4.254  0.5485 -0.0332 -0.1231
 2292SOL    HW1 7775   2.341   1.364   4.274 -0.1546  0.0766  1.9902
 2292SOL    HW2 7776   2.242   1.482   4.328  0.6062  2.1002 -0.7933
 2293SOL     OW 7777   4.305   4.601   2.042  0.0946 -0.1046 -0.3953
 2293SOL    HW1 7778   4.220   4.572   2.084 -2.2959  4.9515 -0.9887
 2293SOL    HW2 7779   4.305   4.576   1.945 -1.1007  0.3855 -0.5408
 2294SOL     OW 7780   4.370   6.297   6.228  0.8432 -0.1434 -0.2981
 2294SOL    HW1 7781   4.360   6.201   6.256  1.1705 -0.4063 -1.0729
 2294SOL    HW2 7782   4.341   6.356   6.303 -1.5419 -0.8437 -0.5693
 2295SOL     OW 7783   6.426   2.427   0.499 -0.7246  0.8765 -0.3923
 2295SOL    HW1 7784   6.332   2.405   0.472 -0.8441  2.0977 -1.0589
 2295SOL    HW2 7785   6.432   2.434   0.598 -1.7306  2.3554 -0.4073
 2296SOL     OW 7786   3.743   5.561   1.066  0.2529  0.4440 -0.5839
 2296SOL    HW1 7787   3.829   5.610   1.070 -0.0657  0.9536  1.4222
 2296SOL    HW2 7788   3.710   5.545   1.159 -2.0951  0.7581 -1.2964
 2297SOL     OW 7789   5.601   6.322   6.246  0.0261  0.8825  0.0533
 2297SOL    HW1 7790   5.582   6.235   6.293  1.8569  0.4791  0.0902
 2297SOL    HW2 7791   5.698   6.342   6.250 -0.0387  1.8094 -1.9371
 2298SOL     OW 7792   3.979   3.554   6.917 -0.8459  0.0040 -0.4154
 2298SOL    HW1 7793   3.983   3.531   6.820 -3.6056  0.4157 -0.7072
 2298SOL    HW2 7794   4.011   3.476   6.971 -0.1168 -0.5525 -1.6054
 2299SOL     OW 7795   3.354   3.968   6.364  0.6206 -0.2218  0.3359
 2299SOL    HW1 7796   3.399   3.913   6.435  0.3318 -1.2349 -0.2642
 2299SOL    HW2 7797   3.365   3.924   6.275  0.5501  0.7938 -0.1912
 2300SOL     OW 7798   1.765   3.121   1.627 -0.0915  0.0905  0.1399
 2300SOL    HW1 7799   1.841   3.183   1.605 -0.6046  0.4945 -0.5677
 2300SOL    HW2 7800   1.684   3.175   1.648 -0.7871 -0.3121 -1.3496
 2301SOL     OW 7801   3.237   3.267   2.290  0.4172  0.1826  0.2384
 2301SOL    HW1 7802   3.246   3.272   2.389  1.1393  1.4234  0.1250
 2301SOL    HW2 7803   3.181   3.343   2.257  0.2851 -0.1470 -0.3188
 2302SOL     OW 7804   4.249   5.944   3.001  0.1613  0.1082 -0.1992
 2302SOL    HW1 7805   4.237   5.884   3.081 -2.6483  0.6914 -0.0694
 2302SOL    HW2 7806   4.346   5.967   2.991  0.8422 -1.4433  1.9440
 2303SOL     OW 7807   1.096   2.382   3.375 -0.1247  0.5864  0.0019
 2303SOL    HW1 7808   1.185   2.428   3.367 -0.8542  2.0517 -0.1064
 2303SOL    HW2 7809   1.104   2.288   3.341  1.0439  1.1258 -1.3427
 2304SOL     OW 7810   0.167   1.320   4.856  0.1436 -0.0076 -0.2449
 2304SOL    HW1 7811   0.216   1.283   4.935  0.2228 -1.5267 -0.9595
 2304SOL    HW2 7812   0.119   1.245   4.809 -1.0443  1.0854 -0.8359
 2305SOL     OW 7813   4.153   5.658   3.452  0.1426  0.1239  0.0079
 2305SOL    HW1 7814   4.154   5.572   3.503 -0.7531  0.3235  0.3880
 2305SOL    HW2 7815   4.110   5.729   3.509  0.7509  0.7859 -0.3512
 2306SOL     OW 7816   1.772   4.802   1.221  0.5961  0.5848  0.4090
 2306SOL    HW1 7817   1.869   4.817   1.202  0.3931 -1.5622 -3.1081
 2306SOL    HW2 7818   1.763   4.754   1.309  2.7297  0.5257  0.6454
 2307SOL     OW 7819   0.062   2.149   3.139 -0.6975 -0.4947 -0.3274
 2307SOL    HW1 7820   0.024   2.229   3.184 -1.1030  0.0025 -1.5033
 2307SOL    HW2 7821   0.128   2.178   3.070  0.0875 -1.2445  0.0890
 2308SOL     OW 7822   6.218   5.690   6.870 -0.4017  0.3962 -0.5009
 2308SOL    HW1 7823   6.184   5.654   6.956 -1.1813 -0.9697 -1.3349
 2308SOL    HW2 7824   6.280   5.623   6.828 -1.3617  0.2724 -1.7759
 2309SOL     OW 7825   3.681   5.835   6.950  0.1574 -0.2340 -0.1631
 2309SOL    HW1 7826   3.611   5.859   6.883 -0.5877  1.1425  1.0529
 2309SOL    HW2 7827   3.662   5.881   7.036  2.7386  0.4606  0.1278
 2310SOL     OW 7828   0.390   0.648   2.311 -0.0061 -0.1532  1.0473
 2310SOL    HW1 7829   0.435   0.737   2.312  0.5881 -0.2895 -2.4128
 2310SOL    HW2 7830   0.456   0.576   2.335  0.8245 -0.0472 -0.7933
 2311SOL     OW 7831   3.056   1.445   3.055 -0.5390 -0.1405  0.6030
 2311SOL    HW1 7832   2.993   1.368   3.066 -0.2244 -0.9933 -2.6758
 2311SOL    HW2 7833   3.004   1.530   3.043 -1.0265 -0.5664 -0.3489
 2312SOL     OW 7834   5.193   0.848   3.482  0.4504  0.6244 -0.5141
 2312SOL    HW1 7835   5.226   0.756   3.459 -1.3476 -0.5963  1.4780
 2312SOL    HW2 7836   5.232   0.876   3.570 -2.7407 -0.3934  1.3533
 2313SOL     OW 7837   5.421   4.827   1.202  0.0169  0.0720  0.3177
 2313SOL    HW1 7838   5.335   4.845   1.251  0.2644  0.5532  0.5844
 2313SOL    HW2 7839   5.455   4.737   1.228 -0.1808  0.0617  0.5479
 2314SOL     OW 7840   6.948   0.074   1.797 -0.4603 -0.6036 -0.5055
 2314SOL    HW1 7841   6.987   0.118   1.716 -4.3608  3.7853 -0.3906
 2314SOL    HW2 7842   6.961   0.133   1.877 -1.1332 -2.3902  1.0000
 2315SOL     OW 7843   5.136   5.502   0.954 -0.3043  0.5374 -0.2740
 2315SOL    HW1 7844   5.051   5.476   0.907 -0.7025  0.9765  0.1851
 2315SOL    HW2 7845   5.171   5.423   1.005  0.0626  0.0956 -1.1841
 2316SOL     OW 7846   3.810   1.405   4.234  0.8180  0.4385  0.6472
 2316SOL    HW1 7847   3.885   1.434   4.294  1.6390  1.0583 -0.6403
 2316SOL    HW2 7848   3.847   1.370   4.148 -0.3934  1.8733 -0.5124
 2317SOL     OW 7849   6.424   6.055   3.240  0.4257  0.4123  0.9061
 2317SOL    HW1 7850   6.506   6.057   3.298  1.7634  0.3254 -0.8655
 2317SOL    HW2 7851   6.386   5.963   3.238  0.8148  0.2460  1.0630
 2318SOL     OW 7852   1.609   4.672   4.990 -0.6457 -0.4916 -0.1344
 2318SOL    HW1 7853   1.611   4.738   5.065  1.3568  0.2783 -0.8079
 2318SOL    HW2 7854   1.675   4.599   5.008 -0.6291 -0.6562 -0.8504
 2319SOL     OW 7855   3.406   6.388   3.213 -0.1733 -0.0468  0.0435
 2319SOL    HW1 7856   3.358   6.301   3.201 -1.3508  0.3397  1.6364
 2319SOL    HW2 7857   3.388   6.447   3.134  1.0283 -1.3849 -1.2804
 2320SOL     OW 7858   1.108   1.505   4.699  0.1616 -0.5579 -0.0867
 2320SOL    HW1 7859   1.026   1.537   4.652 -0.0289 -2.4668 -1.1605
 2320SOL    HW2 7860   1.099   1.407   4.719  1.4895 -0.4327  1.2828
 2321SOL     OW 7861   2.745   4.431   5.347 -0.3765  0.0314 -0.5396
 2321SOL    HW1 7862   2.776   4.489   5.272  3.1073 -0.4355  0.3921
 2321SOL    HW2 7863   2.795   4.344   5.344 -0.6455 -0.2557  1.9325
 2322SOL     OW 7864   0.087   4.895   2.257  0.3322  0.2799 -0.3186
 2322SOL    HW1 7865   0.148   4.950   2.314  0.0634  0.0319  0.2118
 2322SOL    HW2 7866   0.118   4.800   2.256  0.8545  0.4395 -1.3151
 2323SOL     OW 7867   2.328   4.743   1.110 -0.4144  0.4174  0.0418
 2323SOL    HW1 7868   2.408   4.727   1.167 -0.3313 -0.9520 -0.3969
 2323SOL    HW2 7869   2.326   4.838   1.080  2.4083 -0.0089 -1.9094
 2324SOL     OW 7870   0.382   5.430   1.687 -0.1096 -0.1920  0.2840
 2324SOL    HW1 7871   0.365   5.358   1.754 -0.3503 -1.3083 -0.9282
 2324SOL    HW2 7872   0.434   5.503   1.729  0.8117 -1.4268  1.3685
 2325SOL     OW 7873   5.486   5.906   1.261  0.4882 -0.2096 -0.5815
 2325SOL    HW1 7874   5.574   5.860   1.251  0.5875 -1.0808  2.8725
 2325SOL    HW2 7875   5.415   5.838   1.278  0.2705  0.6434  2.5095
 2326SOL     OW 7876   1.734   1.122   0.170 -0.1675  0.2334  0.5558
 2326SOL    HW1 7877   1.712   1.208   0.126 -1.1158  0.3044  1.1529
 2326SOL    HW2 7878   1.779   1.140   0.258  0.2887  0.1091  0.3501
 2327SOL     OW 7879   6.424   0.395   0.401  0.5785 -0.4554 -0.2513
 2327SOL    HW1 7880   6.351   0.327   0.391  0.6873 -1.1741  2.8350
 2327SOL    HW2 7881   6.385   0.487   0.394 -0.1222 -0.8135 -1.2975
 2328SOL     OW 7882   0.932   2.953   3.305  0.2956  0.6297 -0.8832
 2328SOL    HW1 7883   0.893   2.922   3.392 -0.3358  0.4637 -1.2205
 2328SOL    HW2 7884   0.985   2.878   3.264  0.1678  0.5406 -0.8868
 2329SOL     OW 7885   2.092   0.089   5.394 -0.2418  0.1363 -0.2406
 2329SOL    HW1 7886   2.012   0.043   5.433  0.3561  0.1640  1.0622
 2329SOL    HW2 7887   2.131   0.032   5.321 -0.3920 -0.7276  0.3355
 2330SOL     OW 7888   5.711   3.400   6.531 -0.0700  0.3569  0.4368
 2330SOL    HW1 7889   5.619   3.422   6.562 -0.7694 -1.0325 -0.5472
 2330SOL    HW2 7890   5.718   3.417   6.432 -0.4205 -2.8307 -0.2447
 2331SOL     OW 7891   4.481   4.510   0.553 -0.1407 -0.3277 -0.1903
 2331SOL    HW1 7892   4.510   4.415   0.543 -1.6223 -0.6469 -2.2072
 2331SOL    HW2 7893   4.388   4.512   0.590 -0.3291  0.2854 -0.6829
 2332SOL     OW 7894   6.046   1.426   6.583  0.3328 -0.0982  0.0777
 2332SOL    HW1 7895   6.094   1.466   6.662  1.8315 -1.4484 -0.1033
 2332SOL    HW2 7896   5.976   1.362   6.615 -0.7821  1.1907  0.3230
 2333SOL     OW 7897   7.003   4.455   1.083 -0.0960  0.2032 -0.2767
 2333SOL    HW1 7898   7.014   4.551   1.108 -1.1281  0.1488  0.4714
 2333SOL    HW2 7899   7.017   4.445   0.985  1.0808  0.9293 -0.2066
 2334SOL     OW 7900   2.653   1.296   5.979  0.0704  0.5023  0.3597
 2334SOL    HW1 7901   2.682   1.253   6.065 -2.7080 -0.5780  0.8877
 2334SOL    HW2 7902   2.661   1.231   5.904 -2.4875 -0.5149  0.8496
 2335SOL     OW 7903   5.372   6.814   4.232  0.4684  0.5216  0.5244
 2335SOL    HW1 7904   5.462   6.789   4.196 -0.3215 -0.5121 -0.8246
 2335SOL    HW2 7905   5.378   6.825   4.332  1.9970  0.1029  0.5060
 2336SOL     OW 7906   1.362   1.265   3.397  0.6053 -0.3940 -0.0559
 2336SOL    HW1 7907   1.416   1.182   3.412  2.5567  0.8249  0.0453
 2336SOL    HW2 7908   1.365   1.289   3.300  1.3968  0.3760  0.1380
 2337SOL     OW 7909   3.293   1.223   1.706 -0.0967  0.2823  0.3255
 2337SOL    HW1 7910   3.198   1.254   1.699 -0.2043 -0.1173 -0.0398
 2337SOL    HW2 7911   3.345   1.259   1.628 -0.0988 -0.0123  0.1858
 2338SOL     OW 7912   1.203   4.977   3.732 -0.1168 -0.1499  0.4455
 2338SOL    HW1 7913   1.236   4.959   3.640  2.7091  0.4912  1.2131
 2338SOL    HW2 7914   1.156   4.896   3.768 -2.3653  0.0004 -1.8945
 2339SOL     OW 7915   3.397   3.667   2.237 -0.1104 -0.0835 -0.2483
 2339SOL    HW1 7916   3.335   3.722   2.181  0.3365  0.2633 -0.4055
 2339SOL    HW2 7917   3.451   3.607   2.179 -0.5267 -0.6309 -0.0852
 2340SOL     OW 7918   0.716   4.715   6.322 -0.2776 -0.2138 -0.1934
 2340SOL    HW1 7919   0.745   4.766   6.242  1.2806 -0.4508  0.1803
 2340SOL    HW2 7920   0.641   4.763   6.367  2.9078  3.5430  1.8143
 2341SOL     OW 7921   2.554   4.935   3.738  0.2141  0.2052 -0.5127
 2341SOL    HW1 7922   2.516   4.946   3.830 -0.2828 -0.7008 -0.5954
 2341SOL    HW2 7923   2.534   5.016   3.683 -0.8177  0.1123 -0.2816
 2342SOL     OW 7924   4.195   0.397   5.864 -0.1242 -0.4221 -0.5602
 2342SOL    HW1 7925   4.273   0.385   5.925 -0.4767 -1.1075 -0.2334
 2342SOL    HW2 7926   4.124   0.331   5.888 -0.9904  0.4857 -0.5546
 2343SOL     OW 7927   1.953   5.346   3.416 -0.0764  0.7041  0.3655
 2343SOL    HW1 7928   2.013   5.366   3.494 -1.4878  1.3285  1.3478
 2343SOL    HW2 7929   1.998   5.375   3.331  2.4991 -2.1092  0.5936
 2344SOL     OW 7930   6.425   4.059   1.317  0.3867 -0.1950 -0.0706
 2344SOL    HW1 7931   6.409   3.971   1.272  1.0744 -0.0860 -0.5326
 2344SOL    HW2 7932   6.402   4.134   1.254  0.2072 -0.0386  0.1766
 2345SOL     OW 7933   3.177   6.718   4.869  0.7068 -0.3463  0.0214
 2345SOL    HW1 7934   3.252   6.764   4.822 -0.0815  2.5430  1.3455
 2345SOL    HW2 7935   3.093   6.771   4.856 -0.1569 -1.1050  2.1584
 2346SOL     OW 7936   6.610   3.216   5.308 -0.2385  0.9364 -0.1729
 2346SOL    HW1 7937   6.537   3.229   5.375 -1.2737 -0.8086 -0.9042
 2346SOL    HW2 7938   6.662   3.301   5.300 -3.5416  3.0766 -1.2577
 2347SOL     OW 7939   0.635   3.609   2.806 -0.0788 -0.4147  0.2870
 2347SOL    HW1 7940   0.599   3.576   2.893  0.7340 -0.1794  0.7230
 2347SOL    HW2 7941   0.732   3.631   2.816 -0.4251  1.5377 -0.1423
 2348SOL     OW 7942   1.746   5.056   4.180  0.0234  0.1381 -0.4455
 2348SOL    HW1 7943   1.814   5.116   4.220 -1.1155  0.9315  0.3493
 2348SOL    HW2 7944   1.757   4.964   4.217 -0.0325  0.5104  0.5072
 2349SOL     OW 7945   1.845   4.057   1.735  0.1965 -0.2111  0.0081
 2349SOL    HW1 7946   1.776   4.017   1.794  0.0897  0.9053  0.6638
 2349SOL    HW2 7947   1.928   4.076   1.788  0.1528  0.6655 -0.2230
 2350SOL     OW 7948   6.289   4.690   5.114 -0.1233  0.2582 -0.2884
 2350SOL    HW1 7949   6.305   4.666   5.018  0.9568  1.2223 -0.3663
 2350SOL    HW2 7950   6.276   4.789   5.122 -1.3932  0.0544  0.4236
 2351SOL     OW 7951   2.676   4.698   3.167 -0.0806 -0.3944  0.3313
 2351SOL    HW1 7952   2.619   4.755   3.227 -1.0494  0.4600 -1.3118
 2351SOL    HW2 7953   2.759   4.749   3.142  0.0822 -0.5561  0.5358
 2352SOL     OW 7954   6.218   3.537   3.575  0.0568 -0.0277 -0.6405
 2352SOL    HW1 7955   6.186   3.627   3.548  0.8603  0.5425  0.2594
 2352SOL    HW2 7956   6.305   3.518   3.529 -0.2448 -0.4649 -1.0396
 2353SOL     OW 7957   3.551   0.128   4.814 -0.1366 -0.3076  0.0844
 2353SOL    HW1 7958   3.468   0.103   4.863  0.7527  0.8290  2.2621
 2353SOL    HW2 7959   3.618   0.054   4.824 -0.0512 -0.1952  0.3338
 2354SOL     OW 7960   3.912   1.731   3.593  0.1437 -0.3518  0.2578
 2354SOL    HW1 7961   3.885   1.790   3.670  1.2165 -2.0082  2.0056
 2354SOL    HW2 7962   3.997   1.767   3.553  0.5744 -0.4469  1.0535
 2355SOL     OW 7963   5.475   6.696   2.554 -0.2055 -0.2537 -0.1734
 2355SOL    HW1 7964   5.433   6.744   2.631  0.3377  1.1688 -0.7340
 2355SOL    HW2 7965   5.559   6.651   2.585  0.8359  1.5708 -0.2097
 2356SOL     OW 7966   5.854   4.101   6.703 -0.2509 -0.5840 -0.8436
 2356SOL    HW1 7967   5.931   4.159   6.728 -1.9404  0.8736  1.3970
 2356SOL    HW2 7968   5.826   4.121   6.609 -0.4073  1.8891 -0.3444
 2357SOL     OW 7969   1.757   2.304   2.173  0.2240 -0.2018  0.4705
 2357SOL    HW1 7970   1.840   2.360   2.175 -0.0610  0.2214  0.4047
 2357SOL    HW2 7971   1.777   2.215   2.214  0.2209  0.5505  2.1873
 2358SOL     OW 7972   3.558   4.726   6.221  0.1496 -0.1208  0.8923
 2358SOL    HW1 7973   3.557   4.702   6.318 -0.1115  2.1594  1.5139
 2358SOL    HW2 7974   3.633   4.677   6.175  2.5130  1.3026  2.9722
 2359SOL     OW 7975   6.862   0.042   5.518 -0.1712  0.3312 -0.7525
 2359SOL    HW1 7976   6.958   0.014   5.517 -0.6272 -1.2972 -1.5664
 2359SOL    HW2 7977   6.818   0.006   5.600 -1.0547 -2.5993 -2.3797
 2360SOL     OW 7978   6.673   4.788   6.925 -0.1641  0.6268  0.3619
 2360SOL    HW1 7979   6.710   4.695   6.915  0.9351  1.1004 -0.0788
 2360SOL    HW2 7980   6.575   4.787   6.902 -0.2943 -0.5255  0.9186
 2361SOL     OW 7981   1.295   1.095   4.751  0.6290  0.1157 -0.0966
 2361SOL    HW1 7982   1.279   1.156   4.829  0.2046  0.1878 -0.2377
 2361SOL    HW2 7983   1.212   1.090   4.695  0.9058  0.0012 -0.5002
 2362SOL     OW 7984   3.034   4.841   3.797 -0.4828 -0.1919  0.3266
 2362SOL    HW1 7985   3.008   4.919   3.854 -0.8869 -1.5293  2.0559
 2362SOL    HW2 7986   2.953   4.799   3.758 -0.2508  0.3213 -0.7656
 2363SOL     OW 7987   4.325   0.831   4.907  0.6554 -0.1411 -0.7306
 2363SOL    HW1 7988   4.298   0.850   4.812  0.2195 -0.3409 -0.6491
 2363SOL    HW2 7989   4.408   0.775   4.907  0.0090 -1.1272 -1.0219
 2364SOL     OW 7990   0.567   1.315   3.397  0.1798  0.5287  0.3475
 2364SOL    HW1 7991   0.629   1.244   3.363 -0.1903  0.1027  0.5531
 2364SOL    HW2 7992   0.532   1.289   3.487 -1.2977  0.1123 -0.2967
 2365SOL     OW 7993   4.141   3.372   0.354  0.3521 -0.2034  0.3714
 2365SOL    HW1 7994   4.134   3.305   0.427 -0.3241  0.2444  0.7220
 2365SOL    HW2 7995   4.070   3.441   0.365 -0.0402 -0.3649 -0.9488
 2366SOL     OW 7996   2.921   4.219   5.279 -0.5136  0.3274 -0.5601
 2366SOL    HW1 7997   2.950   4.169   5.360  0.6270  0.6528 -0.7338
 2366SOL    HW2 7998   2.857   4.164   5.226  0.3263 -0.7475 -0.4896
 2367SOL     OW 7999   1.871   2.337   1.429  0.1447 -0.0641  0.1195
 2367SOL    HW1 8000   1.828   2.367   1.514 -0.5270 -3.1556  1.0129
 2367SOL    HW2 8001   1.967   2.316   1.445  0.1812 -0.0324 -0.0529
 2368SOL     OW 8002   5.677   0.795   4.994 -0.2339  0.1987  0.8861
 2368SOL    HW1 8003   5.659   0.798   4.896 -0.8351 -2.2751  0.8444
 2368SOL    HW2 8004   5.774   0.775   5.010 -0.1242  0.6594  0.8092
 2369SOL     OW 8005   4.426   0.365   3.929  0.3950 -0.5039 -0.1799
 2369SOL    HW1 8006   4.465   0.448   3.967  2.1434 -0.8066 -1.2204
 2369SOL    HW2 8007   4.479   0.336   3.849  0.2799 -3.0014  0.5538
 2370SOL     OW 8008   5.011   1.865   5.736 -0.3491 -0.3456 -0.0604
 2370SOL    HW1 8009   4.973   1.909   5.654  1.3687  1.4158  0.0284
 2370SOL    HW2 8010   4.993   1.921   5.816  1.2996 -0.0803  0.1616
 2371SOL     OW 8011   3.693   6.454   0.870 -0.3466 -0.1076 -0.4432
 2371SOL    HW1 8012   3.779   6.496   0.897 -0.2832  0.9694 -2.1861
 2371SOL    HW2 8013   3.617   6.511   0.901 -0.4119 -0.6716  0.4479
 2372SOL     OW 8014   5.579   3.789   0.345  0.3734  0.4849  0.2399
 2372SOL    HW1 8015   5.649   3.766   0.278 -1.3468 -2.7558 -0.6683
 2372SOL    HW2 8016   5.618   3.788   0.437  1.2308 -3.3824 -0.0179
 2373SOL     OW 8017   1.295   4.601   0.568 -0.0106 -0.0956 -0.2673
 2373SOL    HW1 8018   1.393   4.602   0.586  0.1151  0.5050 -0.9410
 2373SOL    HW2 8019   1.271   4.521   0.514 -0.0798 -0.8424  0.8313
 2374SOL     OW 8020   6.873   0.884   5.475 -0.0371 -0.2905 -0.3758
 2374SOL    HW1 8021   6.949   0.904   5.537 -0.2791  0.0530 -0.1892
 2374SOL    HW2 8022   6.866   0.785   5.462 -0.6515 -0.4522  1.0065
 2375SOL     OW 8023   4.061   6.190   4.369 -0.5564  0.4057 -0.1440
 2375SOL    HW1 8024   4.059   6.212   4.272  2.4377 -3.3773 -1.2868
 2375SOL    HW2 8025   4.139   6.236   4.412  0.8529 -1.3602 -0.6878
 2376SOL     OW 8026   6.394   6.482   1.481  0.4230 -0.6208 -0.6079
 2376SOL    HW1 8027   6.366   6.388   1.496 -1.8880  0.2723  1.5098
 2376SOL    HW2 8028   6.490   6.493   1.506  0.0767 -1.9778  1.5792
 2377SOL     OW 8029   3.932   3.223   3.377 -0.6800  0.0474 -0.1378
 2377SOL    HW1 8030   3.952   3.196   3.471 -0.7652  2.9339  0.8036
 2377SOL    HW2 8031   3.833   3.231   3.366 -0.9672 -3.4912 -1.5658
 2378SOL     OW 8032   3.414   1.235   1.427  0.0529  0.0360 -0.2793
 2378SOL    HW1 8033   3.445   1.169   1.359 -0.5727 -0.4313 -0.1147
 2378SOL    HW2 8034   3.314   1.238   1.428  0.0765  1.1778 -0.4645
 2379SOL     OW 8035   0.399   1.863   1.332 -0.3934 -0.2847 -0.3074
 2379SOL    HW1 8036   0.344   1.853   1.249  0.9821 -0.3143 -1.2440
 2379SOL    HW2 8037   0.496   1.855   1.309  0.0338  0.0575  1.2609
 2380SOL     OW 8038   5.118   2.077   0.395  0.2970  0.1143 -0.0837
 2380SOL    HW1 8039   5.090   1.994   0.442 -1.0211  0.8107  0.3890
 2380SOL    HW2 8040   5.132   2.057   0.298  1.7644 -1.0348  0.3119
 2381SOL     OW 8041   1.600   5.246   2.228 -0.3379 -0.0723  0.2341
 2381SOL    HW1 8042   1.631   5.210   2.140  1.3008  1.6389  0.0502
 2381SOL    HW2 8043   1.515   5.200   2.254 -0.2514 -1.4482 -1.6580
 2382SOL     OW 8044   1.654   4.003   6.918  0.4061 -0.1711  0.2962
 2382SOL    HW1 8045   1.641   4.002   6.819  0.5165  0.0352  0.2778
 2382SOL    HW2 8046   1.568   4.026   6.963  0.0645 -1.4312  0.3099
 2383SOL     OW 8047   5.983   6.607   2.135  0.4185 -0.0078 -0.6517
 2383SOL    HW1 8048   5.897   6.559   2.126  0.0658 -0.2245  2.6127
 2383SOL    HW2 8049   5.966   6.704   2.151  0.9246  0.3885 -2.3358
 2384SOL     OW 8050   3.352   3.278   0.486 -0.0813  0.2743 -0.1712
 2384SOL    HW1 8051   3.366   3.195   0.540  1.1128  0.4701 -0.1611
 2384SOL    HW2 8052   3.440   3.312   0.454 -0.6176  1.2039 -0.6849
 2385SOL     OW 8053   1.820   1.294   5.703 -0.2600 -0.2421 -0.1289
 2385SOL    HW1 8054   1.759   1.231   5.657  0.3963 -0.7455 -0.3195
 2385SOL    HW2 8055   1.907   1.298   5.654 -0.7189  1.7893 -0.8812
 2386SOL     OW 8056   6.642   6.935   3.674 -0.1653 -0.0073  0.0177
 2386SOL    HW1 8057   6.721   6.972   3.625  0.0677 -0.7837 -0.2179
 2386SOL    HW2 8058   6.672   6.859   3.731 -0.6893 -0.0745  0.2033
 2387SOL     OW 8059   1.610   1.283   3.090 -0.5355 -0.0922  0.1808
 2387SOL    HW1 8060   1.682   1.308   3.025 -0.2831  1.1132  0.8776
 2387SOL    HW2 8061   1.573   1.366   3.131 -1.8850 -0.7414  0.3151
 2388SOL     OW 8062   0.518   2.598   4.309 -0.1435  0.7341 -0.0002
 2388SOL    HW1 8063   0.487   2.569   4.399 -0.3768 -0.8874 -0.5656
 2388SOL    HW2 8064   0.608   2.559   4.290  0.7848  2.6190  0.2512
 2389SOL     OW 8065   5.321   3.889   3.514 -0.2293 -0.0096  0.5202
 2389SOL    HW1 8066   5.375   3.848   3.441 -0.1112 -1.6136  1.4564
 2389SOL    HW2 8067   5.340   3.841   3.600 -1.7501  0.6229  1.2471
 2390SOL     OW 8068   3.486   3.659   3.867 -0.0044 -0.2381  0.0495
 2390SOL    HW1 8069   3.546   3.660   3.948  0.4806 -1.9638 -0.2551
 2390SOL    HW2 8070   3.538   3.627   3.788  0.1033  3.2589 -1.5040
 2391SOL     OW 8071   4.259   5.604   6.073  0.3135  0.2727  0.0235
 2391SOL    HW1 8072   4.185   5.602   6.141 -0.2809 -1.1345 -0.6300
 2391SOL    HW2 8073   4.338   5.653   6.111 -0.5670  0.8988  1.1182
 2392SOL     OW 8074   1.456   6.937   3.988  0.5135  0.6561 -0.1031
 2392SOL    HW1 8075   1.408   6.871   3.931  1.1775  0.4065 -0.3795
 2392SOL    HW2 8076   1.455   6.907   4.083 -0.0223  0.7415 -0.0777
 2393SOL     OW 8077   4.641   3.753   1.385  0.0702  0.1682 -0.0206
 2393SOL    HW1 8078   4.724   3.704   1.413  0.5041  0.2009 -1.1759
 2393SOL    HW2 8079   4.667   3.837   1.338 -0.5986 -0.0493 -0.8014
 2394SOL     OW 8080   0.269   6.244   4.747 -0.6573  0.2460 -0.3042
 2394SOL    HW1 8081   0.185   6.194   4.767 -1.4528  1.0496 -1.5008
 2394SOL    HW2 8082   0.336   6.180   4.708 -0.3134 -0.6008  1.5793
 2395SOL     OW 8083   5.559   6.341   4.341  0.0913  0.0016  0.2754
 2395SOL    HW1 8084   5.573   6.277   4.417  0.4008  1.0433  1.1168
 2395SOL    HW2 8085   5.569   6.292   4.254  0.5404 -1.0434  0.8980
 2396SOL     OW 8086   3.698   6.569   0.235 -0.8858 -0.2205  0.7154
 2396SOL    HW1 8087   3.763   6.576   0.311  0.8303  1.0454 -0.7752
 2396SOL    HW2 8088   3.653   6.657   0.221  1.4260  0.6948 -1.8233
 2397SOL     OW 8089   0.558   3.668   3.266 -0.0828 -0.5130  0.2903
 2397SOL    HW1 8090   0.627   3.730   3.230  0.1911 -0.8349  0.2539
 2397SOL    HW2 8091   0.467   3.707   3.252  0.1666  0.8419  2.1271
 2398SOL     OW 8092   4.766   4.743   6.093 -0.0547 -0.0943 -0.0551
 2398SOL    HW1 8093   4.838   4.727   6.160  1.0176 -0.0356 -1.1518
 2398SOL    HW2 8094   4.687   4.686   6.114  0.1784  0.0715  1.3572
 2399SOL     OW 8095   3.233   0.726   0.798  0.2052  0.5163  0.4274
 2399SOL    HW1 8096   3.250   0.676   0.713  1.4587 -0.4981  1.2376
 2399SOL    HW2 8097   3.317   0.728   0.853 -0.0662  2.7794  0.8300
 2400SOL     OW 8098   1.885   2.741   1.727  0.1716  0.2774  0.1062
 2400SOL    HW1 8099   1.865   2.787   1.641  0.3572  0.1835  0.0126
 2400SOL    HW2 8100   1.967   2.782   1.768  1.0352 -0.7526 -0.5600
 2401SOL     OW 8101   6.306   4.965   6.732 -0.3051  0.0073  0.0787
 2401SOL    HW1 8102   6.364   4.909   6.791 -0.6890  0.8168  1.2460
 2401SOL    HW2 8103   6.342   5.058   6.729 -0.9184  0.2437 -0.0778
 2402SOL     OW 8104   0.693   4.708   3.980 -0.7438  0.3200 -0.2589
 2402SOL    HW1 8105   0.656   4.620   4.009  0.0590  0.2434  0.5945
 2402SOL    HW2 8106   0.790   4.697   3.958 -0.1951  1.2951  1.4828
 2403SOL     OW 8107   1.990   1.937   5.704 -0.7453  0.5896 -0.5657
 2403SOL    HW1 8108   2.055   1.972   5.772  0.1645 -0.4131 -0.9026
 2403SOL    HW2 8109   1.931   2.012   5.674  0.3246  1.5602 -0.3344
 2404SOL     OW 8110   1.942   1.498   1.586 -0.2495  0.3779 -0.0865
 2404SOL    HW1 8111   1.989   1.578   1.623  0.6743 -0.3753  0.4258
 2404SOL    HW2 8112   1.861   1.527   1.536  0.2221  1.6477 -0.1481
 2405SOL     OW 8113   3.262   3.812   2.050  0.0463  0.2899  0.1387
 2405SOL    HW1 8114   3.274   3.854   1.960 -1.0841 -1.4353 -0.8658
 2405SOL    HW2 8115   3.254   3.884   2.119  1.1241  1.6461 -1.0920
 2406SOL     OW 8116   4.726   2.375   2.701  0.4144  0.1201 -0.2149
 2406SOL    HW1 8117   4.798   2.369   2.632  0.4298  1.6254 -0.3555
 2406SOL    HW2 8118   4.766   2.402   2.789  0.3743 -1.6555  0.3955
 2407SOL     OW 8119   4.639   2.625   4.252 -0.4346 -0.0887 -0.7936
 2407SOL    HW1 8120   4.735   2.599   4.241 -0.0384  0.0085  1.8420
 2407SOL    HW2 8121   4.583   2.575   4.186  1.5082  0.7215 -3.1738
 2408SOL     OW 8122   4.209   5.213   1.358 -0.4739 -0.0374  0.1125
 2408SOL    HW1 8123   4.280   5.147   1.382  0.4543  1.1241  0.6666
 2408SOL    HW2 8124   4.176   5.258   1.440 -0.3189  0.9518 -0.3585
 2409SOL     OW 8125   2.811   1.426   0.913  0.3125  0.2103 -0.3010
 2409SOL    HW1 8126   2.715   1.400   0.906  0.8589 -1.8732 -0.7590
 2409SOL    HW2 8127   2.843   1.410   1.007 -0.0022  1.9047  0.1412
 2410SOL     OW 8128   3.800   4.077   2.976 -0.1414 -0.1389 -0.2670
 2410SOL    HW1 8129   3.788   4.043   2.883 -0.5953  0.9142 -0.6134
 2410SOL    HW2 8130   3.868   4.022   3.023  0.6676 -0.2177 -1.4772
 2411SOL     OW 8131   3.958   1.125   5.474  0.2931  0.2177  0.5044
 2411SOL    HW1 8132   3.987   1.047   5.530 -3.7482 -0.1156  2.5137
 2411SOL    HW2 8133   3.980   1.210   5.521  0.0561  0.0819  0.8618
 2412SOL     OW 8134   4.388   3.883   1.378 -1.0236  0.1076  0.1502
 2412SOL    HW1 8135   4.307   3.848   1.427 -2.8422  1.7155 -1.5137
 2412SOL    HW2 8136   4.467   3.828   1.402 -2.4419 -1.1313  2.4149
 2413SOL     OW 8137   4.415   6.026   2.391 -0.7066  0.1911 -0.3848
 2413SOL    HW1 8138   4.462   6.075   2.318 -0.3825  0.1298 -0.2173
 2413SOL    HW2 8139   4.354   5.957   2.351 -1.8511  1.3225 -0.6591
 2414SOL     OW 8140   6.943   2.481   4.382  0.1894  0.3097  0.1313
 2414SOL    HW1 8141   6.849   2.480   4.416 -0.5250 -1.2468 -1.6970
 2414SOL    HW2 8142   6.946   2.525   4.292  0.9184 -0.9658 -0.4938
 2415SOL     OW 8143   5.145   1.515   4.141 -0.0540  0.1234 -0.2587
 2415SOL    HW1 8144   5.078   1.443   4.124 -1.3407  1.0552  0.6246
 2415SOL    HW2 8145   5.135   1.548   4.235  0.4623  1.4766 -0.6536
 2416SOL     OW 8146   4.717   1.312   0.520 -0.8281  0.0312 -0.2530
 2416SOL    HW1 8147   4.647   1.286   0.586  0.2329 -0.0212  0.8676
 2416SOL    HW2 8148   4.748   1.405   0.538 -1.6527  0.6305 -1.6920
 2417SOL     OW 8149   2.854   3.694   6.038 -0.0799  0.0608 -0.4769
 2417SOL    HW1 8150   2.834   3.744   6.122  1.3241 -0.8814  0.4646
 2417SOL    HW2 8151   2.826   3.749   5.959  1.7667  2.5703  0.4566
 2418SOL     OW 8152   3.316   3.527   4.016  0.5521  0.5665 -0.2997
 2418SOL    HW1 8153   3.380   3.566   3.950  0.1533  1.9206  0.0913
 2418SOL    HW2 8154   3.273   3.600   4.070  0.2528 -0.4482  0.9044
 2419SOL     OW 8155   2.764   6.740   5.750  0.0891 -0.1521  0.1634
 2419SOL    HW1 8156   2.824   6.663   5.728  0.2434 -0.1910  0.7099
 2419SOL    HW2 8157   2.679   6.705   5.789 -1.1059 -0.2165 -2.3266
 2420SOL     OW 8158   1.802   6.848   6.071  0.0502  0.1951 -0.6216
 2420SOL    HW1 8159   1.780   6.789   6.148  0.5743 -0.5789 -1.0572
 2420SOL    HW2 8160   1.894   6.827   6.038  0.4434  1.5827 -0.4746
 2421SOL     OW 8161   2.517   6.231   4.000  0.1090  0.3806  0.5597
 2421SOL    HW1 8162   2.583   6.156   4.006  1.1731  0.9883 -2.2606
 2421SOL    HW2 8163   2.425   6.194   3.990  0.4864 -0.5363  0.3702
 2422SOL     OW 8164   5.698   1.781   1.383  0.8868 -0.2967 -0.5023
 2422SOL    HW1 8165   5.652   1.694   1.398 -3.3851  1.6301 -0.8809
 2422SOL    HW2 8166   5.681   1.812   1.289 -0.4635  2.2843  0.4932
 2423SOL     OW 8167   3.821   5.508   2.734 -0.3301 -0.2468  0.1706
 2423SOL    HW1 8168   3.873   5.424   2.748  0.1416 -0.0751 -0.4728
 2423SOL    HW2 8169   3.815   5.558   2.820 -0.8881 -1.0875  0.6255
 2424SOL     OW 8170   0.551   1.973   6.691  0.4353  0.3800  0.7646
 2424SOL    HW1 8171   0.593   2.041   6.751  1.0806  0.6815 -0.0003
 2424SOL    HW2 8172   0.565   2.000   6.596  2.0439 -1.5527  0.3790
 2425SOL     OW 8173   1.658   6.047   5.757 -0.4705  0.2198 -0.5951
 2425SOL    HW1 8174   1.747   6.026   5.718 -0.2178  2.8429 -1.6025
 2425SOL    HW2 8175   1.586   6.005   5.702  0.0690 -1.6185  0.0269
 2426SOL     OW 8176   0.909   3.924   4.742 -0.5588 -0.1327  0.1763
 2426SOL    HW1 8177   0.856   3.988   4.797  0.2905  0.5568  0.2175
 2426SOL    HW2 8178   0.855   3.895   4.663 -0.4111  1.8844 -0.7211
 2427SOL     OW 8179   0.242   1.372   3.551  0.3363 -0.1992 -0.6488
 2427SOL    HW1 8180   0.301   1.318   3.611 -1.6169 -0.9898  0.6596
 2427SOL    HW2 8181   0.219   1.459   3.595  0.0937 -0.1268 -0.9114
 2428SOL     OW 8182   6.930   6.282   6.611 -0.0174 -0.2063 -0.4499
 2428SOL    HW1 8183   6.850   6.222   6.615 -1.4464  1.3814 -2.5925
 2428SOL    HW2 8184   6.994   6.247   6.543  0.2502 -0.5312 -0.0294
 2429SOL     OW 8185   2.968   1.294   0.394  0.3027 -0.5455 -0.0272
 2429SOL    HW1 8186   3.047   1.301   0.455  1.1380  0.8216 -1.2020
 2429SOL    HW2 8187   2.889   1.340   0.435  0.7598  0.0629  0.1774
 2430SOL     OW 8188   5.017   1.171   3.681 -0.0219  0.3386 -0.0465
 2430SOL    HW1 8189   4.943   1.146   3.743 -0.3456 -1.3637 -1.0662
 2430SOL    HW2 8190   5.099   1.192   3.734 -0.5519 -0.1294  0.9907
 2431SOL     OW 8191   4.876   1.888   2.032  0.3600  0.1398 -0.3552
 2431SOL    HW1 8192   4.799   1.835   2.067 -1.1212  1.9274 -0.7523
 2431SOL    HW2 8193   4.912   1.947   2.103  0.3986  0.3936 -0.5840
 2432SOL     OW 8194   2.175   6.146   2.472  0.3671 -0.6072 -0.3987
 2432SOL    HW1 8195   2.132   6.236   2.473  1.6088  0.0466 -2.2763
 2432SOL    HW2 8196   2.104   6.076   2.462 -0.4733  0.2707 -0.7616
 2433SOL     OW 8197   3.592   6.196   6.734 -0.2545  0.5734  0.0613
 2433SOL    HW1 8198   3.534   6.275   6.713 -0.4190  0.6644  0.8324
 2433SOL    HW2 8199   3.610   6.193   6.832 -0.9567 -0.8194  0.1758
 2434SOL     OW 8200   4.642   1.881   5.443  0.0997 -0.0922  0.2589
 2434SOL    HW1 8201   4.587   1.960   5.416  0.8089 -0.3065 -2.0531
 2434SOL    HW2 8202   4.586   1.798   5.437 -0.2507  0.0534  1.3105
 2435SOL     OW 8203   5.579   5.438   3.654  0.6753  0.0412 -0.0010
 2435SOL    HW1 8204   5.595   5.493   3.572  1.0204 -2.7897 -2.0031
 2435SOL    HW2 8205   5.481   5.431   3.670  0.5692  0.0580 -0.6014
 2436SOL     OW 8206   1.978   4.539   1.825 -0.0357  0.0188 -0.2822
 2436SOL    HW1 8207   2.006   4.634   1.821 -0.3822  0.1604  0.4753
 2436SOL    HW2 8208   1.971   4.502   1.732  2.6725 -0.0453 -0.5523
 2437SOL     OW 8209   5.949   0.659   4.433  0.1135  0.0804 -0.2356
 2437SOL    HW1 8210   6.021   0.718   4.468 -0.3315  1.0821 -0.9548
 2437SOL    HW2 8211   5.915   0.695   4.346  0.6050 -1.8709 -1.3116
 2438SOL     OW 8212   7.005   3.653   1.893  0.1821  0.2462 -0.3847
 2438SOL    HW1 8213   6.986   3.743   1.933  0.7491  0.1173  0.2076
 2438SOL    HW2 8214   7.062   3.600   1.957 -0.2961 -0.6011 -0.6424
 2439SOL     OW 8215   5.522   6.100   3.502 -0.0492 -0.4635  0.5398
 2439SOL    HW1 8216   5.535   6.193   3.537 -0.9187 -0.1928  0.1741
 2439SOL    HW2 8217   5.438   6.096   3.448  0.5017 -1.2158 -0.3053
 2440SOL     OW 8218   5.327   5.004   6.191 -0.4449 -0.2217 -0.1994
 2440SOL    HW1 8219   5.300   4.989   6.286  0.8752 -0.5443  0.1439
 2440SOL    HW2 8220   5.271   4.947   6.130 -1.4642  0.1735  0.3471
 2441SOL     OW 8221   6.580   3.090   6.272  0.1376 -0.0970 -0.5093
 2441SOL    HW1 8222   6.590   3.127   6.180 -0.8884 -3.1969 -1.9971
 2441SOL    HW2 8223   6.484   3.076   6.293  0.3926 -0.0319  0.8206
 2442SOL     OW 8224   0.074   6.152   3.891  0.0941  0.5991 -0.4106
 2442SOL    HW1 8225   0.004   6.223   3.888  1.2830  1.7995 -0.8352
 2442SOL    HW2 8226   0.107   6.133   3.799  1.1058  0.8874 -0.1310
 2443SOL     OW 8227   1.542   4.299   5.158 -0.4739 -0.2104 -0.0538
 2443SOL    HW1 8228   1.535   4.203   5.187 -1.5376  0.7422  3.1676
 2443SOL    HW2 8229   1.480   4.315   5.081 -0.5239 -1.9792 -0.4333
 2444SOL     OW 8230   1.422   3.779   0.047  0.2557 -0.1477  0.1335
 2444SOL    HW1 8231   1.459   3.693   0.082  0.7634  0.4433  1.0776
 2444SOL    HW2 8232   1.468   3.802  -0.039  0.7002 -0.4120  0.2966
 2445SOL     OW 8233   3.340   0.588   6.433 -0.4038  0.3665  0.3338
 2445SOL    HW1 8234   3.331   0.649   6.511  0.0873  0.8900 -0.0113
 2445SOL    HW2 8235   3.434   0.553   6.429 -0.5330  0.0300  0.2096
 2446SOL     OW 8236   0.911   4.810   4.368 -0.0393 -0.4467 -0.6220
 2446SOL    HW1 8237   0.855   4.741   4.413  2.0041 -1.0709  1.1515
 2446SOL    HW2 8238   0.860   4.852   4.293 -1.6785 -3.1675 -1.1346
 2447SOL     OW 8239   0.867   1.761   5.018  0.1238  0.2128 -0.0518
 2447SOL    HW1 8240   0.786   1.710   4.990 -0.5151  0.1567  1.7438
 2447SOL    HW2 8241   0.867   1.851   4.975 -0.2774 -0.2156 -0.9637
 2448SOL     OW 8242   0.932   6.866   3.794  0.0696  0.5517  0.1391
 2448SOL    HW1 8243   0.859   6.930   3.818 -1.2987 -0.8316 -0.1764
 2448SOL    HW2 8244   0.981   6.839   3.877 -0.8165  0.2883  0.5919
 2449SOL     OW 8245   6.744   2.924   4.465 -0.6531 -0.4426 -0.1945
 2449SOL    HW1 8246   6.818   2.976   4.423 -0.9355 -1.4440 -2.0664
 2449SOL    HW2 8247   6.734   2.951   4.560  2.4083 -0.5884  0.2660
 2450SOL     OW 8248   0.364   4.960   1.571 -0.0780 -0.4726  0.1411
 2450SOL    HW1 8249   0.403   4.932   1.658  1.1053  0.5122 -0.0477
 2450SOL    HW2 8250   0.389   5.055   1.551  0.9960 -1.1069 -1.9482
 2451SOL     OW 8251   3.026   0.278   4.498  0.3406  0.2203 -0.6396
 2451SOL    HW1 8252   2.984   0.202   4.548 -1.7101  0.4052 -1.9636
 2451SOL    HW2 8253   3.058   0.347   4.562  0.5743 -0.9014  0.5018
 2452SOL     OW 8254   2.005   1.853   4.203 -0.3787  0.6743  0.7168
 2452SOL    HW1 8255   2.034   1.760   4.183 -1.1520  0.3576  1.0096
 2452SOL    HW2 8256   2.043   1.916   4.134 -1.6650 -0.1682 -0.8400
 2453SOL     OW 8257   1.048   4.614   6.705  0.4620  0.4186  0.6066
 2453SOL    HW1 8258   1.087   4.529   6.668  1.4854  0.4928  1.4770
 2453SOL    HW2 8259   0.952   4.620   6.678  0.7807 -0.2493 -0.7714
 2454SOL     OW 8260   2.331   0.536   2.060  0.2978  0.2192 -0.3956
 2454SOL    HW1 8261   2.396   0.595   2.013  0.2069  0.5434 -0.1133
 2454SOL    HW2 8262   2.380   0.478   2.124  0.1303  1.7803  1.2082
 2455SOL     OW 8263   6.215   5.189   5.322  0.3169 -0.3930  0.9010
 2455SOL    HW1 8264   6.271   5.268   5.297  1.2335 -0.6922  1.9117
 2455SOL    HW2 8265   6.122   5.202   5.290  0.8399  0.3687 -0.3544
 2456SOL     OW 8266   2.410   6.086   2.948 -0.5446  0.8818 -0.1996
 2456SOL    HW1 8267   2.393   6.033   2.865 -0.1280  1.3553 -0.5963
 2456SOL    HW2 8268   2.442   6.178   2.923 -2.1524  1.6565  0.4654
 2457SOL     OW 8269   6.724   6.199   2.078  0.1317 -0.6294 -0.1455
 2457SOL    HW1 8270   6.780   6.259   2.135  1.1037 -1.1455 -0.5505
 2457SOL    HW2 8271   6.717   6.237   1.986  2.2613 -1.9964 -0.9306
 2458SOL     OW 8272   2.295   6.457   4.295 -0.3607  0.1617  0.5847
 2458SOL    HW1 8273   2.290   6.364   4.261 -1.8977  0.1143  0.8785
 2458SOL    HW2 8274   2.364   6.463   4.367  0.7142 -0.4241 -0.3814
 2459SOL     OW 8275   2.549   1.159   0.444  0.4461  0.1260  0.1081
 2459SOL    HW1 8276   2.455   1.135   0.469 -0.1962  2.3966  0.0056
 2459SOL    HW2 8277   2.551   1.198   0.352  1.7221 -1.1281 -0.4390
 2460SOL     OW 8278   2.836   4.907   6.361  1.0931 -0.1672  0.0571
 2460SOL    HW1 8279   2.905   4.945   6.300  2.0750 -2.6593 -0.5015
 2460SOL    HW2 8280   2.837   4.807   6.355 -0.7242 -0.3897  2.0741
 2461SOL     OW 8281   4.421   1.157   3.168  0.3955  0.3715 -0.1347
 2461SOL    HW1 8282   4.331   1.127   3.200  0.0403  1.2549 -0.2792
 2461SOL    HW2 8283   4.426   1.149   3.069  0.9117 -0.7920 -0.0406
 2462SOL     OW 8284   2.714   3.511   5.309  0.3134  0.2583 -0.2100
 2462SOL    HW1 8285   2.632   3.559   5.339 -0.4680 -0.1237 -1.6911
 2462SOL    HW2 8286   2.692   3.415   5.292  0.8129  0.3729 -1.6050
 2463SOL     OW 8287   6.452   2.907   2.674 -0.0837 -0.4663  0.2101
 2463SOL    HW1 8288   6.375   2.849   2.650  0.2564 -0.9882  0.3638
 2463SOL    HW2 8289   6.459   2.914   2.774 -0.4798  0.3277  0.1917
 2464SOL     OW 8290   1.341   3.773   1.841 -0.0526  0.4767  0.1449
 2464SOL    HW1 8291   1.384   3.691   1.805  2.3847  0.8363  1.9775
 2464SOL    HW2 8292   1.244   3.756   1.856  0.4274 -2.1765  0.7309
 2465SOL     OW 8293   0.143   5.428   3.049  0.1887  0.1936  0.3358
 2465SOL    HW1 8294   0.096   5.341   3.066 -0.3049  0.0913 -1.3634
 2465SOL    HW2 8295   0.188   5.458   3.133 -0.0230 -1.4539  1.0882
 2466SOL     OW 8296   4.162   6.975   2.869 -0.1712 -0.0721 -0.3978
 2466SOL    HW1 8297   4.166   6.875   2.874  0.9336 -0.0774 -1.0769
 2466SOL    HW2 8298   4.242   7.014   2.915 -1.5449  0.5904  1.5592
 2467SOL     OW 8299   6.422   1.380   4.923  0.0187 -0.5529  0.3477
 2467SOL    HW1 8300   6.398   1.338   5.011 -0.5213 -0.9021  0.0390
 2467SOL    HW2 8301   6.355   1.353   4.854  0.3892 -0.2066 -0.1525
 2468SOL     OW 8302   0.325   3.211   5.352  0.1322  0.3705  0.1355
 2468SOL    HW1 8303   0.412   3.162   5.360 -0.9288 -1.3877  1.8064
 2468SOL    HW2 8304   0.336   3.303   5.387  1.1289 -0.1089  1.1586
 2469SOL     OW 8305   3.226   3.112   5.788  0.2766  0.9094 -0.0611
 2469SOL    HW1 8306   3.317   3.097   5.825 -0.2787 -0.9899  0.6316
 2469SOL    HW2 8307   3.210   3.051   5.711 -0.2906  1.4741 -0.3997
 2470SOL     OW 8308   4.971   1.673   0.048 -0.4346  0.0440 -0.2136
 2470SOL    HW1 8309   4.926   1.593   0.086 -0.1785 -1.4697 -2.8680
 2470SOL    HW2 8310   4.950   1.681  -0.049  1.9527  1.4674 -0.7088
 2471SOL     OW 8311   6.185   1.227   3.870 -0.0558  0.2121 -0.0462
 2471SOL    HW1 8312   6.147   1.286   3.798 -0.2749  0.9357  0.6455
 2471SOL    HW2 8313   6.149   1.256   3.958 -0.8543 -1.5155  0.2371
 2472SOL     OW 8314   5.258   3.158   2.879  0.0552 -0.3205  0.1821
 2472SOL    HW1 8315   5.231   3.073   2.924  1.6163  0.1406  2.1157
 2472SOL    HW2 8316   5.315   3.137   2.800 -1.8652 -1.1101 -1.0732
 2473SOL     OW 8317   6.969   5.868   4.973 -0.0888 -0.1660 -0.3031
 2473SOL    HW1 8318   7.039   5.895   5.038  0.4410  0.3075 -1.0572
 2473SOL    HW2 8319   6.896   5.937   4.972  1.3226  1.4341 -2.3203
 2474SOL     OW 8320   5.349   6.367   4.598 -0.1124 -0.5006 -0.1574
 2474SOL    HW1 8321   5.271   6.414   4.556  0.7484 -0.0250 -1.2609
 2474SOL    HW2 8322   5.338   6.368   4.698 -0.2550  1.8511 -0.1470
 2475SOL     OW 8323   5.658   0.873   6.963 -0.5195 -0.0838 -0.1838
 2475SOL    HW1 8324   5.576   0.829   6.998 -0.7518 -1.5042 -2.3048
 2475SOL    HW2 8325   5.705   0.810   6.901  0.4860  1.8149 -1.4295
 2476SOL     OW 8326   5.868   1.985   2.233 -0.2270  0.5631  0.2446
 2476SOL    HW1 8327   5.828   2.032   2.155  0.1183  0.0453 -0.2562
 2476SOL    HW2 8328   5.832   1.891   2.236 -0.3989  0.6447  0.8357
 2477SOL     OW 8329   4.987   3.684   1.409 -0.1837  0.1325 -0.0862
 2477SOL    HW1 8330   5.051   3.611   1.385 -0.0627  0.4600 -0.7990
 2477SOL    HW2 8331   4.921   3.650   1.475 -0.7942 -0.9572 -1.2039
 2478SOL     OW 8332   7.020   0.199   2.823 -0.3030 -0.0492 -0.5139
 2478SOL    HW1 8333   7.074   0.262   2.878 -0.2312 -1.6288  1.3456
 2478SOL    HW2 8334   7.078   0.125   2.789 -0.4433  0.6502 -2.3895
 2479SOL     OW 8335   0.617   3.266   0.239 -0.8509 -0.6586  0.4074
 2479SOL    HW1 8336   0.521   3.247   0.260 -1.1682  0.3600 -0.0392
 2479SOL    HW2 8337   0.627   3.362   0.211  0.0972 -1.0689 -0.7378
 2480SOL     OW 8338   6.290   3.947   0.977 -0.0251  0.0311  0.1633
 2480SOL    HW1 8339   6.357   3.895   1.031 -0.7236 -1.0080  0.0567
 2480SOL    HW2 8340   6.234   3.884   0.924 -1.6050  0.8306  0.8217
 2481SOL     OW 8341   5.187   4.986   2.196 -0.2639 -0.3911  0.0653
 2481SOL    HW1 8342   5.171   5.045   2.275  4.0112  1.2388 -0.0350
 2481SOL    HW2 8343   5.209   4.893   2.227  3.2566  0.6661  1.1397
 2482SOL     OW 8344   3.629   1.954   3.612 -0.2069 -0.0552 -0.1478
 2482SOL    HW1 8345   3.671   1.887   3.673 -1.4475  0.2046  1.0362
 2482SOL    HW2 8346   3.565   2.011   3.663 -0.8087  0.6134 -1.5700
 2483SOL     OW 8347   0.275   2.932   0.341  0.2455 -0.4450  0.1571
 2483SOL    HW1 8348   0.371   2.941   0.316  0.1641 -0.5187 -0.1842
 2483SOL    HW2 8349   0.263   2.855   0.404  0.1165 -1.7675 -1.4288
 2484SOL     OW 8350   3.585   2.236   5.292  0.1943 -0.4862  0.2226
 2484SOL    HW1 8351   3.486   2.232   5.303  0.3177 -2.5640  0.9718
 2484SOL    HW2 8352   3.617   2.329   5.309 -1.6704  0.3429 -0.5917
 2485SOL     OW 8353   0.975   6.274   1.240  0.5537  0.6662 -0.0987
 2485SOL    HW1 8354   1.050   6.222   1.283 -0.1426 -0.6393 -0.3948
 2485SOL    HW2 8355   0.957   6.357   1.293  2.1484  0.9648  0.0182
 2486SOL     OW 8356   2.145   5.751   1.426 -0.5115  0.6408 -0.2863
 2486SOL    HW1 8357   2.205   5.762   1.346 -0.0930 -3.0831 -0.7039
 2486SOL    HW2 8358   2.057   5.714   1.396 -1.1429  1.2135  0.8128
 2487SOL     OW 8359   4.529   0.489   1.557  0.2382 -0.2507 -0.0280
 2487SOL    HW1 8360   4.495   0.534   1.640  2.8679 -0.6730  1.3889
 2487SOL    HW2 8361   4.479   0.404   1.542 -0.9638  0.3318  0.5001
 2488SOL     OW 8362   0.772   0.766   6.604 -0.3347  0.4922  0.3586
 2488SOL    HW1 8363   0.755   0.676   6.644  1.3999  0.0005  0.0702
 2488SOL    HW2 8364   0.817   0.824   6.672  0.6794  0.3529 -0.1736
 2489SOL     OW 8365   1.321   5.966   4.017  0.4418 -0.2092  0.3627
 2489SOL    HW1 8366   1.297   6.057   3.982  1.1314  0.3777  1.3463
 2489SOL    HW2 8367   1.239   5.908   4.017  0.0522  0.3133 -0.5440
 2490SOL     OW 8368   3.449   2.609   0.765 -0.3333 -0.6446  0.0362
 2490SOL    HW1 8369   3.393   2.527   0.780 -1.1028 -0.0819  0.3389
 2490SOL    HW2 8370   3.389   2.688   0.756  0.4004 -0.1166 -0.3100
 2491SOL     OW 8371   1.668   4.857   2.117  0.1910 -0.2003 -0.1660
 2491SOL    HW1 8372   1.679   4.812   2.029  1.2892 -0.1497 -0.0671
 2491SOL    HW2 8373   1.747   4.916   2.134 -0.1245 -0.0297  0.7455
 2492SOL     OW 8374   6.300   0.899   5.936 -0.2377  0.0944 -0.6007
 2492SOL    HW1 8375   6.316   0.967   5.864 -0.9438  1.5654  0.5729
 2492SOL    HW2 8376   6.386   0.877   5.982 -0.2739  1.7647  0.3295
 2493SOL     OW 8377   1.344   1.871   3.139 -0.1320  0.3422 -0.1295
 2493SOL    HW1 8378   1.248   1.850   3.162  0.2572 -0.1172  1.1309
 2493SOL    HW2 8379   1.400   1.867   3.221  0.8880  1.1961 -0.7596
 2494SOL     OW 8380   3.446   4.059   1.515 -0.1171  0.6049 -0.6211
 2494SOL    HW1 8381   3.478   4.089   1.605 -0.3207 -0.1589 -0.2831
 2494SOL    HW2 8382   3.346   4.066   1.512 -0.1482  0.2172 -0.6219
 2495SOL     OW 8383   1.337   6.735   4.397  0.5868  0.2921 -0.1367
 2495SOL    HW1 8384   1.426   6.779   4.380  1.2078 -0.9152 -0.1190
 2495SOL    HW2 8385   1.351   6.638   4.418 -0.6009  0.4723  1.7258
 2496SOL     OW 8386   1.146   5.318   6.187 -0.2239  0.0035  0.2574
 2496SOL    HW1 8387   1.115   5.291   6.096 -0.3380 -0.3478  0.3974
 2496SOL    HW2 8388   1.239   5.285   6.202 -0.8921 -1.6725  0.9923
 2497SOL     OW 8389   6.779   0.500   0.682  0.4699 -0.5296  0.7227
 2497SOL    HW1 8390   6.740   0.470   0.769  0.0103 -0.7745  0.4347
 2497SOL    HW2 8391   6.727   0.578   0.647  0.2848 -0.8139  0.3698
 2498SOL     OW 8392   6.342   2.832   4.813 -0.0952 -0.0113  0.6518
 2498SOL    HW1 8393   6.308   2.882   4.893  0.5034  0.0591  0.8622
 2498SOL    HW2 8394   6.371   2.897   4.743 -1.4809 -0.0595 -0.0153
 2499SOL     OW 8395   6.035   6.949   5.676 -0.0449  0.7661 -0.0268
 2499SOL    HW1 8396   6.110   6.985   5.620  0.1318  2.4547  1.1972
 2499SOL    HW2 8397   5.953   7.004   5.660  0.4069  2.2623  2.3855
 2500SOL     OW 8398   3.999   3.618   0.438  0.3648 -0.6315  0.2870
 2500SOL    HW1 8399   4.060   3.674   0.493  0.0595 -0.7072  0.7056
 2500SOL    HW2 8400   3.913   3.604   0.487 -0.8373  1.2071 -1.1259
 2501SOL     OW 8401   5.803   3.688   0.195 -0.3549  0.5429 -0.5821
 2501SOL    HW1 8402   5.793   3.656   0.101  0.8210  1.8962 -1.2102
 2501SOL    HW2 8403   5.889   3.739   0.205 -0.7479  0.9754  1.0683
 2502SOL     OW 8404   2.925   6.967   2.301 -0.5115 -0.4204  0.4519
 2502SOL    HW1 8405   2.993   6.919   2.246  1.1314  0.4354  1.6623
 2502SOL    HW2 8406   2.845   6.908   2.314  0.3650 -1.8159 -0.2426
 2503SOL     OW 8407   5.932   1.147   5.006 -0.6770 -0.3117 -0.2252
 2503SOL    HW1 8408   5.920   1.153   5.105  1.7751 -1.1990  0.1972
 2503SOL    HW2 8409   5.982   1.227   4.973 -0.3582 -0.6212 -0.5113
 2504SOL     OW 8410   0.882   3.583   3.144  0.6895  0.6741 -0.3061
 2504SOL    HW1 8411   0.922   3.603   3.234 -1.6341  1.8728  0.5470
 2504SOL    HW2 8412   0.884   3.484   3.129  1.0186  0.4337  1.1330
 2505SOL     OW 8413   6.328   3.873   4.931  0.3498  0.0248  0.1486
 2505SOL    HW1 8414   6.252   3.883   4.867  0.1293 -0.2883  0.3576
 2505SOL    HW2 8415   6.413   3.856   4.881  0.5842  1.9735 -0.1828
 2506SOL     OW 8416   0.797   0.852   1.498 -0.2703 -0.6742  0.4505
 2506SOL    HW1 8417   0.763   0.763   1.527 -1.3779  0.3836  2.6654
 2506SOL    HW2 8418   0.880   0.874   1.549  1.0395 -1.1386 -1.3809
 2507SOL     OW 8419   5.664   1.200   2.730  0.1263  0.3780  0.4050
 2507SOL    HW1 8420   5.585   1.180   2.672  1.1916 -1.6190 -0.4319
 2507SOL    HW2 8421   5.655   1.151   2.816 -1.4914  3.3941  2.1503
 2508SOL     OW 8422   2.003   2.166   1.813 -0.6067 -0.3565  0.1544
 2508SOL    HW1 8423   1.958   2.229   1.749 -0.0072  0.6032  0.6635
 2508SOL    HW2 8424   2.011   2.076   1.770 -0.0574  0.3114 -1.2073
 2509SOL     OW 8425   6.225   7.015   3.242  0.2255  0.1722  0.0401
 2509SOL    HW1 8426   6.284   6.936   3.227  1.8756  1.2547  0.5268
 2509SOL    HW2 8427   6.232   7.077   3.163  0.1425  0.5394  0.3193
 2510SOL     OW 8428   4.064   5.874   1.282  0.2974 -0.2431  0.0832
 2510SOL    HW1 8429   4.069   5.885   1.381  1.7953  0.8842 -0.0704
 2510SOL    HW2 8430   3.979   5.915   1.248  0.5356  0.8580  0.7525
 2511SOL     OW 8431   0.160   0.000   2.732  0.1735 -0.0512 -0.3909
 2511SOL    HW1 8432   0.237  -0.031   2.787  0.4709  0.0390 -0.7491
 2511SOL    HW2 8433   0.190   0.015   2.638 -0.2643  0.0599 -0.5172
 2512SOL     OW 8434   5.943   3.470   3.633  0.5498  0.0039  0.3371
 2512SOL    HW1 8435   6.037   3.474   3.601  1.2618 -0.9208  2.1283
 2512SOL    HW2 8436   5.921   3.376   3.659 -0.1294  0.5615  1.9296
 2513SOL     OW 8437   6.192   4.353   1.332  0.4857  0.1330  0.1391
 2513SOL    HW1 8438   6.250   4.314   1.261  0.7588 -0.0240  0.4412
 2513SOL    HW2 8439   6.102   4.375   1.295  0.8257  0.6338 -0.4053
 2514SOL     OW 8440   1.417   0.864   3.384  0.2304 -0.0491  0.4244
 2514SOL    HW1 8441   1.465   0.934   3.437  0.0493  2.4997 -2.4468
 2514SOL    HW2 8442   1.451   0.865   3.290 -2.2619 -1.3736 -0.5760
 2515SOL     OW 8443   1.661   6.476   0.008 -0.3735 -0.0590 -0.2980
 2515SOL    HW1 8444   1.565   6.496  -0.012 -0.5943  1.1235  1.6700
 2515SOL    HW2 8445   1.673   6.378   0.020 -1.3873 -0.1975 -0.2998
 2516SOL     OW 8446   4.303   6.548   6.317  0.4104  0.4989  0.1983
 2516SOL    HW1 8447   4.300   6.571   6.220  0.2515  1.0617  0.3317
 2516SOL    HW2 8448   4.324   6.631   6.370 -2.1025  0.8134  0.8549
 2517SOL     OW 8449   2.173   5.167   1.240 -0.4101  0.5064  0.1041
 2517SOL    HW1 8450   2.172   5.192   1.143 -0.7452  2.7688  0.6192
 2517SOL    HW2 8451   2.080   5.143   1.268 -0.5739  1.1301  0.1265
 2518SOL     OW 8452   1.344   2.611   6.679  0.4848  0.3968  0.0362
 2518SOL    HW1 8453   1.331   2.630   6.776 -2.9030  0.9625 -0.4207
 2518SOL    HW2 8454   1.354   2.513   6.665 -0.2359  0.1972  0.8557
 2519SOL     OW 8455   4.958   3.381   5.100 -0.5369 -0.2703 -0.3443
 2519SOL    HW1 8456   5.052   3.411   5.121 -0.3534 -1.3754  0.4782
 2519SOL    HW2 8457   4.898   3.461   5.096  0.4461  0.4618 -0.9582
 2520SOL     OW 8458   2.363   5.603   2.624  0.4149  0.1949 -0.0917
 2520SOL    HW1 8459   2.347   5.686   2.570  0.0986 -0.0851 -0.4398
 2520SOL    HW2 8460   2.275   5.569   2.658  0.7820  1.8077  2.8273
 2521SOL     OW 8461   6.094   5.951   5.296  0.1961  0.0974 -0.0437
 2521SOL    HW1 8462   6.135   5.917   5.211  0.0107 -3.1474  1.0486
 2521SOL    HW2 8463   6.042   5.878   5.339 -2.8733  2.7044  1.0520
 2522SOL     OW 8464   0.811   3.566   4.327 -0.8373 -0.3953  0.6920
 2522SOL    HW1 8465   0.766   3.501   4.267 -1.7398  0.7039  0.1471
 2522SOL    HW2 8466   0.751   3.588   4.404 -1.9970  2.2038 -0.8009
 2523SOL     OW 8467   0.158   3.083   5.580 -0.5869  0.6968 -0.3303
 2523SOL    HW1 8468   0.111   3.160   5.536 -1.0363  0.4739 -0.2468
 2523SOL    HW2 8469   0.255   3.087   5.558 -0.4847  1.6810  0.2428
 2524SOL     OW 8470   1.844   0.173   4.573  0.0262 -0.7375  0.2757
 2524SOL    HW1 8471   1.810   0.229   4.498  2.1366 -1.8925 -1.6638
 2524SOL    HW2 8472   1.894   0.231   4.637  1.9599 -0.2484 -1.5692
 2525SOL     OW 8473   0.891   5.566   3.698 -0.2394 -0.1627 -0.0120
 2525SOL    HW1 8474   0.835   5.644   3.672  0.3800 -0.0298 -1.0083
 2525SOL    HW2 8475   0.948   5.539   3.621 -1.7699 -2.8051 -0.3213
 2526SOL     OW 8476   1.948   2.938   5.489  0.2997  0.1899 -0.2118
 2526SOL    HW1 8477   1.855   2.962   5.461  0.8023  0.5145 -1.7281
 2526SOL    HW2 8478   1.952   2.842   5.515 -0.1865 -0.2363 -1.5994
 2527SOL     OW 8479   0.235   5.735   3.140 -0.7808 -0.2832  0.6650
 2527SOL    HW1 8480   0.294   5.724   3.219  1.3064 -1.4112 -0.9539
 2527SOL    HW2 8481   0.147   5.691   3.158 -1.0629  1.0389  2.9629
 2528SOL     OW 8482   5.222   5.918   1.862 -0.0734 -0.5902  0.0790
 2528SOL    HW1 8483   5.234   5.972   1.779 -1.3369  0.5892  0.6246
 2528SOL    HW2 8484   5.288   5.842   1.862  1.7357  0.8968 -0.7363
 2529SOL     OW 8485   6.048   3.496   4.372  0.2365 -0.3503  0.6167
 2529SOL    HW1 8486   6.010   3.567   4.431  0.0728 -0.3571  0.5191
 2529SOL    HW2 8487   6.065   3.414   4.426  0.6701 -0.1525  0.7830
 2530SOL     OW 8488   0.513   5.958   3.501 -0.7082  0.3317  0.0372
 2530SOL    HW1 8489   0.596   5.983   3.550 -2.0399  0.8376  2.1920
 2530SOL    HW2 8490   0.461   6.041   3.478 -0.3873  0.0633 -1.7996
 2531SOL     OW 8491   5.207   0.673   0.454  0.1128 -0.0821  0.1411
 2531SOL    HW1 8492   5.222   0.576   0.436  1.0078  0.1656 -0.5217
 2531SOL    HW2 8493   5.219   0.725   0.369 -0.7538  0.5725  0.4034
 2532SOL     OW 8494   0.840   4.217   6.757  0.1950  0.2797  0.9985
 2532SOL    HW1 8495   0.773   4.247   6.688 -0.2132 -0.7487  0.9344
 2532SOL    HW2 8496   0.818   4.124   6.787  0.6273  0.5423  2.2009
 2533SOL     OW 8497   6.754   0.512   4.529 -0.2953 -0.6607  0.5264
 2533SOL    HW1 8498   6.702   0.427   4.538 -0.7731 -0.4636 -0.2571
 2533SOL    HW2 8499   6.739   0.550   4.438 -1.1253  0.9553  1.2961
 2534SOL     OW 8500   0.060   1.300   3.976 -0.4530 -0.4624  0.1196
 2534SOL    HW1 8501   0.143   1.259   3.937 -1.0485 -0.3784 -1.3201
 2534SOL    HW2 8502   0.076   1.398   3.990 -0.3427 -0.4179 -0.2867
 2535SOL     OW 8503   0.533   3.928   4.520 -0.4218 -0.0386 -0.3227
 2535SOL    HW1 8504   0.554   3.993   4.593  0.1671  0.2306 -0.7197
 2535SOL    HW2 8505   0.585   3.953   4.438 -3.1070  1.3394 -1.7502
 2536SOL     OW 8506   1.953   6.389   3.720  0.2061 -0.2638  0.2035
 2536SOL    HW1 8507   1.893   6.461   3.685 -0.1604 -0.4703  0.3969
 2536SOL    HW2 8508   2.043   6.428   3.742 -0.3929  0.4154  1.5586
 2537SOL     OW 8509   4.963   6.148   1.539 -0.6490  0.2941 -0.0833
 2537SOL    HW1 8510   4.914   6.079   1.485 -1.1044  0.1714  0.4832
 2537SOL    HW2 8511   4.977   6.230   1.483 -0.2533 -0.1854 -0.7048
 2538SOL     OW 8512   1.008   4.114   5.535  0.5155  0.6585 -0.2171
 2538SOL    HW1 8513   1.088   4.093   5.592  0.7801  0.0104 -0.8073
 2538SOL    HW2 8514   0.956   4.189   5.576  1.4760  1.1543  0.1274
 2539SOL     OW 8515   0.769   6.793   5.046 -0.0821  0.0896  0.7192
 2539SOL    HW1 8516   0.749   6.739   4.965  0.2978 -0.8440  1.2330
 2539SOL    HW2 8517   0.722   6.881   5.040 -0.7309 -0.3012 -0.1233
 2540SOL     OW 8518   5.244   3.449   2.421  0.2659  0.2565  0.2953
 2540SOL    HW1 8519   5.238   3.496   2.333  0.2533 -1.3136 -0.5775
 2540SOL    HW2 8520   5.340   3.428   2.441  0.2636  0.5647  0.6515
 2541SOL     OW 8521   0.154   0.938   6.947 -0.1398 -0.1303  0.7421
 2541SOL    HW1 8522   0.181   0.885   6.867  0.0164 -0.7449  1.1981
 2541SOL    HW2 8523   0.099   0.881   7.008  1.3915 -0.2951  2.0228
 2542SOL     OW 8524   5.141   0.549   3.436  0.4827  0.5016  0.2370
 2542SOL    HW1 8525   5.062   0.607   3.415 -0.6090 -1.4354 -1.5297
 2542SOL    HW2 8526   5.111   0.453   3.437  2.0570 -0.0748  3.7285
 2543SOL     OW 8527   6.219   1.390   4.737  0.0105 -0.7697 -0.3366
 2543SOL    HW1 8528   6.163   1.473   4.737  0.9643 -0.0324  2.5286
 2543SOL    HW2 8529   6.240   1.365   4.642 -2.1220  0.9634 -1.3639
 2544SOL     OW 8530   5.962   6.044   1.664 -0.0402  0.1834  0.0918
 2544SOL    HW1 8531   5.995   6.015   1.753 -0.1290  0.9804  0.3916
 2544SOL    HW2 8532   5.992   6.137   1.645 -0.3023  0.1458 -0.5653
 2545SOL     OW 8533   0.024   2.271   0.872 -0.1866  0.0668 -0.6026
 2545SOL    HW1 8534  -0.026   2.257   0.787  1.3720 -0.0305 -1.5341
 2545SOL    HW2 8535   0.013   2.366   0.902 -1.5993 -0.1657 -0.3214
 2546SOL     OW 8536   5.949   2.313   3.242 -0.2493  0.1433  0.0427
 2546SOL    HW1 8537   5.979   2.279   3.153 -0.4908 -1.5794  0.5868
 2546SOL    HW2 8538   5.887   2.390   3.229 -1.3418 -0.9308 -1.3332
 2547SOL     OW 8539   0.130   3.096   2.202 -0.3114  0.0465 -0.2903
 2547SOL    HW1 8540   0.228   3.083   2.189 -0.6110 -3.2991 -0.2704
 2547SOL    HW2 8541   0.086   3.114   2.114  0.2661  1.6323 -0.2873
 2548SOL     OW 8542   0.014   0.785   5.205  0.0861 -0.0990  0.0208
 2548SOL    HW1 8543   0.000   0.842   5.124 -1.1680  0.6784  0.7594
 2548SOL    HW2 8544   0.059   0.838   5.276 -0.0275 -0.3853  0.3086
 2549SOL     OW 8545   1.942   3.989   0.756 -0.3729  0.0885  0.5403
 2549SOL    HW1 8546   2.008   3.971   0.683  0.1021  0.8040  0.7884
 2549SOL    HW2 8547   1.961   3.928   0.833 -0.7123 -0.4840  0.1890
 2550SOL     OW 8548   2.396   4.831   0.824 -0.2510 -0.4185 -0.4392
 2550SOL    HW1 8549   2.324   4.883   0.870  0.7367  0.6506 -0.0554
 2550SOL    HW2 8550   2.413   4.745   0.873 -0.2164  0.0318  0.3436
 2551SOL     OW 8551   3.401   4.535   0.019 -0.3786  0.6575 -0.1592
 2551SOL    HW1 8552   3.399   4.507  -0.077 -2.1238 -0.1339  0.0649
 2551SOL    HW2 8553   3.307   4.543   0.053  0.1863 -1.4327  2.1229
 2552SOL     OW 8554   1.583   5.656   1.852 -0.1935  0.4112 -0.5264
 2552SOL    HW1 8555   1.621   5.565   1.838  0.9969  0.7142  0.5100
 2552SOL    HW2 8556   1.543   5.690   1.767  0.8372 -0.4149 -1.3595
 2553SOL     OW 8557   5.817   1.566   1.223  0.1066 -0.5531 -0.2239
 2553SOL    HW1 8558   5.854   1.566   1.316  0.2471 -0.9596 -0.2794
 2553SOL    HW2 8559   5.732   1.514   1.220  0.1876 -0.6790 -0.3551
 2554SOL     OW 8560   2.319   6.156   0.602  0.8301  0.6285 -0.3281
 2554SOL    HW1 8561   2.291   6.210   0.523  0.3739 -1.1880 -1.4664
 2554SOL    HW2 8562   2.307   6.210   0.686 -0.4851  1.9299 -1.3200
 2555SOL     OW 8563   6.249   5.635   0.729  0.1945 -0.3538 -0.0674
 2555SOL    HW1 8564   6.260   5.676   0.638 -0.0045  1.2881  0.6237
 2555SOL    HW2 8565   6.319   5.565   0.742  1.6616  0.9534 -0.6442
 2556SOL     OW 8566   4.700   6.712   1.284  0.1482  0.5692  0.1622
 2556SOL    HW1 8567   4.661   6.798   1.318  0.4900  0.5401  0.6449
 2556SOL    HW2 8568   4.670   6.637   1.343  0.4804  0.4700  0.2076
 2557SOL     OW 8569   2.865   1.566   1.261 -0.4284 -0.4253  0.2998
 2557SOL    HW1 8570   2.879   1.530   1.353  0.2252 -1.0035 -0.0179
 2557SOL    HW2 8571   2.772   1.604   1.254 -0.7086 -0.9472  1.0059
 2558SOL     OW 8572   6.259   3.077   3.056  0.3722  0.5848  0.4732
 2558SOL    HW1 8573   6.236   3.094   3.152  1.4383  0.6163  0.7324
 2558SOL    HW2 8574   6.320   3.149   3.022  0.3953  0.3119 -0.0837
 2559SOL     OW 8575   1.605   4.955   1.082 -0.2119  0.3793 -0.4038
 2559SOL    HW1 8576   1.514   4.975   1.118  0.1658  0.0179  0.7724
 2559SOL    HW2 8577   1.651   4.889   1.141  1.8139  2.4856  0.5359
 2560SOL     OW 8578   5.353   3.877   0.943  0.0422  0.0478 -0.3113
 2560SOL    HW1 8579   5.423   3.840   1.004 -0.2997 -1.0061 -0.5499
 2560SOL    HW2 8580   5.276   3.910   0.997  0.2135  0.1346 -0.1182
 2561SOL     OW 8581   4.290   6.413   2.470  0.4601  0.2708 -0.5972
 2561SOL    HW1 8582   4.284   6.513   2.473  1.6993  0.3335  1.5994
 2561SOL    HW2 8583   4.381   6.386   2.439 -0.1165 -0.2010 -1.9043
 2562SOL     OW 8584   6.728   6.580   4.094  0.4328 -0.5627  0.1780
 2562SOL    HW1 8585   6.827   6.593   4.100  0.4411 -0.8188  0.6489
 2562SOL    HW2 8586   6.696   6.532   4.176 -0.2788  0.6580  0.6357
 2563SOL     OW 8587   5.612   1.755   6.483 -0.0547 -0.3161 -0.0469
 2563SOL    HW1 8588   5.665   1.703   6.549  1.2750 -0.8440 -1.4720
 2563SOL    HW2 8589   5.674   1.805   6.422 -1.2181 -0.0255 -1.0376
 2564SOL     OW 8590   0.844   1.353   4.931  0.1112  0.1992  0.4574
 2564SOL    HW1 8591   0.818   1.442   4.892  0.8279 -0.0283 -0.5926
 2564SOL    HW2 8592   0.899   1.303   4.864  0.9084 -0.4524  1.5757
 2565SOL     OW 8593   1.090   1.140   0.242 -0.5788  0.0153  0.6364
 2565SOL    HW1 8594   1.186   1.117   0.261 -0.6110  0.6802  1.7030
 2565SOL    HW2 8595   1.046   1.064   0.195  0.4989 -0.2595  0.0318
 2566SOL     OW 8596   2.451   1.004   1.513  0.4444 -0.5572 -0.1324
 2566SOL    HW1 8597   2.483   1.062   1.588 -0.2737 -1.0564  0.5795
 2566SOL    HW2 8598   2.353   0.985   1.526  0.3064 -0.6276 -1.2140
 2567SOL     OW 8599   0.161   6.838   6.303 -0.1700  0.3547  0.7526
 2567SOL    HW1 8600   0.072   6.885   6.302 -0.4401 -0.1470  0.9131
 2567SOL    HW2 8601   0.200   6.844   6.395  0.0082  0.6522  0.6598
 2568SOL     OW 8602   2.118   5.225   2.151 -0.6312 -0.2549  0.2592
 2568SOL    HW1 8603   2.197   5.283   2.127 -1.1185 -0.2002 -1.3133
 2568SOL    HW2 8604   2.122   5.203   2.249  1.9639 -1.2069  0.0202
 2569SOL     OW 8605   3.276   0.844   0.172 -0.0912  0.2345 -0.1292
 2569SOL    HW1 8606   3.292   0.909   0.246  1.9262 -1.0515  0.6705
 2569SOL    HW2 8607   3.270   0.751   0.209 -0.9909 -0.2569 -1.4140
 2570SOL     OW 8608   6.061   5.457   6.580  0.4276  0.0202 -0.4114
 2570SOL    HW1 8609   6.073   5.380   6.644  1.2769  0.3082 -0.2168
 2570SOL    HW2 8610   6.150   5.485   6.545 -0.0648 -0.5817 -2.2757
 2571SOL     OW 8611   3.463   4.204   3.769 -0.3619 -0.1360  0.1430
 2571SOL    HW1 8612   3.558   4.202   3.738  0.2208  0.0157  1.8204
 2571SOL    HW2 8613   3.422   4.114   3.753  0.1579 -0.2998 -0.3119
 2572SOL     OW 8614   0.410   3.912   2.805 -0.8721  0.1503  0.0904
 2572SOL    HW1 8615   0.346   3.956   2.869 -1.4768  1.0342 -1.0818
 2572SOL    HW2 8616   0.396   3.813   2.806 -0.5830  0.1027  1.6202
 2573SOL     OW 8617   0.862   0.808   2.914  0.2528  0.8477  0.1906
 2573SOL    HW1 8618   0.955   0.828   2.884  0.6613  1.6849  1.8834
 2573SOL    HW2 8619   0.865   0.740   2.987 -0.5346  0.3389 -0.2429
 2574SOL     OW 8620   1.994   2.347   2.550 -0.3676 -0.0808  0.4821
 2574SOL    HW1 8621   2.087   2.380   2.568  0.1904 -0.0313 -2.0169
 2574SOL    HW2 8622   1.998   2.249   2.528 -1.1632 -0.4624  1.9522
 2575SOL     OW 8623   5.393   3.654   0.101 -0.2622 -0.2663  0.4075
 2575SOL    HW1 8624   5.403   3.555   0.105 -0.1743 -0.2312  2.7799
 2575SOL    HW2 8625   5.430   3.694   0.185  0.5078  1.8622 -0.8857
 2576SOL     OW 8626   2.353   4.992   4.235  0.4265 -0.3954 -0.2788
 2576SOL    HW1 8627   2.339   4.901   4.275  0.1345  0.3055  1.2830
 2576SOL    HW2 8628   2.289   5.056   4.276  1.9430  0.9278  0.1214
 2577SOL     OW 8629   0.557   6.263   0.107  0.3741  0.1847  0.2139
 2577SOL    HW1 8630   0.501   6.296   0.183  1.8818  1.4805  0.8270
 2577SOL    HW2 8631   0.623   6.333   0.081 -0.4177 -0.0314 -2.6695
 2578SOL     OW 8632   5.632   0.845   4.689 -0.0054  0.1452  0.0267
 2578SOL    HW1 8633   5.732   0.848   4.684  0.0045 -1.1368 -1.2466
 2578SOL    HW2 8634   5.595   0.938   4.675  0.9779  0.4694 -0.5506
 2579SOL     OW 8635   6.901   6.747   4.916 -0.3842 -0.4302  0.0074
 2579SOL    HW1 8636   6.840   6.682   4.962 -3.0581  1.3909 -0.7413
 2579SOL    HW2 8637   6.979   6.767   4.976 -1.4840 -1.4151  1.8619
 2580SOL     OW 8638   0.239   3.233   6.172  0.1313  0.1815  0.1959
 2580SOL    HW1 8639   0.278   3.158   6.226  0.8249 -1.2794 -2.1731
 2580SOL    HW2 8640   0.216   3.200   6.080 -1.2097  2.4822 -0.3843
 2581SOL     OW 8641   0.281   0.270   3.724 -0.3142  0.2974  0.2136
 2581SOL    HW1 8642   0.342   0.238   3.796  0.8677 -1.2023 -1.3840
 2581SOL    HW2 8643   0.200   0.210   3.720 -0.2250  0.1855  0.0860
 2582SOL     OW 8644   1.499   5.503   3.968 -1.1800  0.2416 -0.0171
 2582SOL    HW1 8645   1.589   5.483   3.929 -0.7962  1.5442  0.1406
 2582SOL    HW2 8646   1.428   5.488   3.899 -0.9360 -1.4205  0.0440
 2583SOL     OW 8647   2.055   0.353   5.340 -0.0556  0.5912  0.3248
 2583SOL    HW1 8648   1.960   0.380   5.354  0.3896  1.0457  2.9424
 2583SOL    HW2 8649   2.064   0.254   5.348 -0.2498  0.5834  0.4454
 2584SOL     OW 8650   4.865   6.366   2.587  0.9391 -0.6319 -0.6481
 2584SOL    HW1 8651   4.821   6.288   2.540 -1.8896 -0.4011  1.3490
 2584SOL    HW2 8652   4.834   6.451   2.544 -0.9927 -0.4560  0.9484
 2585SOL     OW 8653   5.309   1.469   1.523 -0.0319  0.3475 -0.1510
 2585SOL    HW1 8654   5.359   1.549   1.491  0.7972 -0.6476 -1.4278
 2585SOL    HW2 8655   5.250   1.435   1.450 -0.3872 -0.2053  0.3857
 2586SOL     OW 8656   6.171   1.737   4.477 -0.0854 -0.7142 -0.2809
 2586SOL    HW1 8657   6.183   1.728   4.575  0.0478 -1.9715 -0.3977
 2586SOL    HW2 8658   6.076   1.714   4.452 -0.4266  0.6654 -0.3391
 2587SOL     OW 8659   1.689   5.827   2.940 -0.3690 -0.4672  1.2532
 2587SOL    HW1 8660   1.767   5.888   2.929  0.7094 -2.1274 -1.0073
 2587SOL    HW2 8661   1.719   5.741   2.981 -1.1839 -0.8139  1.1552
 2588SOL     OW 8662   5.065   1.618   2.794  0.0829 -0.8959  0.1831
 2588SOL    HW1 8663   5.147   1.616   2.737  0.2155  0.7218  0.2859
 2588SOL    HW2 8664   4.997   1.678   2.752 -0.9902 -2.0459  0.2098
 2589SOL     OW 8665   0.331   6.931   0.312  0.0098  0.4425  0.1369
 2589SOL    HW1 8666   0.231   6.932   0.309  0.0039 -0.2092 -0.0322
 2589SOL    HW2 8667   0.362   6.840   0.338  0.5555  0.7451  0.5575
 2590SOL     OW 8668   5.501   6.086   2.811  0.1666 -0.3019 -0.0623
 2590SOL    HW1 8669   5.516   6.052   2.718  0.1698 -0.7673  0.1048
 2590SOL    HW2 8670   5.543   6.176   2.821  0.8018 -0.5657 -0.2953
 2591SOL     OW 8671   5.415   1.183   2.594 -0.1882  0.7752 -0.3263
 2591SOL    HW1 8672   5.390   1.093   2.629  0.8724  1.0180  1.1331
 2591SOL    HW2 8673   5.364   1.202   2.510 -3.8157  0.6881  1.6859
 2592SOL     OW 8674   1.487   4.380   0.495  0.5515 -0.3559  0.4032
 2592SOL    HW1 8675   1.536   4.398   0.580  2.4961  1.6047 -1.0124
 2592SOL    HW2 8676   1.551   4.342   0.427 -0.6628 -0.7150 -0.5779
 2593SOL     OW 8677   3.032   0.992   1.188 -0.1769  0.0873  0.3777
 2593SOL    HW1 8678   3.074   1.076   1.153 -1.0192  0.4266  0.1613
 2593SOL    HW2 8679   3.048   0.986   1.287  1.4161 -0.4134  0.1238
 2594SOL     OW 8680   3.155   6.683   0.137  0.2552 -0.5445 -0.0225
 2594SOL    HW1 8681   3.124   6.591   0.158 -0.6025 -0.4923 -0.9842
 2594SOL    HW2 8682   3.107   6.748   0.196 -0.6594 -0.5558 -0.7433
 2595SOL     OW 8683   0.107   3.223   5.210  0.0446  0.8641 -0.0454
 2595SOL    HW1 8684   0.032   3.165   5.244  0.2060  1.3899  1.2611
 2595SOL    HW2 8685   0.182   3.222   5.276  0.9845  0.7817 -1.0887
 2596SOL     OW 8686   4.663   2.389   0.755  0.7393 -0.5101  0.1708
 2596SOL    HW1 8687   4.637   2.397   0.852  3.2126 -0.4006  0.8972
 2596SOL    HW2 8688   4.581   2.381   0.699 -1.1080  3.9786  1.7951
 2597SOL     OW 8689   1.520   1.954   0.360 -0.5665 -0.1555 -0.7319
 2597SOL    HW1 8690   1.599   1.934   0.303 -0.3927  1.1182 -0.9687
 2597SOL    HW2 8691   1.459   2.018   0.312 -1.3752 -0.5422 -0.2546
 2598SOL     OW 8692   6.174   1.401   2.274 -0.2476  0.4063 -0.2444
 2598SOL    HW1 8693   6.232   1.325   2.244  1.2012  1.4205 -0.1697
 2598SOL    HW2 8694   6.096   1.366   2.325 -0.1015 -1.0648 -0.9654
 2599SOL     OW 8695   4.425   5.390   1.086  0.3127  0.4982 -0.3615
 2599SOL    HW1 8696   4.426   5.488   1.106  0.6491  0.5478 -0.5974
 2599SOL    HW2 8697   4.353   5.371   1.019  0.7148  0.7021 -0.8598
 2600SOL     OW 8698   6.352   2.574   3.926  0.1610 -0.5150  0.1502
 2600SOL    HW1 8699   6.256   2.553   3.908 -0.0502  0.3049  0.3056
 2600SOL    HW2 8700   6.385   2.516   4.001  0.1932 -1.7739 -0.8020
 2601SOL     OW 8701   3.868   4.042   5.219  0.0491 -0.0411  0.1294
 2601SOL    HW1 8702   3.923   3.998   5.148 -0.9135  1.5271 -1.6809
 2601SOL    HW2 8703   3.822   3.972   5.274 -1.2258 -1.3802 -2.4671
 2602SOL     OW 8704   6.118   1.705   4.994 -0.4470 -0.0601  0.2548
 2602SOL    HW1 8705   6.086   1.798   4.977  0.2230  0.3662  1.2362
 2602SOL    HW2 8706   6.065   1.664   5.069  0.2507  0.0838  0.8340
 2603SOL     OW 8707   3.504   3.477   5.696  0.4339 -0.1369  0.3708
 2603SOL    HW1 8708   3.540   3.409   5.760 -1.7983 -1.8400 -0.0567
 2603SOL    HW2 8709   3.504   3.439   5.603 -2.2532 -0.2486  0.3268
 2604SOL     OW 8710   6.140   2.188   1.544  0.0846  0.0188  0.3725
 2604SOL    HW1 8711   6.048   2.217   1.572  0.1736 -0.8485  1.6070
 2604SOL    HW2 8712   6.180   2.259   1.486 -1.5545  0.1853 -0.6361
 2605SOL     OW 8713   4.761   4.573   3.228  0.2573  0.5033  0.3471
 2605SOL    HW1 8714   4.846   4.532   3.197 -0.8064 -0.6062 -1.2255
 2605SOL    HW2 8715   4.722   4.629   3.155 -0.1411  1.3691  1.2048
 2606SOL     OW 8716   6.614   5.050   1.740 -0.0228 -0.2656 -0.7007
 2606SOL    HW1 8717   6.597   5.142   1.703  0.0010 -0.4307 -1.1252
 2606SOL    HW2 8718   6.696   5.012   1.698 -0.5651 -0.8631 -1.2457
 2607SOL     OW 8719   0.724   3.374   4.136 -0.5243  0.3736 -0.1786
 2607SOL    HW1 8720   0.711   3.405   4.042 -0.5457 -0.3184 -0.4151
 2607SOL    HW2 8721   0.772   3.286   4.135  3.8330  2.4648  0.5838
 2608SOL     OW 8722   5.479   6.666   1.116 -0.5250 -0.0711  0.1600
 2608SOL    HW1 8723   5.427   6.590   1.077  0.6421 -0.2522 -1.0809
 2608SOL    HW2 8724   5.567   6.674   1.070  0.1668  0.8362  1.5898
 2609SOL     OW 8725   1.108   1.337   4.092 -0.0607 -0.1335 -0.0738
 2609SOL    HW1 8726   1.087   1.390   4.174 -1.0107 -3.6910  2.2395
 2609SOL    HW2 8727   1.195   1.290   4.104 -1.0187 -2.0471 -0.2852
 2610SOL     OW 8728   4.859   4.430   5.279 -0.2069 -0.0898 -0.0605
 2610SOL    HW1 8729   4.867   4.523   5.315 -1.8084  0.0126  0.0741
 2610SOL    HW2 8730   4.925   4.371   5.325  2.4592  1.3942 -1.7306
 2611SOL     OW 8731   3.103   6.323   1.218  0.8452 -0.0183 -0.8179
 2611SOL    HW1 8732   3.029   6.390   1.225  0.5051 -0.5504  1.1571
 2611SOL    HW2 8733   3.183   6.367   1.176  1.1581  2.1506  1.7460
 2612SOL     OW 8734   0.011   1.548   4.232 -0.1092  0.1210  0.0129
 2612SOL    HW1 8735   0.015   1.514   4.326  1.2859 -0.9501 -0.4027
 2612SOL    HW2 8736   0.100   1.587   4.207 -1.4596  3.7965  0.2925
 2613SOL     OW 8737   3.101   2.234   6.312  0.1207  0.0793  0.0435
 2613SOL    HW1 8738   3.026   2.222   6.378  1.2317  3.0411  2.0147
 2613SOL    HW2 8739   3.065   2.275   6.229 -1.0399 -2.2816 -0.7116
 2614SOL     OW 8740   0.730   4.833   0.880 -1.3044  0.4027 -0.3424
 2614SOL    HW1 8741   0.697   4.893   0.808  1.0508 -1.2750 -3.0270
 2614SOL    HW2 8742   0.744   4.741   0.844  0.5969 -0.3843  2.0704
 2615SOL     OW 8743   6.362   1.605   1.297  0.3826  0.9286  0.3378
 2615SOL    HW1 8744   6.458   1.577   1.294  0.2460  0.2389  1.4412
 2615SOL    HW2 8745   6.346   1.657   1.381 -0.2115  1.0247  0.1662
 2616SOL     OW 8746   3.459   3.332   2.760 -0.0348 -0.1319  0.0718
 2616SOL    HW1 8747   3.400   3.275   2.817 -0.3030 -1.5844 -1.5990
 2616SOL    HW2 8748   3.410   3.415   2.734  0.3339  0.9384  2.4642
 2617SOL     OW 8749   4.725   2.121   1.006  0.4464  0.3147 -0.3864
 2617SOL    HW1 8750   4.788   2.150   0.933  0.0532 -0.0118 -0.8618
 2617SOL    HW2 8751   4.766   2.044   1.055  0.1759 -0.2840 -1.0748
 2618SOL     OW 8752   0.064   6.824   6.580  0.7634 -0.5350  0.0704
 2618SOL    HW1 8753   0.021   6.783   6.660  0.3853 -0.6595 -0.1932
 2618SOL    HW2 8754   0.035   6.775   6.497 -0.5997  0.9280 -0.3806
 2619SOL     OW 8755   5.615   0.998   2.882 -0.1651  0.2355  0.3111
 2619SOL    HW1 8756   5.650   0.914   2.924  0.5881  1.2506  1.8100
 2619SOL    HW2 8757   5.534   1.029   2.933  0.9132  1.6210  1.2452
 2620SOL     OW 8758   0.194   5.453   2.783  0.6617  0.0127  0.1444
 2620SOL    HW1 8759   0.264   5.389   2.750  0.0776  0.1169 -1.3778
 2620SOL    HW2 8760   0.184   5.442   2.882  0.8533 -1.9917 -0.0013
 2621SOL     OW 8761   1.180   4.793   3.054 -0.7639 -0.1121  0.2517
 2621SOL    HW1 8762   1.238   4.870   3.028  1.2486 -2.0911 -1.5488
 2621SOL    HW2 8763   1.121   4.768   2.977 -1.7945 -0.0542  1.0007
 2622SOL     OW 8764   1.366   3.349   1.040 -0.0930  0.1276 -0.2429
 2622SOL    HW1 8765   1.366   3.368   0.942 -0.0146  0.4307 -0.1872
 2622SOL    HW2 8766   1.385   3.434   1.090  3.2797 -0.5724 -0.0699
 2623SOL     OW 8767   1.363   1.167   7.015  0.0442  0.1113 -0.3312
 2623SOL    HW1 8768   1.388   1.259   7.044 -0.3989  0.1032  0.0770
 2623SOL    HW2 8769   1.432   1.133   6.950 -0.0029  0.8723 -0.7858
 2624SOL     OW 8770   1.072   1.765   4.237 -0.2769 -0.2153  0.1751
 2624SOL    HW1 8771   0.989   1.719   4.268  0.1929 -0.6903  0.7363
 2624SOL    HW2 8772   1.102   1.724   4.151 -0.6108 -0.0525 -0.0222
 2625SOL     OW 8773   2.298   1.547   0.487 -0.6862  0.2492  0.5218
 2625SOL    HW1 8774   2.338   1.617   0.428 -1.5557  0.0753 -0.3177
 2625SOL    HW2 8775   2.254   1.590   0.566 -1.6009  0.7121 -0.2135
 2626SOL     OW 8776   3.680   6.383   3.204 -0.4259 -0.1144 -0.2893
 2626SOL    HW1 8777   3.582   6.404   3.199 -0.6139 -0.6360  0.8840
 2626SOL    HW2 8778   3.702   6.347   3.295  0.7972 -0.3201 -0.6481
 2627SOL     OW 8779   0.681   0.373   3.241 -0.0277  0.0976 -0.0293
 2627SOL    HW1 8780   0.673   0.388   3.143  0.1763 -0.5755 -0.1512
 2627SOL    HW2 8781   0.647   0.282   3.264 -1.6001  0.8505  0.7555
 2628SOL     OW 8782   3.182   5.507   0.676  0.1428 -0.0951  0.1266
 2628SOL    HW1 8783   3.161   5.511   0.578 -0.4435 -2.6219  0.0944
 2628SOL    HW2 8784   3.267   5.457   0.689  0.8524  1.2477  0.8940
 2629SOL     OW 8785   3.187   2.081   2.269 -0.0738  0.2883 -0.0788
 2629SOL    HW1 8786   3.111   2.146   2.271  0.5596  1.0202  0.5294
 2629SOL    HW2 8787   3.159   2.000   2.217 -0.3390  1.7278 -2.3357
 2630SOL     OW 8788   2.853   1.606   2.084 -0.0925  0.1371  0.1758
 2630SOL    HW1 8789   2.756   1.592   2.064 -0.3230 -1.2681  2.0147
 2630SOL    HW2 8790   2.864   1.624   2.182  1.4582  1.0500 -0.1307
 2631SOL     OW 8791   4.038   0.551   5.049  0.3553 -0.1230 -0.1997
 2631SOL    HW1 8792   4.074   0.466   5.087 -0.5534 -0.6322 -0.4638
 2631SOL    HW2 8793   4.071   0.629   5.103  0.9363 -0.6606  0.2304
 2632SOL     OW 8794   6.831   2.659   0.035 -0.2915  0.6327 -0.3941
 2632SOL    HW1 8795   6.748   2.645  -0.020 -0.1186 -2.7061  0.0014
 2632SOL    HW2 8796   6.909   2.616  -0.011 -0.0743 -1.9597  2.1207
 2633SOL     OW 8797   1.910   2.665   5.454  0.3834 -0.1324  0.6784
 2633SOL    HW1 8798   1.818   2.705   5.456  0.3085 -0.3247  1.5863
 2633SOL    HW2 8799   1.904   2.570   5.422  0.6273  0.6647 -2.0342
 2634SOL     OW 8800   4.533   3.801   1.675  0.2472 -0.0941 -0.3149
 2634SOL    HW1 8801   4.443   3.841   1.693 -0.2183 -1.4111  0.4291
 2634SOL    HW2 8802   4.521   3.708   1.639  1.2854 -1.1565  1.8929
 2635SOL     OW 8803   4.808   5.248   3.194 -0.4313  0.2655  0.2398
 2635SOL    HW1 8804   4.745   5.323   3.214 -1.5001 -0.5116 -0.0975
 2635SOL    HW2 8805   4.791   5.215   3.101 -0.2842 -0.6661  0.5319
 2636SOL     OW 8806   5.190   0.040   3.771 -0.5336 -0.5070  0.0469
 2636SOL    HW1 8807   5.239   0.038   3.859  1.2633  3.1009 -0.6820
 2636SOL    HW2 8808   5.092   0.027   3.788 -0.2526  0.0386  2.5860
 2637SOL     OW 8809   3.302   5.432   4.189 -0.2759 -0.2381 -0.1268
 2637SOL    HW1 8810   3.301   5.334   4.172 -0.5181 -0.4319  0.9198
 2637SOL    HW2 8811   3.248   5.452   4.271  1.4134  0.5141  0.8637
 2638SOL     OW 8812   5.703   5.084   0.904 -0.1142 -0.3235  0.1093
 2638SOL    HW1 8813   5.659   5.075   0.993 -0.4625 -0.9971 -0.1267
 2638SOL    HW2 8814   5.757   5.168   0.902 -0.6566  0.0493  0.7152
 2639SOL     OW 8815   6.263   5.826   0.981 -0.2966  0.0236  0.8397
 2639SOL    HW1 8816   6.215   5.800   1.065  0.2301 -1.6683  0.6729
 2639SOL    HW2 8817   6.241   5.759   0.909 -0.4765  1.2539 -0.2856
 2640SOL     OW 8818   4.220   6.122   5.383  0.3101  0.2544  0.0168
 2640SOL    HW1 8819   4.125   6.089   5.385  0.7399 -0.9915  0.9096
 2640SOL    HW2 8820   4.237   6.168   5.296 -0.6074 -1.0367 -0.8843
 2641SOL     OW 8821   6.547   4.220   0.882  0.3568  0.3023  0.3299
 2641SOL    HW1 8822   6.517   4.131   0.847  1.7687 -0.5074  1.0806
 2641SOL    HW2 8823   6.469   4.283   0.886 -0.3789 -0.3922 -1.6956
 2642SOL     OW 8824   5.682   0.329   3.936  0.4198 -0.2218  0.0563
 2642SOL    HW1 8825   5.707   0.335   4.032 -1.6736  0.3738  0.6236
 2642SOL    HW2 8826   5.607   0.392   3.917  1.1261  0.0525 -2.1092
 2643SOL     OW 8827   0.275   0.261   1.207  0.2809 -0.7538  0.2743
 2643SOL    HW1 8828   0.302   0.317   1.285 -2.3393 -0.2759  0.9517
 2643SOL    HW2 8829   0.291   0.164   1.228  1.9616 -0.4912  0.3350
 2644SOL     OW 8830   1.202   6.835   4.846 -0.3043  0.1796 -0.2667
 2644SOL    HW1 8831   1.280   6.874   4.895 -0.1782  0.4906 -0.7104
 2644SOL    HW2 8832   1.127   6.820   4.909 -0.0280  0.2637  0.0847
 2645SOL     OW 8833   5.469   3.465   6.631 -0.9259  0.7544 -0.0800
 2645SOL    HW1 8834   5.374   3.434   6.636 -0.8451  0.6279  0.7484
 2645SOL    HW2 8835   5.492   3.516   6.714  0.2862 -0.7887  0.5799
 2646SOL     OW 8836   0.344   1.829   6.836 -0.1234  0.8596  0.1911
 2646SOL    HW1 8837   0.389   1.748   6.875  0.6737  0.4774 -1.4232
 2646SOL    HW2 8838   0.410   1.880   6.781 -0.8159  2.2369  0.5798
 2647SOL     OW 8839   3.040   3.306   6.708 -0.5413 -0.0492 -0.1078
 2647SOL    HW1 8840   2.976   3.381   6.725  0.3496  0.8667 -0.7111
 2647SOL    HW2 8841   3.059   3.258   6.794 -0.7746  0.6925  0.3631
 2648SOL     OW 8842   4.840   0.101   2.864  0.9770 -0.1515  0.2271
 2648SOL    HW1 8843   4.847   0.147   2.775  0.6686 -1.0399 -0.2644
 2648SOL    HW2 8844   4.842   0.002   2.851 -0.3633 -0.3171  1.0891
 2649SOL     OW 8845   3.012   2.521   5.373  0.2520  0.0075 -0.2796
 2649SOL    HW1 8846   3.079   2.463   5.326  0.0486 -0.5706  0.1462
 2649SOL    HW2 8847   3.045   2.616   5.373  0.4251 -0.0423 -1.2701
 2650SOL     OW 8848   0.391   6.215   0.568  0.2920 -0.1845 -0.6284
 2650SOL    HW1 8849   0.431   6.125   0.588 -0.3654 -0.2841  0.3321
 2650SOL    HW2 8850   0.334   6.243   0.645 -3.0196 -0.9062 -2.5980
 2651SOL     OW 8851   2.383   5.610   4.758  0.1429 -0.2883 -0.4101
 2651SOL    HW1 8852   2.385   5.624   4.857 -1.5756  0.3136 -0.4341
 2651SOL    HW2 8853   2.472   5.634   4.719  0.0966  1.9039  0.6968
 2652SOL     OW 8854   4.062   3.652   4.905 -0.0045 -0.5394  0.1283
 2652SOL    HW1 8855   4.076   3.647   5.004  0.7679 -1.6516 -0.0204
 2652SOL    HW2 8856   4.023   3.566   4.872 -0.7514  0.0102 -0.4753
 2653SOL     OW 8857   4.802   4.798   5.099  0.1920 -0.1967 -0.3801
 2653SOL    HW1 8858   4.759   4.888   5.099 -0.3028 -0.4270 -0.4811
 2653SOL    HW2 8859   4.751   4.737   5.160 -0.4494 -0.8536 -1.5285
 2654SOL     OW 8860   4.125   4.807   6.486  0.4984  0.1043 -0.2639
 2654SOL    HW1 8861   4.046   4.861   6.459 -1.3163 -2.4674 -0.4129
 2654SOL    HW2 8862   4.122   4.791   6.585 -0.6526 -2.1122 -0.6085
 2655SOL     OW 8863   5.099   5.413   6.565  0.2782 -0.2790 -0.1215
 2655SOL    HW1 8864   5.045   5.497   6.559  1.1524  0.1945 -1.7163
 2655SOL    HW2 8865   5.193   5.435   6.590  0.1982 -0.9340  0.8134
 2656SOL     OW 8866   0.392   5.088   2.958 -0.1579 -0.4622  0.3075
 2656SOL    HW1 8867   0.474   5.033   2.939 -0.2574 -0.3781 -0.4041
 2656SOL    HW2 8868   0.313   5.028   2.967 -0.4436 -0.4089 -1.4380
 2657SOL     OW 8869   2.662   1.060   4.169  0.2174 -0.2092  0.5861
 2657SOL    HW1 8870   2.745   1.013   4.199  1.2041  1.2397  0.2307
 2657SOL    HW2 8871   2.683   1.156   4.150 -0.5317 -0.7081 -3.7349
 2658SOL     OW 8872   6.582   6.020   5.182  0.0971  0.2764  0.2182
 2658SOL    HW1 8873   6.517   6.080   5.136  0.4323  0.4586 -0.0238
 2658SOL    HW2 8874   6.577   5.928   5.144  2.6263  1.1006 -2.5540
 2659SOL     OW 8875   5.405   3.407   4.741  0.3691  0.0181 -0.0163
 2659SOL    HW1 8876   5.442   3.392   4.833 -0.6536 -0.2857  0.3568
 2659SOL    HW2 8877   5.349   3.328   4.715  0.9412 -0.0590 -1.0525
 2660SOL     OW 8878   0.117   3.213   1.957 -0.2348  0.0765  0.0986
 2660SOL    HW1 8879   0.120   3.311   1.939 -0.3271  0.1720  0.6156
 2660SOL    HW2 8880   0.142   3.164   1.873  2.3689  0.5948  0.4918
 2661SOL     OW 8881   4.610   5.553   1.762  0.1203 -0.2938 -0.2547
 2661SOL    HW1 8882   4.618   5.527   1.665  1.5287  1.0435 -0.5417
 2661SOL    HW2 8883   4.580   5.648   1.769  1.0620 -0.0341  0.5677
 2662SOL     OW 8884   3.167   6.226   3.818  0.3093 -0.1135  0.1342
 2662SOL    HW1 8885   3.174   6.290   3.741 -0.2576  1.1427  1.1009
 2662SOL    HW2 8886   3.105   6.263   3.886 -0.5927 -2.0470  0.4131
 2663SOL     OW 8887   6.500   3.768   5.586 -0.1217 -0.4920 -0.4840
 2663SOL    HW1 8888   6.461   3.847   5.539  0.2522  0.0043  0.0276
 2663SOL    HW2 8889   6.496   3.688   5.526 -0.4567 -0.0735 -1.0254
 2664SOL     OW 8890   2.542   4.415   0.305 -0.0451  0.1318 -0.0929
 2664SOL    HW1 8891   2.530   4.483   0.232 -0.0189 -0.8175 -1.0017
 2664SOL    HW2 8892   2.604   4.343   0.273  2.8337  1.4313  2.0858
 2665SOL     OW 8893   6.418   2.118   4.063  0.9214 -0.0006  0.0732
 2665SOL    HW1 8894   6.409   2.098   3.966  0.9543 -0.4830  0.1686
 2665SOL    HW2 8895   6.388   2.039   4.117  2.8649 -0.5591  0.4182
 2666SOL     OW 8896   4.567   2.070   2.099 -0.0451  0.1154 -0.0102
 2666SOL    HW1 8897   4.598   2.134   2.169 -0.5759  0.5996 -0.2112
 2666SOL    HW2 8898   4.629   1.992   2.095 -0.2014 -0.0828  1.2274
 2667SOL     OW 8899   1.472   4.722   2.590 -0.5288 -0.6634 -0.3563
 2667SOL    HW1 8900   1.495   4.729   2.493 -0.5175 -0.2016 -0.3256
 2667SOL    HW2 8901   1.517   4.797   2.640 -0.7995 -0.7058 -0.0464
 2668SOL     OW 8902   6.610   1.419   5.216 -0.5399 -0.8829  0.1681
 2668SOL    HW1 8903   6.514   1.390   5.208 -0.5753 -0.4248 -1.2076
 2668SOL    HW2 8904   6.624   1.504   5.167  0.5234 -0.7787  0.6163
 2669SOL     OW 8905   3.114   5.441   6.199 -0.4496 -0.3603 -0.3325
 2669SOL    HW1 8906   3.150   5.348   6.186 -1.2972 -0.6647 -0.5664
 2669SOL    HW2 8907   3.164   5.504   6.140 -0.6326 -0.8574 -1.0364
 2670SOL     OW 8908   1.760   0.948   5.183  0.6735 -1.0097  0.0877
 2670SOL    HW1 8909   1.788   1.031   5.135 -0.2454 -1.7352 -1.8446
 2670SOL    HW2 8910   1.840   0.901   5.219  1.2559  0.3676  0.6298
 2671SOL     OW 8911   3.598   2.965   0.514 -0.1525  0.3694 -0.2991
 2671SOL    HW1 8912   3.591   2.868   0.492  0.5680 -0.2052  1.8085
 2671SOL    HW2 8913   3.517   2.994   0.566  0.1781  0.6016  0.0895
 2672SOL     OW 8914   6.703   3.150   2.399 -0.0762 -0.1148  0.2288
 2672SOL    HW1 8915   6.607   3.129   2.418 -0.1536  0.5357  0.5969
 2672SOL    HW2 8916   6.718   3.248   2.413  0.8997 -0.3990  1.3366
 2673SOL     OW 8917   4.857   1.950   3.550 -0.2789  0.1783  0.0318
 2673SOL    HW1 8918   4.829   1.920   3.641  0.3376 -0.4838  0.0136
 2673SOL    HW2 8919   4.918   2.029   3.558 -1.0011  0.7344  0.1373
 2674SOL     OW 8920   5.736   5.883   4.269 -0.0574  0.3681  0.6307
 2674SOL    HW1 8921   5.785   5.800   4.294  1.0324  0.1164 -1.9942
 2674SOL    HW2 8922   5.787   5.963   4.302 -0.1809  0.0316  1.6486
 2675SOL     OW 8923   0.077   4.007   4.430 -0.7492  0.5492 -0.8770
 2675SOL    HW1 8924   0.024   4.084   4.465 -0.7658  0.0629  0.1929
 2675SOL    HW2 8925   0.059   3.997   4.332 -1.7947  1.0634 -0.7556
 2676SOL     OW 8926   6.771   0.200   2.127  0.1032 -0.7427  0.7145
 2676SOL    HW1 8927   6.751   0.238   2.217 -2.8553  1.5765 -0.7359
 2676SOL    HW2 8928   6.816   0.270   2.071 -1.2919 -0.8784 -0.6388
 2677SOL     OW 8929   1.140   3.127   2.451  0.3737  0.3333  0.5380
 2677SOL    HW1 8930   1.120   3.153   2.357  0.4605 -0.0161  0.4238
 2677SOL    HW2 8931   1.114   3.202   2.512 -2.2581 -0.4697  0.5080
 2678SOL     OW 8932   6.092   6.755   5.159  0.4234  0.4794 -0.1700
 2678SOL    HW1 8933   6.185   6.791   5.156  0.8498 -0.6051 -0.4657
 2678SOL    HW2 8934   6.046   6.786   5.243  1.7463 -0.6152  1.0026
 2679SOL     OW 8935   2.658   4.341   1.154 -0.0362  0.3837 -0.0293
 2679SOL    HW1 8936   2.621   4.250   1.172  0.4689 -0.2105 -1.8498
 2679SOL    HW2 8937   2.649   4.362   1.057  1.8191  1.3786 -0.0188
 2680SOL     OW 8938   0.786   1.335   1.624  0.7407  0.0054 -0.7464
 2680SOL    HW1 8939   0.767   1.365   1.718  2.2973 -1.1401 -0.0215
 2680SOL    HW2 8940   0.709   1.281   1.590 -0.4757  1.6448 -0.7101
 2681SOL     OW 8941   0.646   6.121   3.231 -0.2078  0.0684  0.3164
 2681SOL    HW1 8942   0.601   6.144   3.145 -0.7367  0.4651  0.6951
 2681SOL    HW2 8943   0.707   6.196   3.257  0.6346 -0.4339 -0.1582
 2682SOL     OW 8944   5.387   2.948   4.139 -0.5267  0.2301 -0.1618
 2682SOL    HW1 8945   5.445   3.003   4.200 -1.1848 -1.5760  2.2417
 2682SOL    HW2 8946   5.293   2.983   4.143 -0.6012  0.0128 -0.0002
 2683SOL     OW 8947   0.478   6.987   2.168  0.1826 -0.2221 -0.1916
 2683SOL    HW1 8948   0.462   7.017   2.262  1.7568  0.0394  0.0278
 2683SOL    HW2 8949   0.429   6.902   2.150 -0.3295 -0.1370  0.7903
 2684SOL     OW 8950   1.467   5.463   2.108  0.0839 -0.4538 -0.0955
 2684SOL    HW1 8951   1.471   5.441   2.206 -0.6907 -0.3139 -0.0274
 2684SOL    HW2 8952   1.558   5.489   2.076  0.0775  0.9792  0.9350
 2685SOL     OW 8953   5.767   6.819   4.497 -0.5846  0.3405 -0.5154
 2685SOL    HW1 8954   5.742   6.892   4.433  1.7539  1.5073 -0.2135
 2685SOL    HW2 8955   5.866   6.808   4.498 -0.6962 -1.0052  1.4395
 2686SOL     OW 8956   1.234   3.264   5.303 -0.7885 -0.6947  0.4044
 2686SOL    HW1 8957   1.139   3.289   5.323 -0.3306  1.0193  0.6324
 2686SOL    HW2 8958   1.294   3.342   5.322  0.5720 -1.4300 -0.6324
 2687SOL     OW 8959   5.256   5.395   2.934 -0.0114  0.4548  0.0595
 2687SOL    HW1 8960   5.176   5.386   2.994  0.1899  1.8551  0.5734
 2687SOL    HW2 8961   5.327   5.447   2.981  1.0286 -0.3660 -0.5738
 2688SOL     OW 8962   4.163   5.513   6.500 -0.0383  0.7433  0.0256
 2688SOL    HW1 8963   4.181   5.415   6.512  1.0318  0.8218 -0.7865
 2688SOL    HW2 8964   4.065   5.530   6.503 -0.2850 -0.4768 -0.6415
 2689SOL     OW 8965   6.753   2.534   4.950  0.3703  0.3362 -0.0309
 2689SOL    HW1 8966   6.690   2.592   4.898  1.0926 -1.2547 -2.8392
 2689SOL    HW2 8967   6.731   2.438   4.934  2.2492 -0.2392  0.5587
 2690SOL     OW 8968   3.713   3.997   2.730  0.3004 -0.3957 -0.2571
 2690SOL    HW1 8969   3.757   4.022   2.644  0.6146  3.3496  0.7856
 2690SOL    HW2 8970   3.623   4.042   2.736  0.7378  0.3204  1.7569
 2691SOL     OW 8971   1.019   0.833   0.723  0.0156 -0.3380  0.5248
 2691SOL    HW1 8972   1.040   0.915   0.670  0.8812 -1.0491 -0.2646
 2691SOL    HW2 8973   1.096   0.770   0.718 -2.1353 -3.0417 -2.4089
 2692SOL     OW 8974   1.607   2.741   3.109  0.3590 -0.0094  0.4996
 2692SOL    HW1 8975   1.585   2.838   3.105 -0.4433 -0.2141 -0.7493
 2692SOL    HW2 8976   1.649   2.713   3.022  1.9974 -0.4710  1.4045
 2693SOL     OW 8977   2.014   3.810   4.615  0.1036  0.3714 -0.0310
 2693SOL    HW1 8978   1.984   3.795   4.520  0.8519 -0.3732 -0.1599
 2693SOL    HW2 8979   2.018   3.909   4.633  1.3294  0.5713 -1.2405
 2694SOL     OW 8980   1.487   1.531   3.839 -0.3812  0.9023 -0.1414
 2694SOL    HW1 8981   1.550   1.598   3.799 -0.1958  0.7320 -0.1401
 2694SOL    HW2 8982   1.393   1.559   3.822 -0.3041  1.1045 -0.2388
 2695SOL     OW 8983   6.597   3.207   3.543  0.5378  0.3028  0.3654
 2695SOL    HW1 8984   6.543   3.291   3.538  0.5891  0.2756 -2.0152
 2695SOL    HW2 8985   6.544   3.137   3.591 -0.8404  0.7841 -0.3705
 2696SOL     OW 8986   4.126   3.345   5.904  0.4090 -0.0476 -0.0904
 2696SOL    HW1 8987   4.077   3.294   5.974 -0.6294  0.7855 -0.1844
 2696SOL    HW2 8988   4.146   3.285   5.826  1.1237 -0.8407  0.6802
 2697SOL     OW 8989   3.644   2.103   3.180 -0.4463 -0.5113  0.1367
 2697SOL    HW1 8990   3.554   2.133   3.210  0.1259  0.7465  0.6733
 2697SOL    HW2 8991   3.651   2.003   3.189 -1.8393 -0.6467 -0.1231
 2698SOL     OW 8992   0.846   4.065   0.823 -0.7776 -0.6911 -0.4084
 2698SOL    HW1 8993   0.802   4.132   0.882 -0.4879 -0.9152  0.0629
 2698SOL    HW2 8994   0.880   3.989   0.878  2.1196  0.4645 -0.4263
 2699SOL     OW 8995   1.863   5.034   2.206 -0.1387 -0.0331 -0.1821
 2699SOL    HW1 8996   1.857   5.114   2.266 -1.9847  1.4810 -2.1979
 2699SOL    HW2 8997   1.905   5.061   2.120  1.3302 -1.8658 -0.0960
 2700SOL     OW 8998   6.586   4.714   1.929 -0.4353  0.3553 -0.1843
 2700SOL    HW1 8999   6.532   4.797   1.942 -1.4533 -0.2390 -0.5127
 2700SOL    HW2 9000   6.682   4.734   1.948 -0.3600  2.0768 -2.0593
 2701SOL     OW 9001   4.478   5.623   5.869 -0.4139  0.1101 -0.2102
 2701SOL    HW1 9002   4.420   5.565   5.927 -0.8583 -0.2868 -1.0334
 2701SOL    HW2 9003   4.536   5.566   5.812 -1.6893  0.4140 -1.8792
 2702SOL     OW 9004   1.222   6.943   4.579  0.4054  0.6328  0.1833
 2702SOL    HW1 9005   1.210   6.901   4.669 -0.0639  1.2748  0.4280
 2702SOL    HW2 9006   1.237   6.871   4.511  2.4683  0.2042  1.0100
 2703SOL     OW 9007   2.140   1.350   2.612  0.1803  0.0603 -0.0810
 2703SOL    HW1 9008   2.139   1.410   2.692 -0.0617  0.9147 -0.6995
 2703SOL    HW2 9009   2.163   1.257   2.639 -2.8830 -0.3756  1.4752
 2704SOL     OW 9010   3.330   7.005   6.918 -0.9693 -0.3493 -0.3376
 2704SOL    HW1 9011   3.232   7.015   6.935 -1.6213 -2.1213 -2.4804
 2704SOL    HW2 9012   3.365   6.929   6.973 -0.2395  1.5930  2.0260
 2705SOL     OW 9013   0.743   5.163   1.131 -0.4274  0.3302 -0.1848
 2705SOL    HW1 9014   0.647   5.189   1.126 -0.4688  0.2934  0.4155
 2705SOL    HW2 9015   0.751   5.063   1.121 -0.5859  0.1557  1.3059
 2706SOL     OW 9016   6.942   0.580   1.304 -0.2101 -0.0592 -0.4847
 2706SOL    HW1 9017   6.853   0.590   1.347  0.0384  0.8867 -0.1615
 2706SOL    HW2 9018   6.945   0.496   1.251 -1.2366 -0.1748 -0.3638
 2707SOL     OW 9019   3.279   1.394   6.816  0.3835 -0.2739 -0.4920
 2707SOL    HW1 9020   3.330   1.332   6.756  1.0723 -0.0998 -0.0976
 2707SOL    HW2 9021   3.277   1.356   6.908 -2.0167 -1.3293 -0.9098
 2708SOL     OW 9022   2.112   2.356   1.580 -0.2958  0.1426  0.1304
 2708SOL    HW1 9023   2.132   2.451   1.602 -1.8535  0.5225  0.0044
 2708SOL    HW2 9024   2.180   2.296   1.623  1.3603  1.3558 -0.6943
 2709SOL     OW 9025   4.206   5.616   1.765 -0.7659 -0.2260  0.3556
 2709SOL    HW1 9026   4.148   5.633   1.844 -0.5718 -0.3082  0.5149
 2709SOL    HW2 9027   4.301   5.611   1.793 -0.6079  0.5742  0.0062
 2710SOL     OW 9028   4.690   4.298   2.985  0.2805 -0.1060  0.2469
 2710SOL    HW1 9029   4.633   4.333   2.910  1.3287 -0.7655 -0.8898
 2710SOL    HW2 9030   4.663   4.342   3.071 -0.4927  1.1737 -0.6196
 2711SOL     OW 9031   1.455   6.398   2.343 -0.1950 -0.2700  0.3240
 2711SOL    HW1 9032   1.370   6.346   2.340 -0.3512 -0.0616  0.9861
 2711SOL    HW2 9033   1.435   6.495   2.361  0.0217  0.2297 -1.8340
 2712SOL     OW 9034   2.470   5.074   6.853  0.0981  0.1887  0.3625
 2712SOL    HW1 9035   2.565   5.043   6.846  0.0020 -0.0851  0.2491
 2712SOL    HW2 9036   2.465   5.172   6.833  0.2669  0.0677 -0.2946
 2713SOL     OW 9037   1.316   4.444   5.776 -0.5786  0.1864 -0.4167
 2713SOL    HW1 9038   1.297   4.496   5.860  1.1365  1.3501 -0.7196
 2713SOL    HW2 9039   1.273   4.489   5.698 -0.0375  0.5192 -0.5218
 2714SOL     OW 9040   5.645   6.870   5.015 -0.6923  0.0915  0.0881
 2714SOL    HW1 9041   5.552   6.897   4.991 -0.8699  0.4746  1.1382
 2714SOL    HW2 9042   5.703   6.873   4.933 -0.9166  2.8199 -0.0718
 2715SOL     OW 9043   6.706   1.207   0.755 -0.1635 -0.4306  0.0355
 2715SOL    HW1 9044   6.621   1.260   0.754 -0.3672 -0.5296  3.0554
 2715SOL    HW2 9045   6.749   1.212   0.665 -2.0096  1.8154 -0.8353
 2716SOL     OW 9046   1.923   6.481   3.428 -0.2055  0.0769 -0.6048
 2716SOL    HW1 9047   1.857   6.494   3.354 -1.4268  1.8266  0.6952
 2716SOL    HW2 9048   1.892   6.531   3.509  0.9313 -1.9866  1.2073
 2717SOL     OW 9049   0.677   0.608   2.718 -0.0153  0.2742  0.3104
 2717SOL    HW1 9050   0.706   0.702   2.733  1.0201  0.0307 -0.0839
 2717SOL    HW2 9051   0.599   0.606   2.656  2.1973  0.7337 -2.7204
 2718SOL     OW 9052   0.769   6.015   3.970 -0.1915 -0.0647  0.2836
 2718SOL    HW1 9053   0.763   6.019   4.070 -0.4609 -0.3892  0.2795
 2718SOL    HW2 9054   0.856   6.054   3.941  0.0750 -0.3628  0.6735
 2719SOL     OW 9055   4.281   0.440   1.766 -0.2643  0.4468  0.2220
 2719SOL    HW1 9056   4.255   0.359   1.713  0.4012 -0.9605  1.9131
 2719SOL    HW2 9057   4.200   0.495   1.785 -0.5447  0.8737 -1.9995
 2720SOL     OW 9058   1.971   6.114   3.909  0.3419 -0.0227 -0.4089
 2720SOL    HW1 9059   1.916   6.031   3.898 -1.1359  1.0280 -1.4007
 2720SOL    HW2 9060   1.945   6.181   3.840  3.1293  0.4680 -1.1043
 2721SOL     OW 9061   4.560   1.359   5.829  0.0139  0.8954 -0.4341
 2721SOL    HW1 9062   4.589   1.329   5.919  0.4955  1.2355 -0.4754
 2721SOL    HW2 9063   4.605   1.304   5.758 -0.5365  0.4756 -0.4697
 2722SOL     OW 9064   1.693   6.538   1.259  0.3024  0.2245  0.4321
 2722SOL    HW1 9065   1.651   6.592   1.332  1.2158  0.4592  0.7934
 2722SOL    HW2 9066   1.669   6.577   1.170 -0.0718  0.4739  0.6411
 2723SOL     OW 9067   1.650   2.092   0.592 -0.2205  0.3107  0.3891
 2723SOL    HW1 9068   1.597   2.101   0.508 -0.1862  0.6698  0.4041
 2723SOL    HW2 9069   1.746   2.075   0.570 -0.6741 -2.8168  0.3315
 2724SOL     OW 9070   3.612   0.051   6.858 -0.1301  0.7569 -0.7286
 2724SOL    HW1 9071   3.639   0.027   6.765  0.8932 -0.5354 -0.1341
 2724SOL    HW2 9072   3.520   0.014   6.877 -0.5570  1.4683 -1.3763
 2725SOL     OW 9073   4.458   4.908   2.903 -1.1575  0.6031 -0.0030
 2725SOL    HW1 9074   4.415   4.829   2.861 -0.0461 -0.4118  0.7000
 2725SOL    HW2 9075   4.504   4.963   2.833 -0.0128 -0.6205 -0.2417
 2726SOL     OW 9076   4.483   5.594   2.424  0.5253 -0.1923  0.0213
 2726SOL    HW1 9077   4.435   5.677   2.453 -0.8133 -0.6796 -0.7074
 2726SOL    HW2 9078   4.571   5.589   2.471  0.2596  1.1869  0.7377
 2727SOL     OW 9079   4.123   1.505   2.578  0.6035  0.2055  0.2653
 2727SOL    HW1 9080   4.032   1.542   2.561  0.3448 -0.1300  0.9012
 2727SOL    HW2 9081   4.115   1.416   2.624  1.2444  0.0323  0.0539
 2728SOL     OW 9082   5.074   5.715   5.418 -0.0460 -0.1299 -0.3436
 2728SOL    HW1 9083   5.166   5.755   5.422  0.7189 -1.8265  2.6034
 2728SOL    HW2 9084   5.055   5.684   5.326  3.2029 -1.5197 -0.6909
 2729SOL     OW 9085   1.436   2.775   3.378 -0.5262 -0.4109  0.1929
 2729SOL    HW1 9086   1.386   2.861   3.372  0.2869  0.2443  2.2020
 2729SOL    HW2 9087   1.484   2.759   3.292  0.5622  1.9512  0.2912
 2730SOL     OW 9088   0.357   5.135   0.739  0.1928 -0.4728  0.1773
 2730SOL    HW1 9089   0.343   5.152   0.641  4.1323  0.7996 -0.3066
 2730SOL    HW2 9090   0.274   5.094   0.777 -1.2354 -1.7870 -3.8268
 2731SOL     OW 9091   3.206   4.799   1.845 -0.3487  0.6422  0.6505
 2731SOL    HW1 9092   3.215   4.814   1.943  2.2932  2.7369  0.2120
 2731SOL    HW2 9093   3.252   4.714   1.819  1.0369  1.2734  0.9730
 2732SOL     OW 9094   6.961   0.530   3.862 -0.3832  0.1875  0.1748
 2732SOL    HW1 9095   7.022   0.590   3.810 -0.0044  0.2447  0.6778
 2732SOL    HW2 9096   6.959   0.440   3.820 -0.6975  0.4534 -0.3931
 2733SOL     OW 9097   6.697   0.105   5.169 -0.6767  0.0728  0.0114
 2733SOL    HW1 9098   6.642   0.083   5.089 -0.6176 -0.7045  0.1763
 2733SOL    HW2 9099   6.736   0.021   5.207 -0.0087  0.5269  0.3541
 2734SOL     OW 9100   3.278   0.072   4.938  0.3950 -0.0818  0.2931
 2734SOL    HW1 9101   3.282  -0.004   4.874  0.1577  0.2809 -0.1624
 2734SOL    HW2 9102   3.248   0.155   4.889 -0.1093  0.1252  0.9357
 2735SOL     OW 9103   0.553   4.314   2.853  0.4443  0.1430  0.1570
 2735SOL    HW1 9104   0.602   4.250   2.912  0.0887 -1.2602 -1.0200
 2735SOL    HW2 9105   0.538   4.272   2.764 -0.2406  1.7006 -0.4926
 2736SOL     OW 9106   1.805   5.504   6.827 -0.1581  0.2738  0.1447
 2736SOL    HW1 9107   1.777   5.584   6.775  1.5179  0.7656 -0.0618
 2736SOL    HW2 9108   1.825   5.428   6.765 -0.3939  0.1288  0.2433
 2737SOL     OW 9109   4.379   3.897   5.892 -0.2066 -0.8331  0.7861
 2737SOL    HW1 9110   4.383   3.804   5.854 -2.0749 -1.2662  1.5161
 2737SOL    HW2 9111   4.357   3.892   5.990 -1.8931  0.3631  0.5221
 2738SOL     OW 9112   5.110   5.192   3.632  0.0194 -0.2323  0.5167
 2738SOL    HW1 9113   5.037   5.124   3.634  0.8959 -1.1988  1.3479
 2738SOL    HW2 9114   5.099   5.255   3.710 -1.5510  1.4727 -0.9920
 2739SOL     OW 9115   5.674   1.803   5.458  0.1083  0.2505 -0.0863
 2739SOL    HW1 9116   5.631   1.778   5.370  0.7498 -1.7361  0.1044
 2739SOL    HW2 9117   5.726   1.725   5.492  1.9495  1.8038  0.8588
 2740SOL     OW 9118   6.385   4.163   3.159  0.1382 -0.0259  0.2741
 2740SOL    HW1 9119   6.444   4.191   3.235  3.0958  0.0033 -1.8368
 2740SOL    HW2 9120   6.350   4.244   3.113  0.4107  0.0272  0.1543
 2741SOL     OW 9121   6.876   6.647   4.656 -0.3143  0.3706 -0.0843
 2741SOL    HW1 9122   6.923   6.713   4.716 -0.3511  0.2095  0.1225
 2741SOL    HW2 9123   6.883   6.556   4.696  1.2603 -0.0458 -1.2383
 2742SOL     OW 9124   2.502   0.247   5.164  0.3028 -0.3153  0.0623
 2742SOL    HW1 9125   2.547   0.307   5.231  1.0248 -2.7249  1.8562
 2742SOL    HW2 9126   2.403   0.257   5.171  0.4043  0.2917  0.6701
 2743SOL     OW 9127   5.082   0.267   2.011  0.0956  0.2049  0.0558
 2743SOL    HW1 9128   5.035   0.207   1.946 -0.3136  2.0916 -1.5033
 2743SOL    HW2 9129   5.178   0.274   1.985 -0.1162  1.1379 -0.5182
 2744SOL     OW 9130   3.322   2.353   6.827  0.1461 -0.0716 -0.2554
 2744SOL    HW1 9131   3.227   2.383   6.834 -0.0218 -0.0805 -2.0116
 2744SOL    HW2 9132   3.345   2.336   6.731  1.5425 -1.3477  0.2581
 2745SOL     OW 9133   2.029   3.698   6.257  0.1204 -0.6600  0.2095
 2745SOL    HW1 9134   1.944   3.740   6.227 -0.3581 -2.1113 -0.5505
 2745SOL    HW2 9135   2.040   3.712   6.356  0.1620  1.4750 -0.0518
 2746SOL     OW 9136   3.422   2.678   5.518  0.3483  0.0028 -0.0051
 2746SOL    HW1 9137   3.398   2.669   5.421 -0.0162 -0.4016  0.1207
 2746SOL    HW2 9138   3.465   2.767   5.533 -0.6790  0.5691 -0.3220
 2747SOL     OW 9139   4.069   5.930   2.815 -0.6296 -0.8658  0.0024
 2747SOL    HW1 9140   4.143   5.951   2.879  0.0789 -1.0626 -0.7296
 2747SOL    HW2 9141   4.049   6.011   2.760 -1.3377 -0.6529  0.5538
 2748SOL     OW 9142   2.604   1.519   5.188 -0.5632  0.3331  0.3644
 2748SOL    HW1 9143   2.535   1.493   5.119 -0.3692  0.4133  0.1389
 2748SOL    HW2 9144   2.674   1.575   5.145 -1.1622  1.5402  0.9144
 2749SOL     OW 9145   6.779   5.820   3.025 -0.2745 -0.0137 -0.7345
 2749SOL    HW1 9146   6.704   5.763   3.058 -0.2766  0.4632  0.1132
 2749SOL    HW2 9147   6.852   5.762   2.988 -0.7592 -0.5043 -0.9362
 2750SOL     OW 9148   5.128   5.428   0.589  0.4517 -0.3394 -0.4102
 2750SOL    HW1 9149   5.042   5.380   0.570  1.1535 -0.9777 -2.2020
 2750SOL    HW2 9150   5.111   5.526   0.593 -0.0867 -0.2800 -2.8340
 2751SOL     OW 9151   3.006   0.528   0.397  0.1222  0.6969  0.4888
 2751SOL    HW1 9152   3.105   0.525   0.385  0.2519 -0.9567  1.6199
 2751SOL    HW2 9153   2.961   0.531   0.308  1.1580 -0.8982 -0.1265
 2752SOL     OW 9154   6.944   5.568   0.474 -0.5009 -0.0586 -0.3982
 2752SOL    HW1 9155   7.019   5.583   0.409 -1.1731  1.0463 -0.9493
 2752SOL    HW2 9156   6.877   5.506   0.433 -0.0143 -0.8859  0.0164
 2753SOL     OW 9157   3.416   5.209   3.537 -0.3967 -0.0646 -0.0061
 2753SOL    HW1 9158   3.509   5.242   3.556 -0.3194 -0.7096  0.7901
 2753SOL    HW2 9159   3.393   5.136   3.602 -1.5578  0.2679 -0.0362
 2754SOL     OW 9160   1.175   6.815   3.980  0.0401 -0.0557 -0.0809
 2754SOL    HW1 9161   1.160   6.914   3.974 -0.7519 -0.1679 -0.0773
 2754SOL    HW2 9162   1.144   6.782   4.069 -0.5639 -0.4415 -0.4255
 2755SOL     OW 9163   4.350   6.182   2.611 -0.3041 -0.2856  0.1520
 2755SOL    HW1 9164   4.368   6.127   2.530  1.0111  0.1222  0.1441
 2755SOL    HW2 9165   4.304   6.267   2.583 -0.4488 -0.4386 -0.0835
 2756SOL     OW 9166   1.492   1.541   6.278 -0.0674 -0.2542  0.2700
 2756SOL    HW1 9167   1.550   1.618   6.251  0.1647 -1.0409 -1.6291
 2756SOL    HW2 9168   1.542   1.483   6.342  0.5067  0.1103  0.1608
 2757SOL     OW 9169   4.691   3.854   1.005  0.1340  0.5174 -0.2184
 2757SOL    HW1 9170   4.714   3.892   1.094 -0.6020 -0.1464  0.2812
 2757SOL    HW2 9171   4.772   3.814   0.963  0.0686 -1.4176  1.3046
 2758SOL     OW 9172   6.453   3.367   1.183 -1.0362 -0.0882  0.1882
 2758SOL    HW1 9173   6.456   3.268   1.198 -0.6772  0.0847  1.3694
 2758SOL    HW2 9174   6.532   3.395   1.129 -0.4376 -0.2811  0.9530
 2759SOL     OW 9175   5.093   4.531   6.137 -0.8669  0.4958  0.2135
 2759SOL    HW1 9176   5.040   4.522   6.053  0.8252  2.6136 -1.1984
 2759SOL    HW2 9177   5.066   4.615   6.185 -0.8383  0.0350  1.0581
 2760SOL     OW 9178   0.299   0.058   3.151  0.7252  0.2905 -0.8078
 2760SOL    HW1 9179   0.270   0.000   3.228 -0.1723  0.8055 -0.7459
 2760SOL    HW2 9180   0.294   0.005   3.066  0.3538  0.1417 -0.6951
 2761SOL     OW 9181   1.918   3.573   4.240 -0.0773  0.0162 -0.6721
 2761SOL    HW1 9182   2.007   3.606   4.210  0.7111 -0.1252  1.3975
 2761SOL    HW2 9183   1.867   3.647   4.283 -0.1626 -0.3586 -0.1172
 2762SOL     OW 9184   2.553   2.750   6.836  0.1918 -0.2940  0.5156
 2762SOL    HW1 9185   2.624   2.780   6.900  0.2847  1.0156 -0.1761
 2762SOL    HW2 9186   2.475   2.811   6.841  0.5159  0.2968 -1.1644
 2763SOL     OW 9187   0.246   0.625   4.383 -0.4414 -0.6425 -0.3737
 2763SOL    HW1 9188   0.293   0.551   4.431 -2.2194 -0.8263  1.2032
 2763SOL    HW2 9189   0.294   0.711   4.399  1.5259 -1.3404 -2.0459
 2764SOL     OW 9190   0.847   3.299   2.812 -0.3450  0.0265  0.5991
 2764SOL    HW1 9191   0.793   3.380   2.793  0.7303  0.9516  1.3627
 2764SOL    HW2 9192   0.867   3.251   2.726  0.3683  1.4659 -0.0723
 2765SOL     OW 9193   0.948   5.791   0.283 -0.2486  0.2238 -0.0099
 2765SOL    HW1 9194   0.966   5.884   0.252  2.1712 -0.3862 -0.6785
 2765SOL    HW2 9195   0.907   5.737   0.209  0.8006  0.0979 -0.5163
 2766SOL     OW 9196   5.127   1.868   1.331 -0.0760 -0.3819 -0.3673
 2766SOL    HW1 9197   5.151   1.798   1.264  1.2375  1.2730 -1.7166
 2766SOL    HW2 9198   5.028   1.877   1.336 -0.2659 -2.2733 -0.1926
 2767SOL     OW 9199   1.590   4.441   5.952 -0.2821  0.5723  0.1629
 2767SOL    HW1 9200   1.521   4.428   5.880 -0.7543 -1.4731  0.9264
 2767SOL    HW2 9201   1.670   4.485   5.912 -1.0167  0.6266 -1.3465
 2768SOL     OW 9202   4.155   0.805   1.284 -0.3024 -0.6780  0.2357
 2768SOL    HW1 9203   4.202   0.794   1.372 -0.7430 -0.8496  0.4564
 2768SOL    HW2 9204   4.061   0.770   1.293  0.3904 -3.0494 -1.0089
 2769SOL     OW 9205   0.468   6.090   3.016 -0.2830  0.1059  0.6885
 2769SOL    HW1 9206   0.451   6.096   2.918 -0.7869  0.8415  0.8179
 2769SOL    HW2 9207   0.477   5.993   3.042  0.2281 -0.0807 -0.1326
 2770SOL     OW 9208   2.588   6.191   0.264 -0.9197 -0.5346 -0.5826
 2770SOL    HW1 9209   2.584   6.150   0.173 -1.4595  1.2308 -1.3992
 2770SOL    HW2 9210   2.607   6.289   0.255 -1.1109 -0.3054  1.2150
 2771SOL     OW 9211   3.589   0.415   4.744 -0.1919  0.2213  0.1187
 2771SOL    HW1 9212   3.572   0.318   4.760 -0.1730  0.4512  1.6061
 2771SOL    HW2 9213   3.685   0.428   4.720 -0.6688 -0.3676 -2.4613
 2772SOL     OW 9214   4.319   6.438   4.731 -0.1681  0.7380  0.8983
 2772SOL    HW1 9215   4.373   6.356   4.747  0.2646  1.1485  1.5668
 2772SOL    HW2 9216   4.225   6.412   4.707  0.2741  0.0230 -0.1415
 2773SOL     OW 9217   6.373   3.123   4.422 -0.1507 -0.1089 -0.0162
 2773SOL    HW1 9218   6.360   3.049   4.356 -2.1307  0.5079 -0.3842
 2773SOL    HW2 9219   6.293   3.183   4.421  0.5098  0.8774  1.7548
 2774SOL     OW 9220   4.465   1.881   2.678 -0.0698  0.2353  0.5564
 2774SOL    HW1 9221   4.538   1.846   2.737 -0.6922  1.0625  1.8645
 2774SOL    HW2 9222   4.505   1.929   2.600  0.8159  1.0008  1.4529
 2775SOL     OW 9223   1.576   2.312   5.417 -0.1810  0.2630 -0.0281
 2775SOL    HW1 9224   1.584   2.216   5.442  2.0309  0.6668  1.0211
 2775SOL    HW2 9225   1.532   2.363   5.491 -0.9174  0.1651 -0.3855
 2776SOL     OW 9226   6.072   5.251   0.219  0.3599 -0.0611  0.4971
 2776SOL    HW1 9227   6.160   5.252   0.171  0.4654 -1.3605  0.6199
 2776SOL    HW2 9228   6.080   5.302   0.304  0.5848  1.0187 -0.1561
 2777SOL     OW 9229   1.523   4.041   6.655 -0.0198 -0.1511 -0.1535
 2777SOL    HW1 9230   1.426   4.020   6.656  0.2134 -1.3741 -0.6224
 2777SOL    HW2 9231   1.573   3.965   6.614  1.2948 -0.3408  1.6313
 2778SOL     OW 9232   5.817   0.088   6.974  0.1762  0.7288  0.4836
 2778SOL    HW1 9233   5.780   0.011   7.026  2.0420 -0.1979  0.5014
 2778SOL    HW2 9234   5.791   0.174   7.018  2.2647 -0.0140  3.4103
 2779SOL     OW 9235   3.709   0.571   1.020 -0.2418 -0.6779  0.4387
 2779SOL    HW1 9236   3.719   0.512   1.101 -0.7895 -0.4950  0.6447
 2779SOL    HW2 9237   3.739   0.663   1.043 -1.4840 -0.3465  0.7866
 2780SOL     OW 9238   2.183   0.496   4.100 -0.7647 -0.1758  0.0677
 2780SOL    HW1 9239   2.193   0.539   4.010  0.4311 -0.1384  0.2049
 2780SOL    HW2 9240   2.086   0.489   4.122 -1.0975 -0.3894 -1.3221
 2781SOL     OW 9241   5.427   0.535   3.369 -0.0825  0.1107  0.0820
 2781SOL    HW1 9242   5.457   0.631   3.370  0.4650 -0.0311 -0.9800
 2781SOL    HW2 9243   5.329   0.531   3.387 -0.2842  0.9544 -0.7236
 2782SOL     OW 9244   5.370   0.555   6.518  0.2379 -0.4829 -0.3151
 2782SOL    HW1 9245   5.379   0.486   6.446 -0.8855 -0.5884 -0.3852
 2782SOL    HW2 9246   5.455   0.606   6.527  0.6333 -0.9592 -1.2214
 2783SOL     OW 9247   5.248   4.518   1.480 -0.4141 -0.1905  0.3185
 2783SOL    HW1 9248   5.292   4.550   1.396  1.1722  1.5293  1.7323
 2783SOL    HW2 9249   5.226   4.596   1.538 -2.6888 -1.2496  0.9949
 2784SOL     OW 9250   0.437   2.486   6.863  0.4250 -0.0369 -0.0185
 2784SOL    HW1 9251   0.417   2.526   6.953  0.9225 -0.9787  0.5234
 2784SOL    HW2 9252   0.391   2.539   6.792  0.8783  1.3649  0.6980
 2785SOL     OW 9253   0.143   5.097   0.339  0.4513  0.7743 -0.0504
 2785SOL    HW1 9254   0.200   5.049   0.273 -0.0309 -0.2914  0.2897
 2785SOL    HW2 9255   0.077   5.155   0.291  0.1776  0.0940 -0.5086
 2786SOL     OW 9256   1.648   0.701   5.192  0.0712 -0.0892  0.0695
 2786SOL    HW1 9257   1.601   0.681   5.106 -3.0163 -0.0693  1.6337
 2786SOL    HW2 9258   1.663   0.800   5.199  0.0506 -0.0567 -0.3063
 2787SOL     OW 9259   1.336   5.501   5.852 -0.2943  0.0044  0.3112
 2787SOL    HW1 9260   1.381   5.470   5.768 -2.0747  1.4248 -1.2542
 2787SOL    HW2 9261   1.403   5.502   5.927  2.2030  1.6529 -1.7686
 2788SOL     OW 9262   1.818   1.226   5.110  0.3146  0.3993  0.0766
 2788SOL    HW1 9263   1.761   1.227   5.028  0.1840 -0.3632  0.1431
 2788SOL    HW2 9264   1.890   1.295   5.102  0.4976  0.1279 -0.8263
 2789SOL     OW 9265   0.652   3.764   4.065  0.2510  0.0285 -0.4502
 2789SOL    HW1 9266   0.672   3.857   4.035  0.7530  0.9510  2.3898
 2789SOL    HW2 9267   0.706   3.698   4.013  1.9595  1.5591 -0.6805
 2790SOL     OW 9268   0.384   3.972   1.672 -0.2619  0.2925 -0.0863
 2790SOL    HW1 9269   0.435   3.969   1.586  0.7306  0.5983  0.4700
 2790SOL    HW2 9270   0.387   3.883   1.716 -0.9127  0.0910 -0.4435
 2791SOL     OW 9271   0.017   4.270   2.788  0.3181  0.0242 -0.5888
 2791SOL    HW1 9272   0.114   4.262   2.811  0.1698 -0.4425 -0.0835
 2791SOL    HW2 9273   0.005   4.269   2.689  0.8703  0.6656 -0.6653
 2792SOL     OW 9274   4.020   1.608   6.368  0.4003  0.3197  0.0001
 2792SOL    HW1 9275   4.029   1.687   6.429 -1.1184  1.3510 -1.0527
 2792SOL    HW2 9276   3.933   1.563   6.384  1.1877 -1.1153  0.4851
 2793SOL     OW 9277   4.208   2.157   6.393 -0.6573 -1.1470 -0.2840
 2793SOL    HW1 9278   4.234   2.079   6.336 -1.4601 -1.6426  0.0103
 2793SOL    HW2 9279   4.288   2.215   6.409 -0.7747  0.1556 -3.6254
 2794SOL     OW 9280   2.303   1.133   1.858  0.0846  0.8065  0.0852
 2794SOL    HW1 9281   2.381   1.173   1.810  0.1848 -0.1313 -0.5439
 2794SOL    HW2 9282   2.293   1.178   1.947  2.3192 -0.1044  0.8751
 2795SOL     OW 9283   2.430   5.969   6.778 -0.3284  0.5710  0.0468
 2795SOL    HW1 9284   2.347   6.020   6.803 -0.2620  0.3279  0.7741
 2795SOL    HW2 9285   2.436   5.963   6.678 -0.7148  1.3638 -0.0339
 2796SOL     OW 9286   1.868   7.010   5.491 -0.1817  0.4396  0.5031
 2796SOL    HW1 9287   1.882   6.925   5.542 -0.9832 -0.4421 -0.7026
 2796SOL    HW2 9288   1.774   7.014   5.457  0.5715  0.4860 -1.7554
 2797SOL     OW 9289   4.580   3.587   1.063 -0.0548 -0.1570  0.7504
 2797SOL    HW1 9290   4.607   3.680   1.088 -0.9286  0.4012 -0.2701
 2797SOL    HW2 9291   4.661   3.530   1.055  0.5549  0.6915  0.7486
 2798SOL     OW 9292   4.482   0.893   2.255 -0.3891 -0.0691  0.0342
 2798SOL    HW1 9293   4.417   0.856   2.321  0.1161  2.6725  2.2435
 2798SOL    HW2 9294   4.572   0.852   2.271  0.0025  1.4177  1.9543
 2799SOL     OW 9295   4.263   5.161   5.291  0.5908  0.0106 -0.2881
 2799SOL    HW1 9296   4.270   5.178   5.389  0.6986 -1.7824  0.0489
 2799SOL    HW2 9297   4.221   5.240   5.246 -0.3782  0.4690  1.3411
 2800SOL     OW 9298   4.007   2.118   0.790  0.6649 -0.0498 -0.5309
 2800SOL    HW1 9299   3.990   2.083   0.882 -1.9096 -0.4781 -1.0847
 2800SOL    HW2 9300   4.000   2.218   0.790 -0.8809 -0.1209 -0.4610
 2801SOL     OW 9301   0.305   5.582   4.973 -0.1447 -0.2232  0.3582
 2801SOL    HW1 9302   0.226   5.613   4.920  0.4223  0.7817  0.0723
 2801SOL    HW2 9303   0.274   5.544   5.060 -0.9225  0.8169  0.5584
 2802SOL     OW 9304   1.635   3.799   6.527  0.2603 -0.3613 -0.4241
 2802SOL    HW1 9305   1.667   3.868   6.462  1.2845 -0.8095 -0.4231
 2802SOL    HW2 9306   1.679   3.711   6.506  1.6133 -0.2475  1.6347
 2803SOL     OW 9307   3.104   2.182   5.316 -0.5292 -0.1116 -0.1889
 2803SOL    HW1 9308   3.106   2.233   5.402 -0.2654  0.5748 -0.5957
 2803SOL    HW2 9309   3.161   2.227   5.248 -1.1656 -0.3364 -0.8976
 2804SOL     OW 9310   0.564   2.474   4.580 -0.2370 -0.2121  0.1059
 2804SOL    HW1 9311   0.635   2.487   4.511 -0.0233  0.4240  0.4388
 2804SOL    HW2 9312   0.551   2.376   4.597  1.3077 -0.3309  0.7971
 2805SOL     OW 9313   4.036   2.976   7.002 -0.2359 -0.4379  0.2282
 2805SOL    HW1 9314   4.088   2.919   6.938 -1.3569 -1.6424  0.3619
 2805SOL    HW2 9315   3.992   3.050   6.952  1.5905  0.6285  0.1143
 2806SOL     OW 9316   6.218   1.326   6.387  0.5523 -0.2786 -0.0125
 2806SOL    HW1 9317   6.166   1.356   6.467  2.3460  0.3454  0.9761
 2806SOL    HW2 9318   6.227   1.226   6.388 -2.9202 -0.7626 -1.7267
 2807SOL     OW 9319   5.995   1.211   4.740 -0.4299  0.0461 -0.3363
 2807SOL    HW1 9320   6.057   1.278   4.781 -2.2319  2.5114 -1.3867
 2807SOL    HW2 9321   5.946   1.162   4.812  0.2230  0.5453  0.4599
 2808SOL     OW 9322   1.647   5.697   5.575  0.2308  0.1343  0.1268
 2808SOL    HW1 9323   1.720   5.709   5.642 -0.2922  1.1726  0.5419
 2808SOL    HW2 9324   1.684   5.658   5.491  1.7057  2.5626 -0.4346
 2809SOL     OW 9325   1.166   5.259   2.428  0.4764 -0.8194  0.0764
 2809SOL    HW1 9326   1.260   5.255   2.464  1.4208  0.4395 -2.0948
 2809SOL    HW2 9327   1.114   5.326   2.481  1.8466  1.0379 -0.8134
 2810SOL     OW 9328   3.259   0.088   4.368  0.1748 -0.0929  0.0389
 2810SOL    HW1 9329   3.185   0.029   4.402 -2.3580  0.3466 -4.0126
 2810SOL    HW2 9330   3.246   0.181   4.402  0.6407 -0.5736  1.6289
 2811SOL     OW 9331   0.221   1.325   0.593  0.2589 -0.2487  0.6967
 2811SOL    HW1 9332   0.231   1.374   0.680  0.8495 -1.0851  1.1133
 2811SOL    HW2 9333   0.187   1.233   0.611 -0.5915 -0.0948 -0.0593
 2812SOL     OW 9334   0.604   2.131   6.459 -0.2842  0.2307 -0.3531
 2812SOL    HW1 9335   0.600   2.230   6.445 -1.6832  0.3135  0.3857
 2812SOL    HW2 9336   0.642   2.087   6.378 -3.1123  1.0819 -2.3194
 2813SOL     OW 9337   0.959   2.644   2.025  0.1075 -0.3407 -0.4027
 2813SOL    HW1 9338   0.930   2.724   2.078  0.7866 -0.2153 -0.2185
 2813SOL    HW2 9339   0.937   2.561   2.077  1.3179 -0.1992  0.3729
 2814SOL     OW 9340   1.045   4.302   0.229 -0.1033  0.1171 -0.2159
 2814SOL    HW1 9341   0.961   4.257   0.200  0.3342 -0.5635 -0.4425
 2814SOL    HW2 9342   1.031   4.341   0.320 -0.6458 -0.0366 -0.2269
 2815SOL     OW 9343   6.261   5.547   3.109  0.0095  0.4351  0.2372
 2815SOL    HW1 9344   6.171   5.532   3.069 -0.2496  0.4476  0.8180
 2815SOL    HW2 9345   6.284   5.645   3.104  0.0011  0.4301  0.0816
 2816SOL     OW 9346   0.677   5.361   6.525  0.8148 -0.0062 -0.5636
 2816SOL    HW1 9347   0.733   5.441   6.543 -0.1973  0.3921  1.0748
 2816SOL    HW2 9348   0.691   5.293   6.597 -1.3710  0.4721  0.4066
 2817SOL     OW 9349   2.834   1.882   2.433 -0.1523 -0.5279  0.3846
 2817SOL    HW1 9350   2.894   1.802   2.441 -0.4475 -0.8873 -0.7452
 2817SOL    HW2 9351   2.805   1.892   2.337 -0.8937  0.3670  0.6897
 2818SOL     OW 9352   2.213   0.612   2.389 -0.4726  0.1544 -0.1242
 2818SOL    HW1 9353   2.256   0.522   2.398 -1.5755 -0.4364 -0.5721
 2818SOL    HW2 9354   2.202   0.635   2.292  1.8516  1.8140 -0.0741
 2819SOL     OW 9355   0.968   0.927   6.746 -0.7697 -0.2982 -0.3252
 2819SOL    HW1 9356   1.037   0.956   6.811 -1.2213  2.1965 -0.8638
 2819SOL    HW2 9357   1.006   0.857   6.685  0.5630 -0.5300  0.7386
 2820SOL     OW 9358   1.145   1.074   0.915  0.5395 -0.0744  0.0208
 2820SOL    HW1 9359   1.218   1.114   0.971  0.5351  1.5485 -1.0806
 2820SOL    HW2 9360   1.069   1.049   0.975  0.9165  0.7184  0.8670
 2821SOL     OW 9361   5.203   4.122   6.563 -0.0906  0.1641  0.4834
 2821SOL    HW1 9362   5.142   4.103   6.640  0.3966  2.0897  1.3981
 2821SOL    HW2 9363   5.151   4.165   6.490 -0.3573 -0.7998  0.0806
 2822SOL     OW 9364   4.852   1.053   0.491  0.1012  0.5837  0.2742
 2822SOL    HW1 9365   4.920   1.058   0.419 -1.7310 -0.4793 -1.6528
 2822SOL    HW2 9366   4.829   1.145   0.523  1.0041  1.0624 -0.4356
 2823SOL     OW 9367   5.380   2.020   0.460 -0.4433  0.0772 -0.5728
 2823SOL    HW1 9368   5.442   2.097   0.446 -0.5470  0.6109  1.6262
 2823SOL    HW2 9369   5.286   2.053   0.461 -0.6239 -0.3726 -1.4249
 2824SOL     OW 9370   0.159   3.683   0.387 -0.5990 -0.2028 -0.1097
 2824SOL    HW1 9371   0.163   3.603   0.447 -1.6287  0.1167  0.4012
 2824SOL    HW2 9372   0.245   3.690   0.336  1.3560  0.8864  3.0588
 2825SOL     OW 9373   5.142   2.335   3.227 -0.1476 -0.7051  0.0881
 2825SOL    HW1 9374   5.093   2.248   3.241  0.3181 -0.9829  0.0242
 2825SOL    HW2 9375   5.240   2.316   3.216  0.1199 -0.0652  1.2136
 2826SOL     OW 9376   0.942   2.701   6.010  0.1594 -0.0973 -0.0730
 2826SOL    HW1 9377   0.985   2.612   5.996 -0.1839 -0.2456 -0.1938
 2826SOL    HW2 9378   0.992   2.771   5.958 -0.8686 -0.5786 -1.8019
 2827SOL     OW 9379   0.279   2.654   0.420  0.7375  0.6302 -0.0093
 2827SOL    HW1 9380   0.198   2.615   0.375 -1.8429 -0.0356  4.5268
 2827SOL    HW2 9381   0.348   2.583   0.432 -0.3950 -0.3539  0.8848
 2828SOL     OW 9382   6.330   3.562   1.359  0.4933  0.1700 -0.3751
 2828SOL    HW1 9383   6.377   3.509   1.289  1.1382 -0.2950  0.3877
 2828SOL    HW2 9384   6.289   3.500   1.426  0.2968  0.6094 -0.0833
 2829SOL     OW 9385   3.199   3.625   2.453 -0.0211 -0.0150  0.2058
 2829SOL    HW1 9386   3.277   3.651   2.396 -0.2134  1.0575  0.4130
 2829SOL    HW2 9387   3.117   3.673   2.422 -0.1104  0.6624  1.4406
 2830SOL     OW 9388   3.315   6.561   3.018  0.9298  0.5376  0.1443
 2830SOL    HW1 9389   3.252   6.489   2.988 -1.1481  1.5734  1.7844
 2830SOL    HW2 9390   3.331   6.625   2.942 -0.6281  0.6681 -0.0988
 2831SOL     OW 9391   6.552   1.509   3.582 -0.0481 -0.0175 -0.2783
 2831SOL    HW1 9392   6.541   1.598   3.627 -0.1874  1.0276 -2.2361
 2831SOL    HW2 9393   6.647   1.481   3.586  0.2486  0.8696 -0.7259
 2832SOL     OW 9394   0.672   3.269   4.402 -0.0319 -0.6914  0.4032
 2832SOL    HW1 9395   0.707   3.297   4.313 -1.0302  0.5935  0.3949
 2832SOL    HW2 9396   0.742   3.214   4.449  0.7327 -0.8841 -0.9019
 2833SOL     OW 9397   0.538   1.943   1.987  0.4027  0.3993  0.4955
 2833SOL    HW1 9398   0.446   1.953   1.951  0.8573  1.1169 -0.4981
 2833SOL    HW2 9399   0.603   1.989   1.927  1.3658  0.2671  1.4052
 2834SOL     OW 9400   5.441   0.130   3.958  0.1763  0.3666 -0.3350
 2834SOL    HW1 9401   5.503   0.184   3.900  2.1629 -1.4109  0.0008
 2834SOL    HW2 9402   5.443   0.164   4.051  1.0186  0.0517 -0.2340
 2835SOL     OW 9403   6.870   0.576   5.657  0.0704 -0.0505  0.2552
 2835SOL    HW1 9404   6.900   0.483   5.675  0.6554  0.1244  0.1922
 2835SOL    HW2 9405   6.835   0.582   5.563  1.3307  0.1058 -0.2269
 2836SOL     OW 9406   0.582   5.609   1.762 -0.1360  0.2507 -0.3322
 2836SOL    HW1 9407   0.644   5.684   1.741 -1.1748  0.8726 -1.3223
 2836SOL    HW2 9408   0.618   5.555   1.838  0.4025  2.0326  0.7318
 2837SOL     OW 9409   3.885   4.334   1.525  0.4570  0.2705 -0.2625
 2837SOL    HW1 9410   3.832   4.303   1.604 -1.0103  1.2756 -0.8044
 2837SOL    HW2 9411   3.960   4.393   1.555 -1.2576  2.2814  0.3213
 2838SOL     OW 9412   0.048   3.337   0.272 -0.1046  0.2411  0.2397
 2838SOL    HW1 9413  -0.021   3.409   0.285  0.1586  0.6633 -0.6102
 2838SOL    HW2 9414   0.022   3.257   0.325 -1.1690  0.4550  0.0723
 2839SOL     OW 9415   4.965   3.930   4.447  0.3080  0.2146  0.3246
 2839SOL    HW1 9416   4.995   4.006   4.505  0.0066  0.3580  0.2957
 2839SOL    HW2 9417   4.996   3.946   4.353 -2.4076  1.9382 -0.4081
 2840SOL     OW 9418   5.308   5.661   4.311  0.2030 -0.3378 -0.4880
 2840SOL    HW1 9419   5.346   5.719   4.239  0.5338 -1.1424 -0.9801
 2840SOL    HW2 9420   5.209   5.669   4.313  0.1547 -0.6538 -1.3495
 2841SOL     OW 9421   5.365   4.272   1.391  0.1214  0.8371 -0.4832
 2841SOL    HW1 9422   5.356   4.365   1.425  1.9345  1.1734 -0.7976
 2841SOL    HW2 9423   5.346   4.269   1.293  1.0987  1.1167 -0.6976
 2842SOL     OW 9424   1.647   6.357   3.681  0.7597 -0.4886 -0.0860
 2842SOL    HW1 9425   1.703   6.275   3.669  0.5633 -0.3030 -3.1885
 2842SOL    HW2 9426   1.703   6.438   3.667  0.3956 -0.1987  0.1214
 2843SOL     OW 9427   1.754   2.531   3.320  0.0333  0.0298  0.2273
 2843SOL    HW1 9428   1.767   2.567   3.227 -0.9718  0.2239  0.1474
 2843SOL    HW2 9429   1.663   2.490   3.327  0.0938  0.0315  1.1319
 2844SOL     OW 9430   5.537   3.681   6.473 -0.4418 -0.1194 -0.1198
 2844SOL    HW1 9431   5.628   3.720   6.482 -0.3362 -0.4184  0.1269
 2844SOL    HW2 9432   5.533   3.594   6.521 -0.1099 -1.3708 -2.2632
 2845SOL     OW 9433   2.641   2.514   0.093  0.0917 -0.0156 -0.3356
 2845SOL    HW1 9434   2.738   2.491   0.088 -0.1301 -0.6937 -2.9541
 2845SOL    HW2 9435   2.587   2.439   0.055 -1.3903  0.8458 -0.0154
 2846SOL     OW 9436   5.649   6.776   5.281  0.3567 -0.1115  0.4707
 2846SOL    HW1 9437   5.665   6.789   5.183 -1.0625  2.5321  0.4809
 2846SOL    HW2 9438   5.696   6.849   5.332 -0.2262 -0.5064  1.6021
 2847SOL     OW 9439   4.461   4.775   0.949  0.1171  0.0016 -0.1302
 2847SOL    HW1 9440   4.457   4.825   1.035 -0.7642 -1.0427  0.4592
 2847SOL    HW2 9441   4.412   4.827   0.878  2.3682  1.7579 -0.5391
 2848SOL     OW 9442   2.048   3.657   5.914  0.2150  0.9478  0.4023
 2848SOL    HW1 9443   1.990   3.738   5.917 -0.6051  0.5325 -2.0580
 2848SOL    HW2 9444   2.063   3.630   5.819  1.1534 -1.3190  1.1220
 2849SOL     OW 9445   4.918   1.724   2.279 -0.1548 -0.1773  0.4657
 2849SOL    HW1 9446   4.972   1.647   2.245  1.5830 -0.1171  2.8168
 2849SOL    HW2 9447   4.844   1.689   2.336  0.2695 -0.1456  1.0441
 2850SOL     OW 9448   0.092   0.249   1.583  0.0068  0.0489  0.3325
 2850SOL    HW1 9449   0.187   0.219   1.582 -0.2493 -0.8763  1.2920
 2850SOL    HW2 9450   0.084   0.335   1.634  0.0932 -0.8816  1.9896
 2851SOL     OW 9451   2.218   2.939   0.640 -0.4344  0.5067 -0.3423
 2851SOL    HW1 9452   2.128   2.954   0.681 -0.2554 -1.1441  0.7196
 2851SOL    HW2 9453   2.284   3.002   0.681 -0.5329 -0.2300  0.9769
 2852SOL     OW 9454   0.585   4.610   4.804 -0.2834 -0.4041 -0.7445
 2852SOL    HW1 9455   0.639   4.693   4.817 -1.2012  0.3122 -1.3970
 2852SOL    HW2 9456   0.646   4.536   4.775  0.6375 -0.1467  0.4541
 2853SOL     OW 9457   0.343   4.545   4.699 -0.7687 -0.2095  0.3900
 2853SOL    HW1 9458   0.431   4.555   4.744  0.1617 -0.6132 -1.2547
 2853SOL    HW2 9459   0.314   4.450   4.704 -1.2116 -0.0409  1.0944
 2854SOL     OW 9460   3.811   0.138   6.515 -0.2141 -0.5316  0.3503
 2854SOL    HW1 9461   3.714   0.118   6.503 -0.6729  0.3075  2.2598
 2854SOL    HW2 9462   3.840   0.204   6.445 -1.1379 -0.4075  0.0697
 2855SOL     OW 9463   3.726   1.057   3.682  0.6159  0.2477  0.2094
 2855SOL    HW1 9464   3.717   1.145   3.729 -0.8380  0.8413 -1.0802
 2855SOL    HW2 9465   3.636   1.027   3.650  1.2819 -1.0607 -0.5043
 2856SOL     OW 9466   1.190   5.751   3.667 -0.5107 -0.1058  0.4423
 2856SOL    HW1 9467   1.146   5.663   3.652 -0.5008 -0.1167  0.4753
 2856SOL    HW2 9468   1.274   5.737   3.721 -0.9012  0.0118  1.0865
 2857SOL     OW 9469   6.837   4.526   0.305  0.0020  0.5473 -0.0623
 2857SOL    HW1 9470   6.878   4.587   0.238  2.7238 -2.5587 -1.4863
 2857SOL    HW2 9471   6.908   4.487   0.363 -1.5855 -1.3147  0.7411
 2858SOL     OW 9472   3.629   4.672   1.015  0.2488 -0.4448  0.0561
 2858SOL    HW1 9473   3.589   4.753   1.058 -0.6257 -0.4267 -0.7669
 2858SOL    HW2 9474   3.633   4.598   1.083 -1.2428 -0.4596  0.1596
 2859SOL     OW 9475   4.730   3.146   0.669 -0.0051 -0.1408  0.0141
 2859SOL    HW1 9476   4.739   3.215   0.741 -1.3922  0.2679 -0.1792
 2859SOL    HW2 9477   4.637   3.147   0.633  0.3152 -1.2262 -0.9062
 2860SOL     OW 9478   1.749   0.680   4.174  0.8012  0.4636 -0.1900
 2860SOL    HW1 9479   1.775   0.766   4.219  1.7522 -1.8109  4.2254
 2860SOL    HW2 9480   1.650   0.670   4.176  0.6771  1.4736 -0.8400
 2861SOL     OW 9481   5.396   3.289   5.333  0.0553  0.2048 -0.2556
 2861SOL    HW1 9482   5.381   3.337   5.246  0.9625  1.3745  0.2136
 2861SOL    HW2 9483   5.435   3.352   5.400 -0.8262 -0.6310  1.0815
 2862SOL     OW 9484   4.127   0.889   6.295  0.1999  0.0001 -0.4097
 2862SOL    HW1 9485   4.194   0.903   6.223  0.1874 -2.0932 -0.9124
 2862SOL    HW2 9486   4.169   0.838   6.370  0.0614  1.6586  0.8523
 2863SOL     OW 9487   5.764   2.356   0.529  0.3230  0.0456 -0.9329
 2863SOL    HW1 9488   5.762   2.301   0.612  1.5176  0.6957 -0.4413
 2863SOL    HW2 9489   5.677   2.348   0.481 -0.6921  0.2910  0.7882
 2864SOL     OW 9490   3.348   3.587   6.861 -0.2770  0.2686  0.2519
 2864SOL    HW1 9491   3.443   3.615   6.849 -0.2313 -0.4404 -1.2279
 2864SOL    HW2 9492   3.345   3.497   6.904 -0.0578 -1.4724 -3.0333
 2865SOL     OW 9493   6.529   5.796   4.596  0.3628 -0.2225 -0.4480
 2865SOL    HW1 9494   6.614   5.766   4.639 -0.0555  0.4329  0.8957
 2865SOL    HW2 9495   6.470   5.717   4.579 -0.2087 -0.3729  1.8828
 2866SOL     OW 9496   2.302   3.488   1.349  0.2534  0.6214  0.1355
 2866SOL    HW1 9497   2.274   3.515   1.441 -0.5416 -0.0559  0.1001
 2866SOL    HW2 9498   2.360   3.407   1.354 -0.2590  0.2442  0.0060
 2867SOL     OW 9499   6.013   0.526   3.754  0.2282  0.3366 -0.0275
 2867SOL    HW1 9500   5.961   0.484   3.828  0.4433 -0.3691 -0.2760
 2867SOL    HW2 9501   6.074   0.596   3.792  1.6838 -1.2696  0.7212
 2868SOL     OW 9502   0.335   0.580   5.941 -0.2097 -0.3544 -0.4129
 2868SOL    HW1 9503   0.311   0.653   5.878  0.1123 -0.6107 -0.8358
 2868SOL    HW2 9504   0.347   0.618   6.033 -1.5792 -0.1215 -0.3063
 2869SOL     OW 9505   2.246   6.204   4.266  0.4028 -0.2804  0.0891
 2869SOL    HW1 9506   2.153   6.169   4.257  1.4653 -3.3891 -0.1357
 2869SOL    HW2 9507   2.293   6.155   4.339  2.4775 -0.3806 -1.2261
 2870SOL     OW 9508   5.702   1.718   0.602  0.4247 -0.1643  0.2758
 2870SOL    HW1 9509   5.636   1.700   0.675  0.7308  0.4197  0.7043
 2870SOL    HW2 9510   5.786   1.667   0.620 -0.1161 -1.4107 -0.6014
 2871SOL     OW 9511   5.818   2.611   2.194  0.2115 -0.4514 -0.3354
 2871SOL    HW1 9512   5.764   2.531   2.167 -0.2600  0.1163 -1.1191
 2871SOL    HW2 9513   5.769   2.694   2.168  0.3123  0.1243  1.2038
 2872SOL     OW 9514   1.783   1.483   2.515  0.5984  0.1801  0.2726
 2872SOL    HW1 9515   1.761   1.580   2.502 -1.1698 -0.4438 -1.9706
 2872SOL    HW2 9516   1.712   1.440   2.571 -0.1030 -0.3480 -0.9866
 2873SOL     OW 9517   2.583   0.913   0.577 -0.3261  0.3707 -0.5660
 2873SOL    HW1 9518   2.637   0.912   0.661  0.6977  0.8175 -1.2078
 2873SOL    HW2 9519   2.582   1.006   0.539 -1.1400  0.2634 -0.8319
 2874SOL     OW 9520   3.323   1.523   3.979  0.3222 -0.0028  0.0716
 2874SOL    HW1 9521   3.260   1.572   3.919  0.7466  0.1306 -0.2661
 2874SOL    HW2 9522   3.319   1.563   4.071  2.2971  2.2166 -0.6837
 2875SOL     OW 9523   2.637   0.178   2.869  0.1229  0.0728 -0.1989
 2875SOL    HW1 9524   2.704   0.253   2.872  1.6868 -1.2966  0.4623
 2875SOL    HW2 9525   2.684   0.091   2.859 -1.6348 -0.9008 -0.4549
 2876SOL     OW 9526   1.972   5.617   1.810 -0.3805 -0.3627  0.2056
 2876SOL    HW1 9527   1.909   5.573   1.874  0.3670  1.0135  1.9903
 2876SOL    HW2 9528   1.933   5.705   1.782 -0.5470 -0.8074 -1.0360
 2877SOL     OW 9529   2.464   2.246   0.237 -0.3523  0.4903 -0.2735
 2877SOL    HW1 9530   2.553   2.290   0.252  0.6088 -0.8898 -1.5659
 2877SOL    HW2 9531   2.467   2.152   0.274 -1.2195  0.3809 -0.4718
 2878SOL     OW 9532   4.124   4.164   5.921 -0.2091 -0.0663  0.2742
 2878SOL    HW1 9533   4.217   4.193   5.943 -0.3858  0.4348  0.3674
 2878SOL    HW2 9534   4.112   4.068   5.948  0.9333 -0.8133 -1.6447
 2879SOL     OW 9535   6.054   3.619   0.552  0.0948 -0.3875 -0.3529
 2879SOL    HW1 9536   6.044   3.522   0.575  3.5649 -0.5254  1.2525
 2879SOL    HW2 9537   5.984   3.672   0.600  0.7967 -1.7334  2.3766
 2880SOL     OW 9538   0.445   0.454   3.344 -0.4642 -0.6022  0.1164
 2880SOL    HW1 9539   0.445   0.380   3.411  2.2239 -0.5056  0.3352
 2880SOL    HW2 9540   0.533   0.455   3.296 -0.8635  1.7497 -0.6848
 2881SOL     OW 9541   0.427   6.659   0.336 -0.6479 -0.3164  0.5185
 2881SOL    HW1 9542   0.475   6.594   0.395 -0.6294 -0.8823 -0.1037
 2881SOL    HW2 9543   0.479   6.671   0.251 -0.4806  0.7764  0.7639
 2882SOL     OW 9544   5.172   4.736   0.548 -0.4193  0.0050  1.0231
 2882SOL    HW1 9545   5.098   4.710   0.486  0.1549  0.6283  0.0548
 2882SOL    HW2 9546   5.165   4.834   0.569  0.4699  0.2061  0.4374
 2883SOL     OW 9547   4.677   6.029   3.880 -0.3675  0.3446 -0.4456
 2883SOL    HW1 9548   4.626   6.091   3.821 -2.4143 -0.0506  0.8012
 2883SOL    HW2 9549   4.640   5.936   3.871  0.6800 -0.1172 -0.1053
 2884SOL     OW 9550   5.476   5.705   3.567  0.7061  0.0331 -0.4912
 2884SOL    HW1 9551   5.542   5.773   3.536  0.7234  0.4091  0.3471
 2884SOL    HW2 9552   5.440   5.731   3.657  0.5586 -0.9591 -0.2496
 2885SOL     OW 9553   1.681   2.302   4.368  0.6693  0.6192  0.4030
 2885SOL    HW1 9554   1.604   2.267   4.316  0.3845  0.4737  0.9124
 2885SOL    HW2 9555   1.760   2.315   4.308  0.4240  0.2066 -0.0064
 2886SOL     OW 9556   2.350   4.392   6.482 -0.1504  0.0913 -0.0232
 2886SOL    HW1 9557   2.422   4.323   6.487 -1.1768 -1.0174  0.0118
 2886SOL    HW2 9558   2.369   4.456   6.408  0.4447 -0.6838 -0.5517
 2887SOL     OW 9559   1.555   6.693   1.440 -0.5083  0.5837 -0.2220
 2887SOL    HW1 9560   1.455   6.703   1.436 -0.5045  1.8913  1.6591
 2887SOL    HW2 9561   1.596   6.778   1.473  1.3480  0.3889 -1.8545
 2888SOL     OW 9562   4.304   1.623   0.714  0.2030 -0.0839 -0.1733
 2888SOL    HW1 9563   4.313   1.650   0.810  0.7477  1.2509 -0.5641
 2888SOL    HW2 9564   4.256   1.696   0.664  0.8705 -0.2745 -1.1103
 2889SOL     OW 9565   3.415   6.418   4.131 -0.0023 -0.3065 -0.5326
 2889SOL    HW1 9566   3.395   6.474   4.051 -0.7412  0.2541  0.0274
 2889SOL    HW2 9567   3.454   6.475   4.203  1.0957 -0.8917 -0.6389
 2890SOL     OW 9568   6.029   2.912   6.807 -0.3586 -0.0549  0.7804
 2890SOL    HW1 9569   5.978   2.829   6.831  0.1135 -1.0151 -1.3558
 2890SOL    HW2 9570   6.063   2.905   6.713  1.1412  1.8533  1.1155
 2891SOL     OW 9571   6.759   2.305   4.182  0.0371  0.2783  0.0248
 2891SOL    HW1 9572   6.815   2.226   4.207 -1.5613 -1.2733 -1.0427
 2891SOL    HW2 9573   6.689   2.319   4.253  0.1343  0.5490  0.0668
 2892SOL     OW 9574   4.725   3.729   0.410 -0.4229 -0.1697  0.0386
 2892SOL    HW1 9575   4.658   3.727   0.484 -0.0819 -0.2244  0.3465
 2892SOL    HW2 9576   4.683   3.692   0.327 -1.0468  0.6110 -0.0014
 2893SOL     OW 9577   5.620   6.568   4.955  0.3463  0.1269  0.2963
 2893SOL    HW1 9578   5.579   6.657   4.937  1.9279  0.5231 -1.7994
 2893SOL    HW2 9579   5.693   6.578   5.022 -0.0958  0.2236  0.7676
 2894SOL     OW 9580   1.674   4.730   1.882  0.2714 -0.1901  0.2147
 2894SOL    HW1 9581   1.748   4.715   1.817 -0.3553 -1.3333 -0.2538
 2894SOL    HW2 9582   1.617   4.806   1.851  0.5485 -0.0849 -0.0390
 2895SOL     OW 9583   4.502   5.891   6.565 -0.6502  0.4555  0.1219
 2895SOL    HW1 9584   4.474   5.798   6.540 -1.7425  0.5003  1.0993
 2895SOL    HW2 9585   4.423   5.952   6.563  0.3632  1.8024 -2.2597
 2896SOL     OW 9586   0.063   5.413   6.389  0.3372 -0.4819  0.0381
 2896SOL    HW1 9587   0.079   5.436   6.485  1.2303 -2.0077  0.2872
 2896SOL    HW2 9588   0.137   5.451   6.333  0.3760 -0.4754  0.0929
 2897SOL     OW 9589   3.786   6.425   3.686  0.3578  0.2726  0.6789
 2897SOL    HW1 9590   3.851   6.402   3.613 -1.5904  0.4184 -1.2311
 2897SOL    HW2 9591   3.765   6.343   3.739 -0.5215 -0.6251 -0.9638
 2898SOL     OW 9592   5.018   2.728   2.209 -0.2729  0.0323  0.1903
 2898SOL    HW1 9593   4.989   2.714   2.303  1.1392 -1.3672  0.4664
 2898SOL    HW2 9594   4.971   2.807   2.170 -0.1064  1.2894  2.4097
 2899SOL     OW 9595   1.154   3.053   0.674 -0.4380  0.4974  0.0798
 2899SOL    HW1 9596   1.250   3.072   0.696 -0.3688 -0.6059  0.7634
 2899SOL    HW2 9597   1.135   2.956   0.688 -1.6813  0.7240  0.0196
 2900SOL     OW 9598   1.984   1.782   6.994  0.2998  0.0242 -0.2492
 2900SOL    HW1 9599   1.931   1.699   7.012 -0.3780  0.5874  0.4631
 2900SOL    HW2 9600   2.078   1.768   7.024  0.1852 -0.4754 -0.1044
 2901SOL     OW 9601   1.039   4.319   2.266  0.0992  0.2027  0.3905
 2901SOL    HW1 9602   1.008   4.224   2.274 -1.3729  0.6128 -0.0514
 2901SOL    HW2 9603   1.034   4.347   2.170 -0.8601  1.1555  0.7043
 2902SOL     OW 9604   6.625   5.309   2.301 -0.1716  0.7055 -0.5899
 2902SOL    HW1 9605   6.625   5.337   2.397  0.0351 -0.8549 -0.1063
 2902SOL    HW2 9606   6.699   5.244   2.285 -1.3327 -0.4767 -1.3512
 2903SOL     OW 9607   5.870   5.087   0.163 -0.3778 -0.2045 -0.3514
 2903SOL    HW1 9608   5.944   5.143   0.197  0.2127 -0.9481 -0.3838
 2903SOL    HW2 9609   5.865   5.094   0.063 -2.2515  2.1514 -0.1880
 2904SOL     OW 9610   2.087   4.046   5.542  0.2561 -0.1507 -0.4170
 2904SOL    HW1 9611   2.002   4.067   5.495  0.1375  2.6398  0.8381
 2904SOL    HW2 9612   2.150   4.001   5.479 -1.5334 -0.8010 -1.8225
 2905SOL     OW 9613   3.522   5.903   0.279  0.4636 -0.7892  0.3326
 2905SOL    HW1 9614   3.573   5.968   0.222  0.7720  0.8772  2.3741
 2905SOL    HW2 9615   3.531   5.811   0.241  1.7970  0.0279 -1.4861
 2906SOL     OW 9616   6.859   5.330   4.478  0.1358  0.7534 -0.1688
 2906SOL    HW1 9617   6.774   5.337   4.426  0.0758  0.7710 -0.0672
 2906SOL    HW2 9618   6.936   5.350   4.417 -0.0140  2.1834  0.0861
 2907SOL     OW 9619   0.695   5.961   4.230 -0.4842 -0.3617  0.2567
 2907SOL    HW1 9620   0.757   5.963   4.308  0.2336 -0.0826 -0.3001
 2907SOL    HW2 9621   0.601   5.970   4.261 -0.2752 -1.0679  1.1519
 2908SOL     OW 9622   2.726   6.766   1.495  0.8452  0.3759 -0.1147
 2908SOL    HW1 9623   2.795   6.819   1.446 -0.1108  1.8806  0.0980
 2908SOL    HW2 9624   2.684   6.823   1.566  0.3671 -0.9498  0.7208
 2909SOL     OW 9625   6.995   5.869   0.672 -0.3179  0.5133 -0.7419
 2909SOL    HW1 9626   7.020   5.922   0.591  0.4441 -0.5067 -1.2056
 2909SOL    HW2 9627   7.067   5.802   0.691 -1.5348 -0.8223 -0.6137
 2910SOL     OW 9628   6.758   0.871   5.191  0.4093  0.0208  0.0153
 2910SOL    HW1 9629   6.813   0.855   5.273  0.3706 -2.9271 -0.4263
 2910SOL    HW2 9630   6.820   0.893   5.115  0.8103 -0.8489  0.0683
 2911SOL     OW 9631   6.632   5.398   5.687 -0.2286  0.5997 -0.0667
 2911SOL    HW1 9632   6.547   5.411   5.738  0.1865 -2.1329  1.5508
 2911SOL    HW2 9633   6.709   5.432   5.742 -0.0042 -0.0853  0.0584
 2912SOL     OW 9634   7.017   0.837   2.151 -0.4390  0.2706  0.3751
 2912SOL    HW1 9635   7.094   0.776   2.169 -0.2505  0.5281  0.4471
 2912SOL    HW2 9636   6.963   0.848   2.235  0.1287  1.0373  0.6477
 2913SOL     OW 9637   3.435   6.654   1.882 -0.0903  0.0996  0.1675
 2913SOL    HW1 9638   3.355   6.713   1.890 -0.9438 -1.2087  2.1526
 2913SOL    HW2 9639   3.445   6.624   1.787 -2.2180  0.0068 -0.0895
 2914SOL     OW 9640   3.657   6.278   0.310 -0.2983 -0.6515  0.4467
 2914SOL    HW1 9641   3.684   6.372   0.290  1.5831 -1.0374  0.9593
 2914SOL    HW2 9642   3.605   6.275   0.395  0.0209 -0.1181  0.6660
 2915SOL     OW 9643   3.389   6.998   2.832  0.3762 -0.1754 -0.1080
 2915SOL    HW1 9644   3.342   6.985   2.745  0.3976 -0.2996 -0.1007
 2915SOL    HW2 9645   3.484   7.026   2.816  0.8506 -1.7381 -0.1425
 2916SOL     OW 9646   2.122   5.635   1.024 -0.3524  0.2225 -0.1560
 2916SOL    HW1 9647   2.205   5.680   1.056  0.4735 -0.6368 -0.9998
 2916SOL    HW2 9648   2.068   5.699   0.969 -0.3019  0.8063  0.4592
 2917SOL     OW 9649   2.878   4.911   2.575  0.1736  0.3818 -0.3653
 2917SOL    HW1 9650   2.971   4.898   2.542 -0.5152 -0.1670 -2.2146
 2917SOL    HW2 9651   2.870   5.001   2.618  1.6474  0.2594  0.2291
 2918SOL     OW 9652   4.268   4.458   0.318  0.0943  0.0312  0.2644
 2918SOL    HW1 9653   4.296   4.460   0.414 -1.4110 -0.9826  0.7577
 2918SOL    HW2 9654   4.235   4.367   0.295 -1.6699  0.8393 -0.5777
 2919SOL     OW 9655   1.787   0.715   4.905 -0.0448 -0.1299 -0.3525
 2919SOL    HW1 9656   1.811   0.811   4.923  2.1359 -0.2210 -2.3023
 2919SOL    HW2 9657   1.705   0.712   4.848 -0.9232  0.4965  0.8443
 2920SOL     OW 9658   1.831   1.527   2.827 -0.1624  0.6102 -0.1389
 2920SOL    HW1 9659   1.731   1.517   2.829 -0.2415  1.3246  2.0486
 2920SOL    HW2 9660   1.855   1.602   2.766 -1.0306  0.9660 -0.0656
 2921SOL     OW 9661   2.201   6.515   5.196 -0.1280  0.3186 -0.1683
 2921SOL    HW1 9662   2.107   6.540   5.216 -0.3524  0.3646 -1.2013
 2921SOL    HW2 9663   2.244   6.589   5.144 -0.3310 -0.7565 -1.9473
 2922SOL     OW 9664   3.867   5.275   3.477 -0.0432 -0.4302  0.2687
 2922SOL    HW1 9665   3.877   5.266   3.378  0.9135 -2.2229  0.4745
 2922SOL    HW2 9666   3.776   5.246   3.505  0.1882 -1.4175  0.0379
 2923SOL     OW 9667   0.408   4.751   6.577  0.1207  0.4346  0.2418
 2923SOL    HW1 9668   0.387   4.819   6.647  1.2587  0.2292  0.8083
 2923SOL    HW2 9669   0.455   4.795   6.501 -0.9096  0.6168 -0.2992
 2924SOL     OW 9670   5.494   2.575   5.671  0.2721 -0.4643  0.3648
 2924SOL    HW1 9671   5.580   2.527   5.655 -0.6614 -1.7566 -1.1942
 2924SOL    HW2 9672   5.455   2.602   5.583 -1.0409 -0.1466  1.0204
 2925SOL     OW 9673   4.771   6.612   4.971  0.7201  0.4936  0.2367
 2925SOL    HW1 9674   4.864   6.648   4.981  1.3290 -0.1476 -2.3049
 2925SOL    HW2 9675   4.762   6.567   4.882 -2.0346  0.4879  0.4258
 2926SOL     OW 9676   4.766   2.108   4.846 -0.0356 -0.6867  0.4339
 2926SOL    HW1 9677   4.781   2.203   4.819 -2.3881 -0.4022 -0.0406
 2926SOL    HW2 9678   4.701   2.104   4.922 -1.2228 -1.9550 -0.5946
 2927SOL     OW 9679   1.503   1.885   1.851  0.3122  0.3416 -0.0210
 2927SOL    HW1 9680   1.534   1.949   1.921 -2.1560 -0.3492  1.8131
 2927SOL    HW2 9681   1.451   1.811   1.893  0.1900 -1.0496 -2.4399
 2928SOL     OW 9682   5.202   5.287   0.243 -0.6389 -0.3293  0.1800
 2928SOL    HW1 9683   5.186   5.307   0.340 -0.3325 -0.1876  0.1988
 2928SOL    HW2 9684   5.122   5.315   0.190 -0.4087  0.5041  0.2622
 2929SOL     OW 9685   0.798   0.305   2.203  0.3564 -0.3020  0.2731
 2929SOL    HW1 9686   0.808   0.354   2.290 -0.9775  0.9871 -0.2614
 2929SOL    HW2 9687   0.709   0.326   2.162  2.0326  1.5729 -2.8553
 2930SOL     OW 9688   0.481   4.082   3.334 -0.1063  0.4991  0.0319
 2930SOL    HW1 9689   0.505   4.002   3.389 -2.1533 -0.3318 -0.2011
 2930SOL    HW2 9690   0.557   4.147   3.334  0.3277  0.1448  3.1055
 2931SOL     OW 9691   5.494   5.887   6.964 -0.2882 -0.3129  0.4840
 2931SOL    HW1 9692   5.551   5.916   6.887  1.5099 -1.5731  1.2994
 2931SOL    HW2 9693   5.398   5.908   6.943  0.5554  4.3259  0.1807
 2932SOL     OW 9694   0.795   5.581   0.444  0.0674 -0.0960  0.1678
 2932SOL    HW1 9695   0.870   5.621   0.391  0.3803 -0.7987  0.0693
 2932SOL    HW2 9696   0.823   5.492   0.479 -0.7912 -0.4655 -0.0549
 2933SOL     OW 9697   0.085   5.456   1.318  0.1162 -0.1273 -0.4162
 2933SOL    HW1 9698   0.098   5.357   1.319  2.2742 -0.0451 -4.0953
 2933SOL    HW2 9699   0.024   5.481   1.242 -0.1296  1.4165  0.2492
 2934SOL     OW 9700   3.760   5.675   0.345 -0.6295  0.2127  0.4906
 2934SOL    HW1 9701   3.758   5.731   0.428  1.4203  1.1226 -0.0106
 2934SOL    HW2 9702   3.675   5.687   0.295 -0.8379  1.7358  1.1531
 2935SOL     OW 9703   1.919   1.938   4.955 -0.1894  0.4708  0.0813
 2935SOL    HW1 9704   1.838   1.990   4.982  0.8685  1.5342  1.3358
 2935SOL    HW2 9705   1.983   1.933   5.032  2.4114  2.5383 -1.7513
 2936SOL     OW 9706   5.112   6.723   2.672  0.2185 -0.2598  0.0494
 2936SOL    HW1 9707   5.096   6.757   2.579  1.3986  3.2894  0.9739
 2936SOL    HW2 9708   5.026   6.721   2.722 -0.0776  0.2260 -0.4284
 2937SOL     OW 9709   6.950   2.840   2.566 -0.0961  0.6926 -0.4420
 2937SOL    HW1 9710   6.986   2.822   2.475  1.6954 -2.4254  0.7648
 2937SOL    HW2 9711   6.854   2.811   2.571  0.4370 -1.2154 -0.7779
 2938SOL     OW 9712   0.722   6.916   6.533 -0.3325 -0.0321  0.0709
 2938SOL    HW1 9713   0.660   6.840   6.516  0.7084 -0.8230 -0.2386
 2938SOL    HW2 9714   0.669   6.996   6.563 -1.2445 -1.7859  3.7843
 2939SOL     OW 9715   0.338   4.499   2.082 -0.3597  0.4070 -0.7199
 2939SOL    HW1 9716   0.335   4.558   2.001 -0.2778 -0.0397 -1.0486
 2939SOL    HW2 9717   0.353   4.405   2.055  1.5525  0.4819 -0.0883
 2940SOL     OW 9718   5.539   0.383   3.140 -0.3301  0.2533  0.2190
 2940SOL    HW1 9719   5.464   0.317   3.125 -0.4851  0.5797 -0.4866
 2940SOL    HW2 9720   5.503   0.463   3.188 -0.8562  1.1914 -1.6503
 2941SOL     OW 9721   2.347   4.230   3.151 -0.2328 -0.1295  0.0279
 2941SOL    HW1 9722   2.329   4.273   3.062  0.2790 -1.1654 -0.5965
 2941SOL    HW2 9723   2.389   4.297   3.212 -0.6375  0.6154 -0.4889
 2942SOL     OW 9724   5.414   2.576   1.338 -0.0718 -0.1093  0.3698
 2942SOL    HW1 9725   5.400   2.580   1.437  0.7001 -2.2956  0.5978
 2942SOL    HW2 9726   5.325   2.570   1.292 -0.3813 -2.4747  1.1632
 2943SOL     OW 9727   5.142   2.463   3.477 -0.0670 -0.1649  0.6042
 2943SOL    HW1 9728   5.241   2.480   3.473 -0.0401 -0.3123  0.6170
 2943SOL    HW2 9729   5.109   2.439   3.386 -0.3977  1.4970  0.2613
 2944SOL     OW 9730   3.445   5.756   2.440 -0.2698  0.4151 -0.3418
 2944SOL    HW1 9731   3.491   5.830   2.488 -0.4921 -0.9220  2.0707
 2944SOL    HW2 9732   3.386   5.706   2.503 -1.3405 -0.8683 -2.2528
 2945SOL     OW 9733   4.213   3.058   0.720  0.6793  1.0450 -0.1851
 2945SOL    HW1 9734   4.245   2.968   0.691 -1.9960 -0.5359  1.4501
 2945SOL    HW2 9735   4.154   3.097   0.649 -0.1034  0.4068  0.1079
 2946SOL     OW 9736   2.967   3.742   2.391 -0.3009 -0.5653  0.4770
 2946SOL    HW1 9737   2.951   3.822   2.448  0.9945  0.3379 -0.3669
 2946SOL    HW2 9738   2.929   3.758   2.300 -0.9993 -1.3648  0.6215
 2947SOL     OW 9739   6.671   6.560   1.514 -0.3007  0.9189  0.0728
 2947SOL    HW1 9740   6.770   6.553   1.528 -0.3550 -0.1955  0.0438
 2947SOL    HW2 9741   6.630   6.608   1.591  0.2022  0.8993  0.3606
 2948SOL     OW 9742   0.238   3.775   2.015  0.2873  0.9623 -0.9449
 2948SOL    HW1 9743   0.296   3.815   2.086  0.3295 -0.3639 -0.2000
 2948SOL    HW2 9744   0.159   3.834   1.999 -0.8436  0.3071  1.7383
 2949SOL     OW 9745   3.225   0.221   0.393 -0.5706 -0.8220  0.0466
 2949SOL    HW1 9746   3.297   0.288   0.410 -0.8409 -0.7447  0.9736
 2949SOL    HW2 9747   3.210   0.212   0.295 -0.3838  0.3155 -0.1015
 2950SOL     OW 9748   6.214   5.346   2.765  0.7098 -0.5312  0.3403
 2950SOL    HW1 9749   6.164   5.272   2.809  0.1829  0.1747  0.9488
 2950SOL    HW2 9750   6.269   5.309   2.690 -0.6136 -1.3530 -0.2601
 2951SOL     OW 9751   6.205   1.015   0.605 -0.3862 -0.4858  0.0784
 2951SOL    HW1 9752   6.250   0.985   0.688  2.1965  0.2170 -0.9762
 2951SOL    HW2 9753   6.165   1.106   0.619  1.0305  0.1289  0.2686
 2952SOL     OW 9754   5.250   2.695   6.391 -0.0812  0.3780 -0.2089
 2952SOL    HW1 9755   5.257   2.734   6.483 -1.6542 -0.9352  0.5337
 2952SOL    HW2 9756   5.326   2.632   6.375 -1.3176 -1.6916  1.4484
 2953SOL     OW 9757   1.468   4.116   3.762 -0.0016 -0.2176 -0.0364
 2953SOL    HW1 9758   1.563   4.087   3.772  0.1517  0.4710  0.5741
 2953SOL    HW2 9759   1.440   4.103   3.666 -0.0537 -2.6025  0.2338
 2954SOL     OW 9760   2.064   4.834   0.661 -0.0534  0.3770 -0.1066
 2954SOL    HW1 9761   2.071   4.817   0.562 -0.3571  2.6396 -0.5784
 2954SOL    HW2 9762   2.056   4.747   0.709 -1.1304 -0.7503 -2.1712
 2955SOL     OW 9763   0.935   4.660   0.427  0.0172 -0.2331  0.3651
 2955SOL    HW1 9764   0.895   4.682   0.338  1.9629  0.6816 -0.3621
 2955SOL    HW2 9765   0.942   4.561   0.437  0.5683 -0.3452 -0.9143
 2956SOL     OW 9766   5.124   5.386   4.507 -0.0201  0.8647 -0.4955
 2956SOL    HW1 9767   5.044   5.331   4.526 -1.5447  2.1762 -2.6129
 2956SOL    HW2 9768   5.183   5.390   4.588 -2.6852  0.8679  1.5731
 2957SOL     OW 9769   3.143   4.911   1.344  0.2304  0.4369 -0.1510
 2957SOL    HW1 9770   3.209   4.885   1.414 -0.1047  0.9007  0.3474
 2957SOL    HW2 9771   3.074   4.972   1.384 -2.3148 -2.3869  0.1739
 2958SOL     OW 9772   0.302   3.506   3.448 -0.0276 -0.2295 -0.2678
 2958SOL    HW1 9773   0.238   3.432   3.469 -1.1052  1.1793  1.7096
 2958SOL    HW2 9774   0.395   3.469   3.445 -0.7635 -2.1633 -2.3610
 2959SOL     OW 9775   6.008   5.024   4.522  0.5664  0.0413 -0.1963
 2959SOL    HW1 9776   6.101   5.034   4.557  0.1491  0.5770  0.8002
 2959SOL    HW2 9777   6.010   5.022   4.422  1.5226  1.5022 -0.2445
 2960SOL     OW 9778   6.289   0.524   0.982  0.5973 -0.2255  0.5623
 2960SOL    HW1 9779   6.255   0.431   0.996  0.1264 -0.1377  0.0292
 2960SOL    HW2 9780   6.385   0.528   1.010  0.7349 -0.9647  0.2446
 2961SOL     OW 9781   6.854   2.399   2.875  0.4116 -0.2547  0.0732
 2961SOL    HW1 9782   6.816   2.477   2.825  0.3076 -0.7593 -0.6419
 2961SOL    HW2 9783   6.909   2.343   2.814  1.9944  0.2178  0.9986
 2962SOL     OW 9784   1.854   0.268   2.824  0.0705 -0.0423 -0.0332
 2962SOL    HW1 9785   1.757   0.293   2.829  0.0753 -0.0805  0.2534
 2962SOL    HW2 9786   1.866   0.174   2.853 -0.2275 -1.1209 -3.0630
 2963SOL     OW 9787   1.227   0.682   5.937 -0.3163 -0.2399 -0.3844
 2963SOL    HW1 9788   1.131   0.694   5.913 -0.4884  0.7348  0.7010
 2963SOL    HW2 9789   1.240   0.593   5.981 -0.5961 -0.6307 -1.0771
 2964SOL     OW 9790   0.307   6.793   6.814  0.2653 -0.5913  0.3601
 2964SOL    HW1 9791   0.225   6.766   6.763 -0.8290 -0.8662  2.1749
 2964SOL    HW2 9792   0.365   6.712   6.827  0.0735 -0.7308  0.3669
 2965SOL     OW 9793   5.385   5.437   6.295 -0.2379 -0.0179  0.0629
 2965SOL    HW1 9794   5.291   5.403   6.297  0.0053 -0.7181 -0.1541
 2965SOL    HW2 9795   5.446   5.364   6.263  1.0823 -1.2719  4.7090
 2966SOL     OW 9796   2.209   5.913   0.934  0.9250 -0.0983  0.4353
 2966SOL    HW1 9797   2.236   5.975   0.861  1.0760 -1.1683 -0.4421
 2966SOL    HW2 9798   2.126   5.948   0.979 -1.7839 -1.4552 -3.0470
 2967SOL     OW 9799   5.497   0.008   3.623  0.7731  0.3521 -0.2788
 2967SOL    HW1 9800   5.421  -0.024   3.680  0.1186  1.7267 -0.3453
 2967SOL    HW2 9801   5.537   0.090   3.664  1.9704 -0.1325 -0.4587
 2968SOL     OW 9802   5.871   4.271   6.970  0.4929 -0.2766  0.2985
 2968SOL    HW1 9803   5.819   4.260   7.055  0.3886  0.1352  0.2883
 2968SOL    HW2 9804   5.938   4.197   6.963 -0.3952 -1.0804  0.0910
 2969SOL     OW 9805   4.716   3.103   6.137 -0.4243 -0.3189  0.8205
 2969SOL    HW1 9806   4.637   3.136   6.189  0.5517  1.2713  1.3588
 2969SOL    HW2 9807   4.731   3.163   6.058  0.7632 -0.0738  1.2204
 2970SOL     OW 9808   2.126   2.415   5.325  0.0758  0.2383 -0.4008
 2970SOL    HW1 9809   2.179   2.435   5.408 -0.4468  1.0168 -0.2417
 2970SOL    HW2 9810   2.104   2.500   5.278  1.3682 -0.2618 -2.0082
 2971SOL     OW 9811   5.645   1.770   0.068  0.2640  0.4096 -0.4027
 2971SOL    HW1 9812   5.609   1.820   0.146 -0.0081  1.0606 -0.9345
 2971SOL    HW2 9813   5.690   1.687   0.100 -1.6905 -0.4550  0.3103
 2972SOL     OW 9814   0.390   5.831   5.465  0.0079 -0.5056 -0.5323
 2972SOL    HW1 9815   0.331   5.895   5.417 -0.1486 -0.1639  0.1153
 2972SOL    HW2 9816   0.467   5.880   5.507  0.2806 -0.8346 -0.6371
 2973SOL     OW 9817   6.277   0.930   3.667 -0.6230 -0.0855  0.3175
 2973SOL    HW1 9818   6.366   0.892   3.692 -0.1756 -1.4096 -2.7824
 2973SOL    HW2 9819   6.207   0.892   3.727  0.7198  0.0266  2.0375
 2974SOL     OW 9820   4.191   1.550   3.180 -0.3349  0.2257  0.7833
 2974SOL    HW1 9821   4.159   1.626   3.125  0.7159 -0.5367 -0.9735
 2974SOL    HW2 9822   4.255   1.583   3.249  2.0547  0.7484 -1.5431
 2975SOL     OW 9823   5.010   4.414   4.050 -0.2073 -1.0247  0.0618
 2975SOL    HW1 9824   5.012   4.445   4.145  0.6458  0.5326 -0.4378
 2975SOL    HW2 9825   4.917   4.424   4.014  0.0307  1.0970 -0.0928
 2976SOL     OW 9826   4.304   1.669   2.739  0.0708 -0.2240  0.0366
 2976SOL    HW1 9827   4.379   1.731   2.717  0.4593 -0.8761 -0.5265
 2976SOL    HW2 9828   4.232   1.679   2.670  0.5143 -1.0122 -0.5466
 2977SOL     OW 9829   5.943   0.703   2.297 -0.1343  0.5915 -0.2377
 2977SOL    HW1 9830   5.903   0.784   2.341 -1.0267  0.2934 -0.4859
 2977SOL    HW2 9831   5.870   0.640   2.271  0.4977  0.0794 -0.7928
 2978SOL     OW 9832   5.704   6.001   6.811 -0.6514 -0.0014  0.2829
 2978SOL    HW1 9833   5.782   5.939   6.821 -3.1285 -2.9937  3.2321
 2978SOL    HW2 9834   5.685   6.014   6.714  3.2815  0.7636 -0.5603
 2979SOL     OW 9835   4.065   1.311   3.746 -0.0637  0.4095 -0.8387
 2979SOL    HW1 9836   4.042   1.215   3.727  1.1939  0.3028 -2.0135
 2979SOL    HW2 9837   3.997   1.371   3.704 -0.6036  0.0505 -0.4897
 2980SOL     OW 9838   3.077   3.561   5.672  0.5602 -0.3054  0.4886
 2980SOL    HW1 9839   3.049   3.489   5.608 -1.0689  0.8228 -0.1296
 2980SOL    HW2 9840   3.002   3.625   5.685  2.3139  1.9435  0.1052
 2981SOL     OW 9841   2.913   0.757   0.555  0.1742  0.4319  0.0049
 2981SOL    HW1 9842   2.928   0.758   0.654 -1.3585  0.5576  0.2717
 2981SOL    HW2 9843   2.933   0.665   0.520 -0.2585  0.0795  0.6330
 2982SOL     OW 9844   2.208   1.563   1.121  0.0782  0.0199 -0.1604
 2982SOL    HW1 9845   2.255   1.528   1.040 -0.0053 -0.9600  0.1994
 2982SOL    HW2 9846   2.264   1.633   1.165  1.6901 -1.7736  0.7942
 2983SOL     OW 9847   0.172   5.107   5.827 -0.3605  0.4111  0.1613
 2983SOL    HW1 9848   0.193   5.027   5.882 -1.7572 -1.3063 -1.6625
 2983SOL    HW2 9849   0.081   5.098   5.787 -0.1996  2.4878 -0.8470
 2984SOL     OW 9850   0.586   6.452   0.473 -0.1529  0.0927 -0.1396
 2984SOL    HW1 9851   0.545   6.364   0.499 -0.2131  0.2643  0.3460
 2984SOL    HW2 9852   0.607   6.505   0.555 -1.3537  1.1014 -0.4498
 2985SOL     OW 9853   4.948   1.604   5.812  0.2125 -0.1506  0.0848
 2985SOL    HW1 9854   4.912   1.633   5.900 -1.6056  1.5866 -1.1250
 2985SOL    HW2 9855   4.979   1.684   5.760  1.8579 -1.1918 -0.6425
 2986SOL     OW 9856   5.600   1.824   2.084 -0.1107 -0.0246  0.3781
 2986SOL    HW1 9857   5.533   1.834   2.157 -1.1113  0.3971 -0.5597
 2986SOL    HW2 9858   5.669   1.757   2.111  0.0390  0.7413  2.0360
 2987SOL     OW 9859   2.717   5.714   5.923 -0.1186 -0.1076  0.1776
 2987SOL    HW1 9860   2.630   5.705   5.874 -0.2573 -0.9337  0.5437
 2987SOL    HW2 9861   2.701   5.698   6.021  0.6300 -1.5252  0.0919
 2988SOL     OW 9862   6.567   1.825   0.015  0.4237 -0.0566  0.7513
 2988SOL    HW1 9863   6.499   1.854  -0.052  1.5983  1.4376  0.1489
 2988SOL    HW2 9864   6.522   1.806   0.102 -0.6500  2.1424  0.7381
 2989SOL     OW 9865   5.942   3.848   3.200  0.3075  0.4204 -0.1576
 2989SOL    HW1 9866   5.977   3.755   3.196  1.3350  0.7910 -0.1641
 2989SOL    HW2 9867   5.893   3.869   3.115  0.7000  0.1174 -0.4620
 2990SOL     OW 9868   6.326   2.049   3.229 -0.4530  0.0878 -0.1840
 2990SOL    HW1 9869   6.420   2.054   3.198 -0.4683 -0.1789 -0.2799
 2990SOL    HW2 9870   6.287   2.141   3.236  0.0680  0.2491  0.6498
 2991SOL     OW 9871   7.016   3.717   1.658  0.7229  0.0314  0.3536
 2991SOL    HW1 9872   7.009   3.642   1.592  0.8757  0.1625  0.1848
 2991SOL    HW2 9873   7.012   3.680   1.751  3.0031 -0.4772  0.3292
 2992SOL     OW 9874   2.111   5.622   5.257  0.1612 -0.1057  0.5691
 2992SOL    HW1 9875   2.107   5.522   5.263 -1.0703 -0.0312  1.2965
 2992SOL    HW2 9876   2.105   5.650   5.162 -1.7162 -0.6694  0.4939
 2993SOL     OW 9877   2.649   2.656   1.499 -0.0513 -0.4326  0.2069
 2993SOL    HW1 9878   2.725   2.717   1.476 -0.4399 -0.0599 -0.0956
 2993SOL    HW2 9879   2.673   2.602   1.579  1.3288 -1.7628 -1.0423
 2994SOL     OW 9880   3.230   5.445   5.228  0.1915  0.1280 -0.2420
 2994SOL    HW1 9881   3.295   5.417   5.299  0.1074 -1.2777 -0.6763
 2994SOL    HW2 9882   3.199   5.538   5.245 -0.3510 -0.3987  1.9719
 2995SOL     OW 9883   3.890   2.349   1.701 -0.1202  0.1521  0.3758
 2995SOL    HW1 9884   3.815   2.360   1.766 -0.7958 -1.1158 -0.1729
 2995SOL    HW2 9885   3.858   2.300   1.620  1.1424  0.1621 -0.1546
 2996SOL     OW 9886   6.271   2.694   3.311 -0.5468 -0.2941  0.3832
 2996SOL    HW1 9887   6.303   2.684   3.216  0.4548 -2.1544  0.8607
 2996SOL    HW2 9888   6.215   2.615   3.336 -4.0745  1.9411  0.2308
 2997SOL     OW 9889   3.863   0.654   4.370 -0.0852  0.5804 -0.3148
 2997SOL    HW1 9890   3.833   0.746   4.396  0.5833  0.3541  1.3490
 2997SOL    HW2 9891   3.795   0.587   4.399  0.0277  0.4329 -0.3894
 2998SOL     OW 9892   2.186   0.744   0.759 -0.3473  0.0913  0.0613
 2998SOL    HW1 9893   2.118   0.749   0.832  0.3067  1.7178  0.6004
 2998SOL    HW2 9894   2.237   0.831   0.754  0.7082 -0.5617 -1.2730
 2999SOL     OW 9895   0.366   3.885   2.295  0.1396 -0.0456  0.2479
 2999SOL    HW1 9896   0.411   3.970   2.324 -0.2355  0.0224  0.6506
 2999SOL    HW2 9897   0.432   3.826   2.249 -0.1385  1.5092 -2.3495
 3000SOL     OW 9898   0.716   4.538   5.710  0.6345  0.5200  0.5870
 3000SOL    HW1 9899   0.676   4.543   5.801 -0.3747 -0.9275  0.2419
 3000SOL    HW2 9900   0.720   4.631   5.671 -2.5333  0.7754  0.5969
 3001SOL     OW 9901   4.442   0.257   5.928  0.1815  0.3076 -0.2739
 3001SOL    HW1 9902   4.530   0.244   5.973  0.7540  1.5027 -1.0316
 3001SOL    HW2 9903   4.437   0.201   5.846  0.3254  0.4213 -0.3591
 3002SOL     OW 9904   2.270   1.689   3.175 -0.3956  0.1752 -0.1791
 3002SOL    HW1 9905   2.332   1.611   3.169  1.4349  1.6850 -2.3223
 3002SOL    HW2 9906   2.319   1.767   3.216 -2.4751  0.0598  2.8837
 3003SOL     OW 9907   6.564   0.995   0.819 -0.2070 -0.4216  0.3049
 3003SOL    HW1 9908   6.635   1.065   0.807  0.2978 -1.1488 -1.1446
 3003SOL    HW2 9909   6.525   0.972   0.730 -1.7956 -0.5391  1.0043
 3004SOL     OW 9910   4.037   2.048   3.415  0.1886 -0.2782  0.3394
 3004SOL    HW1 9911   4.061   1.953   3.435  0.2039 -0.9928 -2.6230
 3004SOL    HW2 9912   3.989   2.053   3.327  0.3177  2.4986  0.3228
 3005SOL     OW 9913   1.404   1.932   0.955 -0.3876  0.0519 -0.5274
 3005SOL    HW1 9914   1.449   2.021   0.944  1.1722 -0.7495 -0.9753
 3005SOL    HW2 9915   1.383   1.917   1.052  0.4113  0.4147 -0.2921
 3006SOL     OW 9916   6.976   2.859   0.426  0.3433  0.1475 -0.1580
 3006SOL    HW1 9917   6.879   2.848   0.401  0.6983  1.3891 -2.3754
 3006SOL    HW2 9918   7.026   2.776   0.399 -0.0159 -0.3043  0.5475
 3007SOL     OW 9919   0.085   0.041   6.649 -0.0991 -0.1940 -0.4336
 3007SOL    HW1 9920   0.073   0.046   6.748  1.5340  1.5439 -0.2666
 3007SOL    HW2 9921   0.071  -0.053   6.619  1.4495 -1.2460  1.7815
 3008SOL     OW 9922   3.260   4.862   6.372 -0.5816  0.0790  0.1579
 3008SOL    HW1 9923   3.332   4.887   6.437 -0.2158  1.8801 -0.8942
 3008SOL    HW2 9924   3.295   4.793   6.308 -0.0230  0.4027  0.1094
 3009SOL     OW 9925   5.694   3.294   2.676 -0.2788 -0.0086 -0.6864
 3009SOL    HW1 9926   5.753   3.234   2.623  1.7211  1.7955 -0.6646
 3009SOL    HW2 9927   5.750   3.346   2.741 -2.0377  1.1660 -0.0315
 3010SOL     OW 9928   3.627   5.493   2.140 -0.9366  0.0175  0.1123
 3010SOL    HW1 9929   3.659   5.410   2.094  0.7604  1.4034 -1.3408
 3010SOL    HW2 9930   3.531   5.481   2.165 -0.6668 -2.4772  0.2260
 3011SOL     OW 9931   6.701   0.028   4.417  0.2275 -0.1978 -0.1356
 3011SOL    HW1 9932   6.633  -0.011   4.356  1.2508 -1.9489 -0.2356
 3011SOL    HW2 9933   6.766   0.083   4.365  1.3116 -1.9840 -0.7629
 3012SOL     OW 9934   0.723   0.072   3.056 -0.3453  1.0679 -0.6337
 3012SOL    HW1 9935   0.734   0.067   3.156 -0.7825 -0.9861 -0.6451
 3012SOL    HW2 9936   0.813   0.083   3.013  0.1758 -0.7160 -0.0973
 3013SOL     OW 9937   0.776   5.526   4.849 -0.2178  0.1874  0.5893
 3013SOL    HW1 9938   0.720   5.575   4.916 -0.4986 -0.0959  0.5645
 3013SOL    HW2 9939   0.731   5.529   4.759  0.5062  1.1765  0.2521
 3014SOL     OW 9940   6.508   1.748   2.213  0.7071  0.0064 -0.2682
 3014SOL    HW1 9941   6.441   1.713   2.279  1.1436 -0.4064 -0.0434
 3014SOL    HW2 9942   6.531   1.842   2.236 -1.4026  0.9325 -1.5854
 3015SOL     OW 9943   1.371   0.334   0.063  0.0240 -0.4036  0.5132
 3015SOL    HW1 9944   1.281   0.321   0.104 -0.7967 -3.3595 -1.9174
 3015SOL    HW2 9945   1.436   0.270   0.104  0.8014  0.8979  1.4118
 3016SOL     OW 9946   2.505   6.999   5.071 -0.6286  0.1788  0.2745
 3016SOL    HW1 9947   2.466   7.046   4.992  0.0235  0.4140  0.0918
 3016SOL    HW2 9948   2.529   7.066   5.141  0.4025  0.1314 -0.0301
 3017SOL     OW 9949   3.919   6.074   0.523  0.1854 -0.1318 -0.0583
 3017SOL    HW1 9950   3.902   6.169   0.551 -0.1526 -0.4165  0.7271
 3017SOL    HW2 9951   3.856   6.013   0.571  0.2876 -0.7437 -0.6853
 3018SOL     OW 9952   3.658   1.137   1.757  0.8527 -0.0328 -0.0115
 3018SOL    HW1 9953   3.756   1.156   1.768  0.9198 -1.0075  1.3399
 3018SOL    HW2 9954   3.605   1.218   1.784  1.2603  0.3527 -0.3415
 3019SOL     OW 9955   0.058   0.209   5.102 -0.0542 -0.1777 -0.6829
 3019SOL    HW1 9956   0.097   0.119   5.090  0.5915  0.0928 -0.6365
 3019SOL    HW2 9957   0.050   0.229   5.200 -0.9361 -0.4935 -0.6772
 3020SOL     OW 9958   6.364   4.597   1.192  0.1318 -0.6055  0.0284
 3020SOL    HW1 9959   6.386   4.500   1.193  0.7293 -0.4797  1.4542
 3020SOL    HW2 9960   6.404   4.640   1.112  3.4890 -0.7884  1.4541
 3021SOL     OW 9961   3.910   0.153   3.714  0.6624 -0.2334  0.3615
 3021SOL    HW1 9962   3.877   0.095   3.639  0.4824 -1.3438  1.2770
 3021SOL    HW2 9963   3.833   0.202   3.754  0.5619 -0.6382  0.6614
 3022SOL     OW 9964   4.460   5.025   4.108 -0.4878 -0.0265  0.0551
 3022SOL    HW1 9965   4.467   4.945   4.168  0.6191  0.0652  0.0736
 3022SOL    HW2 9966   4.373   5.072   4.125  0.1193  0.4265  2.1345
 3023SOL     OW 9967   0.684   5.012   3.415  0.6065 -0.3628 -1.1828
 3023SOL    HW1 9968   0.659   5.047   3.325 -0.0892 -2.6204 -1.9194
 3023SOL    HW2 9969   0.601   4.991   3.467  0.9969  1.0368  0.0816
 3024SOL     OW 9970   1.086   0.276   1.658  0.3458 -0.3337  0.1454
 3024SOL    HW1 9971   1.002   0.293   1.607  2.1952  2.4018 -2.2662
 3024SOL    HW2 9972   1.137   0.201   1.616  0.9771  0.6858 -0.9599
 3025SOL     OW 9973   4.705   5.178   0.665  0.1923 -0.0674  0.1172
 3025SOL    HW1 9974   4.683   5.234   0.745  0.6307 -0.0601  0.2363
 3025SOL    HW2 9975   4.779   5.221   0.614 -2.2158  1.7156 -2.1685
 3026SOL     OW 9976   1.901   0.898   2.109  0.1734 -0.2442 -0.0810
 3026SOL    HW1 9977   1.874   0.881   2.015 -0.5554 -1.8593  0.3830
 3026SOL    HW2 9978   1.992   0.859   2.125 -0.3376 -1.3402  0.2564
 3027SOL     OW 9979   3.609   1.965   0.663  0.3086 -0.3624  0.1362
 3027SOL    HW1 9980   3.673   2.033   0.697 -1.8247  1.4221  0.8263
 3027SOL    HW2 9981   3.619   1.881   0.716  2.4513 -0.3906 -0.2060
 3028SOL     OW 9982   3.899   3.082   6.043 -0.2563 -0.1270  0.6521
 3028SOL    HW1 9983   3.826   3.093   6.111  0.4827  0.6495  1.3476
 3028SOL    HW2 9984   3.987   3.109   6.084  0.0563  1.4787 -0.9662
 3029SOL     OW 9985   5.658   3.732   4.440  0.0272 -0.0739 -0.6263
 3029SOL    HW1 9986   5.563   3.718   4.469  0.2187 -0.9399 -0.3684
 3029SOL    HW2 9987   5.668   3.703   4.345  0.6623 -3.0280  0.2228
 3030SOL     OW 9988   3.727   1.545   1.029 -0.4315 -0.5087  0.1841
 3030SOL    HW1 9989   3.716   1.449   1.055  0.9167 -1.1158 -1.3043
 3030SOL    HW2 9990   3.765   1.596   1.105  2.3062 -1.9570 -0.1051
 3031SOL     OW 9991   1.957   6.683   1.346 -0.1054 -0.1293 -0.1444
 3031SOL    HW1 9992   1.999   6.653   1.261  0.4922  0.9426 -0.2420
 3031SOL    HW2 9993   1.866   6.720   1.328 -1.0749 -2.2416  0.0384
 3032SOL     OW 9994   3.539   0.691   3.708 -0.0058 -0.1276 -0.6919
 3032SOL    HW1 9995   3.507   0.717   3.617 -0.1805 -0.3947 -0.7080
 3032SOL    HW2 9996   3.619   0.745   3.732 -0.4190  0.4965 -0.6865
 3033SOL     OW 9997   0.928   0.807   3.878 -0.1679 -0.0122 -0.2282
 3033SOL    HW1 9998   1.013   0.756   3.870  0.4070  1.0793 -1.3021
 3033SOL    HW2 9999   0.852   0.752   3.843  0.0116 -1.1210  1.0420
 3034SOL     OW10000   6.472   4.185   2.898 -0.4414  0.4656 -0.7795
 3034SOL    HW110001   6.404   4.245   2.857 -1.3436  0.3222  0.4535
 3034SOL    HW210002   6.443   4.159   2.990 -0.0591 -1.8622 -1.2559
 3035SOL     OW10003   6.390   2.801   0.534  0.1494 -0.0767 -0.1783
 3035SOL    HW110004   6.466   2.744   0.506 -0.6972 -1.4197  0.1784
 3035SOL    HW210005   6.312   2.744   0.560 -1.0760  1.2463 -0.7706
 3036SOL     OW10006   4.459   2.712   5.886 -0.2792  0.2195  0.2317
 3036SOL    HW110007   4.453   2.781   5.958  1.5873  1.0080 -0.3111
 3036SOL    HW210008   4.410   2.630   5.914  2.4580 -0.4870  3.5697
 3037SOL     OW10009   1.774   6.525   6.601  0.0609 -0.3195 -0.0519
 3037SOL    HW110010   1.711   6.596   6.632 -0.9118 -1.8816  1.7152
 3037SOL    HW210011   1.724   6.440   6.586  1.2586 -0.7693 -1.8170
 3038SOL     OW10012   5.399   6.401   3.866 -0.2625  0.0093  0.1020
 3038SOL    HW110013   5.327   6.396   3.935  0.0481 -1.3774  0.3591
 3038SOL    HW210014   5.406   6.494   3.831 -2.7004  0.0136 -0.5002
 3039SOL     OW10015   5.592   4.889   5.881  0.3987  0.1655  0.2499
 3039SOL    HW110016   5.622   4.962   5.820  0.1559 -0.9982 -1.3201
 3039SOL    HW210017   5.497   4.866   5.860 -0.5509  1.4191  2.7909
 3040SOL     OW10018   5.474   6.625   5.850  0.2527 -0.3002  0.2446
 3040SOL    HW110019   5.483   6.582   5.940  0.2492  0.4741  0.6196
 3040SOL    HW210020   5.522   6.713   5.849  0.4976 -0.4323 -0.6025
 3041SOL     OW10021   1.176   3.202   0.010  0.0586  0.0824  0.8834
 3041SOL    HW110022   1.164   3.262  -0.069  0.7033  0.1787  0.8527
 3041SOL    HW210023   1.176   3.257   0.094 -0.2506  0.0237  0.9213
 3042SOL     OW10024   6.678   3.708   4.061  0.3433 -0.2130 -0.0781
 3042SOL    HW110025   6.707   3.750   4.147  0.4672  2.5167 -1.3704
 3042SOL    HW210026   6.581   3.729   4.044  0.6301  0.3241 -1.1545
 3043SOL     OW10027   2.359   3.880   0.804 -0.6953 -0.1407 -0.0158
 3043SOL    HW110028   2.305   3.895   0.887  0.7061  1.8188  0.6065
 3043SOL    HW210029   2.406   3.964   0.779  2.1614 -1.7387 -0.4380
 3044SOL     OW10030   4.584   3.752   6.798 -0.1600  0.4462  0.1764
 3044SOL    HW110031   4.550   3.727   6.708  0.1835 -0.1212  0.1963
 3044SOL    HW210032   4.646   3.830   6.790  0.8681 -0.3981 -0.2556
 3045SOL     OW10033   4.699   2.178   2.349  0.1140 -0.9354 -0.3694
 3045SOL    HW110034   4.786   2.147   2.311  0.6649 -0.3113  0.3250
 3045SOL    HW210035   4.679   2.270   2.315 -0.3465 -1.1285 -0.6289
 3046SOL     OW10036   6.400   0.732   7.016  0.2972  0.1702  0.0305
 3046SOL    HW110037   6.329   0.765   7.078  0.1432 -1.5783  0.8575
 3046SOL    HW210038   6.471   0.686   7.069 -0.3973 -2.4073 -1.0972
 3047SOL     OW10039   6.276   2.437   3.549  0.4471 -0.6818 -0.0149
 3047SOL    HW110040   6.214   2.456   3.473  1.5956  2.6126 -0.2708
 3047SOL    HW210041   6.224   2.438   3.635 -0.4834 -2.1626 -0.5316
 3048SOL     OW10042   2.828   4.727   2.251  0.4381  0.2795 -0.1096
 3048SOL    HW110043   2.919   4.764   2.268  1.5260 -2.1200 -0.3779
 3048SOL    HW210044   2.830   4.673   2.167 -1.3321  0.4418 -0.2835
 3049SOL     OW10045   6.743   2.206   3.054  0.1614  0.4732  0.5727
 3049SOL    HW110046   6.753   2.276   2.983 -0.2232 -0.1156 -0.0747
 3049SOL    HW210047   6.811   2.134   3.041 -1.3372 -0.8140 -0.6258
 3050SOL     OW10048   2.543   1.626   6.066 -0.4156 -0.8077  0.1294
 3050SOL    HW110049   2.492   1.699   6.022 -1.3248 -1.7408 -0.4132
 3050SOL    HW210050   2.634   1.619   6.025 -0.2726  0.0999  0.2840
 3051SOL     OW10051   3.526   5.949   6.205  0.1665 -0.0857 -0.4927
 3051SOL    HW110052   3.614   5.972   6.163  0.3505  1.7314  0.7513
 3051SOL    HW210053   3.501   6.020   6.271 -2.8734  0.1534 -1.7085
 3052SOL     OW10054   6.796   0.001   2.996 -0.1736 -0.1028  0.0961
 3052SOL    HW110055   6.765   0.096   2.991 -0.1319 -0.0024  1.4036
 3052SOL    HW210056   6.815  -0.033   2.904 -0.5660  1.0275 -0.4170
 3053SOL     OW10057   1.207   2.836   1.109 -0.0692  0.0811  0.9419
 3053SOL    HW110058   1.239   2.741   1.111  2.3256  0.6159 -2.6418
 3053SOL    HW210059   1.119   2.841   1.060 -0.0222 -0.2672  0.8220
 3054SOL     OW10060   5.858   0.561   3.514 -0.6975  0.2620 -0.1756
 3054SOL    HW110061   5.912   0.555   3.598 -0.5969  0.8987 -0.1870
 3054SOL    HW210062   5.801   0.480   3.505 -0.0750 -0.2136  0.0671
 3055SOL     OW10063   5.032   6.797   5.784  0.2550 -0.2008 -0.3378
 3055SOL    HW110064   4.999   6.706   5.805 -2.5162  1.3839  3.1276
 3055SOL    HW210065   5.106   6.821   5.847  1.0921 -0.0550 -1.3437
 3056SOL     OW10066   3.987   1.003   5.882  0.2319  0.3514 -0.2273
 3056SOL    HW110067   3.992   0.926   5.946 -1.9680  0.3322 -0.0184
 3056SOL    HW210068   3.910   1.062   5.906  1.2200  2.0460 -1.0494
 3057SOL     OW10069   5.750   5.080   3.227  0.2406 -0.1116  0.4898
 3057SOL    HW110070   5.661   5.099   3.184 -0.2415 -0.1254  1.4629
 3057SOL    HW210071   5.822   5.086   3.158 -0.8003 -3.0615 -1.0481
 3058SOL     OW10072   5.868   5.447   6.109  0.1312 -0.2761  0.1860
 3058SOL    HW110073   5.818   5.370   6.148  0.6046 -0.8879 -0.4094
 3058SOL    HW210074   5.849   5.530   6.163 -1.5161 -0.4900 -0.0452
 3059SOL     OW10075   2.092   0.044   2.787  0.3588  0.0356 -0.8086
 3059SOL    HW110076   2.132   0.132   2.765 -1.7363  1.2126 -0.1994
 3059SOL    HW210077   2.014   0.027   2.726 -0.7511 -0.2319  0.6427
 3060SOL     OW10078   5.085   3.375   5.717 -0.4459 -0.2886  0.2487
 3060SOL    HW110079   5.159   3.422   5.766 -2.2317  2.3315  0.6327
 3060SOL    HW210080   5.079   3.281   5.749  1.3559  0.0369  1.7379
 3061SOL     OW10081   0.344   1.263   4.613  0.2328  0.7118  0.3327
 3061SOL    HW110082   0.251   1.229   4.621 -0.1362  1.3456 -0.9794
 3061SOL    HW210083   0.362   1.332   4.683 -0.5682  1.1976  0.0632
 3062SOL     OW10084   3.625   4.648   0.170 -0.1982  0.2544 -0.0389
 3062SOL    HW110085   3.618   4.612   0.263 -0.1396  0.5267  0.0719
 3062SOL    HW210086   3.574   4.589   0.108 -0.7774  0.4214  0.2612
 3063SOL     OW10087   6.693   4.442   2.325  1.1041 -1.3142 -0.6998
 3063SOL    HW110088   6.632   4.414   2.251  0.0329 -1.5243  0.2283
 3063SOL    HW210089   6.663   4.399   2.411 -0.0650  1.8631  0.6364
 3064SOL     OW10090   4.326   2.040   5.784 -0.1174 -0.5199 -0.0968
 3064SOL    HW110091   4.266   2.114   5.754  0.6846 -0.3188 -1.2759
 3064SOL    HW210092   4.414   2.078   5.814  0.2257 -0.9583 -0.5169
 3065SOL     OW10093   4.875   0.494   0.271 -0.3031  0.0441  0.1770
 3065SOL    HW110094   4.797   0.506   0.209  0.2735  0.9775 -0.3813
 3065SOL    HW210095   4.952   0.455   0.221  0.1002  0.6055  0.3440
 3066SOL     OW10096   6.143   0.480   5.004 -0.0328 -0.6242  0.0313
 3066SOL    HW110097   6.144   0.451   4.908  1.0201 -2.6780  0.6052
 3066SOL    HW210098   6.213   0.551   5.018 -1.6089  1.2648 -1.0872
 3067SOL     OW10099   2.034   6.731   4.008  0.3999 -0.3530  0.4781
 3067SOL    HW110100   2.031   6.768   4.101 -0.1318  0.5205  0.1288
 3067SOL    HW210101   2.098   6.654   4.004  0.5929 -0.2531  1.5127
 3068SOL     OW10102   1.201   0.296   6.262 -0.0850 -0.4028  0.0697
 3068SOL    HW110103   1.182   0.198   6.270 -1.5265 -0.0935  0.8545
 3068SOL    HW210104   1.121   0.348   6.295 -0.2810  1.0574 -2.5002
 3069SOL     OW10105   4.986   5.933   4.471  0.1323 -0.7468  0.0863
 3069SOL    HW110106   4.957   6.025   4.495 -0.3693 -0.2455 -2.1712
 3069SOL    HW210107   5.086   5.931   4.460  0.2551 -0.7487  1.1527
 3070SOL     OW10108   1.076   6.824   2.540  0.0948 -0.3463 -0.0480
 3070SOL    HW110109   1.124   6.737   2.533  1.0135  0.2284 -1.0721
 3070SOL    HW210110   0.996   6.823   2.481  0.2023 -0.4296 -0.1916
 3071SOL     OW10111   5.950   5.497   5.073 -0.2228 -0.3817  0.3333
 3071SOL    HW110112   5.867   5.551   5.084 -0.5519 -1.1053  1.5617
 3071SOL    HW210113   6.030   5.557   5.081 -0.5899  0.0154  1.1223
 3072SOL     OW10114   2.130   0.517   6.630  0.3779 -0.9405  0.1266
 3072SOL    HW110115   2.154   0.547   6.537 -0.4403 -1.0981 -0.1390
 3072SOL    HW210116   2.201   0.455   6.664  0.8825 -0.5746 -0.2364
 3073SOL     OW10117   1.907   5.118   1.287 -0.1814  0.5677  0.1132
 3073SOL    HW110118   1.847   5.076   1.356 -1.0555  0.1300 -0.8727
 3073SOL    HW210119   1.886   5.079   1.197  1.9887 -0.0066 -0.1965
 3074SOL     OW10120   2.354   2.309   1.822  0.2270 -0.0167 -0.3219
 3074SOL    HW110121   2.308   2.222   1.836  2.0215 -0.8937  0.5113
 3074SOL    HW210122   2.436   2.295   1.767  0.6127  1.1321 -0.0768
 3075SOL     OW10123   2.598   4.510   1.344  0.2879  0.0309  0.1239
 3075SOL    HW110124   2.677   4.540   1.397  0.2837  1.0979 -0.4666
 3075SOL    HW210125   2.627   4.442   1.276  0.2471 -1.6050  1.6442
 3076SOL     OW10126   6.932   1.867   3.909 -0.2484  0.3075 -0.2692
 3076SOL    HW110127   6.888   1.849   3.997 -0.8690 -1.0297 -0.8284
 3076SOL    HW210128   6.884   1.818   3.837  1.4500 -0.2472 -1.0788
 3077SOL     OW10129   0.415   4.438   0.456  0.1550  0.2014  0.0780
 3077SOL    HW110130   0.416   4.529   0.414  0.3077 -0.6191 -1.8276
 3077SOL    HW210131   0.353   4.378   0.405 -1.6977 -0.2262  2.6373
 3078SOL     OW10132   1.131   2.755   2.269 -0.3356 -0.2827  0.0263
 3078SOL    HW110133   1.219   2.740   2.315 -0.8395 -0.7978  0.8647
 3078SOL    HW210134   1.057   2.736   2.334 -1.0629  0.4508 -0.5768
 3079SOL     OW10135   3.388   2.855   4.788 -0.2793  0.2138  0.4071
 3079SOL    HW110136   3.460   2.788   4.804  0.4136  0.8247 -0.1015
 3079SOL    HW210137   3.371   2.862   4.689 -0.7810  0.3485  0.4990
 3080SOL     OW10138   6.071   3.748   6.329 -0.1807 -0.0310  0.1690
 3080SOL    HW110139   6.140   3.685   6.294  0.0977  0.3640 -0.0004
 3080SOL    HW210140   6.101   3.842   6.313 -0.4464  0.1461  0.7032
 3081SOL     OW10141   1.384   3.643   6.371 -0.1946 -0.1209  0.3163
 3081SOL    HW110142   1.310   3.675   6.312  0.7733  1.5071 -0.0548
 3081SOL    HW210143   1.402   3.711   6.442 -0.4402 -1.4551  1.7069
 3082SOL     OW10144   4.404   4.745   5.782  0.1853 -0.2731  0.3429
 3082SOL    HW110145   4.355   4.702   5.858 -0.6254  0.7977  0.4606
 3082SOL    HW210146   4.490   4.783   5.815 -0.3468  0.5350  0.8329
 3083SOL     OW10147   4.980   5.587   1.531 -0.0988  0.5248  0.8339
 3083SOL    HW110148   4.959   5.503   1.481  1.7959 -0.9556  2.3469
 3083SOL    HW210149   4.903   5.651   1.522 -1.6307 -1.3434 -0.3437
 3084SOL     OW10150   0.239   3.844   4.187  0.1672 -0.1341  0.0430
 3084SOL    HW110151   0.172   3.771   4.173  1.3816 -0.8232 -2.8842
 3084SOL    HW210152   0.315   3.809   4.241 -0.7376 -0.0278  1.4214
 3085SOL     OW10153   6.440   5.049   0.239 -0.1985  0.0465 -0.2116
 3085SOL    HW110154   6.487   5.099   0.311 -3.0991  0.5789  1.4480
 3085SOL    HW210155   6.503   4.981   0.200  2.2329  1.4336  1.0257
 3086SOL     OW10156   0.615   5.983   6.839 -0.2931 -0.4533 -0.8169
 3086SOL    HW110157   0.629   5.939   6.751 -1.9622 -2.2342 -0.2573
 3086SOL    HW210158   0.518   6.007   6.849 -0.2626 -0.8980  0.7866
 3087SOL     OW10159   3.199   6.446   2.791 -0.2604  0.2402 -0.4119
 3087SOL    HW110160   3.105   6.415   2.803 -0.4643  0.0709 -2.2513
 3087SOL    HW210161   3.199   6.539   2.756  0.2769  0.3234 -0.2046
 3088SOL     OW10162   2.190   4.332   5.381 -0.3814 -0.3744  0.1012
 3088SOL    HW110163   2.170   4.272   5.303  0.6417 -0.4758 -0.0861
 3088SOL    HW210164   2.271   4.299   5.429 -0.7226 -0.0314  0.9311
 3089SOL     OW10165   3.061   5.467   6.471 -0.3458 -0.0163  0.1640
 3089SOL    HW110166   3.099   5.496   6.383  0.3251  1.1090  0.7941
 3089SOL    HW210167   3.120   5.500   6.545 -1.0635 -0.6781  1.0454
 3090SOL     OW10168   1.158   2.066   0.480  0.0416 -0.0481  0.0942
 3090SOL    HW110169   1.070   2.035   0.515 -1.0506  2.2270 -0.4128
 3090SOL    HW210170   1.229   2.048   0.548 -1.0413 -0.7519  1.0713
 3091SOL     OW10171   0.196   3.670   6.445 -0.1511 -0.6898 -0.6828
 3091SOL    HW110172   0.261   3.654   6.371 -0.2410 -0.3298 -0.8398
 3091SOL    HW210173   0.108   3.698   6.406 -0.2822 -0.7884 -0.4543
 3092SOL     OW10174   0.507   1.585   3.017  0.3712 -0.0623  0.0602
 3092SOL    HW110175   0.460   1.556   3.100  0.2839 -0.9481 -0.2859
 3092SOL    HW210176   0.561   1.509   2.981  2.9756  1.2387  1.0360
 3093SOL     OW10177   6.215   4.182   5.367 -0.5000  0.1363  0.1230
 3093SOL    HW110178   6.201   4.264   5.311  1.1733 -0.0926 -0.6824
 3093SOL    HW210179   6.261   4.112   5.313 -0.9196 -0.9486  1.1343
 3094SOL     OW10180   3.221   0.973   0.645  0.4939  0.0849  0.3907
 3094SOL    HW110181   3.123   0.969   0.622  0.2496  1.0269  1.1994
 3094SOL    HW210182   3.246   0.892   0.697 -0.2612  0.6097  1.6097
 3095SOL     OW10183   2.538   4.267   6.086  0.2852  0.3164 -0.1736
 3095SOL    HW110184   2.549   4.188   6.146  1.6299  1.1114  0.6950
 3095SOL    HW210185   2.477   4.244   6.011  0.4786 -1.4682  0.1776
 3096SOL     OW10186   1.997   2.151   2.093 -0.1007  0.4439  0.1738
 3096SOL    HW110187   2.057   2.231   2.093 -0.8595  1.0344  0.9747
 3096SOL    HW210188   1.965   2.134   2.000  1.3434  0.0661 -0.2790
 3097SOL     OW10189   6.183   3.267   5.027  0.0432 -0.5190 -0.1072
 3097SOL    HW110190   6.234   3.353   5.020  0.6850 -0.9990 -1.8057
 3097SOL    HW210191   6.085   3.286   5.021  0.2015  0.0729 -1.0988
 3098SOL     OW10192   1.829   3.101   4.101  0.9363 -0.1892  0.1260
 3098SOL    HW110193   1.824   3.004   4.080 -0.4869  0.2853 -2.0896
 3098SOL    HW210194   1.833   3.154   4.016 -0.0220  1.7677  1.2196
 3099SOL     OW10195   5.969   0.170   5.011  0.0510 -0.6337 -0.4692
 3099SOL    HW110196   6.059   0.145   5.048 -0.4454 -0.5922  0.8157
 3099SOL    HW210197   5.920   0.225   5.079 -0.6961 -0.1177 -1.4148
 3100SOL     OW10198   5.378   3.697   1.374 -0.0729  0.8739  0.1385
 3100SOL    HW110199   5.299   3.664   1.323 -0.5169  2.1780 -0.0588
 3100SOL    HW210200   5.384   3.650   1.462 -0.3437 -0.1084 -0.3554
 3101SOL     OW10201   2.622   0.935   6.077 -0.3834  0.1867 -0.1016
 3101SOL    HW110202   2.682   0.985   6.140  0.7539 -1.1355 -0.1007
 3101SOL    HW210203   2.527   0.951   6.102  0.0323 -1.1901  2.7219
 3102SOL     OW10204   0.328   6.135   0.957  0.1185  0.1475 -0.3621
 3102SOL    HW110205   0.407   6.082   0.926  1.0981  1.7493 -0.7214
 3102SOL    HW210206   0.313   6.120   1.055  1.8325  0.9818  0.0537
 3103SOL     OW10207   2.503   2.787   1.188 -0.1829  0.6431  0.2177
 3103SOL    HW110208   2.493   2.854   1.263 -0.3071  0.7852  0.0759
 3103SOL    HW210209   2.412   2.764   1.153 -0.2316 -0.4211  0.9794
 3104SOL     OW10210   5.158   2.131   4.374 -0.6551  0.0566 -0.4550
 3104SOL    HW110211   5.155   2.037   4.406 -0.2222  0.4613  0.8079
 3104SOL    HW210212   5.067   2.158   4.342 -1.2477 -0.1766  0.9861
 3105SOL     OW10213   6.449   3.256   0.335 -0.0521  0.2181 -0.1784
 3105SOL    HW110214   6.477   3.350   0.317 -1.2952  0.3071 -1.8772
 3105SOL    HW210215   6.487   3.195   0.265 -1.4156 -0.1239 -0.6453
 3106SOL     OW10216   6.648   0.192   6.519 -0.3361  0.1294 -0.2864
 3106SOL    HW110217   6.647   0.252   6.598 -1.9305 -0.7995  0.4353
 3106SOL    HW210218   6.743   0.169   6.496  0.3596  3.2435 -0.9128
 3107SOL     OW10219   3.979   0.872   5.638  0.1057  0.1722 -0.3436
 3107SOL    HW110220   3.884   0.871   5.607  0.2895 -1.0733 -0.8962
 3107SOL    HW210221   3.984   0.913   5.730 -1.2662 -1.7439  0.6326
 3108SOL     OW10222   1.044   4.710   2.817 -0.4822 -0.0981  0.6898
 3108SOL    HW110223   1.103   4.705   2.736 -0.3863  0.0538  0.7514
 3108SOL    HW210224   0.987   4.792   2.811 -1.0578 -0.5129  0.3754
 3109SOL     OW10225   0.030   6.947   3.503  0.5505 -0.1368  0.1186
 3109SOL    HW110226   0.107   6.989   3.455  1.5844 -1.4237  0.6064
 3109SOL    HW210227  -0.046   6.937   3.440  0.9139  0.7456 -0.4898
 3110SOL     OW10228   2.138   3.592   3.736  0.1859 -0.2863  0.3017
 3110SOL    HW110229   2.127   3.498   3.770 -1.5607 -0.1034  0.3571
 3110SOL    HW210230   2.173   3.589   3.643 -0.3303 -1.0333  0.1143
 3111SOL     OW10231   4.624   4.452   2.066 -0.1601  0.3311  0.5602
 3111SOL    HW110232   4.713   4.447   2.020 -0.1070  0.3713  0.6590
 3111SOL    HW210233   4.561   4.386   2.025 -0.1402  0.4307  0.3671
 3112SOL     OW10234   2.123   2.194   5.768 -0.0423  0.1069 -0.1141
 3112SOL    HW110235   2.054   2.218   5.700  1.4248 -1.5221 -2.3317
 3112SOL    HW210236   2.166   2.277   5.804 -1.7469  1.0488 -0.1809
 3113SOL     OW10237   1.607   5.112   3.128  0.1852 -0.2032 -0.0490
 3113SOL    HW110238   1.705   5.097   3.114  0.1544  0.8361 -1.6468
 3113SOL    HW210239   1.587   5.210   3.126 -1.0529 -0.4375 -1.2082
 3114SOL     OW10240   4.606   6.590   6.542  0.2154 -0.1634  0.3545
 3114SOL    HW110241   4.583   6.495   6.523 -1.9596  0.2159  0.7711
 3114SOL    HW210242   4.537   6.650   6.501  0.1492  1.0786  2.1606
 3115SOL     OW10243   3.716   5.205   6.486  0.0579 -0.1467 -0.1403
 3115SOL    HW110244   3.802   5.237   6.446 -0.8142  0.5466 -1.5223
 3115SOL    HW210245   3.710   5.237   6.580 -0.2362  2.8709 -1.0860
 3116SOL     OW10246   0.054   0.073   5.742 -0.4645  0.1122  1.3717
 3116SOL    HW110247   0.126   0.113   5.799  0.4600  0.8553 -0.2161
 3116SOL    HW210248   0.095   0.006   5.679 -0.9149  1.3570 -0.3276
 3117SOL     OW10249   4.902   2.506   2.073 -0.0013  0.5169  0.0860
 3117SOL    HW110250   4.929   2.595   2.109  0.6202  0.4998 -0.3250
 3117SOL    HW210251   4.837   2.462   2.136  0.8128  0.6231  1.0138
 3118SOL     OW10252   0.615   0.130   3.316  0.2306  0.1547  0.0550
 3118SOL    HW110253   0.665   0.061   3.368  0.3666  0.4274  0.2908
 3118SOL    HW210254   0.525   0.146   3.358 -0.3034 -0.7603 -0.7075
 3119SOL     OW10255   4.327   6.058   6.422 -0.0214  0.0622  0.0647
 3119SOL    HW110256   4.250   5.996   6.410  0.2421 -0.7213  2.1084
 3119SOL    HW210257   4.296   6.143   6.463  0.4031 -1.1627  3.2411
 3120SOL     OW10258   2.433   6.326   6.682 -0.3527  0.8163  0.1233
 3120SOL    HW110259   2.381   6.269   6.746  0.0489  0.3584  0.0416
 3120SOL    HW210260   2.383   6.412   6.667 -0.7365  0.6839  0.5970
 3121SOL     OW10261   4.980   1.456   3.912  0.0299 -0.0924  0.0178
 3121SOL    HW110262   5.040   1.535   3.921 -0.7609  0.5679 -0.3620
 3121SOL    HW210263   4.947   1.450   3.818 -0.0809 -0.7596  0.0942
 3122SOL     OW10264   4.628   5.761   3.864 -0.1380  0.4018  0.4348
 3122SOL    HW110265   4.689   5.699   3.914  0.6822  0.9593  0.1292
 3122SOL    HW210266   4.535   5.750   3.899  0.4477  0.9936  2.3070
 3123SOL     OW10267   2.207   0.596   1.672 -0.4329 -0.7037  0.1692
 3123SOL    HW110268   2.170   0.658   1.741 -0.4921 -0.2282 -0.2889
 3123SOL    HW210269   2.247   0.516   1.718  2.3669  1.0327  1.0315
 3124SOL     OW10270   4.566   6.018   5.430 -0.2051  0.7737 -1.2673
 3124SOL    HW110271   4.492   5.954   5.449  1.0984 -0.7293 -1.0179
 3124SOL    HW210272   4.529   6.100   5.387 -2.3154  1.1715  1.0944
 3125SOL     OW10273   1.216   1.272   4.937 -0.8021 -0.5451 -0.3400
 3125SOL    HW110274   1.158   1.309   5.010  0.4331 -0.5579  0.6929
 3125SOL    HW210275   1.293   1.334   4.922 -0.0166 -1.4894 -0.2937
 3126SOL     OW10276   5.445   5.439   5.648  0.1199 -0.1625 -0.2125
 3126SOL    HW110277   5.429   5.372   5.576  0.0191 -2.4416  1.8000
 3126SOL    HW210278   5.542   5.461   5.653  0.3265 -1.0326 -0.2198
 3127SOL     OW10279   0.247   1.287   6.011  0.3820 -0.0662  0.0203
 3127SOL    HW110280   0.342   1.321   6.013  0.3177  0.4791 -2.8351
 3127SOL    HW210281   0.185   1.363   5.996 -0.2071 -0.8065 -1.4379
 3128SOL     OW10282   4.548   1.636   1.661 -0.5069 -0.0254  0.3090
 3128SOL    HW110283   4.627   1.657   1.720  0.3558 -1.5884 -0.2162
 3128SOL    HW210284   4.503   1.721   1.634  0.9022  0.9090  0.7666
 3129SOL     OW10285   3.738   2.533   0.834 -0.3377 -0.1895 -0.3280
 3129SOL    HW110286   3.692   2.510   0.919 -0.7919  1.0740 -0.2001
 3129SOL    HW210287   3.683   2.601   0.784  1.3992  1.4661 -0.1193
 3130SOL     OW10288   0.594   4.774   0.615  0.1672 -0.5170  0.1830
 3130SOL    HW110289   0.629   4.865   0.596 -0.4658 -0.3188 -0.0654
 3130SOL    HW210290   0.663   4.721   0.664  0.0472  0.5549  1.5876
 3131SOL     OW10291   5.676   3.234   1.903 -0.0203 -0.0625  0.1250
 3131SOL    HW110292   5.603   3.221   1.971  1.3739  0.5868  1.8110
 3131SOL    HW210293   5.715   3.325   1.914 -0.1653  0.2931 -2.0004
 3132SOL     OW10294   3.272   4.171   5.236  0.3546 -0.2294 -0.0217
 3132SOL    HW110295   3.233   4.079   5.236 -0.1366 -0.0436 -1.1291
 3132SOL    HW210296   3.209   4.234   5.281 -0.2924 -0.0733 -1.1106
 3133SOL     OW10297   3.784   6.547   5.007  0.1367  0.5831 -0.3468
 3133SOL    HW110298   3.728   6.529   4.926 -1.1119  0.0940  0.6005
 3133SOL    HW210299   3.863   6.603   4.980  1.3811 -1.9557 -2.4464
 3134SOL     OW10300   0.403   0.218   3.950  0.6978 -0.3822 -0.0244
 3134SOL    HW110301   0.395   0.295   4.013 -1.1377  0.2175 -0.9302
 3134SOL    HW210302   0.393   0.132   4.002 -2.0970  0.1194  0.4298
 3135SOL     OW10303   3.185   5.183   0.865 -0.3254 -0.4918  0.3896
 3135SOL    HW110304   3.117   5.167   0.794 -0.0514  0.5153 -0.1187
 3135SOL    HW210305   3.164   5.126   0.945  0.4851 -3.1510 -1.1754
 3136SOL     OW10306   5.986   7.005   3.866 -0.2067  0.1232 -0.1142
 3136SOL    HW110307   5.892   7.000   3.833  0.1463  0.8074 -1.2811
 3136SOL    HW210308   6.047   7.027   3.790  0.7785  0.6169  0.7900
 3137SOL     OW10309   6.207   1.506   1.069 -0.6379 -0.1753  0.0797
 3137SOL    HW110310   6.251   1.529   1.155 -1.3968  0.9391  0.1887
 3137SOL    HW210311   6.267   1.445   1.016 -0.5630 -1.6772  1.7783
 3138SOL     OW10312   6.067   0.510   5.940  0.2853  0.5344 -0.2538
 3138SOL    HW110313   6.058   0.606   5.916 -0.2178  0.5694  0.0799
 3138SOL    HW210314   6.149   0.473   5.896  0.1573  0.9633 -0.8652
 3139SOL     OW10315   3.173   5.305   1.668  0.1457  0.1038  0.6951
 3139SOL    HW110316   3.267   5.320   1.639  0.1808 -1.5126 -0.1083
 3139SOL    HW210317   3.119   5.267   1.593 -1.0074  0.4057  1.3274
 3140SOL     OW10318   1.491   6.852   1.738  0.2371  0.4044 -0.4212
 3140SOL    HW110319   1.413   6.913   1.725  0.5069  0.5544 -1.3828
 3140SOL    HW210320   1.460   6.757   1.740 -0.2531  0.5532  1.6062
 3141SOL     OW10321   3.605   3.383   0.406 -0.4447 -0.7411  0.1773
 3141SOL    HW110322   3.665   3.438   0.464 -0.5757 -0.2287 -0.1625
 3141SOL    HW210323   3.652   3.299   0.379  0.0261 -0.4669  0.1287
 3142SOL     OW10324   5.530   0.771   3.274 -0.1255  0.0517 -0.0575
 3142SOL    HW110325   5.475   0.850   3.244 -1.3552 -0.5458  0.5313
 3142SOL    HW210326   5.615   0.803   3.315 -1.9886  1.3547  3.1895
 3143SOL     OW10327   6.834   2.615   3.580  0.1812 -0.1397  0.7633
 3143SOL    HW110328   6.911   2.606   3.518 -0.0599  0.6775  0.3239
 3143SOL    HW210329   6.779   2.694   3.553 -1.0322 -0.9359  0.8208
 3144SOL     OW10330   4.198   3.605   1.770  0.3765 -0.2957  0.1881
 3144SOL    HW110331   4.289   3.570   1.789  0.0642 -0.3832  1.6361
 3144SOL    HW210332   4.176   3.679   1.834 -0.3898  0.0298 -0.4363
 3145SOL     OW10333   0.781   5.008   6.338  0.3473  0.1117  0.2624
 3145SOL    HW110334   0.800   4.996   6.240 -1.7213  2.0930 -0.4782
 3145SOL    HW210335   0.855   5.062   6.380  0.9778 -0.2786 -0.3195
 3146SOL     OW10336   4.721   1.110   3.446 -0.1023  0.5551  0.4776
 3146SOL    HW110337   4.643   1.167   3.472  0.5098  0.7735  1.9720
 3146SOL    HW210338   4.806   1.162   3.461  0.4093 -0.3488  0.7823
 3147SOL     OW10339   2.927   6.729   6.612  0.6383  0.2456 -0.1366
 3147SOL    HW110340   2.899   6.769   6.525  0.1242 -0.7559 -0.4477
 3147SOL    HW210341   2.911   6.630   6.610  1.8766  0.0050  0.6001
 3148SOL     OW10342   4.926   2.776   0.924  0.3371  0.1645 -0.3839
 3148SOL    HW110343   4.912   2.748   0.829  1.1504  0.0817 -0.4823
 3148SOL    HW210344   4.876   2.861   0.941 -2.5255 -1.4664  0.0379
 3149SOL     OW10345   1.606   0.896   1.302  0.1672  0.2518  0.0053
 3149SOL    HW110346   1.629   0.850   1.216 -0.0055  0.8869 -0.3921
 3149SOL    HW210347   1.680   0.882   1.368  0.1467 -0.5286 -0.1251
 3150SOL     OW10348   4.900   5.847   0.048 -0.1023  0.5288 -0.2887
 3150SOL    HW110349   4.909   5.909   0.126  0.5682  0.6069 -0.4273
 3150SOL    HW210350   4.808   5.856   0.010 -0.5069  0.3503  0.6039
 3151SOL     OW10351   0.542   0.250   4.317 -0.8166  0.2161 -0.4493
 3151SOL    HW110352   0.452   0.284   4.347 -0.5060 -1.0896  2.2335
 3151SOL    HW210353   0.537   0.151   4.305 -0.3513  0.4448 -2.9039
 3152SOL     OW10354   2.227   1.665   5.439  0.0628 -0.0749 -0.3968
 3152SOL    HW110355   2.187   1.696   5.525 -0.4724 -0.1098 -0.6305
 3152SOL    HW210356   2.265   1.744   5.390 -0.0458  0.0103 -0.3445
 3153SOL     OW10357   5.065   5.308   2.457  0.6811 -0.5801 -0.5154
 3153SOL    HW110358   5.147   5.332   2.509 -1.5025  0.8514  2.5960
 3153SOL    HW210359   5.049   5.377   2.387 -0.3066  2.0372  2.0422
 3154SOL     OW10360   4.578   1.240   6.375  0.0856 -0.1614 -0.3737
 3154SOL    HW110361   4.491   1.192   6.381 -0.3223  0.6599  0.6443
 3154SOL    HW210362   4.562   1.339   6.374  0.9555 -0.0123 -1.3464
 3155SOL     OW10363   0.962   6.034   0.167 -0.4170 -0.0402  0.1371
 3155SOL    HW110364   0.933   6.110   0.226  0.0645  0.1848  0.0885
 3155SOL    HW210365   0.939   6.056   0.073 -0.7926 -0.2064  0.1906
 3156SOL     OW10366   2.893   2.974   1.129  0.2381 -0.0006 -0.1259
 3156SOL    HW110367   2.850   2.883   1.138  0.1911  0.0506  0.1990
 3156SOL    HW210368   2.825   3.039   1.096 -0.1630  0.2482  1.1288
 3157SOL     OW10369   0.232   0.848   5.870 -0.7174 -0.0824 -0.2998
 3157SOL    HW110370   0.277   0.923   5.822 -0.7763 -1.1944 -2.2407
 3157SOL    HW210371   0.191   0.881   5.955  0.3311  1.7775 -0.4729
 3158SOL     OW10372   2.145   1.429   4.477  0.4258  0.4501 -0.1672
 3158SOL    HW110373   2.137   1.496   4.552 -0.7896  1.0363 -0.7908
 3158SOL    HW210374   2.195   1.349   4.510  1.6540  1.5241  0.6885
 3159SOL     OW10375   6.930   0.432   6.375 -0.9957 -0.1916 -0.2518
 3159SOL    HW110376   7.022   0.469   6.380 -0.6302 -0.8604 -1.7330
 3159SOL    HW210377   6.929   0.338   6.410 -0.4658 -1.2495 -2.8510
 3160SOL     OW10378   1.846   0.942   5.558 -0.4279  0.1133  0.3861
 3160SOL    HW110379   1.911   0.997   5.506  0.0601 -1.0817 -0.3060
 3160SOL    HW210380   1.772   1.000   5.592  0.9569  1.4946  1.1475
 3161SOL     OW10381   1.085   1.204   3.442  0.0145 -0.0582  0.6563
 3161SOL    HW110382   1.182   1.222   3.423 -0.2467  1.4321  0.6142
 3161SOL    HW210383   1.065   1.108   3.425  0.3538  0.5132 -4.3064
 3162SOL     OW10384   1.457   5.924   6.615 -0.2160  0.2765  0.0321
 3162SOL    HW110385   1.520   5.983   6.564  0.3015  0.1059  0.4670
 3162SOL    HW210386   1.497   5.833   6.625 -0.4193  0.2365  0.5235
 3163SOL     OW10387   4.301   4.977   0.722  0.4678 -0.1738 -0.6359
 3163SOL    HW110388   4.238   4.904   0.695 -1.3490  1.6333 -1.4941
 3163SOL    HW210389   4.344   5.015   0.640 -1.5763  2.2643 -0.6966
 3164SOL     OW10390   3.938   1.177   4.334  0.5036  0.2365  0.1632
 3164SOL    HW110391   3.954   1.272   4.361  1.3947  0.1212  0.0744
 3164SOL    HW210392   4.012   1.146   4.275 -0.0147 -0.3794 -0.1747
 3165SOL     OW10393   1.057   5.619   6.624  0.4078  0.2123 -0.0561
 3165SOL    HW110394   1.080   5.553   6.697 -1.6438  0.8730  1.2668
 3165SOL    HW210395   1.093   5.585   6.537 -0.4186 -2.6152  0.5851
 3166SOL     OW10396   4.784   6.409   6.785  0.5458 -0.1939  0.0973
 3166SOL    HW110397   4.750   6.500   6.759  1.3695  0.0104 -0.3138
 3166SOL    HW210398   4.857   6.419   6.852  0.0958 -0.6053  0.6603
 3167SOL     OW10399   5.254   2.874   1.067 -0.1322 -0.1686  0.1466
 3167SOL    HW110400   5.294   2.911   1.151  1.4890  0.5455 -0.8910
 3167SOL    HW210401   5.186   2.938   1.031  1.4867  1.1068 -0.7639
 3168SOL     OW10402   2.280   1.061   0.487  0.7275  0.1559 -0.8544
 3168SOL    HW110403   2.197   1.049   0.542  1.5269 -0.1964  0.3129
 3168SOL    HW210404   2.256   1.061   0.390 -0.6321  0.0428 -0.5374
 3169SOL     OW10405   1.880   3.968   2.107 -0.0157  0.0643  0.2393
 3169SOL    HW110406   1.807   4.035   2.098  1.1126  1.2935  0.0363
 3169SOL    HW210407   1.938   3.991   2.185  2.4536  1.4203 -1.8605
 3170SOL     OW10408   1.211   2.972   3.002 -0.6733  0.8048 -0.7917
 3170SOL    HW110409   1.229   2.897   2.938  0.2136  1.2482 -1.0728
 3170SOL    HW210410   1.113   2.976   3.021 -0.7450 -0.3846 -0.8204
 3171SOL     OW10411   5.189   1.922   3.613 -0.3280 -0.1026  0.6218
 3171SOL    HW110412   5.269   1.879   3.654  1.0493 -0.7226 -2.4168
 3171SOL    HW210413   5.147   1.985   3.679  1.8409 -0.7449  2.7568
 3172SOL     OW10414   5.105   3.965   1.770  0.0397 -0.1382  0.5453
 3172SOL    HW110415   5.009   3.985   1.750 -0.0676 -0.3705  0.8096
 3172SOL    HW210416   5.155   3.953   1.685  0.0158  0.8048  0.3803
 3173SOL     OW10417   5.854   3.721   5.635 -0.4595  0.2383 -0.1748
 3173SOL    HW110418   5.901   3.645   5.681 -1.0020  1.3275  2.3826
 3173SOL    HW210419   5.774   3.686   5.587  0.6661 -1.0898 -1.1878
 3174SOL     OW10420   3.659   1.658   0.527 -0.0048 -0.1496  0.0644
 3174SOL    HW110421   3.742   1.713   0.541  0.1305 -0.5365  0.8335
 3174SOL    HW210422   3.589   1.715   0.485  0.7556  0.0906 -0.9085
 3175SOL     OW10423   6.411   0.468   6.184  0.1863 -0.1009  0.1692
 3175SOL    HW110424   6.403   0.406   6.262 -1.2719  0.0607  0.1867
 3175SOL    HW210425   6.421   0.415   6.100 -1.2773 -0.4134  0.1604
 3176SOL     OW10426   5.230   4.714   1.658  0.1296 -0.0205  0.3497
 3176SOL    HW110427   5.197   4.650   1.727  2.3254  0.4750  1.9838
 3176SOL    HW210428   5.242   4.805   1.700 -1.8180  1.2409 -1.6250
 3177SOL     OW10429   6.259   2.376   2.909  0.0205  0.0548 -0.4276
 3177SOL    HW110430   6.278   2.278   2.912  1.6871  0.2312 -2.6520
 3177SOL    HW210431   6.160   2.390   2.908 -0.2824 -1.4880  1.2336
 3178SOL     OW10432   2.366   0.451   7.022  0.2152  0.0857  0.1511
 3178SOL    HW110433   2.432   0.458   6.947 -1.9618  0.0020 -1.8797
 3178SOL    HW210434   2.360   0.539   7.069 -0.5422  1.1199 -1.7632
 3179SOL     OW10435   0.095   1.046   0.619  0.4529  0.3427 -0.0618
 3179SOL    HW110436   0.082   0.978   0.692  1.9974  1.5589  1.4464
 3179SOL    HW210437   0.094   1.000   0.530  0.6096 -1.5267  0.8494
 3180SOL     OW10438   0.936   0.407   7.020 -0.0741  0.3368 -0.6068
 3180SOL    HW110439   1.014   0.435   6.963  0.3555  0.9106  0.2342
 3180SOL    HW210440   0.866   0.479   7.018 -0.9949 -0.5602 -2.0619
 3181SOL     OW10441   2.274   0.915   4.848 -0.4340 -0.4938 -0.2750
 3181SOL    HW110442   2.249   0.879   4.937  0.4416 -1.2978 -0.3392
 3181SOL    HW210443   2.238   0.856   4.776 -0.7941 -0.0686 -0.4531
 3182SOL     OW10444   1.712   0.817   0.512 -0.0609  0.3444  0.5881
 3182SOL    HW110445   1.651   0.891   0.483 -0.4710 -0.0551  0.4309
 3182SOL    HW210446   1.759   0.780   0.432 -0.5614 -0.1942  0.5410
 3183SOL     OW10447   4.049   1.205   6.959  0.2871  0.3139  0.9293
 3183SOL    HW110448   4.023   1.293   6.998 -0.5531 -0.3785  1.9858
 3183SOL    HW210449   4.028   1.204   6.861  0.5920  1.3773  0.8392
 3184SOL     OW10450   5.118   2.349   3.774 -0.0871 -0.2099  0.0986
 3184SOL    HW110451   5.139   2.422   3.709  0.3974 -0.2929  0.1614
 3184SOL    HW210452   5.134   2.382   3.867  1.6992 -0.8886  0.0666
 3185SOL     OW10453   0.566   5.795   0.334  0.0621  0.5185 -0.2139
 3185SOL    HW110454   0.645   5.783   0.394  1.5149 -0.1567 -2.1211
 3185SOL    HW210455   0.593   5.849   0.254 -2.0609  2.2909  0.1591
 3186SOL     OW10456   5.843   2.391   6.127  0.2045 -0.3470  0.5925
 3186SOL    HW110457   5.822   2.423   6.219  0.6535 -1.9527  1.2744
 3186SOL    HW210458   5.757   2.375   6.077 -0.0371  0.6846  0.6473
 3187SOL     OW10459   5.968   4.891   3.258 -0.2925  0.2531  0.2122
 3187SOL    HW110460   5.884   4.854   3.219 -0.8800  0.9805  0.7533
 3187SOL    HW210461   6.019   4.819   3.305 -0.1451 -0.3875 -0.8918
 3188SOL     OW10462   2.095   4.196   6.196 -0.3636 -0.3896  0.2498
 3188SOL    HW110463   2.119   4.110   6.240  2.1220 -0.1477 -0.5039
 3188SOL    HW210464   2.099   4.186   6.097  1.7717  0.9990  0.1389
 3189SOL     OW10465   1.994   2.777   6.673 -0.2121  0.0089  0.4239
 3189SOL    HW110466   1.925   2.757   6.743 -0.4737  1.6693  0.6703
 3189SOL    HW210467   2.084   2.782   6.716 -0.4738  1.8756  0.8539
 3190SOL     OW10468   6.121   6.358   4.965 -0.0131  0.0898 -0.1283
 3190SOL    HW110469   6.056   6.365   5.041 -1.1117  0.9211 -1.1069
 3190SOL    HW210470   6.127   6.263   4.936  1.0781 -0.3936  1.5160
 3191SOL     OW10471   2.541   6.059   0.990 -0.0025 -0.2790 -0.8328
 3191SOL    HW110472   2.543   6.059   1.090 -0.4457 -0.0243 -0.8235
 3191SOL    HW210473   2.614   6.000   0.955  0.3133 -0.1679 -0.3618
 3192SOL     OW10474   5.430   1.839   3.704 -0.3451 -0.9222 -0.3726
 3192SOL    HW110475   5.472   1.850   3.794  0.7038 -0.9719 -0.8437
 3192SOL    HW210476   5.498   1.803   3.640 -1.1192 -1.0158 -1.1552
 3193SOL     OW10477   4.401   0.045   2.967 -0.0695  0.0207 -0.0161
 3193SOL    HW110478   4.435   0.110   3.035 -0.2292  0.0478  0.0388
 3193SOL    HW210479   4.466  -0.030   2.957  0.2411  0.3275 -0.2791
 3194SOL     OW10480   2.838   6.861   7.022  0.0415 -0.2058  0.6043
 3194SOL    HW110481   2.789   6.924   6.961  0.8516  0.8798  1.0535
 3194SOL    HW210482   2.772   6.808   7.075 -0.6604  0.4159  0.3652
 3195SOL     OW10483   6.627   1.162   1.454 -0.0795 -0.3115 -0.4093
 3195SOL    HW110484   6.579   1.173   1.368 -0.8891  0.9048  0.1742
 3195SOL    HW210485   6.724   1.186   1.441 -0.2380  0.0627 -0.9268
 3196SOL     OW10486   4.602   6.167   2.736 -0.0229  0.1527  0.2902
 3196SOL    HW110487   4.539   6.188   2.662  0.6964 -0.4540 -0.5166
 3196SOL    HW210488   4.691   6.141   2.697  0.4211  0.0118  1.3705
 3197SOL     OW10489   4.191   6.827   0.839 -0.4988 -0.3904  0.0656
 3197SOL    HW110490   4.108   6.832   0.894 -0.9102 -1.9428 -0.3536
 3197SOL    HW210491   4.186   6.894   0.765 -0.9963  0.0863  0.5207
 3198SOL     OW10492   4.309   4.684   3.042  0.4360 -0.0861 -0.3994
 3198SOL    HW110493   4.224   4.707   3.090  1.3164  2.3617  0.1302
 3198SOL    HW210494   4.299   4.706   2.945  0.8364  1.4608 -0.1189
 3199SOL     OW10495   4.870   2.587   3.231  0.1967 -0.1375  0.5004
 3199SOL    HW110496   4.892   2.537   3.315  0.7005 -0.5408  0.1362
 3199SOL    HW210497   4.908   2.680   3.237 -1.7588  0.6427  1.6729
 3200SOL     OW10498   4.851   3.703   4.533  0.0077 -0.5023  0.7888
 3200SOL    HW110499   4.884   3.688   4.626  0.4106 -0.2085  0.6987
 3200SOL    HW210500   4.865   3.799   4.508  0.3547 -0.6837  0.2562
 3201SOL     OW10501   6.783   2.915   1.951 -0.3710 -0.6915  0.5499
 3201SOL    HW110502   6.811   2.923   2.047  2.1267 -0.3929 -0.1281
 3201SOL    HW210503   6.755   3.004   1.916  1.8670 -0.0834  0.1723
 3202SOL     OW10504   2.358   2.929   6.926 -0.0121  0.0329  0.2457
 3202SOL    HW110505   2.283   2.870   6.956  0.1855 -0.8101 -0.8688
 3202SOL    HW210506   2.414   2.955   7.005 -0.1895 -1.1338  0.7687
 3203SOL     OW10507   2.874   0.960   2.047  0.2646  0.7177  0.2032
 3203SOL    HW110508   2.964   0.987   2.014 -0.3882  1.4639 -1.0510
 3203SOL    HW210509   2.872   0.861   2.062  1.4039  0.7508  0.6737
 3204SOL     OW10510   3.193   0.617   3.564 -0.2590 -0.3985 -0.1404
 3204SOL    HW110511   3.116   0.620   3.628 -0.7221  0.2379 -0.7058
 3204SOL    HW210512   3.274   0.657   3.606 -0.7669  0.7357 -0.2136
 3205SOL     OW10513   0.724   4.198   0.428  0.6018 -0.2295  0.1916
 3205SOL    HW110514   0.747   4.199   0.331  1.9718 -1.7592  0.4594
 3205SOL    HW210515   0.676   4.113   0.451  0.8002 -0.1475  0.9597
 3206SOL     OW10516   4.339   4.025   1.145 -0.2858  0.3645 -0.0131
 3206SOL    HW110517   4.427   4.070   1.132 -0.5963  1.0036  0.1015
 3206SOL    HW210518   4.349   3.951   1.213  0.8253 -1.5401 -2.1225
 3207SOL     OW10519   3.220   5.250   3.789  0.3586  0.1617  0.1699
 3207SOL    HW110520   3.300   5.309   3.802  0.0303  0.6198  0.1212
 3207SOL    HW210521   3.219   5.180   3.861  1.0443 -0.1258 -0.0913
 3208SOL     OW10522   5.882   2.990   5.686  0.1844  0.1168 -0.8773
 3208SOL    HW110523   5.889   3.075   5.740 -0.7935 -0.7527  0.7155
 3208SOL    HW210524   5.933   2.918   5.732  0.3668 -0.3648 -1.8159
 3209SOL     OW10525   5.050   6.038   5.443 -0.0748  0.0020 -0.0329
 3209SOL    HW110526   5.080   5.973   5.513  1.6168  1.3370  0.5491
 3209SOL    HW210527   4.957   6.015   5.414 -0.1925 -1.5825  1.4244
 3210SOL     OW10528   5.450   5.972   1.540  0.1828  0.3721 -0.2637
 3210SOL    HW110529   5.435   5.986   1.442 -2.4148  2.6603  0.3305
 3210SOL    HW210530   5.372   6.008   1.591  2.9553  2.5705  2.8557
 3211SOL     OW10531   1.760   4.804   6.131 -0.7475 -0.0514 -0.0423
 3211SOL    HW110532   1.782   4.707   6.146  0.0323  0.1496  0.1483
 3211SOL    HW210533   1.696   4.835   6.201 -3.0468 -1.0761 -1.5431
 3212SOL     OW10534   3.515   0.232   3.081 -0.1514  0.2958  0.4757
 3212SOL    HW110535   3.508   0.198   3.175  1.6993 -1.8391 -0.0633
 3212SOL    HW210536   3.610   0.227   3.051 -0.7405  0.6316 -1.6101
 3213SOL     OW10537   3.876   6.888   0.108  0.6095  0.1151  0.0737
 3213SOL    HW110538   3.974   6.870   0.106  0.6459  0.2788  0.2786
 3213SOL    HW210539   3.832   6.850   0.026  0.4034 -2.4673  1.2954
 3214SOL     OW10540   5.155   6.999   3.007 -0.1938 -0.0487 -0.5776
 3214SOL    HW110541   5.142   7.091   2.970  1.9655  0.1316 -1.0180
 3214SOL    HW210542   5.178   7.004   3.104  2.7019  0.1806 -1.1783
 3215SOL     OW10543   1.499   3.239   3.798 -0.1036  0.1926  0.7027
 3215SOL    HW110544   1.432   3.185   3.849 -0.1567  0.4119  0.8662
 3215SOL    HW210545   1.560   3.178   3.748  0.9362 -0.0706  2.2546
 3216SOL     OW10546   4.887   3.707   0.890 -0.1637 -0.4175 -0.0091
 3216SOL    HW110547   4.983   3.687   0.905  0.0618  1.0842  0.7367
 3216SOL    HW210548   4.869   3.713   0.792  0.6135 -0.1876 -0.1423
 3217SOL     OW10549   5.960   6.810   3.019 -0.0792  0.6268  0.0289
 3217SOL    HW110550   6.037   6.837   2.962 -0.4855  1.8790  0.0275
 3217SOL    HW210551   5.978   6.721   3.060  2.7677  2.1749  2.4988
 3218SOL     OW10552   4.904   0.329   3.296  0.5337  0.1651 -0.0049
 3218SOL    HW110553   4.861   0.414   3.326 -0.3988 -1.2728  3.1871
 3218SOL    HW210554   4.853   0.292   3.218  0.6331  2.1736 -1.1013
 3219SOL     OW10555   5.804   0.399   4.195 -0.2125  0.3313  0.2691
 3219SOL    HW110556   5.844   0.377   4.283 -3.2013 -2.1692  1.2045
 3219SOL    HW210557   5.750   0.483   4.202 -0.0576  0.3944  0.6848
 3220SOL     OW10558   1.052   4.466   0.006 -0.3530  0.8415  0.2424
 3220SOL    HW110559   1.076   4.401   0.078  0.5139  0.7414 -0.1279
 3220SOL    HW210560   1.135   4.498  -0.039 -0.7372  2.3582  0.5479
 3221SOL     OW10561   2.491   0.756   2.531 -0.0143 -0.1643  0.4247
 3221SOL    HW110562   2.538   0.837   2.566  1.4869 -2.0342  3.0611
 3221SOL    HW210563   2.491   0.759   2.431  0.7788  2.5988  0.4199
 3222SOL     OW10564   3.126   1.853   2.130  0.5154 -0.4532 -0.4336
 3222SOL    HW110565   3.076   1.917   2.072  0.7114 -1.1224 -1.3585
 3222SOL    HW210566   3.207   1.819   2.081  1.0158 -0.5844  0.4492
 3223SOL     OW10567   2.428   5.330   0.953 -0.6139 -1.2047 -0.2276
 3223SOL    HW110568   2.390   5.262   0.890 -0.2309 -0.3576 -1.3987
 3223SOL    HW210569   2.527   5.330   0.947 -0.5479 -1.3966  0.6979
 3224SOL     OW10570   6.256   3.266   3.726  0.1565 -0.3174 -0.5973
 3224SOL    HW110571   6.264   3.358   3.687 -1.7096  0.0426 -0.2334
 3224SOL    HW210572   6.211   3.205   3.660  1.5463 -1.0497 -0.9075
 3225SOL     OW10573   3.135   2.562   6.401 -0.1951 -0.4781 -0.5261
 3225SOL    HW110574   3.125   2.595   6.307  1.2012  0.7051 -0.2865
 3225SOL    HW210575   3.044   2.547   6.441 -0.8492  1.1047 -1.3350
 3226SOL     OW10576   6.649   0.621   5.898  0.6982  0.2877 -0.1377
 3226SOL    HW110577   6.620   0.607   5.992 -1.9259  0.9474 -0.7776
 3226SOL    HW210578   6.695   0.538   5.864 -1.0339 -1.1078  0.7865
 3227SOL     OW10579   3.985   5.611   4.202 -0.1814  0.1233 -0.4222
 3227SOL    HW110580   4.026   5.520   4.209 -0.6288 -0.4705 -3.8586
 3227SOL    HW210581   3.938   5.633   4.288  1.2267 -2.1643  1.0641
 3228SOL     OW10582   3.193   1.469   6.441 -0.4392 -0.0001 -0.0589
 3228SOL    HW110583   3.239   1.387   6.406  1.1922  0.8935 -0.1368
 3228SOL    HW210584   3.155   1.521   6.364 -1.1300 -0.4641 -0.0420
 3229SOL     OW10585   1.698   1.526   1.418  0.1931  0.1331  0.6774
 3229SOL    HW110586   1.654   1.462   1.481 -0.1767 -0.9586 -0.6506
 3229SOL    HW210587   1.730   1.477   1.337  1.0818  1.4298  0.2052
 3230SOL     OW10588   4.084   1.331   5.185 -0.1267  0.2355 -0.0104
 3230SOL    HW110589   4.019   1.396   5.144 -0.1462  0.8766  0.9942
 3230SOL    HW210590   4.131   1.281   5.113 -3.5530 -2.1417 -0.8465
 3231SOL     OW10591   0.559   0.627   3.545  0.0220 -0.5810  0.0213
 3231SOL    HW110592   0.567   0.570   3.626  0.9946 -2.5353 -1.3838
 3231SOL    HW210593   0.492   0.587   3.482 -0.2367  0.5499 -0.4476
 3232SOL     OW10594   1.564   5.111   4.548  0.7175 -0.2373 -0.0304
 3232SOL    HW110595   1.586   5.111   4.451  0.4054 -1.3824 -0.1188
 3232SOL    HW210596   1.465   5.096   4.560  0.8598 -0.8278  0.4713
 3233SOL     OW10597   6.776   6.639   6.101 -0.2491  0.4868 -0.2939
 3233SOL    HW110598   6.713   6.592   6.039 -0.5816 -1.3496  1.3494
 3233SOL    HW210599   6.843   6.574   6.137 -0.3013  1.3780  1.5433
 3234SOL     OW10600   2.325   1.516   1.873 -0.4437 -0.3637 -0.7184
 3234SOL    HW110601   2.254   1.448   1.858 -0.5142 -0.3059 -0.6500
 3234SOL    HW210602   2.296   1.578   1.946 -0.5319 -0.0523 -1.0139
 3235SOL     OW10603   1.103   6.338   3.613 -0.6133 -0.4409  0.7967
 3235SOL    HW110604   1.111   6.238   3.618 -0.3223 -0.4982 -0.5964
 3235SOL    HW210605   1.189   6.380   3.643 -0.6055 -0.6084  1.0139
 3236SOL     OW10606   3.607   3.449   0.110  0.7111 -0.4573 -0.3764
 3236SOL    HW110607   3.665   3.368   0.098  0.6367 -0.5241 -0.2953
 3236SOL    HW210608   3.567   3.447   0.202  1.0857 -0.0791 -0.2070
 3237SOL     OW10609   6.116   2.235   4.597  0.0149  0.2894 -0.0589
 3237SOL    HW110610   6.188   2.291   4.557  1.3244 -0.8168  0.6663
 3237SOL    HW210611   6.145   2.203   4.688 -0.6922 -1.5158 -0.4207
 3238SOL     OW10612   0.723   5.117   2.447 -0.2065 -0.0472 -0.5210
 3238SOL    HW110613   0.818   5.110   2.477 -0.7588  0.1016  1.4340
 3238SOL    HW210614   0.720   5.141   2.350  1.7248 -1.9931 -1.1618
 3239SOL     OW10615   6.276   6.477   4.561 -0.1055  0.3430  0.1137
 3239SOL    HW110616   6.286   6.522   4.472  0.4027  0.2565  0.1204
 3239SOL    HW210617   6.331   6.526   4.629  1.6905 -1.1151 -0.1879
 3240SOL     OW10618   2.490   1.883   6.912  0.1686  0.3815  0.0753
 3240SOL    HW110619   2.471   1.980   6.927 -1.4696 -0.2104  2.2652
 3240SOL    HW210620   2.575   1.858   6.959  2.2979  1.2720 -2.9514
 3241SOL     OW10621   0.063   2.506   5.061  0.3586 -0.3947  0.1155
 3241SOL    HW110622   0.060   2.527   4.963 -1.1030  0.5151  0.3292
 3241SOL    HW210623   0.114   2.577   5.109 -1.5022  0.8417  0.3679
 3242SOL     OW10624   4.433   4.462   3.105 -0.5072  0.3918  0.1912
 3242SOL    HW110625   4.424   4.464   3.204 -1.8308  1.2724  0.0799
 3242SOL    HW210626   4.374   4.531   3.064  0.4928  0.4877 -1.1955
 3243SOL     OW10627   5.504   5.141   5.068  0.7552  0.4006 -0.2186
 3243SOL    HW110628   5.444   5.090   5.007  1.2662 -0.3824 -0.0777
 3243SOL    HW210629   5.449   5.195   5.132  0.1724 -0.6827  0.2288
 3244SOL     OW10630   0.137   1.953   1.401  0.1038 -0.4510  0.2525
 3244SOL    HW110631   0.189   1.871   1.425 -1.1456 -1.3138  0.0793
 3244SOL    HW210632   0.165   1.984   1.310  1.4746  0.0796  0.8225
 3245SOL     OW10633   4.550   6.340   6.478 -0.4064 -0.5482 -0.3109
 3245SOL    HW110634   4.588   6.255   6.440  0.5121 -0.4048  0.2362
 3245SOL    HW210635   4.455   6.325   6.505 -0.1752 -1.4913  0.0249
 3246SOL     OW10636   0.664   6.285   1.370 -0.0139 -0.0297  0.4057
 3246SOL    HW110637   0.672   6.290   1.270 -0.3826 -2.2883  0.2126
 3246SOL    HW210638   0.578   6.239   1.394 -0.3082  1.1811  1.7966
 3247SOL     OW10639   0.869   5.918   2.396 -0.1446 -1.2195 -0.3481
 3247SOL    HW110640   0.902   5.966   2.315  0.0699 -0.7647  0.0076
 3247SOL    HW210641   0.940   5.856   2.429  0.7941  0.5498  1.0529
 3248SOL     OW10642   5.967   1.197   2.615 -0.0814  0.3811  0.6862
 3248SOL    HW110643   6.018   1.112   2.627  1.1938  0.9832 -0.1875
 3248SOL    HW210644   5.886   1.196   2.673  0.9100 -0.6489  2.1366
 3249SOL     OW10645   2.929   3.587   3.429 -0.5473  0.0688  0.1009
 3249SOL    HW110646   3.013   3.634   3.456  0.3378 -0.8950 -0.8821
 3249SOL    HW210647   2.890   3.540   3.508 -0.5096  1.0155  0.6987
 3250SOL     OW10648   5.020   4.969   1.967  0.6238 -0.0406 -0.7632
 3250SOL    HW110649   4.945   4.908   1.995 -1.0430  2.3727  0.4419
 3250SOL    HW210650   5.087   4.976   2.042 -0.1612  0.9633 -0.1193
 3251SOL     OW10651   2.952   1.569   3.536  0.4610 -0.0967 -0.0671
 3251SOL    HW110652   2.955   1.636   3.462  0.9326 -0.9368 -0.8273
 3251SOL    HW210653   2.879   1.593   3.600  1.1977  1.6281  0.1664
 3252SOL     OW10654   0.156   0.429   1.954 -0.1809 -0.2146 -0.0383
 3252SOL    HW110655   0.172   0.331   1.968  0.7221 -0.2727 -1.3239
 3252SOL    HW210656   0.122   0.444   1.862  2.5674  0.9125 -0.9740
 3253SOL     OW10657   5.813   4.392   6.365 -0.1269 -0.0403 -0.3119
 3253SOL    HW110658   5.875   4.399   6.287 -0.5312  1.1963 -0.5519
 3253SOL    HW210659   5.722   4.423   6.338 -0.7491 -1.3609  0.1656
 3254SOL     OW10660   6.914   0.522   2.178 -0.1688  0.3200 -0.3701
 3254SOL    HW110661   6.856   0.571   2.243  0.4866 -1.0703  1.3351
 3254SOL    HW210662   7.002   0.567   2.171  0.1269 -0.1084  0.5272
 3255SOL     OW10663   4.402   6.573   1.470 -0.1230  0.2964 -0.4449
 3255SOL    HW110664   4.332   6.530   1.527 -0.5743  3.4216  1.5664
 3255SOL    HW210665   4.491   6.531   1.490 -0.8414 -1.2027 -0.2778
 3256SOL     OW10666   4.729   4.116   2.389  0.5428  0.4113  0.2910
 3256SOL    HW110667   4.772   4.028   2.406  1.1028  0.8675  1.3802
 3256SOL    HW210668   4.649   4.126   2.449  0.6701  0.7581  0.4097
 3257SOL     OW10669   1.416   3.604   5.071 -0.2494  0.3061  0.3037
 3257SOL    HW110670   1.320   3.596   5.096 -0.5702  1.0288 -0.6542
 3257SOL    HW210671   1.468   3.531   5.115 -1.5163 -1.1775 -0.5712
 3258SOL     OW10672   3.338   5.930   3.705 -0.2410  0.4676  0.2158
 3258SOL    HW110673   3.373   5.890   3.620 -0.4112  1.6473 -0.4308
 3258SOL    HW210674   3.250   5.974   3.687 -1.0548 -0.6366  1.3664
 3259SOL     OW10675   6.106   2.828   3.023  0.7962 -0.0383 -0.3641
 3259SOL    HW110676   6.050   2.882   2.960  2.5435  0.9385 -1.1452
 3259SOL    HW210677   6.148   2.889   3.090  1.4138 -0.6624 -0.1782
 3260SOL     OW10678   0.101   3.291   4.576 -0.2721  0.0310 -0.3590
 3260SOL    HW110679   0.097   3.196   4.546 -0.6040  0.0528 -0.3939
 3260SOL    HW210680   0.097   3.351   4.496 -2.0709  0.1082 -0.2580
 3261SOL     OW10681   4.816   6.972   3.304 -0.5180 -0.2539  0.1796
 3261SOL    HW110682   4.859   7.018   3.226 -0.8699 -2.7399 -1.6043
 3261SOL    HW210683   4.734   7.023   3.331 -1.4130 -0.2224 -2.2874
 3262SOL     OW10684   2.999   2.229   4.313  0.2541  0.0556  0.0120
 3262SOL    HW110685   2.904   2.219   4.284  0.6237  1.2172 -1.7512
 3262SOL    HW210686   3.004   2.290   4.392 -0.5265 -0.7009  0.6563
 3263SOL     OW10687   6.619   1.373   2.370  0.1066 -0.5891  0.4768
 3263SOL    HW110688   6.560   1.299   2.402  0.2099  0.2389  2.7968
 3263SOL    HW210689   6.603   1.389   2.273  0.5391 -4.0214 -0.2855
 3264SOL     OW10690   6.454   3.880   2.159  0.3365  0.7092  0.2782
 3264SOL    HW110691   6.547   3.877   2.122  0.5031 -0.4494  0.7670
 3264SOL    HW210692   6.393   3.829   2.099  0.3541 -0.0285  0.8776
 3265SOL     OW10693   5.508   4.665   4.677 -0.2832 -0.1487  0.1744
 3265SOL    HW110694   5.565   4.720   4.617 -0.2107  1.0806  1.3094
 3265SOL    HW210695   5.521   4.695   4.772 -2.0375 -0.5220  0.5735
 3266SOL     OW10696   5.018   4.110   6.771 -0.7944  0.1978 -0.0271
 3266SOL    HW110697   5.078   4.094   6.849 -1.0238  0.5104  0.2130
 3266SOL    HW210698   4.948   4.038   6.767 -0.1285 -0.4443 -0.5860
 3267SOL     OW10699   3.776   6.785   0.594  0.2171  0.3715  0.3519
 3267SOL    HW110700   3.869   6.821   0.604  0.8330 -1.4195  1.4845
 3267SOL    HW210701   3.720   6.852   0.546  2.1221  1.4370 -0.5008
 3268SOL     OW10702   5.847   4.483   3.058  0.2451  0.4485  0.8477
 3268SOL    HW110703   5.802   4.546   2.995  1.0931 -2.4089 -2.9189
 3268SOL    HW210704   5.946   4.489   3.045  0.4265 -0.3932  1.7604
 3269SOL     OW10705   1.322   5.480   1.809 -0.4641  0.4180 -0.1266
 3269SOL    HW110706   1.377   5.490   1.726 -0.6143 -1.7735 -0.5642
 3269SOL    HW210707   1.382   5.471   1.889 -0.3005  1.7417 -0.0904
 3270SOL     OW10708   0.756   2.801   5.575  0.3225  0.1927  0.1143
 3270SOL    HW110709   0.798   2.740   5.508  0.1328  1.7899 -1.5438
 3270SOL    HW210710   0.791   2.894   5.561 -4.1796  1.8431 -1.9594
 3271SOL     OW10711   0.867   1.245   1.387  0.3981  0.4698 -0.5531
 3271SOL    HW110712   0.862   1.256   1.486  0.0549  0.2060 -0.5410
 3271SOL    HW210713   0.909   1.157   1.365  0.6192  0.5964 -0.6438
 3272SOL     OW10714   3.758   4.618   0.772  0.3966 -0.1752  0.0762
 3272SOL    HW110715   3.820   4.540   0.772  0.9157  0.2086 -1.3509
 3272SOL    HW210716   3.707   4.620   0.858  1.1070 -1.4868  0.5551
 3273SOL     OW10717   3.164   4.018   4.145  0.1760  0.1855 -0.5231
 3273SOL    HW110718   3.103   4.029   4.223  0.3063 -2.5449  0.0636
 3273SOL    HW210719   3.257   4.042   4.173  0.2265 -0.7992  0.2052
 3274SOL     OW10720   6.074   6.583   0.929 -0.2813 -0.3726 -0.1817
 3274SOL    HW110721   6.134   6.642   0.874 -1.1772  0.9792  0.2497
 3274SOL    HW210722   6.077   6.611   1.024 -0.8679 -0.9224  0.0078
 3275SOL     OW10723   0.150   6.859   1.565  0.0920  0.1950 -0.2986
 3275SOL    HW110724   0.232   6.821   1.522  0.9531  2.0479 -0.3957
 3275SOL    HW210725   0.146   6.829   1.661 -0.3306 -1.6780 -0.8668
 3276SOL     OW10726   0.746   0.578   6.340 -0.9576  0.0437 -0.4818
 3276SOL    HW110727   0.843   0.558   6.351 -0.7322  1.6878  0.9403
 3276SOL    HW210728   0.733   0.636   6.260 -0.5868  0.9371  0.0984
 3277SOL     OW10729   5.137   1.906   2.322  0.2761 -0.1440 -0.1716
 3277SOL    HW110730   5.169   1.922   2.415 -0.1576 -1.6897  0.2790
 3277SOL    HW210731   5.062   1.840   2.324  0.4019 -0.3627 -1.6302
 3278SOL     OW10732   5.358   1.305   0.596  0.3282 -0.5738  0.7161
 3278SOL    HW110733   5.453   1.311   0.567  0.1030  1.2631  0.2521
 3278SOL    HW210734   5.312   1.392   0.578 -1.6880 -1.7092  0.1065
 3279SOL     OW10735   3.107   1.020   1.445  0.2736  0.6487  0.5538
 3279SOL    HW110736   3.168   0.942   1.430  3.1529  2.5061  1.7794
 3279SOL    HW210737   3.050   1.003   1.525 -0.1812 -0.7196 -0.0255
 3280SOL     OW10738   6.918   3.082   4.325 -0.0983  0.2164 -0.1693
 3280SOL    HW110739   7.005   3.108   4.367 -0.6484  0.1594  1.0501
 3280SOL    HW210740   6.866   3.164   4.304  0.2706  0.2540 -0.9760
 3281SOL     OW10741   5.785   3.045   0.668 -0.0766  0.0029 -0.0507
 3281SOL    HW110742   5.733   3.121   0.628 -0.8627  0.1635  1.2220
 3281SOL    HW210743   5.881   3.054   0.642 -0.4390  0.4958 -1.2847
 3282SOL     OW10744   1.539   4.423   3.574  0.0175 -0.3799 -0.7260
 3282SOL    HW110745   1.638   4.413   3.584  0.0534 -0.8740 -1.5059
 3282SOL    HW210746   1.517   4.520   3.560  0.5713 -0.4564 -2.3282
 3283SOL     OW10747   3.409   3.069   0.680 -0.1203  0.4304  0.0349
 3283SOL    HW110748   3.349   3.005   0.727  0.7252  0.1057  0.7048
 3283SOL    HW210749   3.402   3.159   0.722  0.6910  0.1233  0.8606
 3284SOL     OW10750   4.180   0.229   3.603 -0.0960 -0.1250  0.4257
 3284SOL    HW110751   4.230   0.297   3.550 -0.6104  0.0799  0.1912
 3284SOL    HW210752   4.081   0.244   3.591 -0.2173 -0.9053  0.3681
 3285SOL     OW10753   4.289   2.110   4.719  0.1701 -0.2603 -0.1266
 3285SOL    HW110754   4.311   2.171   4.644  0.4732 -0.0755  0.1105
 3285SOL    HW210755   4.222   2.154   4.780  2.6446  1.1618  1.7500
 3286SOL     OW10756   1.776   3.076   1.918  0.6399  0.1817 -0.1743
 3286SOL    HW110757   1.803   3.163   1.878 -3.6659  1.7594 -0.2165
 3286SOL    HW210758   1.706   3.033   1.861 -0.6108 -0.9908  2.0956
 3287SOL     OW10759   3.014   6.937   0.300  0.3093  0.4272 -0.2772
 3287SOL    HW110760   2.999   6.904   0.394 -0.4551 -1.1614 -0.9193
 3287SOL    HW210761   2.953   7.014   0.282  0.1274  0.4449  0.3844
 3288SOL     OW10762   3.317   6.203   0.709 -0.0027  0.3666  0.7545
 3288SOL    HW110763   3.322   6.300   0.730  0.0084  0.4062  0.5708
 3288SOL    HW210764   3.229   6.167   0.739  0.1283  0.3578  1.1315
 3289SOL     OW10765   3.665   1.099   5.689 -0.8515  0.0370  0.4426
 3289SOL    HW110766   3.741   1.153   5.653 -0.7470 -1.4036 -1.6686
 3289SOL    HW210767   3.700   1.024   5.745 -0.7640 -0.1606  0.1229
 3290SOL     OW10768   0.501   0.001   0.719  0.2689 -0.3461  0.2117
 3290SOL    HW110769   0.528   0.040   0.631  0.7354 -1.0312  0.0319
 3290SOL    HW210770   0.576  -0.056   0.753  0.1549  0.0420  1.1358
 3291SOL     OW10771   0.831   0.015   4.128  0.2523 -0.3001  0.6364
 3291SOL    HW110772   0.741   0.030   4.169 -1.9342 -0.7403 -3.4474
 3291SOL    HW210773   0.866   0.101   4.091  0.7061 -0.4539  0.6967
 3292SOL     OW10774   6.879   2.532   5.954 -0.0813  0.2279 -0.3849
 3292SOL    HW110775   6.920   2.455   6.004  0.3284  1.0971  0.6476
 3292SOL    HW210776   6.929   2.545   5.868  1.9847  1.3448  0.8921
 3293SOL     OW10777   6.425   5.442   4.101  0.1160 -0.4702 -0.0783
 3293SOL    HW110778   6.373   5.475   4.023 -1.7799  0.7667  1.5999
 3293SOL    HW210779   6.523   5.451   4.083 -0.1828 -2.0624 -3.0098
 3294SOL     OW10780   5.826   3.456   4.169 -0.5543 -0.0100 -0.0261
 3294SOL    HW110781   5.736   3.496   4.189  0.1344  2.1988 -1.0140
 3294SOL    HW210782   5.886   3.469   4.248 -0.6501 -0.1328  0.0694
 3295SOL     OW10783   1.061   3.132   3.866  1.0014 -0.1646  0.5979
 3295SOL    HW110784   1.025   3.041   3.844 -1.2655  0.5692  1.0250
 3295SOL    HW210785   1.028   3.160   3.956 -1.1112  2.3435 -0.8165
 3296SOL     OW10786   1.674   0.970   6.145 -0.2695 -0.3607 -0.0044
 3296SOL    HW110787   1.644   1.029   6.220  1.7217  0.4775  0.1953
 3296SOL    HW210788   1.701   1.026   6.067 -0.7757 -1.1524 -0.7636
 3297SOL     OW10789   2.969   2.058   5.706 -0.1832  0.4967  0.0356
 3297SOL    HW110790   3.065   2.085   5.695 -0.1153  0.0613 -0.4743
 3297SOL    HW210791   2.958   2.008   5.792  0.2395 -0.2873 -0.3587
 3298SOL     OW10792   4.520   5.292   5.053 -0.1058 -0.0653 -0.2766
 3298SOL    HW110793   4.467   5.213   5.084 -2.3353  1.7552  0.8122
 3298SOL    HW210794   4.614   5.283   5.086 -0.7115 -1.4822  1.2060
 3299SOL     OW10795   2.040   0.119   3.059 -0.0692 -0.4214 -0.3433
 3299SOL    HW110796   2.080   0.070   2.982 -2.6506 -1.7573 -0.9171
 3299SOL    HW210797   1.941   0.115   3.054 -0.3373  1.2286  1.9748
 3300SOL     OW10798   3.055   6.665   4.127 -0.4159 -0.5026  0.3432
 3300SOL    HW110799   2.996   6.585   4.119 -0.8981 -0.0454 -1.1794
 3300SOL    HW210800   3.002   6.742   4.162 -0.2443 -0.5527  0.7178
 3301SOL     OW10801   1.442   2.035   4.007 -0.0680  0.3325 -0.0552
 3301SOL    HW110802   1.432   2.025   3.908 -1.3348  0.5357  0.0405
 3301SOL    HW210803   1.479   1.950   4.045  1.4952  0.6321 -0.8191
 3302SOL     OW10804   0.367   5.870   4.488 -0.2543  0.2360  0.2705
 3302SOL    HW110805   0.392   5.801   4.420  0.3768  0.0189  0.7162
 3302SOL    HW210806   0.446   5.891   4.545 -0.3224  1.6268 -0.1199
 3303SOL     OW10807   4.206   3.583   6.084 -0.2784  0.2795  0.2235
 3303SOL    HW110808   4.121   3.606   6.131 -0.8530 -0.2121 -0.5472
 3303SOL    HW210809   4.195   3.497   6.035  0.2269  0.8630 -0.9666
 3304SOL     OW10810   2.107   5.408   3.187 -0.6014  0.0628 -0.3486
 3304SOL    HW110811   2.080   5.458   3.105  0.4018  3.3062  1.1176
 3304SOL    HW210812   2.204   5.425   3.206 -1.1066  0.5596  2.2053
 3305SOL     OW10813   3.276   2.817   0.761 -0.1154 -0.7056 -0.3775
 3305SOL    HW110814   3.292   2.799   0.664  0.8288  0.8153 -0.5379
 3305SOL    HW210815   3.179   2.839   0.775  0.0254  0.5914 -1.2632
 3306SOL     OW10816   1.654   6.121   6.469 -0.8206 -0.3658  0.9113
 3306SOL    HW110817   1.618   6.081   6.385  0.6365 -0.7325  0.4282
 3306SOL    HW210818   1.606   6.206   6.489 -1.7007 -0.6646  0.1267
 3307SOL     OW10819   1.747   0.072   0.023  0.5659 -0.6242 -0.0782
 3307SOL    HW110820   1.737  -0.021  -0.013  1.5742 -0.3690 -1.0503
 3307SOL    HW210821   1.703   0.137  -0.039 -0.4502 -0.4503  0.7745
 3308SOL     OW10822   4.154   3.119   6.614  0.0201  0.6240 -0.0816
 3308SOL    HW110823   4.211   3.040   6.592  1.3391  1.1419  1.2991
 3308SOL    HW210824   4.200   3.176   6.683 -1.5886  1.7779  0.1086
 3309SOL     OW10825   4.619   2.674   2.766  0.0662 -0.0996 -0.0575
 3309SOL    HW110826   4.705   2.662   2.816  0.7527 -1.1809 -1.4134
 3309SOL    HW210827   4.557   2.599   2.788 -0.0566  0.0257  0.0202
 3310SOL     OW10828   0.414   5.368   5.892 -0.0989 -0.2640  0.3783
 3310SOL    HW110829   0.464   5.301   5.837  0.8566 -0.4222  1.4010
 3310SOL    HW210830   0.444   5.362   5.988  0.1205  1.7035  0.4790
 3311SOL     OW10831   2.908   1.983   1.623  0.0210 -0.2910 -0.5325
 3311SOL    HW110832   2.859   1.968   1.709 -1.2054  0.4241 -1.0735
 3311SOL    HW210833   2.854   2.044   1.565  2.0384  1.3680 -0.7688
 3312SOL     OW10834   4.880   3.433   6.252 -0.4822  0.5648 -0.4797
 3312SOL    HW110835   4.951   3.401   6.189  0.4227  0.8927  0.3442
 3312SOL    HW210836   4.920   3.451   6.342 -1.6738  0.4706  0.0995
 3313SOL     OW10837   2.212   0.332   3.116 -0.0510 -0.0389  0.2621
 3313SOL    HW110838   2.287   0.315   3.053  0.3091 -0.6380  0.8311
 3313SOL    HW210839   2.152   0.251   3.119 -0.7764  0.4680 -0.2571
 3314SOL     OW10840   3.678   5.576   2.431  0.4866  0.1860 -0.2694
 3314SOL    HW110841   3.694   5.496   2.374  0.0868 -1.7061  2.1232
 3314SOL    HW210842   3.590   5.617   2.406 -0.8735 -2.0793  0.5236
 3315SOL     OW10843   6.972   5.598   4.214 -0.4237 -0.6940 -0.6196
 3315SOL    HW110844   6.997   5.503   4.230 -1.5033 -0.8969  0.0040
 3315SOL    HW210845   7.016   5.656   4.283 -2.7414 -1.2296  1.4602
 3316SOL     OW10846   5.176   1.118   0.522  0.1541 -0.2577 -0.5200
 3316SOL    HW110847   5.224   1.203   0.544  1.8331 -0.9604 -1.2830
 3316SOL    HW210848   5.132   1.126   0.432  0.9157 -0.4087 -0.9175
 3317SOL     OW10849   5.066   1.903   3.061  0.4367  0.0032  0.1541
 3317SOL    HW110850   5.045   1.922   3.157  1.5759 -0.0785  0.4323
 3317SOL    HW210851   5.126   1.823   3.055  2.0177  1.1755 -0.4640
 3318SOL     OW10852   3.653   0.636   0.596 -0.4358  0.0776  0.3981
 3318SOL    HW110853   3.611   0.725   0.574  1.6630  0.7842 -0.9822
 3318SOL    HW210854   3.745   0.632   0.558  0.1644 -2.0708  1.8931
 3319SOL     OW10855   5.983   4.493   4.603  0.3103  0.4706  0.3597
 3319SOL    HW110856   6.020   4.509   4.695 -0.8448 -2.4208  1.4536
 3319SOL    HW210857   5.883   4.501   4.605  0.3271  1.3090 -0.9100
 3320SOL     OW10858   6.425   6.101   6.583  0.4923  0.0926  0.9437
 3320SOL    HW110859   6.361   6.030   6.613 -0.1736  0.3826  0.2452
 3320SOL    HW210860   6.457   6.153   6.663 -0.8323  0.5035  1.2386
 3321SOL     OW10861   5.787   0.666   0.620  0.2090  0.9791  0.1582
 3321SOL    HW110862   5.770   0.624   0.530  1.3068  2.0202 -0.5684
 3321SOL    HW210863   5.883   0.692   0.627 -0.1105  1.9776  1.1751
 3322SOL     OW10864   0.278   3.195   0.157  0.9542  0.5519 -0.0860
 3322SOL    HW110865   0.264   3.109   0.206  1.2012 -0.1466 -1.2047
 3322SOL    HW210866   0.224   3.267   0.200 -2.1283 -0.9225 -1.1706
 3323SOL     OW10867   2.406   1.825   0.699  0.1767  0.8638  0.0283
 3323SOL    HW110868   2.400   1.911   0.750 -1.2531  2.9978 -3.4083
 3323SOL    HW210869   2.328   1.767   0.720 -0.4621  1.7601  0.1493
 3324SOL     OW10870   0.156   0.684   5.451 -0.5355 -0.0468 -0.6053
 3324SOL    HW110871   0.230   0.657   5.389  0.7158 -2.0240  1.5796
 3324SOL    HW210872   0.126   0.604   5.503 -3.3951  0.9771 -0.4957
 3325SOL     OW10873   1.867   4.559   6.252 -0.3897  0.2127  0.0772
 3325SOL    HW110874   1.960   4.588   6.275 -0.5971 -0.0687  1.3744
 3325SOL    HW210875   1.816   4.543   6.337 -1.1725 -1.0791 -0.6081
 3326SOL     OW10876   2.813   1.340   3.412  0.3764 -0.3776 -0.0607
 3326SOL    HW110877   2.910   1.325   3.392  0.1240  0.0796 -1.7140
 3326SOL    HW210878   2.797   1.437   3.430  0.0858 -0.3219 -0.6181
 3327SOL     OW10879   0.274   3.500   6.176  0.3318  0.0479  0.5845
 3327SOL    HW110880   0.245   3.405   6.178  1.0548 -0.1615  1.3794
 3327SOL    HW210881   0.331   3.520   6.255  0.4366  1.0663  0.2717
 3328SOL     OW10882   4.531   2.850   6.581  0.8460  0.5801  0.2001
 3328SOL    HW110883   4.612   2.827   6.528  0.6406  0.5620 -0.1086
 3328SOL    HW210884   4.529   2.949   6.597  0.8508  0.6008  0.0761
 3329SOL     OW10885   5.184   6.706   5.414  0.0377 -0.3397 -0.3587
 3329SOL    HW110886   5.125   6.625   5.408  0.0587 -0.5300  1.4248
 3329SOL    HW210887   5.129   6.786   5.437  0.1925 -0.0859 -0.8571
 3330SOL     OW10888   1.794   3.281   2.915 -0.2279 -0.5756  0.2155
 3330SOL    HW110889   1.694   3.273   2.907 -0.1045 -2.7618  0.0884
 3330SOL    HW210890   1.831   3.195   2.952  1.6845 -0.1271 -0.5484
 3331SOL     OW10891   1.864   2.887   1.494  0.0294 -0.0010 -0.0735
 3331SOL    HW110892   1.815   2.964   1.535  1.6301  0.9361  0.2084
 3331SOL    HW210893   1.813   2.853   1.415 -1.8916 -0.2227  1.2048
 3332SOL     OW10894   5.588   5.046   1.153 -0.4206  0.2724  0.3222
 3332SOL    HW110895   5.529   4.965   1.167  1.5358 -1.6045 -1.5119
 3332SOL    HW210896   5.676   5.030   1.196  0.7187  0.4621 -1.8251
 3333SOL     OW10897   2.778   5.671   0.023 -0.0615  0.2393 -0.7756
 3333SOL    HW110898   2.824   5.749  -0.020 -0.2529  0.9275  0.2242
 3333SOL    HW210899   2.815   5.586  -0.014 -0.7469  0.7817 -2.8518
 3334SOL     OW10900   1.908   5.779   0.804 -0.0982 -0.1762  0.2464
 3334SOL    HW110901   1.915   5.879   0.802 -0.1034 -0.0929  2.3703
 3334SOL    HW210902   1.837   5.749   0.740 -0.6093  1.2384  0.1148
 3335SOL     OW10903   0.291   3.517   3.794 -0.5036 -0.4376  0.3313
 3335SOL    HW110904   0.243   3.459   3.860  0.1181 -1.3683 -0.0199
 3335SOL    HW210905   0.333   3.460   3.723  0.3012  0.4238  0.0921
 3336SOL     OW10906   2.131   6.262   5.964 -0.2886  0.2061  0.0187
 3336SOL    HW110907   2.174   6.197   6.027 -0.2766  1.7325  1.6734
 3336SOL    HW210908   2.061   6.215   5.910  1.8214 -1.8344 -1.1244
 3337SOL     OW10909   2.905   4.433   0.235 -0.7056  0.0940 -0.4546
 3337SOL    HW110910   2.861   4.357   0.185 -1.5345  0.3888 -0.1957
 3337SOL    HW210911   2.855   4.518   0.217 -3.1457 -0.2781  3.3822
 3338SOL     OW10912   7.021   3.132   6.605  0.1105 -0.3040 -0.3731
 3338SOL    HW110913   7.107   3.183   6.596  0.5838 -1.0719 -0.2944
 3338SOL    HW210914   6.986   3.108   6.515  0.1084 -0.2105 -0.3976
 3339SOL     OW10915   6.444   6.037   6.141 -0.5521 -0.2079 -0.0260
 3339SOL    HW110916   6.532   5.998   6.113 -0.3866 -0.2601  0.5521
 3339SOL    HW210917   6.388   5.965   6.182 -0.9051 -0.1956 -0.4772
 3340SOL     OW10918   2.719   5.163   3.227  0.4941  0.0630  0.2548
 3340SOL    HW110919   2.755   5.119   3.310  0.1032  0.2940  0.5518
 3340SOL    HW210920   2.781   5.147   3.151  0.5966 -0.5968  0.4726
 3341SOL     OW10921   6.047   0.602   0.272  0.1589  0.5554  0.3528
 3341SOL    HW110922   6.036   0.514   0.226 -0.4315  1.1105 -0.6120
 3341SOL    HW210923   5.959   0.633   0.308  0.1487  1.2291 -0.2282
 3342SOL     OW10924   3.131   0.827   3.350 -0.6560 -0.2320  0.4181
 3342SOL    HW110925   3.210   0.874   3.311 -0.3569 -0.5861  0.5878
 3342SOL    HW210926   3.155   0.791   3.440 -0.8966 -0.6588  0.3136
 3343SOL     OW10927   5.941   1.943   1.409  0.3478  0.1494 -0.4675
 3343SOL    HW110928   6.000   1.917   1.333  0.9025 -2.1723  0.6804
 3343SOL    HW210929   5.860   1.884   1.410 -0.2093  0.9018  0.1212
 3344SOL     OW10930   0.191   2.810   5.457  0.1719 -0.0210  0.9192
 3344SOL    HW110931   0.198   2.864   5.373 -2.3021  1.5819  1.6513
 3344SOL    HW210932   0.203   2.870   5.536 -1.7602 -0.6781  1.7455
 3345SOL     OW10933   1.782   4.229   0.009  0.3441  0.3178 -0.1000
 3345SOL    HW110934   1.806   4.311  -0.044 -0.6661 -0.0052 -1.1002
 3345SOL    HW210935   1.798   4.148  -0.048  1.1004 -0.1798  0.7960
 3346SOL     OW10936   0.783   5.529   2.410 -0.0088  0.7559  0.2418
 3346SOL    HW110937   0.843   5.608   2.418  1.0309 -0.1124  1.2403
 3346SOL    HW210938   0.701   5.544   2.466  0.0977  1.2124  0.2768
 3347SOL     OW10939   6.074   3.596   4.822 -0.7389 -0.3782 -0.3709
 3347SOL    HW110940   6.079   3.664   4.749  0.4044  0.0799  0.1073
 3347SOL    HW210941   5.993   3.612   4.878 -1.0210 -0.0458 -0.8686
 3348SOL     OW10942   4.113   3.523   2.773  0.0809 -0.5010 -0.9326
 3348SOL    HW110943   4.051   3.459   2.727  1.1387 -0.7722 -2.0384
 3348SOL    HW210944   4.174   3.564   2.705 -0.2677  1.3482 -0.1704
 3349SOL     OW10945   6.182   4.120   6.083 -0.2907 -0.5445  0.2554
 3349SOL    HW110946   6.162   4.214   6.056  1.4321 -0.1462  0.2614
 3349SOL    HW210947   6.207   4.117   6.179  1.8161 -0.6208 -0.2490
 3350SOL     OW10948   1.688   1.717   6.258  0.2031  0.1447 -0.1797
 3350SOL    HW110949   1.781   1.752   6.266  0.5713 -1.0683  1.4134
 3350SOL    HW210950   1.625   1.774   6.310 -0.1379  1.4379 -1.9082
 3351SOL     OW10951   4.918   3.091   3.236  0.2917  0.5957  0.4410
 3351SOL    HW110952   4.827   3.122   3.208  0.8647  2.6773  0.7232
 3351SOL    HW210953   4.987   3.139   3.181  1.2493 -2.1307 -0.9224
 3352SOL     OW10954   0.492   3.914   6.865  0.0586  0.4690  0.2042
 3352SOL    HW110955   0.565   3.961   6.817  1.1797 -0.2064  1.1985
 3352SOL    HW210956   0.486   3.820   6.833  0.8662 -0.0115  1.3819
 3353SOL     OW10957   2.526   6.776   6.078 -0.1008 -0.5475 -0.1909
 3353SOL    HW110958   2.584   6.694   6.082 -0.9990 -1.3534 -2.2359
 3353SOL    HW210959   2.481   6.789   6.166  2.5324 -0.3188  1.2467
 3354SOL     OW10960   0.426   1.482   3.237 -0.4481 -0.1765  0.2962
 3354SOL    HW110961   0.390   1.555   3.295  0.4313 -0.0975  0.7494
 3354SOL    HW210962   0.477   1.417   3.293 -0.7551 -0.8489 -0.1909
 3355SOL     OW10963   5.895   0.972   3.069  0.1454  0.1058 -0.0408
 3355SOL    HW110964   5.993   0.966   3.054  0.6213 -1.3139  2.9199
 3355SOL    HW210965   5.848   0.905   3.010  0.8194  1.2690 -1.9644
 3356SOL     OW10966   1.583   4.032   6.117 -0.4478 -0.4354  0.0981
 3356SOL    HW110967   1.598   4.129   6.135 -0.3898 -0.4064 -0.1048
 3356SOL    HW210968   1.670   3.983   6.126 -0.5149 -0.5010  0.4018
 3357SOL     OW10969   1.480   4.027   3.002 -0.6682  0.3510 -0.1161
 3357SOL    HW110970   1.578   4.026   3.022 -0.5814 -0.2169 -0.5329
 3357SOL    HW210971   1.439   4.111   3.036  0.2426  1.3048 -1.3109
 3358SOL     OW10972   6.127   4.702   3.350 -0.0499  0.3711 -0.5800
 3358SOL    HW110973   6.080   4.626   3.395  0.8235 -0.5118 -1.1390
 3358SOL    HW210974   6.170   4.760   3.419 -1.8052  1.1212 -0.0586
 3359SOL     OW10975   1.329   0.437   1.765  0.2139  0.0829  0.4536
 3359SOL    HW110976   1.354   0.508   1.700 -0.2671  1.4538  1.6991
 3359SOL    HW210977   1.244   0.392   1.736  1.1253 -0.8109 -0.9330
 3360SOL     OW10978   1.604   0.039   6.089 -0.0885 -0.2173  0.3702
 3360SOL    HW110979   1.510   0.004   6.091  0.0493 -0.5716  1.7869
 3360SOL    HW210980   1.668  -0.037   6.090  0.2307  0.0339 -0.2105
 3361SOL     OW10981   5.601   6.651   4.261 -0.5285 -0.7722  0.8154
 3361SOL    HW110982   5.691   6.662   4.302  0.3945 -0.0195 -1.2868
 3361SOL    HW210983   5.588   6.556   4.232 -1.2892 -1.3727  2.9343
 3362SOL     OW10984   3.025   1.236   2.697  0.1214 -0.1593 -0.6082
 3362SOL    HW110985   3.037   1.142   2.666  0.7508 -1.3198  2.6839
 3362SOL    HW210986   3.090   1.255   2.770 -1.8199  1.8598  0.7272
 3363SOL     OW10987   0.073   6.970   0.267 -0.1337  0.0959  0.0470
 3363SOL    HW110988   0.074   7.021   0.353  1.3980  0.1258  0.0325
 3363SOL    HW210989  -0.021   6.964   0.233 -1.2164 -2.1758  3.0136
 3364SOL     OW10990   1.338   0.250   6.808 -0.0181  0.4898 -0.5222
 3364SOL    HW110991   1.376   0.259   6.900  1.3214  0.0257 -1.0081
 3364SOL    HW210992   1.411   0.260   6.741 -0.7022 -0.7290 -1.4859
 3365SOL     OW10993   4.281   1.238   5.007 -0.3195  0.2729  0.2082
 3365SOL    HW110994   4.341   1.319   5.004  0.3663 -0.2428 -0.3448
 3365SOL    HW210995   4.332   1.160   5.044  0.1281 -0.7811 -2.4036
 3366SOL     OW10996   5.593   0.568   5.613  0.2912  0.4956 -0.6840
 3366SOL    HW110997   5.535   0.493   5.643  0.5210  0.3448 -0.6158
 3366SOL    HW210998   5.578   0.648   5.672 -1.9899  1.4367 -2.3930
 3367SOL     OW10999   6.373   1.151   1.926 -0.1144  0.5883 -0.1921
 3367SOL    HW111000   6.413   1.196   1.846 -1.5071  2.1959 -0.0588
 3367SOL    HW211001   6.350   1.057   1.903 -0.4408  1.0053 -1.6906
 3368SOL     OW11002   6.811   6.429   0.083 -0.0660  0.0756  0.1300
 3368SOL    HW111003   6.781   6.519   0.051 -0.8003 -0.4699 -0.7725
 3368SOL    HW211004   6.734   6.365   0.079  0.9087 -1.0906 -1.1654
 3369SOL     OW11005   3.555   6.577   6.777 -0.9575 -0.4607  0.2498
 3369SOL    HW111006   3.479   6.602   6.838 -1.0701  0.6833 -0.3182
 3369SOL    HW211007   3.596   6.492   6.808 -0.4815  0.4837  2.4097
 3370SOL     OW11008   2.697   6.689   3.350 -0.3146 -0.4397 -0.0119
 3370SOL    HW111009   2.681   6.787   3.340 -0.0238 -0.2395  1.3262
 3370SOL    HW211010   2.630   6.639   3.295  0.4763  0.4978 -1.9272
 3371SOL     OW11011   0.492   6.616   2.386  0.0274  0.3402  0.1995
 3371SOL    HW111012   0.414   6.555   2.402 -0.0053  0.1046 -0.7971
 3371SOL    HW211013   0.495   6.685   2.458 -2.2267  1.5020 -0.6993
 3372SOL     OW11014   0.313   1.056   1.167  0.0616  0.1340 -0.8634
 3372SOL    HW111015   0.312   1.061   1.068  1.5482 -0.2786 -0.9230
 3372SOL    HW211016   0.256   1.129   1.205  1.0517  1.5488 -1.9979
 3373SOL     OW11017   6.304   3.061   5.948  0.0892 -0.0823 -0.4997
 3373SOL    HW111018   6.373   3.113   5.898 -0.7333 -1.2956 -3.0876
 3373SOL    HW211019   6.324   2.963   5.941 -0.4396 -0.3148  1.0226
 3374SOL     OW11020   3.822   6.074   4.998  0.6859  0.0020  0.0700
 3374SOL    HW111021   3.873   6.158   5.017  0.5751  0.5032 -1.6538
 3374SOL    HW211022   3.753   6.093   4.928 -0.3395 -1.1976  0.7255
 3375SOL     OW11023   5.161   5.550   6.883 -0.4107  0.1188  0.1016
 3375SOL    HW111024   5.186   5.557   6.787  1.1959 -0.2215  0.4552
 3375SOL    HW211025   5.239   5.514   6.935 -0.7843  1.5046  1.7324
 3376SOL     OW11026   4.124   3.612   2.226  0.5298 -0.1329  0.1817
 3376SOL    HW111027   4.064   3.532   2.231  1.4189 -0.9278 -1.2423
 3376SOL    HW211028   4.187   3.602   2.150 -0.5958  2.8440 -1.3135
 3377SOL     OW11029   3.871   6.029   3.037  0.2008 -0.0126  0.4818
 3377SOL    HW111030   3.901   6.107   2.981 -0.8530 -0.7008 -1.1017
 3377SOL    HW211031   3.854   5.950   2.978 -1.3067 -0.6738  1.7396
 3378SOL     OW11032   1.202   1.908   0.204 -0.2127 -0.3351  0.0255
 3378SOL    HW111033   1.104   1.924   0.192 -0.1642  0.2320  0.3318
 3378SOL    HW211034   1.220   1.879   0.298  0.0761  1.0499  0.4191
 3379SOL     OW11035   1.207   5.255   0.222  0.1762 -0.3030  0.1177
 3379SOL    HW111036   1.298   5.287   0.197  0.4576 -0.7951  0.5061
 3379SOL    HW211037   1.138   5.308   0.171  0.6902 -0.3460 -0.6379
 3380SOL     OW11038   1.251   4.240   4.667  0.3870 -0.7064  0.3375
 3380SOL    HW111039   1.279   4.149   4.699  1.2739 -1.5738 -2.5372
 3380SOL    HW211040   1.323   4.306   4.686  0.5697 -1.0315  0.7813
 3381SOL     OW11041   3.801   0.626   5.930  0.1850 -0.1254  0.0247
 3381SOL    HW111042   3.851   0.559   5.874 -0.4860 -1.0802  0.5439
 3381SOL    HW211043   3.864   0.670   5.993  0.5196 -0.7692  0.1502
 3382SOL     OW11044   0.389   6.531   0.822  0.1179 -0.5404 -0.1005
 3382SOL    HW111045   0.320   6.461   0.806 -2.1646  1.7857 -1.1506
 3382SOL    HW211046   0.366   6.583   0.904  0.6973  0.1770 -0.3772
 3383SOL     OW11047   6.867   5.473   3.620 -0.2003 -0.0707  0.4027
 3383SOL    HW111048   6.928   5.530   3.564 -1.0179 -1.7463 -2.3915
 3383SOL    HW211049   6.910   5.385   3.638 -1.6321 -1.2257 -1.5001
 3384SOL     OW11050   3.598   3.609   4.689 -0.0745 -0.1868  0.2286
 3384SOL    HW111051   3.681   3.640   4.643 -0.5784 -0.1294 -0.6638
 3384SOL    HW211052   3.524   3.674   4.672 -0.2679 -0.1442  1.1663
 3385SOL     OW11053   6.403   5.202   2.625  0.3212  0.0325  0.0151
 3385SOL    HW111054   6.461   5.237   2.551  0.3054  1.9559  0.8461
 3385SOL    HW211055   6.458   5.143   2.684  1.1415  0.8615  0.1120
 3386SOL     OW11056   6.944   3.809   4.685 -0.0993  0.4174  0.0175
 3386SOL    HW111057   6.910   3.807   4.779 -1.7506  0.2604 -0.5537
 3386SOL    HW211058   6.991   3.724   4.665 -1.3811 -0.3432  0.1458
 3387SOL     OW11059   3.529   2.006   4.053 -0.5009  0.2226 -0.3464
 3387SOL    HW111060   3.573   1.931   4.101 -0.7426  0.3625  0.1028
 3387SOL    HW211061   3.485   2.067   4.119  2.8606  2.9156 -0.3027
 3388SOL     OW11062   5.181   3.154   1.298  0.2615 -0.0509  0.0609
 3388SOL    HW111063   5.219   3.188   1.384  1.5649  1.4676 -1.0526
 3388SOL    HW211064   5.192   3.224   1.226 -2.4642 -0.5269 -0.9421
 3389SOL     OW11065   5.647   2.525   1.175 -0.7636  0.2131  0.0619
 3389SOL    HW111066   5.578   2.567   1.235 -2.5383 -2.4328  0.0534
 3389SOL    HW211067   5.600   2.475   1.102  1.3102  0.9488 -1.8687
 3390SOL     OW11068   4.805   2.863   6.152 -0.1945 -0.1116  0.0696
 3390SOL    HW111069   4.785   2.808   6.070  1.4111  0.3965 -0.7016
 3390SOL    HW211070   4.777   2.958   6.136  0.2837  0.0259  0.0280
 3391SOL     OW11071   2.617   0.772   3.801  0.1531  0.1286 -0.6766
 3391SOL    HW111072   2.703   0.739   3.842  0.4464 -1.5827 -2.5297
 3391SOL    HW211073   2.636   0.811   3.711 -0.6356  2.7754  0.2040
 3392SOL     OW11074   3.760   5.942   3.307 -0.5727  0.0936  0.7936
 3392SOL    HW111075   3.712   6.005   3.367  1.9233  0.5925  2.4259
 3392SOL    HW211076   3.802   5.993   3.232  0.5514  0.2907  1.5227
 3393SOL     OW11077   1.411   0.313   6.053 -0.9671 -0.4235 -0.2372
 3393SOL    HW111078   1.336   0.348   6.110  0.8025 -0.8671  2.5580
 3393SOL    HW211079   1.498   0.324   6.102  0.6430 -1.3396 -2.7044
 3394SOL     OW11080   6.081   2.183   2.019  0.3446  0.1289  0.0716
 3394SOL    HW111081   6.158   2.145   1.967 -1.2822 -0.6560 -1.9359
 3394SOL    HW211082   5.995   2.157   1.974 -1.0254  2.9513  0.8410
 3395SOL     OW11083   0.846   1.722   6.053  0.5472  0.5248  0.2050
 3395SOL    HW111084   0.762   1.776   6.048  0.4004  0.3677  0.8611
 3395SOL    HW211085   0.829   1.640   6.107  0.8916  0.0451 -0.4048
 3396SOL     OW11086   6.645   4.347   4.138 -0.2375  0.2062  0.5146
 3396SOL    HW111087   6.633   4.347   4.238  0.1217  0.6608  0.5614
 3396SOL    HW211088   6.651   4.442   4.106 -4.2208  0.3433 -0.4050
 3397SOL     OW11089   4.288   5.868   3.320  0.0772 -0.5806 -0.2442
 3397SOL    HW111090   4.239   5.783   3.344  0.2756 -0.4828  0.5271
 3397SOL    HW211091   4.290   5.928   3.400 -1.5686  0.9114 -1.2487
 3398SOL     OW11092   0.670   6.601   4.836 -0.2216 -0.4410  0.2508
 3398SOL    HW111093   0.615   6.535   4.888  0.9352  0.7319  3.1251
 3398SOL    HW211094   0.610   6.672   4.799 -1.0635 -1.2628 -0.0099
 3399SOL     OW11095   2.738   4.698   3.951 -0.3454 -0.2144  0.3405
 3399SOL    HW111096   2.748   4.697   4.051  0.1354 -0.2223  0.2960
 3399SOL    HW211097   2.744   4.791   3.918 -1.8302 -0.0655  0.4362
 3400SOL     OW11098   3.865   1.591   0.161 -0.0511 -0.2768  0.2715
 3400SOL    HW111099   3.901   1.618   0.250  1.0278 -0.9313  0.0480
 3400SOL    HW211100   3.790   1.653   0.136  0.8746  1.1162  0.7738
 3401SOL     OW11101   6.002   5.742   0.778  0.0032 -0.2018 -0.2926
 3401SOL    HW111102   5.981   5.830   0.736  0.0042 -1.2739 -2.7606
 3401SOL    HW211103   6.100   5.724   0.772  0.4542  0.7788  2.7758
 3402SOL     OW11104   5.002   5.042   0.332 -0.2300 -0.0741  0.1021
 3402SOL    HW111105   5.073   4.998   0.277  0.0511 -0.0622  0.4505
 3402SOL    HW211106   4.912   5.015   0.298 -0.0599 -0.6524  0.1067
 3403SOL     OW11107   4.194   0.212   3.892 -0.0258 -0.2996  0.0263
 3403SOL    HW111108   4.169   0.255   3.805  0.0649  1.7433  0.9542
 3403SOL    HW211109   4.293   0.213   3.903 -0.0940  0.9423  0.8148
 3404SOL     OW11110   2.779   1.280   1.189  0.6366  0.4196 -0.3125
 3404SOL    HW111111   2.740   1.238   1.271  1.0899  1.6995  0.5890
 3404SOL    HW211112   2.811   1.372   1.211  0.4055  0.9403 -2.0316
 3405SOL     OW11113   5.809   3.829   6.778 -1.0763 -0.0726  0.1369
 3405SOL    HW111114   5.826   3.772   6.697 -1.3782 -0.2793  0.2210
 3405SOL    HW211115   5.843   3.921   6.760 -1.0385 -0.1453 -0.1853
 3406SOL     OW11116   5.161   3.164   2.425  0.2841 -0.0662  0.4585
 3406SOL    HW111117   5.156   3.263   2.433  1.3465 -0.0883  1.7743
 3406SOL    HW211118   5.069   3.126   2.433 -0.1557  0.8044 -0.2575
 3407SOL     OW11119   2.207   5.808   2.836 -0.5159  0.3708  0.2250
 3407SOL    HW111120   2.288   5.866   2.824  1.0407 -1.7555  0.0109
 3407SOL    HW211121   2.230   5.729   2.893 -2.2817 -0.6261 -0.3626
 3408SOL     OW11122   4.975   4.291   3.421  0.1141  0.3299 -0.3431
 3408SOL    HW111123   5.036   4.214   3.439  0.0340  0.2035 -0.6167
 3408SOL    HW211124   4.889   4.258   3.383 -0.2764  0.4742  0.3954
 3409SOL     OW11125   5.179   6.755   0.267  0.6722  0.5260 -0.2221
 3409SOL    HW111126   5.268   6.748   0.312  1.6268  2.4902 -1.6378
 3409SOL    HW211127   5.174   6.842   0.217 -1.6055 -0.0612 -1.1374
 3410SOL     OW11128   6.098   5.225   6.728  0.0198  0.3651  0.2127
 3410SOL    HW111129   6.185   5.242   6.774  0.1713  0.1843 -0.0026
 3410SOL    HW211130   6.061   5.137   6.758  0.3129  0.0608 -0.2962
 3411SOL     OW11131   5.503   3.405   2.299  0.2689  0.1215  0.3471
 3411SOL    HW111132   5.470   3.413   2.205  0.5108  2.9844  0.4088
 3411SOL    HW211133   5.507   3.309   2.325 -1.7425 -0.6622 -1.8525
 3412SOL     OW11134   3.292   3.525   0.580 -0.1098  0.5981 -0.3742
 3412SOL    HW111135   3.337   3.602   0.534  1.4247  0.2182  0.4451
 3412SOL    HW211136   3.330   3.439   0.547 -1.3012  0.1806 -0.7413
 3413SOL     OW11137   3.176   0.957   2.010  0.5020  0.2551  0.0984
 3413SOL    HW111138   3.218   1.046   1.991  0.6807 -0.0083 -0.8003
 3413SOL    HW211139   3.178   0.939   2.109  1.6654  0.6643  0.1630
 3414SOL     OW11140   2.831   1.422   4.626 -0.1445 -0.4632  0.1715
 3414SOL    HW111141   2.747   1.437   4.678  0.0952  0.1171  0.3960
 3414SOL    HW211142   2.816   1.450   4.531  0.5073  2.0285  0.7281
 3415SOL     OW11143   0.024   0.094   3.730 -0.2447 -0.2956  0.2615
 3415SOL    HW111144   0.014   0.033   3.651 -0.2263 -0.6001  0.4938
 3415SOL    HW211145   0.054   0.042   3.809 -0.7801 -0.0843  0.6087
 3416SOL     OW11146   0.826   4.686   5.385  0.3072  0.9181  0.0615
 3416SOL    HW111147   0.879   4.703   5.468  1.8792  2.0726 -1.1168
 3416SOL    HW211148   0.847   4.756   5.317 -0.1967 -0.5504 -1.6871
 3417SOL     OW11149   0.302   6.201   1.319  0.0047 -0.2345 -0.1825
 3417SOL    HW111150   0.383   6.154   1.355  0.8643 -0.0470 -1.8014
 3417SOL    HW211151   0.219   6.153   1.350  0.6244  0.1724  2.3721
 3418SOL     OW11152   4.188   0.295   0.154 -0.0669  0.3730  0.2714
 3418SOL    HW111153   4.256   0.229   0.122 -1.8064 -0.4263 -2.0474
 3418SOL    HW211154   4.101   0.279   0.108 -1.3885  2.4790  1.8163
 3419SOL     OW11155   4.907   3.921   0.299 -0.2909 -0.2802  0.0280
 3419SOL    HW111156   4.823   3.867   0.300 -1.1837  1.0468  1.3266
 3419SOL    HW211157   4.964   3.896   0.376  0.2397 -0.7603 -0.5138
 3420SOL     OW11158   3.396   1.637   4.905 -0.5596  0.2827  0.3748
 3420SOL    HW111159   3.345   1.575   4.845 -0.0060 -0.1835  0.3709
 3420SOL    HW211160   3.445   1.704   4.850  0.7862 -0.7799  0.1969
 3421SOL     OW11161   4.681   4.939   6.774  0.2061 -0.3937 -0.2667
 3421SOL    HW111162   4.673   5.037   6.756 -0.8411 -0.4042  0.0797
 3421SOL    HW211163   4.777   4.913   6.770  0.3567  0.2967 -2.1329
 3422SOL     OW11164   1.885   1.492   3.177 -0.6945  0.1165 -0.2114
 3422SOL    HW111165   1.886   1.501   3.078 -1.5193 -0.5933 -0.2918
 3422SOL    HW211166   1.869   1.396   3.202  0.2752  0.1435  0.6126
 3423SOL     OW11167   2.941   1.010   0.484  0.4025  0.0104  0.3945
 3423SOL    HW111168   2.876   0.934   0.491  0.4284 -0.2076 -1.3883
 3423SOL    HW211169   2.904   1.090   0.531 -1.8304  0.2971 -1.6715
 3424SOL     OW11170   5.172   0.535   3.833 -0.0203 -0.0771 -0.3333
 3424SOL    HW111171   5.174   0.521   3.734 -0.9848  1.2579 -0.5645
 3424SOL    HW211172   5.107   0.472   3.874  0.4661 -0.7147 -0.5203
 3425SOL     OW11173   4.823   4.803   1.539 -0.2107  0.1422 -0.9891
 3425SOL    HW111174   4.892   4.816   1.467  0.1302  0.3175 -0.6343
 3425SOL    HW211175   4.823   4.708   1.568  0.3886  0.2951 -0.4830
 3426SOL     OW11176   5.180   5.942   6.754  0.3058 -0.2366  0.3161
 3426SOL    HW111177   5.168   5.898   6.843  1.8352 -3.1965 -0.8060
 3426SOL    HW211178   5.143   5.884   6.682  2.3836  0.2634 -1.2767
 3427SOL     OW11179   0.389   1.733   5.599 -0.6174 -0.2617  0.2256
 3427SOL    HW111180   0.368   1.727   5.501  0.2406 -1.7520  0.1009
 3427SOL    HW211181   0.488   1.739   5.611 -0.7954  1.7963  0.9633
 3428SOL     OW11182   3.987   5.188   3.704 -0.0021  0.1180  0.2476
 3428SOL    HW111183   3.951   5.251   3.635  0.2000 -0.0452 -0.0097
 3428SOL    HW211184   4.027   5.108   3.659  0.2172  0.0526  0.5507
 3429SOL     OW11185   6.452   4.402   0.073 -0.1043 -0.2096 -0.6289
 3429SOL    HW111186   6.517   4.376   0.144  1.4420  2.6160 -0.8932
 3429SOL    HW211187   6.391   4.474   0.107 -0.3617  0.0951 -1.6826
 3430SOL     OW11188   3.872   0.060   0.471  0.1370 -0.5470 -0.3264
 3430SOL    HW111189   3.952   0.119   0.465 -0.8752  0.7946 -1.6540
 3430SOL    HW211190   3.812   0.077   0.392 -1.2508 -1.7980  0.3958
 3431SOL     OW11191   6.984   6.405   1.277  0.3894 -0.4823 -0.0562
 3431SOL    HW111192   6.984   6.317   1.229  0.8617 -0.2095 -0.5659
 3431SOL    HW211193   6.899   6.453   1.258  0.7911 -0.1443 -1.0652
 3432SOL     OW11194   4.104   0.366   5.222  0.0157 -0.4017  0.7381
 3432SOL    HW111195   4.202   0.379   5.209 -0.5297  2.7592 -1.4269
 3432SOL    HW211196   4.078   0.403   5.311  0.4535  1.5583  0.1011
 3433SOL     OW11197   3.350   0.284   4.563  0.6078  0.0395 -0.0667
 3433SOL    HW111198   3.368   0.356   4.496  1.9317 -0.4092 -0.2094
 3433SOL    HW211199   3.427   0.221   4.567  0.3571 -0.2180  1.5572
 3434SOL     OW11200   3.968   0.121   1.868  0.3294 -0.7154  0.1913
 3434SOL    HW111201   4.008   0.157   1.784 -1.2296  0.5690 -0.0390
 3434SOL    HW211202   3.980   0.188   1.941 -1.1404 -0.4213  0.1806
 3435SOL     OW11203   5.889   1.784   1.103  0.0654  0.3937 -0.3354
 3435SOL    HW111204   5.978   1.810   1.139 -0.2284  0.3070  0.4926
 3435SOL    HW211205   5.864   1.694   1.138  0.5443 -0.5070 -2.2147
 3436SOL     OW11206   4.302   4.794   5.036  0.2037 -0.3521 -0.0928
 3436SOL    HW111207   4.347   4.706   5.023  1.6552 -0.0196  2.0988
 3436SOL    HW211208   4.222   4.782   5.095 -0.1676 -0.3251 -0.5835
 3437SOL     OW11209   3.415   6.302   5.034 -0.0192 -0.2601  0.4361
 3437SOL    HW111210   3.498   6.277   5.084  0.1853  2.3173  1.5346
 3437SOL    HW211211   3.409   6.402   5.027 -2.4431 -0.4173 -0.6804
 3438SOL     OW11212   6.570   4.168   0.463  0.2107 -0.1211 -0.5412
 3438SOL    HW111213   6.637   4.156   0.536  0.7298 -0.6535 -1.0957
 3438SOL    HW211214   6.554   4.081   0.416 -0.7906  0.0191 -0.4973
 3439SOL     OW11215   2.899   4.833   4.200 -0.4107 -0.6105  0.0395
 3439SOL    HW111216   2.877   4.909   4.139  0.4565  0.2758  0.7711
 3439SOL    HW211217   2.815   4.787   4.229 -0.7997 -1.4625 -2.2774
 3440SOL     OW11218   5.058   4.132   4.604  0.1111 -0.2752 -0.0724
 3440SOL    HW111219   5.012   4.170   4.685 -2.5246  1.2035 -2.0995
 3440SOL    HW211220   5.127   4.196   4.572  0.5234 -0.4522  0.4312
 3441SOL     OW11221   1.313   0.906   4.458 -0.0644  0.3613  0.4040
 3441SOL    HW111222   1.363   0.898   4.372  0.7886 -0.3770  0.9476
 3441SOL    HW211223   1.262   0.822   4.475  0.2634  0.2614  0.9129
 3442SOL     OW11224   1.607   5.438   2.720  0.3645 -0.1982  0.0229
 3442SOL    HW111225   1.653   5.517   2.678  0.0309 -1.1818 -2.3205
 3442SOL    HW211226   1.676   5.380   2.765  0.8282  0.5526  0.3050
 3443SOL     OW11227   5.555   6.654   4.607  0.3438 -0.0417 -0.0310
 3443SOL    HW111228   5.641   6.684   4.566  0.3561  1.3567  0.9863
 3443SOL    HW211229   5.554   6.554   4.611  1.1417 -0.1487 -1.6792
 3444SOL     OW11230   4.151   4.607   5.983  0.2857 -0.2117  0.6232
 3444SOL    HW111231   4.183   4.646   6.069  0.7927  0.9097 -0.0392
 3444SOL    HW211232   4.112   4.680   5.927 -1.1374 -1.1272  0.3816
 3445SOL     OW11233   0.200   2.951   5.248  0.1704 -0.3802  0.3408
 3445SOL    HW111234   0.226   3.045   5.227 -2.2446  0.6152  1.4608
 3445SOL    HW211235   0.181   2.902   5.163 -0.8667  0.8842 -0.1761
 3446SOL     OW11236   2.314   5.962   3.154 -0.9049  0.4312 -0.0205
 3446SOL    HW111237   2.354   6.036   3.101  0.7547  0.3467  1.0446
 3446SOL    HW211238   2.346   5.874   3.119  0.4712  0.3843  1.2457
 3447SOL     OW11239   5.114   6.416   5.138 -0.4645  0.2916 -0.2065
 3447SOL    HW111240   5.140   6.323   5.165 -1.6295 -0.4298 -1.4519
 3447SOL    HW211241   5.187   6.456   5.082 -0.2121 -0.0978 -0.1597
 3448SOL     OW11242   3.436   1.127   0.813 -0.1777  0.3984  0.2944
 3448SOL    HW111243   3.343   1.165   0.811 -0.3118  0.1083  0.8168
 3448SOL    HW211244   3.471   1.120   0.720 -0.0453  2.0612  0.1881
 3449SOL     OW11245   1.505   5.374   3.170 -0.2520 -0.0599  0.6520
 3449SOL    HW111246   1.405   5.373   3.170 -0.2829 -2.5250  1.4628
 3449SOL    HW211247   1.537   5.429   3.247 -1.0248 -0.5197  1.3218
 3450SOL     OW11248   0.947   1.567   2.061  0.0777 -0.2447 -0.0939
 3450SOL    HW111249   0.881   1.636   2.090  0.8327  1.4492 -2.1232
 3450SOL    HW211250   0.908   1.511   1.988  0.7027  0.5142 -1.0367
 3451SOL     OW11251   0.876   4.301   5.691  0.6903  0.0027  0.6805
 3451SOL    HW111252   0.913   4.334   5.778  0.9093  2.0278 -0.1479
 3451SOL    HW211253   0.803   4.361   5.661  1.5077  0.0982 -1.1967
 3452SOL     OW11254   5.916   3.406   0.333 -0.5439  0.1027 -0.3605
 3452SOL    HW111255   5.874   3.428   0.420 -0.2123 -1.7191  0.3186
 3452SOL    HW211256   5.975   3.481   0.304  1.4727 -0.2625  2.3627
 3453SOL     OW11257   5.817   4.227   5.077 -0.5649  0.0784 -0.2528
 3453SOL    HW111258   5.794   4.289   5.001 -0.7694  2.2794  1.5035
 3453SOL    HW211259   5.745   4.229   5.145  1.0147  0.6636  1.4874
 3454SOL     OW11260   1.377   6.810   6.395 -0.0309 -0.1884  0.5363
 3454SOL    HW111261   1.334   6.775   6.312 -0.5387 -0.1479  0.7827
 3454SOL    HW211262   1.396   6.908   6.385  1.9238 -0.6061 -0.3844
 3455SOL     OW11263   1.613   2.149   4.745  0.2896 -0.3571 -0.6038
 3455SOL    HW111264   1.678   2.101   4.686  0.6447 -0.6480  0.0093
 3455SOL    HW211265   1.548   2.199   4.689  1.8829  1.0994 -1.2598
 3456SOL     OW11266   5.773   6.894   2.476  0.0225  0.7411 -0.5225
 3456SOL    HW111267   5.732   6.860   2.391 -0.1883 -0.1457 -0.0781
 3456SOL    HW211268   5.868   6.920   2.459  0.7944 -1.7614 -0.5427
 3457SOL     OW11269   3.149   5.915   2.503  0.1951  0.0314 -0.1435
 3457SOL    HW111270   3.200   5.985   2.552  0.2939  0.8095 -1.3053
 3457SOL    HW211271   3.111   5.849   2.568  2.7035 -0.6316  0.7803
 3458SOL     OW11272   4.629   6.930   1.709 -0.5427 -0.1699  0.1116
 3458SOL    HW111273   4.573   6.889   1.637 -0.1546 -1.4750  0.5054
 3458SOL    HW211274   4.575   6.941   1.792 -0.8543  0.8616 -0.2184
 3459SOL     OW11275   5.729   6.131   5.040  0.6756 -0.4540  0.2454
 3459SOL    HW111276   5.678   6.045   5.039  0.0241 -0.0733  0.1193
 3459SOL    HW211277   5.668   6.206   5.065  1.0515  0.0880 -0.4194
 3460SOL     OW11278   3.966   3.941   5.982 -0.1218  0.5008  0.0424
 3460SOL    HW111279   3.889   3.968   5.924 -0.2839 -0.7125 -0.3409
 3460SOL    HW211280   4.007   3.857   5.946  1.5894  1.2836  0.0575
 3461SOL     OW11281   5.475   4.826   1.871 -0.3153  0.2742  0.2167
 3461SOL    HW111282   5.547   4.877   1.918 -0.1064  0.1442  0.0391
 3461SOL    HW211283   5.397   4.885   1.855 -0.0069  0.5900 -0.1412
 3462SOL     OW11284   5.189   4.621   2.683  0.6156 -0.2592 -0.3188
 3462SOL    HW111285   5.225   4.552   2.747  0.3341 -0.9981 -0.9448
 3462SOL    HW211286   5.105   4.661   2.721  1.0880  0.1557  0.3070
 3463SOL     OW11287   2.436   2.170   1.017  0.0373 -0.3722  0.3300
 3463SOL    HW111288   2.371   2.144   1.089 -1.1808  3.2841  0.7255
 3463SOL    HW211289   2.529   2.148   1.047 -0.6806 -2.3322  1.3328
 3464SOL     OW11290   5.940   3.304   6.678 -0.5092 -0.5391  0.0541
 3464SOL    HW111291   5.852   3.327   6.637 -0.2697 -1.8934 -1.3187
 3464SOL    HW211292   5.927   3.233   6.747 -0.5999 -0.0494  0.5471
 3465SOL     OW11293   0.711   4.554   2.992 -0.2631  0.0382 -0.4569
 3465SOL    HW111294   0.677   4.490   2.924  0.4739  0.4287 -1.2203
 3465SOL    HW211295   0.806   4.532   3.014 -0.4564 -0.0158  0.3763
 3466SOL     OW11296   0.566   5.165   3.920 -0.1443 -0.1330  0.2827
 3466SOL    HW111297   0.534   5.224   3.994 -0.9845 -0.1148 -0.0853
 3466SOL    HW211298   0.533   5.072   3.935  2.0982 -0.8263  1.4644
 3467SOL     OW11299   3.682   1.308   1.159  0.0110  1.1063 -0.3232
 3467SOL    HW111300   3.624   1.354   1.227 -0.2663  0.6069 -0.2149
 3467SOL    HW211301   3.751   1.254   1.206 -0.6515  0.1587 -0.4207
 3468SOL     OW11302   2.423   2.587   0.720  0.1871 -0.1643 -0.2144
 3468SOL    HW111303   2.465   2.674   0.745 -0.2933 -0.1707  0.6537
 3468SOL    HW211304   2.328   2.603   0.690  0.2295 -0.3443 -0.4464
 3469SOL     OW11305   5.034   5.104   5.580 -0.3181  0.1641  0.0948
 3469SOL    HW111306   4.963   5.163   5.618 -0.7187  0.1130 -0.5584
 3469SOL    HW211307   5.056   5.031   5.645 -1.1516 -0.0481  0.1437
 3470SOL     OW11308   0.586   2.508   2.161  0.3477  0.1217  0.0178
 3470SOL    HW111309   0.517   2.483   2.093  0.4391 -2.3765  0.7523
 3470SOL    HW211310   0.661   2.557   2.116 -0.4920  0.2661 -1.2947
 3471SOL     OW11311   5.497   3.175   4.246  0.2835 -0.1639  0.7927
 3471SOL    HW111312   5.565   3.218   4.306  0.4654 -1.5642  1.6358
 3471SOL    HW211313   5.410   3.222   4.254  0.8984  1.0718  0.4127
 3472SOL     OW11314   3.917   1.325   4.008 -0.1455  0.3450  0.1296
 3472SOL    HW111315   4.010   1.315   3.974 -0.5017  0.2215 -0.8554
 3472SOL    HW211316   3.855   1.341   3.930 -0.7891  1.5587  0.8667
 3473SOL     OW11317   0.646   3.837   1.886  0.1827  0.4575  0.0869
 3473SOL    HW111318   0.581   3.826   1.811 -1.2006  1.4827  1.0900
 3473SOL    HW211319   0.715   3.765   1.880 -0.0206  0.3653 -2.0092
 3474SOL     OW11320   6.987   5.678   3.266 -0.0340  0.2386  0.2237
 3474SOL    HW111321   6.901   5.670   3.318 -1.2546 -1.0379 -1.8517
 3474SOL    HW211322   6.968   5.667   3.169  2.5037  0.0972 -0.3197
 3475SOL     OW11323   6.637   4.411   4.396  0.9649  0.1633 -0.3908
 3475SOL    HW111324   6.580   4.491   4.413  0.6176 -0.3747  1.1439
 3475SOL    HW211325   6.611   4.337   4.459  0.3171 -1.6890 -2.6810
 3476SOL     OW11326   1.587   1.350   6.046 -0.0341  0.0998 -0.5287
 3476SOL    HW111327   1.634   1.409   5.981  1.6744 -0.2535  0.3189
 3476SOL    HW211328   1.549   1.404   6.121  0.5979  0.2478 -0.3071
 3477SOL     OW11329   0.670   5.040   0.659 -0.0244 -0.3553 -0.2271
 3477SOL    HW111330   0.610   5.102   0.709  0.7977 -0.2416  0.6388
 3477SOL    HW211331   0.761   5.080   0.653 -0.2342 -0.0945 -2.3543
 3478SOL     OW11332   3.289   0.471   1.110  0.0953  0.0115  0.0431
 3478SOL    HW111333   3.339   0.549   1.073  1.4814 -0.5945  0.5626
 3478SOL    HW211334   3.215   0.445   1.048 -0.5441  1.8719 -0.0188
 3479SOL     OW11335   0.724   4.226   3.439  0.6477 -0.0277  0.1276
 3479SOL    HW111336   0.783   4.255   3.514  2.3793 -0.0825 -1.1365
 3479SOL    HW211337   0.780   4.204   3.359 -0.8949 -2.5148 -0.3977
 3480SOL     OW11338   1.636   5.227   0.706 -0.6642  0.2688 -0.0153
 3480SOL    HW111339   1.554   5.238   0.650 -0.7356  0.3357  0.1017
 3480SOL    HW211340   1.619   5.263   0.798 -0.0480  1.6193 -0.3972
 3481SOL     OW11341   5.790   0.371   5.544 -0.4607 -0.2062  0.0418
 3481SOL    HW111342   5.786   0.399   5.448 -1.5297  0.3258  0.2343
 3481SOL    HW211343   5.725   0.424   5.598  0.3334 -0.2929  1.1254
 3482SOL     OW11344   6.135   3.951   4.153 -0.4757  0.3026  0.1457
 3482SOL    HW111345   6.121   3.852   4.154 -0.9130  0.3647  0.0913
 3482SOL    HW211346   6.179   3.977   4.067 -0.3341  0.1531  0.1720
 3483SOL     OW11347   5.056   3.468   3.928  0.3868  0.1161  0.4625
 3483SOL    HW111348   5.007   3.394   3.882  0.5542 -0.9032  1.8255
 3483SOL    HW211349   5.131   3.428   3.981  0.0278  1.1888  1.8209
 3484SOL     OW11350   2.429   2.609   4.895  0.0138  0.0003 -0.7602
 3484SOL    HW111351   2.362   2.664   4.845  0.9731  1.3367 -0.6361
 3484SOL    HW211352   2.457   2.658   4.978  2.8434  0.6275 -1.9669
 3485SOL     OW11353   0.507   0.754   6.800 -0.0339 -0.4319  0.8682
 3485SOL    HW111354   0.479   0.680   6.862 -0.5616 -0.3476  0.7253
 3485SOL    HW211355   0.463   0.743   6.711  0.8444 -0.6395  0.4461
 3486SOL     OW11356   2.352   5.544   3.224  0.3077  0.5906 -0.2832
 3486SOL    HW111357   2.361   5.584   3.133  0.2091 -1.7058 -1.3834
 3486SOL    HW211358   2.436   5.496   3.249 -0.2105 -0.1533  0.1068
 3487SOL     OW11359   5.962   1.608   0.627  0.2364 -0.3684  0.3287
 3487SOL    HW111360   5.985   1.586   0.722  1.1053 -0.8201  0.0255
 3487SOL    HW211361   5.980   1.528   0.570  1.0826  0.3634 -0.4346
 3488SOL     OW11362   5.097   1.245   5.440  0.4080  0.0106  0.4256
 3488SOL    HW111363   5.061   1.269   5.531  0.2244  2.4119 -0.2020
 3488SOL    HW211364   5.183   1.295   5.425  0.5471 -0.5406 -0.6440
 3489SOL     OW11365   2.974   6.176   0.996 -0.1588 -0.3846 -0.2414
 3489SOL    HW111366   3.050   6.204   1.054 -1.2763 -0.8110  1.5245
 3489SOL    HW211367   3.006   6.109   0.928  1.6166  1.7236 -1.6177
 3490SOL     OW11368   4.338   3.099   5.944 -0.2267 -0.1401  0.5998
 3490SOL    HW111369   4.409   3.169   5.937  0.1230 -0.6964 -2.4960
 3490SOL    HW211370   4.380   3.010   5.961 -0.1645 -0.4032 -0.8197
 3491SOL     OW11371   3.894   4.339   0.209 -0.1339 -0.3215  0.1396
 3491SOL    HW111372   3.938   4.283   0.138 -0.6394 -0.8095  0.2009
 3491SOL    HW211373   3.944   4.425   0.219 -0.9692  0.4817 -1.9551
 3492SOL     OW11374   6.463   4.581   3.590 -0.0289  0.2426  0.3191
 3492SOL    HW111375   6.498   4.657   3.535  1.1712  1.1842  2.2582
 3492SOL    HW211376   6.364   4.586   3.595 -0.4929 -1.2371 -3.5688
 3493SOL     OW11377   6.918   3.033   5.305  0.4257 -0.4088 -0.4348
 3493SOL    HW111378   6.898   2.965   5.376 -0.3417  0.1222 -0.1254
 3493SOL    HW211379   6.871   3.007   5.220 -0.3964  0.0516 -0.1353
 3494SOL     OW11380   4.649   2.054   1.625  0.1389  0.1307 -0.1988
 3494SOL    HW111381   4.712   2.075   1.699  1.3224  0.3413 -1.2355
 3494SOL    HW211382   4.639   2.134   1.565 -2.5833  0.7549  0.9303
 3495SOL     OW11383   0.781   2.950   0.779 -0.1717  1.1784  0.2973
 3495SOL    HW111384   0.832   2.964   0.864 -0.1319  1.3327  0.2490
 3495SOL    HW211385   0.774   2.852   0.760  2.2272  1.1669 -0.9540
 3496SOL     OW11386   7.012   6.670   0.906 -0.3267 -0.6510  0.5039
 3496SOL    HW111387   6.923   6.626   0.895 -2.1691  1.7261  3.9017
 3496SOL    HW211388   7.076   6.605   0.946 -0.5690 -2.2675 -1.5573
 3497SOL     OW11389   3.081   0.933   2.676 -0.0771 -0.1732 -0.3538
 3497SOL    HW111390   3.001   0.924   2.617  1.0635  0.1181 -2.0273
 3497SOL    HW211391   3.164   0.937   2.619  1.0622  0.3613  1.2690
 3498SOL     OW11392   2.435   2.210   2.418  0.1630  0.2754 -0.4569
 3498SOL    HW111393   2.436   2.171   2.326 -1.7622 -1.9517  0.3606
 3498SOL    HW211394   2.350   2.262   2.431  0.5569  0.8144 -0.0167
 3499SOL     OW11395   6.797   4.104   5.712 -0.1136 -0.0248  0.1485
 3499SOL    HW111396   6.749   4.069   5.793 -0.9324  0.1332 -0.2641
 3499SOL    HW211397   6.764   4.057   5.631  2.1290 -1.6627  0.0672
 3500SOL     OW11398   2.282   0.571   3.467  0.1375 -0.6808  0.0644
 3500SOL    HW111399   2.258   0.560   3.564 -0.2063 -0.1881  0.0339
 3500SOL    HW211400   2.377   0.601   3.460 -0.5333  1.7304  0.3649
 3501SOL     OW11401   1.453   0.860   5.476  0.5308 -0.0387  0.2111
 3501SOL    HW111402   1.451   0.950   5.432  0.9619  0.1089  0.4849
 3501SOL    HW211403   1.548   0.831   5.487  0.3852 -1.2244 -1.2717
 3502SOL     OW11404   5.493   2.806   3.674 -0.4601  0.0624  0.3896
 3502SOL    HW111405   5.552   2.815   3.755 -0.2883 -0.0979  0.2810
 3502SOL    HW211406   5.532   2.739   3.611 -1.5851 -1.2724  1.0529
 3503SOL     OW11407   6.550   6.410   0.603  0.0316  0.4609  0.2015
 3503SOL    HW111408   6.565   6.339   0.535  1.8040  0.7011  0.2848
 3503SOL    HW211409   6.499   6.372   0.681 -0.8884 -0.1379 -0.6712
 3504SOL     OW11410   0.978   3.289   1.643  0.6883 -0.3322  0.3410
 3504SOL    HW111411   0.985   3.349   1.563  2.6014 -0.0242  0.6834
 3504SOL    HW211412   1.026   3.203   1.625 -0.9397 -1.2847  0.3199
 3505SOL     OW11413   6.007   5.032   5.688 -0.6211  0.6246 -0.3124
 3505SOL    HW111414   6.002   5.118   5.738  0.5502 -1.0083  2.9291
 3505SOL    HW211415   6.094   5.027   5.638  0.6168  0.3072  1.7530
 3506SOL     OW11416   4.930   4.280   5.690 -0.1765  0.1148  0.1892
 3506SOL    HW111417   4.864   4.286   5.616  0.0215 -1.0461 -0.0964
 3506SOL    HW211418   4.985   4.197   5.679 -0.3112 -0.2012  1.7779
 3507SOL     OW11419   2.267   6.933   1.144  0.6727  0.0215 -0.5760
 3507SOL    HW111420   2.285   6.934   1.242  1.1255  3.0605 -0.5883
 3507SOL    HW211421   2.343   6.887   1.097  0.0315 -2.2579  0.4622
 3508SOL     OW11422   3.581   3.336   5.426  0.7298  0.3995  0.3232
 3508SOL    HW111423   3.674   3.297   5.426  0.4174 -0.4270 -0.9617
 3508SOL    HW211424   3.550   3.348   5.331  0.0171  1.9143  0.7214
 3509SOL     OW11425   5.052   5.343   0.001  0.6437 -0.1910 -0.6893
 3509SOL    HW111426   4.955   5.364   0.013  0.8869  0.0477  1.1545
 3509SOL    HW211427   5.098   5.422  -0.039 -0.0758 -0.6918 -2.6102
 3510SOL     OW11428   1.004   0.885   2.409  0.1768 -0.2358 -0.2315
 3510SOL    HW111429   0.943   0.914   2.335  0.0702 -1.0523 -0.4756
 3510SOL    HW211430   0.982   0.936   2.492 -0.6844 -0.3398 -0.3822
 3511SOL     OW11431   3.051   5.740   2.709  0.8813 -0.5253 -0.1981
 3511SOL    HW111432   3.085   5.817   2.764  2.1012 -2.2333  1.5376
 3511SOL    HW211433   2.969   5.702   2.753  0.6313 -0.6081 -0.7294
 3512SOL     OW11434   1.760   1.792   0.666 -0.1530 -0.4729 -0.4699
 3512SOL    HW111435   1.661   1.798   0.662 -0.2958 -1.4044  1.0361
 3512SOL    HW211436   1.799   1.884   0.664 -1.0342 -0.1003 -0.9955
 3513SOL     OW11437   5.157   2.279   2.267  0.5829 -0.2767 -0.3070
 3513SOL    HW111438   5.230   2.263   2.334  1.8723 -0.6928 -1.7636
 3513SOL    HW211439   5.197   2.296   2.177 -1.0961  0.8668 -0.8858
 3514SOL     OW11440   6.046   7.019   2.465 -0.4048  0.2684  0.8502
 3514SOL    HW111441   6.041   7.002   2.564  1.6049  3.0890  1.5452
 3514SOL    HW211442   6.027   7.115   2.447  3.8881  0.9823 -0.8687
 3515SOL     OW11443   5.672   5.435   5.167  0.0480  0.2886  0.1588
 3515SOL    HW111444   5.619   5.392   5.240  2.2709 -1.6318  0.7459
 3515SOL    HW211445   5.671   5.376   5.086  0.4463  0.7095 -0.1603
 3516SOL     OW11446   4.594   1.699   0.408  0.0867 -0.3603  0.4061
 3516SOL    HW111447   4.591   1.640   0.488 -2.6277  0.5594  1.0972
 3516SOL    HW211448   4.688   1.712   0.379  1.2111 -0.3724  3.7175
 3517SOL     OW11449   0.119   2.311   2.103 -0.0011 -0.5160  1.0599
 3517SOL    HW111450   0.211   2.352   2.099 -0.1665 -0.2269 -0.3663
 3517SOL    HW211451   0.119   2.236   2.169  1.8358 -1.8747 -0.3796
 3518SOL     OW11452   4.065   2.220   3.954  0.0539 -0.8756  0.3486
 3518SOL    HW111453   3.990   2.172   4.000 -1.7284  1.4607  0.0106
 3518SOL    HW211454   4.063   2.199   3.856  1.0217 -2.2248  0.5829
 3519SOL     OW11455   2.984   0.936   6.252 -0.0237 -0.1541  0.5482
 3519SOL    HW111456   2.934   0.892   6.326  1.7907 -0.3835  1.6950
 3519SOL    HW211457   3.020   0.866   6.190  0.8833 -0.1549  1.0667
 3520SOL     OW11458   4.330   6.514   3.668 -0.2721 -0.0777  0.4136
 3520SOL    HW111459   4.241   6.559   3.674  0.0112  0.4696  0.5287
 3520SOL    HW211460   4.402   6.583   3.666  0.1787 -0.5374  0.8065
 3521SOL     OW11461   0.736   3.951   6.761 -0.0991  0.3217 -0.1868
 3521SOL    HW111462   0.753   3.989   6.670 -2.0105  2.4584  0.2609
 3521SOL    HW211463   0.770   3.857   6.764 -1.8171 -0.6130 -3.8089
 3522SOL     OW11464   1.323   6.781   1.284  0.6880  0.3854  0.5125
 3522SOL    HW111465   1.397   6.832   1.240  1.2149 -0.0190  0.9164
 3522SOL    HW211466   1.237   6.800   1.236  1.4600 -1.2198 -1.6961
 3523SOL     OW11467   2.705   4.468   6.196  0.2479  0.2530 -0.5351
 3523SOL    HW111468   2.644   4.392   6.176  0.8366 -0.8364  1.5165
 3523SOL    HW211469   2.728   4.516   6.111 -1.2733 -0.9598 -1.6841
 3524SOL     OW11470   4.977   1.373   1.750  0.0045  0.1355 -0.3068
 3524SOL    HW111471   5.066   1.390   1.793  0.1844  0.5228 -0.8237
 3524SOL    HW211472   4.991   1.322   1.665 -0.4870 -2.5207  1.0771
 3525SOL     OW11473   0.522   6.103   3.868  1.0038  0.2636 -0.2070
 3525SOL    HW111474   0.464   6.036   3.822  1.1463  1.6764 -2.6056
 3525SOL    HW211475   0.604   6.057   3.904  0.4830 -1.0400 -0.6257
 3526SOL     OW11476   1.645   0.435   2.674  0.9319  0.4240  0.4124
 3526SOL    HW111477   1.664   0.525   2.636 -0.3025  0.1607 -0.8939
 3526SOL    HW211478   1.626   0.371   2.600 -1.6456 -0.1075  1.4291
 3527SOL     OW11479   5.887   3.541   4.994  0.3149  0.3162  0.0458
 3527SOL    HW111480   5.977   3.543   5.037  0.3864  0.3213 -0.1041
 3527SOL    HW211481   5.822   3.497   5.056  0.4549  0.1650  0.0865
 3528SOL     OW11482   2.832   6.848   4.595  0.5351  0.2248  0.1446
 3528SOL    HW111483   2.791   6.760   4.571 -2.0760  1.7098 -1.3873
 3528SOL    HW211484   2.859   6.847   4.691  1.3029 -2.4408 -0.0117
 3529SOL     OW11485   4.547   4.816   6.999 -0.7250 -0.0743  0.1570
 3529SOL    HW111486   4.560   4.891   7.064  0.3469 -0.5191  0.4921
 3529SOL    HW211487   4.585   4.843   6.910  0.0366 -0.3492  0.3870
 3530SOL     OW11488   5.331   0.756   2.233 -0.4316  0.4617  0.3369
 3530SOL    HW111489   5.231   0.756   2.226 -0.3939  0.1302 -0.1878
 3530SOL    HW211490   5.371   0.741   2.143  0.0734 -1.5665  0.8500
 3531SOL     OW11491   0.014   2.007   1.937 -0.2305 -0.1707 -0.0902
 3531SOL    HW111492  -0.021   2.020   1.844 -1.8341 -0.5485  0.4331
 3531SOL    HW211493  -0.056   1.963   1.993  1.3312 -1.5638  0.8616
 3532SOL     OW11494   1.275   0.314   2.870  0.0627 -0.0900 -0.5036
 3532SOL    HW111495   1.325   0.237   2.831  0.4568 -0.4636  0.6682
 3532SOL    HW211496   1.260   0.297   2.968 -0.4024  1.0429 -0.3620
 3533SOL     OW11497   0.365   0.438   4.148 -0.5593  0.2476 -0.6638
 3533SOL    HW111498   0.420   0.520   4.132 -3.1457  1.8399 -1.9361
 3533SOL    HW211499   0.295   0.458   4.216 -1.0351 -1.0342 -0.7521
 3534SOL     OW11500   0.366   1.778   2.448 -0.0927 -0.1799 -0.3073
 3534SOL    HW111501   0.403   1.870   2.432 -1.8245  0.7278  0.6748
 3534SOL    HW211502   0.401   1.717   2.377  0.5294  1.3859 -1.4276
 3535SOL     OW11503   2.556   4.594   4.526 -0.4825 -0.0478  0.0153
 3535SOL    HW111504   2.559   4.618   4.622  0.0843 -0.8883  0.2223
 3535SOL    HW211505   2.504   4.509   4.514  1.0277 -1.0001 -0.1581
 3536SOL     OW11506   3.274   2.145   4.386 -0.2791 -0.3506 -0.0837
 3536SOL    HW111507   3.177   2.149   4.409 -0.1821 -0.6559  0.4085
 3536SOL    HW211508   3.286   2.153   4.287 -0.8835 -1.3148 -0.2498
 3537SOL     OW11509   2.412   4.826   2.444 -0.4484  0.1819  0.4368
 3537SOL    HW111510   2.347   4.767   2.397  0.5974  0.7597 -1.8342
 3537SOL    HW211511   2.494   4.774   2.468 -1.1844 -0.2435  2.2084
 3538SOL     OW11512   2.177   5.210   4.287 -0.3682 -0.2561 -0.4216
 3538SOL    HW111513   2.146   5.285   4.228 -1.6040 -1.3657 -1.2136
 3538SOL    HW211514   2.129   5.215   4.375 -1.7531 -1.0885 -1.0983
 3539SOL     OW11515   3.953   3.275   2.740 -0.1217  0.5452  0.1115
 3539SOL    HW111516   3.862   3.276   2.699 -0.2907  0.8985  0.4874
 3539SOL    HW211517   3.964   3.191   2.794 -0.2532  0.5325  0.1200
 3540SOL     OW11518   3.430   0.239   1.219 -0.1594 -0.4761 -0.1292
 3540SOL    HW111519   3.400   0.318   1.165  0.1818  0.0799  0.4721
 3540SOL    HW211520   3.357   0.171   1.222 -0.2381 -0.4552 -1.1542
 3541SOL     OW11521   3.765   3.866   4.881  0.1109 -0.1384 -0.6319
 3541SOL    HW111522   3.825   3.847   4.803 -0.6662  0.3178 -1.3577
 3541SOL    HW211523   3.696   3.934   4.854  0.7850  1.2367  0.9072
 3542SOL     OW11524   6.772   3.890   1.629 -0.1988  0.4853 -0.0906
 3542SOL    HW111525   6.758   3.880   1.530 -0.9875  0.2887  0.0327
 3542SOL    HW211526   6.841   3.825   1.660 -0.9748 -0.4580 -0.2858
 3543SOL     OW11527   5.608   1.213   5.752  0.4598 -0.2191 -0.0646
 3543SOL    HW111528   5.522   1.262   5.763  1.3390  1.3061  0.4706
 3543SOL    HW211529   5.627   1.159   5.833  0.7964  0.8247  0.5821
 3544SOL     OW11530   3.424   3.962   5.528  0.1443 -0.2743 -0.6985
 3544SOL    HW111531   3.410   3.864   5.521  3.2171 -0.9004  0.0646
 3544SOL    HW211532   3.382   3.996   5.613 -2.4771 -0.4832 -1.8205
 3545SOL     OW11533   2.895   5.934   5.327 -0.2200  0.5449 -0.1127
 3545SOL    HW111534   2.935   5.924   5.236  2.9697  0.6766  1.1163
 3545SOL    HW211535   2.896   6.030   5.354  2.3746  0.2121  1.3415
 3546SOL     OW11536   0.660   5.067   1.902 -0.2082 -0.0648  0.0301
 3546SOL    HW111537   0.694   5.144   1.847 -0.8801  0.2549  0.0499
 3546SOL    HW211538   0.630   5.101   1.991  0.9320 -0.5859  0.6475
 3547SOL     OW11539   4.671   5.587   6.368 -0.2794 -0.0621  0.6000
 3547SOL    HW111540   4.710   5.668   6.324 -0.6162 -0.4907 -0.5510
 3547SOL    HW211541   4.574   5.601   6.384 -0.2044  0.0047  0.9862
 3548SOL     OW11542   6.095   0.984   0.371  0.7015 -0.3600 -0.1229
 3548SOL    HW111543   6.149   0.978   0.454  0.9200 -0.3462 -0.2628
 3548SOL    HW211544   6.093   1.078   0.338  0.8126 -0.4058 -0.2623
 3549SOL     OW11545   5.845   3.702   2.334  1.0210 -0.1389 -0.1319
 3549SOL    HW111546   5.899   3.753   2.401 -0.5603  3.1776 -1.2083
 3549SOL    HW211547   5.749   3.704   2.359  0.7783 -1.8869 -0.7387
 3550SOL     OW11548   4.598   2.656   3.839  0.1284 -0.5635  0.0388
 3550SOL    HW111549   4.623   2.738   3.788 -2.9892 -0.0186 -0.8423
 3550SOL    HW211550   4.570   2.681   3.931  0.9246 -0.9180  0.3896
 3551SOL     OW11551   4.137   5.552   2.543  0.5385  0.4323 -0.1553
 3551SOL    HW111552   4.126   5.551   2.642  1.0942 -1.3779 -0.0722
 3551SOL    HW211553   4.222   5.599   2.519  1.4388 -0.8805  0.3880
 3552SOL     OW11554   1.030   5.715   2.516  0.0545  0.0987  0.3251
 3552SOL    HW111555   1.118   5.727   2.472  0.7832 -1.7693  1.1831
 3552SOL    HW211556   1.026   5.772   2.599  0.4322  0.2259  0.2579
 3553SOL     OW11557   5.809   1.356   3.977 -0.0080  0.0432 -0.3394
 3553SOL    HW111558   5.853   1.444   3.955  0.0075 -0.0044 -0.4962
 3553SOL    HW211559   5.784   1.309   3.892 -0.5709  0.1731 -0.2535
 3554SOL     OW11560   3.099   4.370   6.445 -0.3274  0.4346 -0.0408
 3554SOL    HW111561   3.055   4.439   6.502  0.0848  1.7031 -1.1948
 3554SOL    HW211562   3.052   4.364   6.357 -1.0476 -1.5959  0.4343
 3555SOL     OW11563   1.244   3.534   3.558  0.3445  0.1617  0.3064
 3555SOL    HW111564   1.287   3.616   3.596 -1.2542  1.7791 -1.1860
 3555SOL    HW211565   1.184   3.492   3.626  2.5949 -0.9787  1.7305
 3556SOL     OW11566   3.217   6.549   6.632  0.3671  0.5983 -0.1605
 3556SOL    HW111567   3.241   6.613   6.705  1.3806  0.0378  0.0267
 3556SOL    HW211568   3.126   6.511   6.649  1.1906 -0.7138  1.7152
 3557SOL     OW11569   6.537   5.633   6.395 -0.3501 -0.0338  0.0978
 3557SOL    HW111570   6.556   5.721   6.351 -0.9195 -0.6715 -1.4653
 3557SOL    HW211571   6.611   5.569   6.376 -0.2591 -0.1067  0.6748
 3558SOL     OW11572   0.839   5.273   0.808  0.0456  0.2867  0.1957
 3558SOL    HW111573   0.894   5.339   0.859  0.2574 -0.2804  0.7229
 3558SOL    HW211574   0.752   5.259   0.854 -0.1796  0.5304 -0.1577
 3559SOL     OW11575   6.237   6.448   5.616  0.3821 -0.4400  0.0402
 3559SOL    HW111576   6.225   6.523   5.551  1.4711 -0.6039 -0.3759
 3559SOL    HW211577   6.262   6.364   5.567 -0.3218 -0.9553  0.5417
 3560SOL     OW11578   1.348   4.910   1.174  0.1809  0.1616  0.1311
 3560SOL    HW111579   1.287   4.928   1.097  0.9750 -0.4889 -0.6752
 3560SOL    HW211580   1.334   4.816   1.207  2.0749 -0.7074 -1.3572
 3561SOL     OW11581   6.654   4.023   5.952  0.2851 -0.2939  0.5877
 3561SOL    HW111582   6.591   3.945   5.953  0.4785 -0.4911 -0.9335
 3561SOL    HW211583   6.718   4.014   6.029 -1.2760 -0.2710  1.9569
 3562SOL     OW11584   3.122   2.176   2.992  0.0533  0.0602 -0.5561
 3562SOL    HW111585   3.094   2.250   3.053 -0.0563 -0.6547  0.2677
 3562SOL    HW211586   3.084   2.089   3.023  4.3279 -1.3198  1.6607
 3563SOL     OW11587   6.024   6.858   0.019  0.0212 -0.1165 -0.4611
 3563SOL    HW111588   6.116   6.828   0.044  0.2108 -0.2485 -1.2988
 3563SOL    HW211589   6.021   6.879  -0.078 -0.4095  1.4483 -0.1422
 3564SOL     OW11590   1.184   4.873   2.409 -0.1585  0.6052  0.0087
 3564SOL    HW111591   1.189   4.792   2.469 -0.2287  1.0454  0.6148
 3564SOL    HW211592   1.194   4.844   2.314 -1.9880 -0.3737  0.0508
 3565SOL     OW11593   2.646   6.319   6.918 -0.2209 -0.8001  0.2741
 3565SOL    HW111594   2.587   6.332   6.838 -0.8992  0.4872  0.9428
 3565SOL    HW211595   2.685   6.227   6.916 -0.9221 -1.1012 -1.0679
 3566SOL     OW11596   1.680   4.482   0.664  0.1614  0.1480 -0.0192
 3566SOL    HW111597   1.723   4.565   0.700 -0.8760  0.0711  1.4617
 3566SOL    HW211598   1.708   4.403   0.718 -1.0423 -0.0495  0.3339
 3567SOL     OW11599   2.085   4.354   2.000  0.1416 -0.3644  0.2357
 3567SOL    HW111600   2.105   4.269   1.952  1.6538 -0.4897  1.0053
 3567SOL    HW211601   2.054   4.423   1.935  1.2816 -0.7935 -0.8031
 3568SOL     OW11602   4.976   4.684   1.287 -0.0861  0.4467  0.4404
 3568SOL    HW111603   4.944   4.591   1.307  0.8286 -0.0238 -0.2331
 3568SOL    HW211604   4.922   4.723   1.212 -0.3244  0.3739  0.5754
 3569SOL     OW11605   4.059   3.763   2.873  0.5554 -0.3536 -0.3922
 3569SOL    HW111606   4.062   3.668   2.842 -0.2300 -0.6379  0.3533
 3569SOL    HW211607   4.078   3.824   2.797 -0.4209 -1.0528 -1.2184
 3570SOL     OW11608   6.540   1.498   4.388 -0.2461 -0.0305 -0.4020
 3570SOL    HW111609   6.458   1.443   4.405 -0.4273 -0.4505 -2.3456
 3570SOL    HW211610   6.610   1.440   4.347  1.6690 -0.0526  2.5766
 3571SOL     OW11611   2.397   1.179   4.853 -0.2509 -0.1671 -0.4152
 3571SOL    HW111612   2.363   1.087   4.832 -1.3015 -0.3308  1.7069
 3571SOL    HW211613   2.333   1.225   4.914  1.1490  1.2884  0.0349
 3572SOL     OW11614   3.858   5.697   1.615  0.7229  0.2032  0.1458
 3572SOL    HW111615   3.936   5.680   1.555  1.6129 -0.2041  1.3960
 3572SOL    HW211616   3.773   5.678   1.565  1.3866  0.8714 -1.2968
 3573SOL     OW11617   5.172   5.880   2.424  0.2479  0.2475  0.7902
 3573SOL    HW111618   5.259   5.843   2.457 -0.7135 -2.1088  0.8606
 3573SOL    HW211619   5.149   5.962   2.477  2.2262  0.7323  0.9961
 3574SOL     OW11620   1.666   3.091   0.400  0.4531  0.2208 -0.4625
 3574SOL    HW111621   1.596   3.155   0.369  0.0410  0.9984  1.8986
 3574SOL    HW211622   1.734   3.139   0.455  0.9481 -1.1247  0.1649
 3575SOL     OW11623   6.071   0.575   1.249  0.4376  0.0751 -0.1226
 3575SOL    HW111624   6.088   0.652   1.188  0.3326  0.8541  0.7972
 3575SOL    HW211625   6.039   0.497   1.196  1.3747  0.3806 -1.1871
 3576SOL     OW11626   1.672   3.250   6.567 -0.5255 -0.1431 -0.7180
 3576SOL    HW111627   1.617   3.178   6.525 -2.7888  0.3547  1.1464
 3576SOL    HW211628   1.721   3.212   6.646 -2.5257  0.4371  0.8988
 3577SOL     OW11629   4.121   2.957   5.371  1.1762 -0.2865  0.3493
 3577SOL    HW111630   4.164   2.869   5.350 -0.9395 -1.0640 -1.0419
 3577SOL    HW211631   4.055   2.945   5.446  1.5428  0.3311  0.7797
 3578SOL     OW11632   2.568   2.812   0.838  0.3027  0.1475  0.3083
 3578SOL    HW111633   2.600   2.760   0.916 -1.0895  1.0659  1.5427
 3578SOL    HW211634   2.535   2.901   0.868 -0.9072  0.2692 -1.2233
 3579SOL     OW11635   5.716   2.540   1.850  0.0378 -0.0469  0.2601
 3579SOL    HW111636   5.778   2.579   1.783 -1.0924  1.0067 -0.2200
 3579SOL    HW211637   5.658   2.472   1.805 -0.5299  0.4589  0.2036
 3580SOL     OW11638   6.949   4.021   2.452  0.4569  0.0763  0.5350
 3580SOL    HW111639   6.940   3.981   2.543 -1.3927 -0.9741 -0.0491
 3580SOL    HW211640   6.866   4.002   2.399  1.2241  1.2056 -1.1698
 3581SOL     OW11641   2.369   6.800   3.155 -0.3617  0.7172  0.1028
 3581SOL    HW111642   2.274   6.827   3.173 -1.1701 -1.3591 -0.7382
 3581SOL    HW211643   2.423   6.882   3.136 -2.8208  1.8533 -3.0981
 3582SOL     OW11644   1.380   5.640   5.589 -0.1054 -0.2979  0.0181
 3582SOL    HW111645   1.478   5.652   5.574 -0.2131  1.1876  0.3433
 3582SOL    HW211646   1.347   5.565   5.532  1.2930 -1.1302  0.2514
 3583SOL     OW11647   6.985   6.378   0.825  0.2320 -0.2572  0.4871
 3583SOL    HW111648   6.961   6.424   0.739 -0.1925 -1.8822 -0.3252
 3583SOL    HW211649   7.003   6.281   0.806  0.6826 -0.5311  2.1631
 3584SOL     OW11650   4.571   3.954   5.399  0.0587  0.0532  0.0248
 3584SOL    HW111651   4.635   4.009   5.346  1.0969  1.0573  2.1938
 3584SOL    HW211652   4.621   3.903   5.469 -1.1577 -1.9240 -0.4592
 3585SOL     OW11653   1.628   2.665   1.692 -0.0550  0.0154  0.0360
 3585SOL    HW111654   1.726   2.650   1.706  0.4041  1.6966 -1.1540
 3585SOL    HW211655   1.604   2.757   1.721 -0.7128  0.5850 -2.1436
 3586SOL     OW11656   6.380   2.952   4.231 -0.0119  0.3579  0.2669
 3586SOL    HW111657   6.468   2.985   4.197 -0.5130 -0.1525 -1.7111
 3586SOL    HW211658   6.307   2.986   4.171 -1.0064 -0.4124  1.0085
 3587SOL     OW11659   2.702   6.072   5.940 -1.1045  0.2114 -0.1140
 3587SOL    HW111660   2.603   6.086   5.950 -1.1950 -1.0931  1.1496
 3587SOL    HW211661   2.719   5.980   5.907 -0.2770 -0.0560  1.0279
 3588SOL     OW11662   5.776   3.973   4.834 -0.0414  0.4803  0.0375
 3588SOL    HW111663   5.874   3.964   4.852  0.1652  0.3797 -1.0339
 3588SOL    HW211664   5.761   4.053   4.775 -0.7512  1.2465  1.2209
 3589SOL     OW11665   6.162   5.896   4.993  0.8931 -0.0096  0.5596
 3589SOL    HW111666   6.113   5.983   4.990 -0.7623 -0.8936  0.4270
 3589SOL    HW211667   6.217   5.885   4.910  1.2899  0.9893  0.6816
 3590SOL     OW11668   4.821   2.668   0.669  0.2481  0.1950  0.8264
 3590SOL    HW111669   4.788   2.577   0.691 -1.7761  0.5334 -0.5015
 3590SOL    HW211670   4.750   2.735   0.690  0.5127  1.1259 -1.0137
 3591SOL     OW11671   6.306   0.483   6.567  0.6122 -0.3341 -0.4377
 3591SOL    HW111672   6.237   0.451   6.632  0.3235  1.7433  0.3626
 3591SOL    HW211673   6.304   0.426   6.485 -3.0220  0.4220 -1.0391
 3592SOL     OW11674   1.990   6.276   1.151  0.2232 -0.0729 -0.0178
 3592SOL    HW111675   1.973   6.333   1.231  1.6360 -0.9651  0.9628
 3592SOL    HW211676   2.049   6.326   1.087 -2.0713  1.2182 -1.2696
 3593SOL     OW11677   4.433   3.712   5.278 -0.3637 -0.3791  0.6419
 3593SOL    HW111678   4.496   3.655   5.225 -1.1964 -1.0938  0.4042
 3593SOL    HW211679   4.484   3.788   5.319  0.6617 -0.9693  0.5050
 3594SOL     OW11680   5.115   4.750   5.281 -0.6766 -0.1616  0.6613
 3594SOL    HW111681   5.023   4.725   5.311 -0.5107 -1.7179 -0.0562
 3594SOL    HW211682   5.179   4.677   5.303  0.5995  1.2429  1.9121
 3595SOL     OW11683   3.859   6.232   5.406 -0.2401  0.0222 -0.1125
 3595SOL    HW111684   3.937   6.292   5.425 -0.8430  0.7759  0.0042
 3595SOL    HW211685   3.883   6.138   5.432 -0.1187  0.5887  1.9911
 3596SOL     OW11686   4.994   2.278   5.859 -0.4508  0.3904  0.3736
 3596SOL    HW111687   5.053   2.284   5.779 -1.2079  0.6290 -0.1685
 3596SOL    HW211688   5.009   2.358   5.917 -0.4013  0.5583  0.1310
 3597SOL     OW11689   2.538   3.274   5.600  0.1312 -0.2012 -0.1869
 3597SOL    HW111690   2.624   3.291   5.648  0.4792 -0.4552 -0.7116
 3597SOL    HW211691   2.491   3.197   5.643  0.1951 -0.1016  0.0638
 3598SOL     OW11692   2.282   6.549   6.660  0.1343  0.0998 -0.4492
 3598SOL    HW111693   2.191   6.516   6.637 -0.2671  2.4880 -2.8088
 3598SOL    HW211694   2.274   6.637   6.708  1.1447  0.9681 -1.8056
 3599SOL     OW11695   3.612   1.838   3.166 -0.0836  0.1907 -0.0993
 3599SOL    HW111696   3.619   1.810   3.262  1.4529 -0.9680 -0.5192
 3599SOL    HW211697   3.516   1.835   3.138 -0.9904  3.3612  2.1636
 3600SOL     OW11698   3.540   3.574   6.643  0.3631  0.4779 -0.0637
 3600SOL    HW111699   3.590   3.572   6.730 -0.3209  1.9291  0.3867
 3600SOL    HW211700   3.501   3.484   6.626 -0.0150  0.3218  1.4573
 3601SOL     OW11701   3.583   0.112   4.532 -0.5048 -0.3714  0.2574
 3601SOL    HW111702   3.614   0.100   4.626  2.9520  2.1401 -0.3296
 3601SOL    HW211703   3.535   0.030   4.501 -0.8125 -1.6855  3.8039
 3602SOL     OW11704   0.748   1.085   0.685  0.6709 -0.5570 -0.8472
 3602SOL    HW111705   0.724   0.988   0.694  1.8009 -0.9170 -1.4818
 3602SOL    HW211706   0.710   1.121   0.600 -0.2975 -0.2528 -0.3007
 3603SOL     OW11707   1.975   1.452   6.060  0.1843 -0.0091 -0.5997
 3603SOL    HW111708   1.978   1.359   6.022 -0.8789 -0.8289  1.1938
 3603SOL    HW211709   1.881   1.474   6.084  0.6073  1.0868  0.0908
 3604SOL     OW11710   0.444   5.979   1.878  0.1812 -0.0313  0.1652
 3604SOL    HW111711   0.428   5.907   1.945 -1.7080  0.8137  0.6950
 3604SOL    HW211712   0.365   5.985   1.817  0.3626  1.4867  0.0473
 3605SOL     OW11713   2.584   5.892   3.831 -0.1504  0.2118 -0.4590
 3605SOL    HW111714   2.618   5.885   3.737  1.8200 -0.5517  0.2638
 3605SOL    HW211715   2.590   5.803   3.876 -1.0497  0.5717  0.4180
 3606SOL     OW11716   3.105   6.219   1.513  0.0688 -0.0326  0.0378
 3606SOL    HW111717   3.010   6.189   1.515  0.7795 -2.4908 -0.2056
 3606SOL    HW211718   3.147   6.196   1.425  1.1373  0.1942  0.4645
 3607SOL     OW11719   4.880   3.247   1.936 -0.1481 -0.2303  0.2895
 3607SOL    HW111720   4.970   3.204   1.935 -0.2742 -0.5588  1.4741
 3607SOL    HW211721   4.810   3.177   1.952 -0.7723 -0.1857 -1.8288
 3608SOL     OW11722   3.116   1.878   4.119 -0.4875 -0.1595  0.1213
 3608SOL    HW111723   3.029   1.893   4.073 -0.7222 -2.1088 -0.1820
 3608SOL    HW211724   3.100   1.869   4.218 -0.4664  0.5720  0.1949
 3609SOL     OW11725   1.925   7.007   4.088 -0.2139  0.1777  0.3194
 3609SOL    HW111726   1.978   6.969   4.163  0.8187  1.9967  0.5853
 3609SOL    HW211727   1.983   7.018   4.007 -0.4437  1.1599  0.2641
 3610SOL     OW11728   1.006   1.413   5.720 -0.0420 -0.2901 -0.3088
 3610SOL    HW111729   1.103   1.416   5.746  0.1894 -0.2638 -1.1228
 3610SOL    HW211730   0.957   1.488   5.764  0.3660 -0.1522 -0.0870
 3611SOL     OW11731   5.814   6.376   2.097  0.2687 -0.3576  0.0492
 3611SOL    HW111732   5.856   6.286   2.113  1.5003 -0.1044 -1.4905
 3611SOL    HW211733   5.787   6.383   2.001  0.8932  1.1786 -0.0436
 3612SOL     OW11734   5.575   2.621   0.210  1.1860 -0.0753  0.4906
 3612SOL    HW111735   5.602   2.557   0.138  2.9132  1.2159 -0.0773
 3612SOL    HW211736   5.657   2.665   0.248  0.0810  1.8269  0.8112
 3613SOL     OW11737   4.535   6.930   1.971 -0.1418  0.1926 -0.7370
 3613SOL    HW111738   4.592   6.910   2.050 -0.4984  1.1879 -0.2026
 3613SOL    HW211739   4.439   6.927   1.998 -0.2429  1.7860 -0.7797
 3614SOL     OW11740   4.130   4.360   6.678 -0.4172  0.2855  0.2756
 3614SOL    HW111741   4.208   4.385   6.736  1.3546 -0.7018 -1.5307
 3614SOL    HW211742   4.061   4.432   6.683  0.9088  1.5686  1.4080
 3615SOL     OW11743   6.966   2.580   5.704  0.0409  0.5161  0.3582
 3615SOL    HW111744   6.963   2.486   5.672  1.3385  0.3529  0.6644
 3615SOL    HW211745   6.888   2.631   5.667  0.5065 -0.1209 -1.6057
 3616SOL     OW11746   0.899   6.317   1.690  0.4446  0.4914  0.4371
 3616SOL    HW111747   0.868   6.413   1.689 -1.1528  0.1028 -3.1836
 3616SOL    HW211748   0.986   6.310   1.642  1.6670  0.3105  2.5541
 3617SOL     OW11749   3.096   6.595   5.479  0.1701 -0.1341  0.7005
 3617SOL    HW111750   3.152   6.591   5.396  0.8497  1.1967  1.0648
 3617SOL    HW211751   3.061   6.688   5.490  0.1474 -0.2799  1.9518
 3618SOL     OW11752   0.367   3.851   3.920 -0.6557 -0.1504  0.0324
 3618SOL    HW111753   0.450   3.795   3.927 -0.3750  0.2622  0.0393
 3618SOL    HW211754   0.304   3.826   3.993 -0.9881 -1.1998 -0.5909
 3619SOL     OW11755   6.824   3.390   2.655  0.1991  0.1639 -0.5392
 3619SOL    HW111756   6.832   3.481   2.616 -1.2318  0.4626 -0.2210
 3619SOL    HW211757   6.880   3.326   2.603  3.3280  1.6185  0.7752
 3620SOL     OW11758   6.264   6.542   4.269  0.0960  0.5721  0.2634
 3620SOL    HW111759   6.348   6.580   4.231  0.8420  0.8647  2.0933
 3620SOL    HW211760   6.199   6.616   4.289 -0.3196  0.4126 -0.4346
 3621SOL     OW11761   2.989   3.199   4.095 -0.5104  0.0857 -0.5258
 3621SOL    HW111762   3.010   3.132   4.167  0.2498  1.8614  0.9758
 3621SOL    HW211763   3.020   3.163   4.007  0.5352 -1.2407  0.3436
 3622SOL     OW11764   2.117   0.179   0.011 -0.1993  0.0483  0.1305
 3622SOL    HW111765   2.053   0.171  -0.065 -1.7959 -3.5853  1.6081
 3622SOL    HW211766   2.067   0.169   0.098  2.1623 -1.9549  1.3948
 3623SOL     OW11767   6.606   4.637   6.344  0.0279  0.8090 -0.0959
 3623SOL    HW111768   6.669   4.580   6.291 -0.8620  0.1357 -0.4646
 3623SOL    HW211769   6.537   4.675   6.282 -1.2426 -0.2796  0.5901
 3624SOL     OW11770   2.167   0.928   2.345  0.5616  0.0409  0.4371
 3624SOL    HW111771   2.170   0.828   2.350  1.5621 -0.1346 -2.0289
 3624SOL    HW211772   2.075   0.960   2.366 -0.1018 -1.5158  0.0349
 3625SOL     OW11773   5.132   3.047   0.703 -0.4542  0.3018 -0.8748
 3625SOL    HW111774   5.083   3.000   0.630  0.0626  1.1503 -1.7966
 3625SOL    HW211775   5.174   3.130   0.666  1.1951 -0.0985 -0.0062
 3626SOL     OW11776   0.716   3.748   3.513 -0.2555 -0.5174 -0.0936
 3626SOL    HW111777   0.709   3.701   3.425 -0.2453 -0.2294 -0.2483
 3626SOL    HW211778   0.627   3.750   3.557 -0.1008 -1.3758  0.2735
 3627SOL     OW11779   5.146   1.966   2.620 -0.3743  0.1661  0.0652
 3627SOL    HW111780   5.196   1.950   2.706 -2.0973 -0.4047  1.0118
 3627SOL    HW211781   5.071   1.900   2.612 -0.0322 -0.0262 -2.0900
 3628SOL     OW11782   5.436   1.801   2.533 -0.1749  0.5420 -0.3377
 3628SOL    HW111783   5.534   1.796   2.513  0.1873 -1.9530  1.5109
 3628SOL    HW211784   5.400   1.888   2.500  2.6103  1.4851 -1.2308
 3629SOL     OW11785   1.292   3.046   3.385 -0.7235  0.4253 -0.3212
 3629SOL    HW111786   1.271   3.143   3.377 -1.7451  0.1436 -1.2811
 3629SOL    HW211787   1.242   3.006   3.462 -0.5170  0.5928 -0.0982
 3630SOL     OW11788   6.885   2.068   2.832  0.4204 -0.2380 -0.2588
 3630SOL    HW111789   6.983   2.080   2.851  0.1894  1.8726 -0.2376
 3630SOL    HW211790   6.872   2.042   2.737  0.9556  0.6830 -0.5965
 3631SOL     OW11791   2.544   6.502   3.887  0.2637  0.5366 -0.2315
 3631SOL    HW111792   2.468   6.464   3.834 -0.7330  0.5664  1.1027
 3631SOL    HW211793   2.552   6.453   3.974  0.6506  1.6487  0.3866
 3632SOL     OW11794   4.414   1.877   0.941  0.3418  0.1502 -0.4185
 3632SOL    HW111795   4.315   1.865   0.937  0.2053  1.4775 -1.6397
 3632SOL    HW211796   4.441   1.956   0.886  1.8848  1.0672  1.5155
 3633SOL     OW11797   3.594   2.694   0.459 -0.0993  0.6367 -0.2644
 3633SOL    HW111798   3.631   2.604   0.480  0.9696  1.0902 -0.1741
 3633SOL    HW211799   3.595   2.708   0.360  1.2105  1.1589 -0.1871
 3634SOL     OW11800   4.003   6.434   3.918  0.0440 -0.1555 -0.7394
 3634SOL    HW111801   4.019   6.453   4.015  0.2318  0.8071 -0.9494
 3634SOL    HW211802   3.987   6.336   3.906  0.4731 -0.3580  0.1999
 3635SOL     OW11803   2.339   0.719   0.171  0.2629  0.7889  0.2473
 3635SOL    HW111804   2.404   0.754   0.104 -0.9065 -0.3544 -1.5813
 3635SOL    HW211805   2.388   0.687   0.252  1.9478  0.3458 -0.9004
 3636SOL     OW11806   0.296   5.548   0.879  0.5886  0.1744  0.0176
 3636SOL    HW111807   0.391   5.545   0.848  0.5240 -1.3248 -0.1061
 3636SOL    HW211808   0.245   5.470   0.841 -0.5289  0.5848  0.6028
 3637SOL     OW11809   5.089   4.309   6.389  0.2211 -0.0600 -0.0305
 3637SOL    HW111810   5.146   4.306   6.307  0.1379  0.1395 -0.0956
 3637SOL    HW211811   5.012   4.371   6.375 -0.3307 -0.7509 -0.1446
 3638SOL     OW11812   6.563   3.662   2.859 -0.1803  0.1459 -0.1186
 3638SOL    HW111813   6.578   3.735   2.792 -0.9224 -0.3027 -0.8056
 3638SOL    HW211814   6.624   3.674   2.937  1.0822  0.3995 -1.1153
 3639SOL     OW11815   3.020   3.138   2.514  0.5939  0.6301  0.0989
 3639SOL    HW111816   2.951   3.189   2.566  1.0144 -1.0659  2.4864
 3639SOL    HW211817   3.108   3.186   2.522  0.3511  1.1651 -0.3445
 3640SOL     OW11818   4.785   1.860   1.491  0.2861  0.1578  0.0628
 3640SOL    HW111819   4.778   1.921   1.571  0.9880  0.4858 -0.1200
 3640SOL    HW211820   4.825   1.773   1.520 -1.2027 -0.4392  0.4294
 3641SOL     OW11821   6.032   2.876   2.728 -0.0333 -0.6636  0.4246
 3641SOL    HW111822   6.113   2.836   2.685 -0.4586  0.7458 -1.8946
 3641SOL    HW211823   6.015   2.966   2.689 -1.7466 -0.1914  2.1243
 3642SOL     OW11824   6.596   4.481   6.800 -0.0308 -0.2153 -0.2416
 3642SOL    HW111825   6.549   4.437   6.724 -0.1438 -1.7839  0.7044
 3642SOL    HW211826   6.534   4.488   6.879  0.3196  0.6931 -0.0245
 3643SOL     OW11827   4.526   5.963   4.850  0.2351 -0.1208  0.2798
 3643SOL    HW111828   4.600   6.023   4.880  1.2360 -1.0170 -0.3022
 3643SOL    HW211829   4.532   5.875   4.898 -1.0833  0.1404  0.9752
 3644SOL     OW11830   2.081   0.794   1.494 -0.1292 -0.2392 -0.3602
 3644SOL    HW111831   2.083   0.885   1.536 -0.2041  0.7721 -2.4108
 3644SOL    HW211832   2.130   0.729   1.552  0.9683  1.3709  0.5995
 3645SOL     OW11833   1.909   4.181   3.284  0.1928 -0.0496  0.0184
 3645SOL    HW111834   1.949   4.249   3.223  2.2195 -0.7859  0.4606
 3645SOL    HW211835   1.980   4.119   3.317 -1.2233 -1.0325  1.3902
 3646SOL     OW11836   2.893   3.832   5.156  0.4330 -0.0084  0.6188
 3646SOL    HW111837   2.898   3.732   5.156  0.5221 -0.0181  1.6961
 3646SOL    HW211838   2.800   3.861   5.178 -0.0052  0.1720 -1.2673
 3647SOL     OW11839   2.200   6.947   6.955 -0.3255 -0.0396 -0.0935
 3647SOL    HW111840   2.171   6.902   6.870 -2.3685 -0.8493  0.9609
 3647SOL    HW211841   2.201   7.046   6.942  1.8685 -0.1968 -1.7451
 3648SOL     OW11842   4.522   5.791   3.199  0.4255  0.9029 -0.0690
 3648SOL    HW111843   4.441   5.817   3.252  0.7792  0.7913  0.5333
 3648SOL    HW211844   4.512   5.697   3.167 -0.0006  1.1263 -0.6194
 3649SOL     OW11845   0.173   2.059   5.999  0.4172  0.0562 -0.6054
 3649SOL    HW111846   0.178   2.041   5.901 -0.3661 -0.3507 -0.5764
 3649SOL    HW211847   0.264   2.047   6.040  0.1471 -3.3950 -0.6782
 3650SOL     OW11848   6.654   6.567   0.335  0.0209  0.0588  0.1358
 3650SOL    HW111849   6.744   6.528   0.318 -0.7101 -1.3873 -0.6279
 3650SOL    HW211850   6.602   6.505   0.395 -0.5816  0.7065  0.2929
 3651SOL     OW11851   0.065   2.751   4.507 -0.3068  0.0108  0.1581
 3651SOL    HW111852  -0.028   2.722   4.485 -0.2125 -0.2590  0.1149
 3651SOL    HW211853   0.130   2.705   4.447 -0.0785 -0.4122  0.7216
 3652SOL     OW11854   4.622   1.721   3.810 -0.1969 -0.4343  0.1542
 3652SOL    HW111855   4.593   1.730   3.714  0.2224  1.9327  0.2089
 3652SOL    HW211856   4.690   1.791   3.831 -0.8131 -0.4463  2.3961
 3653SOL     OW11857   2.730   0.021   6.282 -0.3272 -0.5386 -0.3159
 3653SOL    HW111858   2.673   0.085   6.230  1.2471  1.7264  0.5760
 3653SOL    HW211859   2.696   0.015   6.375 -0.3452 -0.8483 -0.3417
 3654SOL     OW11860   3.268   6.103   1.284  0.0031  0.2251 -0.0875
 3654SOL    HW111861   3.318   6.060   1.209 -0.2525 -0.1836 -0.0263
 3654SOL    HW211862   3.227   6.189   1.252  0.2673  0.2765 -0.2904
 3655SOL     OW11863   1.424   6.851   3.021 -0.2339  0.1388  0.6031
 3655SOL    HW111864   1.357   6.915   3.059  0.0131  1.3046 -0.8153
 3655SOL    HW211865   1.515   6.875   3.053 -0.1149  0.6461 -0.1057
 3656SOL     OW11866   1.341   6.889   0.029 -0.0191 -0.2245  0.0829
 3656SOL    HW111867   1.309   6.821  -0.037  1.5464 -1.8583  0.9264
 3656SOL    HW211868   1.265   6.917   0.087 -0.8719 -0.6366 -0.8043
 3657SOL     OW11869   5.403   4.364   5.721 -0.1456 -0.6535  0.7366
 3657SOL    HW111870   5.345   4.442   5.747  2.9571  1.5139  1.7138
 3657SOL    HW211871   5.394   4.292   5.789 -1.1779 -0.1247  1.1889
 3658SOL     OW11872   2.340   4.679   6.126  0.1184 -0.5462 -0.2015
 3658SOL    HW111873   2.396   4.643   6.200  0.6069  0.0111 -0.2943
 3658SOL    HW211874   2.392   4.747   6.073 -1.0341  0.9597  0.5052
 3659SOL     OW11875   6.949   1.842   6.403 -0.3086 -0.3201  0.1188
 3659SOL    HW111876   6.878   1.902   6.440 -0.1061 -0.5858  0.9766
 3659SOL    HW211877   6.947   1.844   6.303 -0.8863  0.4167  0.1418
 3660SOL     OW11878   6.159   6.263   1.634  0.5073  0.4802 -0.0945
 3660SOL    HW111879   6.221   6.250   1.557  0.4931  1.0538 -0.2082
 3660SOL    HW211880   6.105   6.347   1.620  0.5558  0.6271  0.5681
 3661SOL     OW11881   5.380   1.292   5.452  0.2709  0.1623  0.0357
 3661SOL    HW111882   5.396   1.389   5.468 -1.7802  0.6071 -0.3253
 3661SOL    HW211883   5.359   1.246   5.539 -3.1996  1.0105 -0.2311
 3662SOL     OW11884   2.833   2.313   6.015 -0.2053  0.0133  0.2834
 3662SOL    HW111885   2.901   2.366   5.963  0.5492 -0.0950  1.1305
 3662SOL    HW211886   2.787   2.372   6.080 -1.3082  0.1954 -0.6268
 3663SOL     OW11887   2.788   1.358   6.730  0.4239 -0.0776  0.5955
 3663SOL    HW111888   2.766   1.340   6.634  0.0266  0.0226  0.6683
 3663SOL    HW211889   2.877   1.404   6.736 -0.5872  2.0642  0.1059
 3664SOL     OW11890   2.390   0.407   2.325  0.3532  0.4410  0.4745
 3664SOL    HW111891   2.455   0.355   2.379  2.4461 -0.1018 -2.3518
 3664SOL    HW211892   2.316   0.348   2.293  0.6078  0.1138  0.4953
 3665SOL     OW11893   1.834   1.220   5.967  0.0092 -0.0729  0.3164
 3665SOL    HW111894   1.744   1.246   6.003 -0.0348 -1.0486  0.9557
 3665SOL    HW211895   1.841   1.248   5.872  0.0356  2.3747  0.9656
 3666SOL     OW11896   2.536   2.442   3.066 -0.0982 -0.3205 -0.2560
 3666SOL    HW111897   2.461   2.458   3.001  0.5069  4.1770 -0.1221
 3666SOL    HW211898   2.509   2.475   3.157  1.3738 -0.4120  0.2396
 3667SOL     OW11899   3.406   1.722   1.212  0.1508  0.0801 -0.2474
 3667SOL    HW111900   3.310   1.714   1.238 -0.4577  0.6856 -2.1560
 3667SOL    HW211901   3.457   1.643   1.248 -1.3061 -0.8913 -0.2511
 3668SOL     OW11902   0.068   0.719   0.034 -1.1808 -0.1105  0.0906
 3668SOL    HW111903  -0.018   0.676   0.009 -0.9879 -1.0780  1.0015
 3668SOL    HW211904   0.126   0.653   0.081  1.2711 -0.3950 -2.9704
 3669SOL     OW11905   2.070   0.815   3.184  0.0798  0.3852 -0.5440
 3669SOL    HW111906   2.056   0.841   3.279 -2.8453  0.4193 -0.9026
 3669SOL    HW211907   2.099   0.719   3.180 -1.6702 -0.2245  0.3743
 3670SOL     OW11908   3.836   0.946   2.217 -0.0458  0.4121  0.0153
 3670SOL    HW111909   3.858   1.031   2.266  0.0345  0.8449 -0.7556
 3670SOL    HW211910   3.918   0.911   2.172  0.5351 -1.4487  2.3340
 3671SOL     OW11911   5.967   0.599   3.133 -0.2799  0.1016 -0.1505
 3671SOL    HW111912   6.053   0.631   3.092 -0.4680  0.8200  0.0059
 3671SOL    HW211913   5.980   0.506   3.168  1.4551  1.3703  2.9203
 3672SOL     OW11914   3.289   6.940   2.568 -0.2526  0.2887  0.2285
 3672SOL    HW111915   3.250   6.985   2.488  1.3256 -0.4122 -0.9884
 3672SOL    HW211916   3.358   6.874   2.539  0.9540  0.5868  2.2120
 3673SOL     OW11917   1.200   6.083   2.068  0.2581  0.1841  0.1815
 3673SOL    HW111918   1.289   6.087   2.022  0.3336  1.0383  0.3829
 3673SOL    HW211919   1.213   6.089   2.167  0.0470 -0.9096  0.2881
 3674SOL     OW11920   2.448   5.098   5.780 -0.5109  0.5180  0.1995
 3674SOL    HW111921   2.374   5.033   5.799 -0.7183  0.7770  0.2844
 3674SOL    HW211922   2.534   5.061   5.813 -0.8998  1.0836  1.9285
 3675SOL     OW11923   1.716   5.685   2.638 -0.2611  0.0607 -0.1893
 3675SOL    HW111924   1.762   5.700   2.550 -1.6309  0.5795 -0.8546
 3675SOL    HW211925   1.775   5.715   2.712 -0.9222  4.5337 -1.1741
 3676SOL     OW11926   1.758   3.044   4.709  0.2941  0.2558 -1.0962
 3676SOL    HW111927   1.726   3.090   4.792  1.2843 -0.2471 -0.4251
 3676SOL    HW211928   1.707   3.079   4.631 -1.9710 -0.5487 -0.0751
 3677SOL     OW11929   2.938   1.116   4.517 -0.2868 -0.3345 -0.0591
 3677SOL    HW111930   2.902   1.198   4.562 -0.0041  0.5542 -1.3972
 3677SOL    HW211931   2.879   1.038   4.537  0.0910 -0.1037  2.2337
 3678SOL     OW11932   1.712   5.752   3.781 -0.1348  0.7973 -0.1897
 3678SOL    HW111933   1.758   5.784   3.698 -1.8581  1.5014 -0.9291
 3678SOL    HW211934   1.766   5.680   3.823  1.3506  1.2096 -1.2885
 3679SOL     OW11935   4.695   1.305   3.698  0.3211 -0.2042  0.0649
 3679SOL    HW111936   4.622   1.371   3.683  0.3599 -0.5237 -1.7802
 3679SOL    HW211937   4.656   1.219   3.732 -0.5763 -1.1645 -3.0760
 3680SOL     OW11938   2.162   1.599   4.744  0.0523  0.2516 -0.0174
 3680SOL    HW111939   2.196   1.693   4.749 -0.2615  0.3095  3.0735
 3680SOL    HW211940   2.239   1.536   4.730  0.6600  0.7919  0.8462
 3681SOL     OW11941   1.190   3.702   2.765  0.0984  0.1176  0.1831
 3681SOL    HW111942   1.270   3.647   2.789  0.9649  0.4406 -1.7598
 3681SOL    HW211943   1.206   3.797   2.792 -0.1157 -0.0096  0.7828
 3682SOL     OW11944   5.692   3.325   0.671  1.0917 -0.2593 -0.1337
 3682SOL    HW111945   5.631   3.403   0.682 -0.2117 -1.3055  0.3237
 3682SOL    HW211946   5.783   3.357   0.643 -0.1229  1.2308 -2.8074
 3683SOL     OW11947   5.483   2.079   0.770  0.5665  0.3237  0.0122
 3683SOL    HW111948   5.568   2.106   0.724  1.3716 -2.2970 -0.2163
 3683SOL    HW211949   5.426   2.027   0.706 -0.7330  1.0716  0.5132
 3684SOL     OW11950   1.942   0.157   6.818  0.3227  0.1496  0.6642
 3684SOL    HW111951   1.916   0.237   6.764 -0.5239 -0.1096  0.6667
 3684SOL    HW211952   1.867   0.133   6.881  1.0145  0.0335  1.4654
 3685SOL     OW11953   1.516   6.788   5.634 -0.1353 -0.1884 -0.2344
 3685SOL    HW111954   1.537   6.795   5.537 -0.5441 -0.8720 -0.3800
 3685SOL    HW211955   1.564   6.710   5.673 -0.7048 -0.4765 -0.0989
 3686SOL     OW11956   1.358   4.508   1.855  0.2215 -0.7480  0.2467
 3686SOL    HW111957   1.455   4.525   1.873 -0.0039  0.5331  0.3719
 3686SOL    HW211958   1.334   4.544   1.765 -0.2641 -0.5417  0.4564
 3687SOL     OW11959   7.014   5.770   4.430 -0.7458 -0.2067  0.2483
 3687SOL    HW111960   6.931   5.825   4.433 -0.7387 -0.1917  0.1572
 3687SOL    HW211961   7.094   5.829   4.437 -0.6971 -0.0838 -1.0713
 3688SOL     OW11962   4.597   3.491   0.131  0.7128  0.0153  0.1828
 3688SOL    HW111963   4.585   3.404   0.083  1.0573 -0.5104  1.0226
 3688SOL    HW211964   4.671   3.482   0.198  0.5935  0.8856  0.4392
 3689SOL     OW11965   1.627   0.432   4.816  0.0808  0.4938  0.7129
 3689SOL    HW111966   1.567   0.355   4.793  0.2015  1.4449 -3.4027
 3689SOL    HW211967   1.723   0.404   4.804  0.0928  1.6129 -2.5528
 3690SOL     OW11968   5.577   0.813   2.519  0.5080 -0.3487 -0.4536
 3690SOL    HW111969   5.534   0.836   2.606  1.9775 -1.2991  0.5642
 3690SOL    HW211970   5.569   0.714   2.503 -1.2069  0.0166 -2.2503
 3691SOL     OW11971   1.118   4.189   1.434 -0.4938 -0.4477 -0.4246
 3691SOL    HW111972   1.053   4.167   1.507 -1.8728  0.9218 -1.1695
 3691SOL    HW211973   1.195   4.240   1.472  0.2239 -2.1445  0.4851
 3692SOL     OW11974   1.123   4.693   4.688  0.2978  0.1152  0.6513
 3692SOL    HW111975   1.170   4.694   4.777  1.0757 -0.3425  0.2484
 3692SOL    HW211976   1.142   4.778   4.640  2.0550 -0.7281 -0.1939
 3693SOL     OW11977   2.741   1.688   3.732  0.4463 -0.0625 -0.0471
 3693SOL    HW111978   2.652   1.663   3.770  0.2962  0.6907  0.1152
 3693SOL    HW211979   2.810   1.689   3.805  0.6287 -0.8152 -0.2033
 3694SOL     OW11980   5.968   0.155   2.934 -0.0508 -0.3341 -0.2738
 3694SOL    HW111981   6.056   0.139   2.979  0.0481 -3.2784 -1.3179
 3694SOL    HW211982   5.895   0.116   2.990 -0.3505 -0.5100 -0.7881
 3695SOL     OW11983   5.139   3.053   4.191  0.2339 -0.4061  0.0316
 3695SOL    HW111984   5.078   2.995   4.137  1.0406 -0.8463 -0.4249
 3695SOL    HW211985   5.106   3.057   4.286 -1.5975  0.9354 -0.5869
 3696SOL     OW11986   3.723   1.392   4.572 -0.3566 -0.2664 -0.1165
 3696SOL    HW111987   3.693   1.302   4.543  0.4748 -0.3404 -0.7923
 3696SOL    HW211988   3.653   1.460   4.551 -2.1973 -1.0814  2.8676
 3697SOL     OW11989   6.767   0.254   2.926  1.1239 -0.2298 -0.2432
 3697SOL    HW111990   6.725   0.261   2.835  0.3452 -2.9253 -0.1824
 3697SOL    HW211991   6.867   0.250   2.916  1.1157  0.5986 -0.8497
 3698SOL     OW11992   1.421   6.749   2.328  0.2757  0.1750 -0.1595
 3698SOL    HW111993   1.322   6.739   2.328  0.3309 -0.3901  0.0926
 3698SOL    HW211994   1.453   6.760   2.233 -0.1256  1.5029 -0.1677
 3699SOL     OW11995   2.067   1.588   3.362 -0.3378  0.1906 -0.0752
 3699SOL    HW111996   1.997   1.560   3.295  0.7843  0.0961 -1.2530
 3699SOL    HW211997   2.147   1.623   3.313  0.8747 -0.7080  1.2030
 3700SOL     OW11998   0.883   6.770   5.500  0.5963 -0.1724 -0.1265
 3700SOL    HW111999   0.848   6.857   5.468 -1.2107  0.0370  2.1258
 3700SOL    HW212000   0.963   6.785   5.558  0.2701 -0.0023  0.2810
 3701SOL     OW12001   0.153   6.794   2.448 -0.2315  0.2396 -0.0809
 3701SOL    HW112002   0.147   6.728   2.373 -1.3483 -2.1416  1.9844
 3701SOL    HW212003   0.084   6.864   2.437 -1.0837 -0.6857 -0.7482
 3702SOL     OW12004   6.137   3.980   3.015  0.6418 -0.3237  0.7935
 3702SOL    HW112005   6.103   3.937   3.098 -1.8438  0.2133  0.1580
 3702SOL    HW212006   6.152   4.077   3.031 -0.0133 -0.1839  0.5956
 3703SOL     OW12007   1.983   1.930   3.823 -0.2689 -0.6477  0.0020
 3703SOL    HW112008   2.022   1.888   3.741 -2.5100  0.1884 -1.6004
 3703SOL    HW212009   1.923   1.864   3.869 -1.0956 -0.3096 -0.5696
 3704SOL     OW12010   6.512   2.147   7.002 -0.3252  0.1841 -0.2022
 3704SOL    HW112011   6.485   2.082   6.931  2.7878 -0.5704 -0.8831
 3704SOL    HW212012   6.593   2.112   7.050 -1.9254  0.9424  3.4178
 3705SOL     OW12013   6.138   6.228   3.019  0.0765  0.0653  0.0125
 3705SOL    HW112014   6.050   6.276   3.014 -0.0841 -0.1522  0.7228
 3705SOL    HW212015   6.159   6.206   3.114  1.6827  1.5552  0.0494
 3706SOL     OW12016   0.937   3.010   0.455 -0.1005  0.2318  0.3464
 3706SOL    HW112017   0.857   2.989   0.511 -0.1552 -1.4079 -0.2803
 3706SOL    HW212018   1.010   3.045   0.514 -0.7307  0.1812  1.1768
 3707SOL     OW12019   6.894   5.806   3.722  0.5322  0.2165  0.1153
 3707SOL    HW112020   6.823   5.736   3.731 -0.4659  1.1107 -0.5890
 3707SOL    HW212021   6.856   5.896   3.743  1.6549  0.6413  0.4463
 3708SOL     OW12022   2.292   5.659   0.098  0.5045 -0.2509  0.3981
 3708SOL    HW112023   2.260   5.693   0.010  1.7568 -2.0646 -0.8387
 3708SOL    HW212024   2.389   5.681   0.108  0.2917  0.2328  1.5025
 3709SOL     OW12025   1.126   1.362   2.125  0.0366  0.0658 -0.4527
 3709SOL    HW112026   1.050   1.423   2.104 -0.3931 -0.1870  0.3263
 3709SOL    HW212027   1.181   1.401   2.198  0.4561  0.0783 -0.7725
 3710SOL     OW12028   2.093   5.340   5.555 -0.2889  0.2563 -0.3909
 3710SOL    HW112029   2.005   5.321   5.600 -0.1363  1.2715  0.3716
 3710SOL    HW212030   2.123   5.432   5.579  0.9914 -0.0812 -0.6459
 3711SOL     OW12031   1.303   6.334   5.788  0.5358  0.3233 -0.1895
 3711SOL    HW112032   1.279   6.431   5.786 -1.4520 -0.1201 -0.1900
 3711SOL    HW212033   1.236   6.284   5.844  0.9298 -1.1832 -0.9992
 3712SOL     OW12034   4.485   5.665   4.921 -0.0004 -0.3179 -0.0445
 3712SOL    HW112035   4.397   5.696   4.885 -0.1561  1.1320  1.4429
 3712SOL    HW212036   4.495   5.567   4.905 -1.8326 -0.4901 -0.3618
 3713SOL     OW12037   6.323   1.011   4.037 -0.2654 -0.1711  0.0832
 3713SOL    HW112038   6.369   1.072   4.102 -0.4413  0.9847 -0.8317
 3713SOL    HW212039   6.262   1.065   3.979 -0.5885 -1.2632 -0.6211
 3714SOL     OW12040   6.945   4.332   0.054  0.0779  0.1609 -0.2385
 3714SOL    HW112041   6.942   4.390  -0.027  0.7872 -0.1183 -0.4707
 3714SOL    HW212042   6.918   4.385   0.134 -0.2335  0.5433 -0.5933
 3715SOL     OW12043   6.298   4.500   1.538 -0.1034 -0.3595  0.1539
 3715SOL    HW112044   6.346   4.575   1.492  1.6419 -1.6262 -0.1948
 3715SOL    HW212045   6.290   4.422   1.476 -4.0272  0.2226 -0.3402
 3716SOL     OW12046   4.617   6.278   3.296  0.0058  0.4630 -0.1607
 3716SOL    HW112047   4.669   6.246   3.217  1.0227  1.3313  0.1211
 3716SOL    HW212048   4.530   6.229   3.301  0.1992 -0.0609 -1.4360
 3717SOL     OW12049   4.544   1.193   0.738 -0.4628 -0.0762 -0.2888
 3717SOL    HW112050   4.529   1.105   0.783  1.0647  0.0236  0.5040
 3717SOL    HW212051   4.495   1.264   0.787  1.6356  0.1211  1.6868
 3718SOL     OW12052   6.680   4.982   6.319 -0.3284 -0.0217 -0.1720
 3718SOL    HW112053   6.649   4.953   6.410  2.3314 -0.0152  0.8100
 3718SOL    HW212054   6.732   5.067   6.327  1.6594 -1.0618 -1.3471
 3719SOL     OW12055   3.393   3.199   6.868 -0.4621 -0.3551  0.3463
 3719SOL    HW112056   3.341   3.119   6.834 -0.7378 -0.1019  0.1653
 3719SOL    HW212057   3.371   3.215   6.964 -1.3899  0.2721  0.0433
 3720SOL     OW12058   6.633   3.916   6.795  0.3238  0.1441 -0.1100
 3720SOL    HW112059   6.682   3.855   6.733  0.7594  1.3521 -0.9996
 3720SOL    HW212060   6.699   3.969   6.849 -0.0220 -1.9509  2.5610
 3721SOL     OW12061   6.857   0.790   6.085 -0.0809  0.1693  0.2624
 3721SOL    HW112062   6.768   0.750   6.111  0.2277  1.0171  2.8594
 3721SOL    HW212063   6.852   0.823   5.991 -2.3382 -0.2774  0.1659
 3722SOL     OW12064   4.696   5.828   2.475 -0.5397  0.3020  0.0503
 3722SOL    HW112065   4.658   5.882   2.400  0.7905  1.5599  0.2343
 3722SOL    HW212066   4.782   5.786   2.445 -1.1646 -1.0926  0.1642
 3723SOL     OW12067   4.316   3.509   0.201  0.7743  0.3891  0.2401
 3723SOL    HW112068   4.286   3.446   0.272 -0.6227 -0.5109 -1.0668
 3723SOL    HW212069   4.413   3.495   0.182  0.4318 -1.6918 -0.2606
 3724SOL     OW12070   6.751   5.573   3.828  0.0355 -0.2374  0.0056
 3724SOL    HW112071   6.738   5.506   3.901 -0.1092 -2.0207 -1.5790
 3724SOL    HW212072   6.793   5.528   3.749  0.5523  1.7190 -0.8923
 3725SOL     OW12073   1.931   4.843   6.754  0.7736 -0.1881  0.0872
 3725SOL    HW112074   1.883   4.790   6.824  0.3202  0.6238  0.3963
 3725SOL    HW212075   2.001   4.785   6.711 -0.5953 -1.4723 -0.5268
 3726SOL     OW12076   5.301   4.068   3.756  0.7307 -0.5965 -0.2643
 3726SOL    HW112077   5.244   4.019   3.821 -1.8233  2.3139 -0.0886
 3726SOL    HW212078   5.251   4.082   3.671  0.8070  2.4734  0.0626
 3727SOL     OW12079   0.121   2.523   4.772 -0.0494 -1.0509 -0.1155
 3727SOL    HW112080   0.169   2.609   4.787 -0.6406 -0.5098 -1.1722
 3727SOL    HW212081   0.187   2.451   4.749  0.3485 -0.5837 -0.4538
 3728SOL     OW12082   3.475   1.463   2.091  0.1257 -0.3245  0.1040
 3728SOL    HW112083   3.416   1.428   2.163  1.7603 -0.7286  1.3022
 3728SOL    HW212084   3.488   1.562   2.103 -0.3900 -0.2068 -0.2498
 3729SOL     OW12085   2.242   1.002   5.737 -0.0314 -0.2363  0.3408
 3729SOL    HW112086   2.229   0.907   5.711 -0.3179 -0.1796  0.2650
 3729SOL    HW212087   2.283   1.052   5.660 -1.1924  0.0044 -0.1565
 3730SOL     OW12088   6.564   0.349   2.639 -0.4261 -0.1999  0.0900
 3730SOL    HW112089   6.574   0.448   2.645 -0.6621 -0.2321  1.4831
 3730SOL    HW212090   6.467   0.326   2.630 -0.2418 -0.2614 -2.4527
 3731SOL     OW12091   6.908   4.350   4.163 -0.5688  0.0884 -0.4088
 3731SOL    HW112092   6.960   4.289   4.224  1.6714  1.2983 -0.9987
 3731SOL    HW212093   6.811   4.329   4.170 -0.0948 -1.8625  1.2596
 3732SOL     OW12094   2.955   1.966   4.851  0.3139 -0.2629  0.3316
 3732SOL    HW112095   2.986   1.884   4.899  0.3765 -0.1659  0.4575
 3732SOL    HW212096   3.031   2.031   4.843  0.4513 -0.5050 -0.3843
 3733SOL     OW12097   1.169   6.292   2.385 -0.0230  0.4261 -0.4256
 3733SOL    HW112098   1.138   6.344   2.305  0.4402  1.8139  0.2692
 3733SOL    HW212099   1.093   6.283   2.450  0.2550  1.4946  0.0768
 3734SOL     OW12100   3.141   1.304   1.408 -0.0179 -0.1170  0.5071
 3734SOL    HW112101   3.055   1.349   1.432  0.0427 -1.1805  3.0206
 3734SOL    HW212102   3.126   1.206   1.397  0.5488 -0.0533 -1.0039
 3735SOL     OW12103   5.082   6.080   2.602 -0.2927 -0.1553  0.5711
 3735SOL    HW112104   5.129   6.023   2.670  0.4039 -0.4628 -0.1367
 3735SOL    HW212105   5.095   6.176   2.624  0.6453 -0.2352  0.4293
 3736SOL     OW12106   6.171   1.280   0.647 -0.1648 -0.0235  0.1593
 3736SOL    HW112107   6.078   1.309   0.626 -0.0151  0.8337  0.6393
 3736SOL    HW212108   6.236   1.351   0.617  0.4291 -1.0788 -1.1575
 3737SOL     OW12109   6.730   2.289   2.018 -0.4764 -0.0155  0.3448
 3737SOL    HW112110   6.774   2.314   2.104  0.0223  0.3761 -0.0204
 3737SOL    HW212111   6.645   2.341   2.008  0.1862  1.0227 -0.0651
 3738SOL     OW12112   0.642   0.397   0.309  0.3763  0.1061 -0.6320
 3738SOL    HW112113   0.615   0.331   0.239  0.3701 -1.0096  0.3999
 3738SOL    HW212114   0.561   0.427   0.360  0.3746  0.9439 -1.1107
 3739SOL     OW12115   2.414   2.515   2.074  0.0345  0.5215 -0.0234
 3739SOL    HW112116   2.409   2.565   1.987 -0.2384  0.0848 -0.2656
 3739SOL    HW212117   2.509   2.489   2.092 -0.0091 -0.0635 -0.5878
 3740SOL     OW12118   5.943   5.812   0.071  0.2541 -0.7670  0.3834
 3740SOL    HW112119   6.008   5.868   0.124  0.9945  0.9600 -2.1716
 3740SOL    HW212120   5.855   5.811   0.118  0.3249  2.2731  0.8270
 3741SOL     OW12121   4.323   2.655   0.909 -0.2716  0.2384  0.2732
 3741SOL    HW112122   4.284   2.738   0.949 -2.5435 -0.6411  0.0633
 3741SOL    HW212123   4.308   2.577   0.970  0.5733 -0.2752 -0.1444
 3742SOL     OW12124   4.572   4.717   1.804 -0.5054 -0.0756  0.5381
 3742SOL    HW112125   4.621   4.738   1.888  0.1530 -0.0612  0.1596
 3742SOL    HW212126   4.507   4.643   1.821 -2.0158  1.4113  1.6025
 3743SOL     OW12127   5.187   3.566   2.173 -0.0332 -0.4645  0.6903
 3743SOL    HW112128   5.186   3.604   2.080  0.4526 -1.6048  0.1890
 3743SOL    HW212129   5.101   3.516   2.189  0.5482 -1.6661  0.2139
 3744SOL     OW12130   0.704   0.709   2.430 -0.3043 -0.3951 -0.2627
 3744SOL    HW112131   0.748   0.620   2.446 -0.7480 -0.5752 -0.0200
 3744SOL    HW212132   0.737   0.775   2.497 -1.4635 -0.9056  0.8479
 3745SOL     OW12133   5.693   3.959   1.819 -0.1019 -0.3307  0.5504
 3745SOL    HW112134   5.741   3.964   1.907 -0.4193 -0.3204  0.7264
 3745SOL    HW212135   5.613   4.019   1.822  0.3989  0.3832 -0.0767
 3746SOL     OW12136   1.673   5.260   3.386 -0.1493  0.3384  0.2606
 3746SOL    HW112137   1.772   5.261   3.395 -0.0964  1.1954 -0.3456
 3746SOL    HW212138   1.646   5.187   3.322 -0.0166 -0.7369  1.3941
 3747SOL     OW12139   3.945   5.021   3.260  0.0506 -0.6749 -0.2600
 3747SOL    HW112140   4.015   5.091   3.246  0.3390 -0.7541  0.6961
 3747SOL    HW212141   3.948   4.989   3.355 -0.9582 -1.0350 -0.3334
 3748SOL     OW12142   5.239   1.183   3.832 -0.0088  0.4298  0.3530
 3748SOL    HW112143   5.301   1.261   3.830  1.9457 -1.0321  0.5979
 3748SOL    HW212144   5.204   1.170   3.925  1.4757 -0.2602  0.8638
 3749SOL     OW12145   0.882   6.478   1.379 -0.3361 -0.1329 -0.6002
 3749SOL    HW112146   0.890   6.549   1.448  1.2527 -0.7558 -0.1102
 3749SOL    HW212147   0.808   6.416   1.403  0.5207 -0.6316  0.8345
 3750SOL     OW12148   4.337   3.187   0.954  0.3268 -0.7625 -0.4197
 3750SOL    HW112149   4.394   3.269   0.958  1.6508 -1.4736 -2.9382
 3750SOL    HW212150   4.269   3.197   0.882 -0.3165 -1.4109  0.0787
 3751SOL     OW12151   0.207   4.140   2.222  0.3691  0.1601  0.2938
 3751SOL    HW112152   0.207   4.061   2.161 -1.9382  0.4575 -0.1730
 3751SOL    HW212153   0.269   4.210   2.185  0.8442 -0.6131 -0.4060
 3752SOL     OW12154   1.627   5.651   5.861  0.1065 -0.1071 -0.2554
 3752SOL    HW112155   1.589   5.709   5.933  1.3154  0.3917  0.0070
 3752SOL    HW212156   1.600   5.687   5.772 -0.8871 -0.3704 -0.0710
 3753SOL     OW12157   0.253   0.684   3.302 -0.1926 -0.6369  0.4763
 3753SOL    HW112158   0.290   0.593   3.284 -0.9890 -0.8304 -0.2410
 3753SOL    HW212159   0.275   0.711   3.396 -0.6585 -1.9185  0.9716
 3754SOL     OW12160   6.559   5.541   1.484  0.0641 -0.3176 -0.5563
 3754SOL    HW112161   6.650   5.533   1.445  0.2751  0.3431 -0.2209
 3754SOL    HW212162   6.564   5.589   1.572 -0.3684 -2.0179  0.4346
 3755SOL     OW12163   5.920   1.609   2.879 -0.2398 -0.1744  0.8115
 3755SOL    HW112164   5.827   1.580   2.859 -0.5667  1.8923 -0.9309
 3755SOL    HW212165   5.984   1.562   2.819 -0.5012  0.6758 -0.1560
 3756SOL     OW12166   3.222   6.658   6.368 -0.3990  0.2964  0.0804
 3756SOL    HW112167   3.219   6.612   6.457 -1.7172  0.1278 -0.0430
 3756SOL    HW212168   3.180   6.748   6.376  2.0479  1.5121  0.2886
 3757SOL     OW12169   3.078   4.155   5.684 -0.6356 -0.2933  0.3870
 3757SOL    HW112170   3.175   4.132   5.677 -0.4908  0.6347 -1.1274
 3757SOL    HW212171   3.024   4.093   5.626 -0.6345  0.7482 -0.7896
 3758SOL     OW12172   1.329   0.448   3.912  0.4363  0.1325 -0.2074
 3758SOL    HW112173   1.426   0.472   3.920  0.2551  0.8519 -0.1546
 3758SOL    HW212174   1.322   0.351   3.889  1.2206  0.3741 -1.6134
 3759SOL     OW12175   6.632   5.350   0.993 -0.6336 -0.0920  0.3573
 3759SOL    HW112176   6.632   5.335   1.092 -1.9985 -3.0878  0.0120
 3759SOL    HW212177   6.684   5.277   0.948 -2.0527 -0.1990 -1.2295
 3760SOL     OW12178   2.294   2.732   6.226  0.3893  0.3361  0.3347
 3760SOL    HW112179   2.339   2.667   6.288  0.4430  0.6968  0.6834
 3760SOL    HW212180   2.293   2.822   6.269 -1.1446  0.2255  0.5704
 3761SOL     OW12181   6.573   0.064   2.711 -0.0299  0.1161 -0.3538
 3761SOL    HW112182   6.637   0.135   2.684  0.8095  0.4982  2.3841
 3761SOL    HW212183   6.480   0.102   2.716  0.0894  0.4789 -0.8813
 3762SOL     OW12184   1.163   5.229   1.098  0.0225 -0.2494 -0.2400
 3762SOL    HW112185   1.168   5.139   1.055  2.3586  0.3872 -1.4560
 3762SOL    HW212186   1.109   5.223   1.182  0.4070 -2.8680 -0.1081
 3763SOL     OW12187   6.338   4.370   4.760 -0.0389 -0.2272 -0.4273
 3763SOL    HW112188   6.408   4.309   4.796 -0.8407  0.2233  2.1173
 3763SOL    HW212189   6.316   4.345   4.666 -1.1142 -4.5831  0.7812
 3764SOL     OW12190   3.085   6.110   4.770 -0.3444  0.4529 -0.1647
 3764SOL    HW112191   3.161   6.173   4.789  0.1475 -0.8779  2.9099
 3764SOL    HW212192   3.085   6.085   4.674  1.4027  2.6365 -0.8049
 3765SOL     OW12193   0.310   6.201   3.191  0.0413 -0.3397 -0.1830
 3765SOL    HW112194   0.225   6.237   3.151 -0.5659 -1.1478  0.3509
 3765SOL    HW212195   0.350   6.134   3.130 -1.7668 -2.8290  1.1595
 3766SOL     OW12196   1.843   6.863   5.726 -0.2078  0.2221 -0.3580
 3766SOL    HW112197   1.748   6.886   5.707 -0.2699  0.6196  0.3890
 3766SOL    HW212198   1.848   6.768   5.757 -0.3395  0.1512 -0.5497
 3767SOL     OW12199   0.836   4.210   3.196  0.4195 -0.1995  0.4857
 3767SOL    HW112200   0.815   4.233   3.101 -0.7574  0.3336  0.8554
 3767SOL    HW212201   0.919   4.154   3.199  1.1145  0.7121 -0.7577
 3768SOL     OW12202   4.796   5.937   5.317  0.0616 -0.1878  0.3917
 3768SOL    HW112203   4.794   5.907   5.222  0.5332  0.8035  0.0519
 3768SOL    HW212204   4.705   5.970   5.343 -0.5698 -2.2381  0.9033
 3769SOL     OW12205   5.855   6.657   5.530  0.4428  0.2605 -0.0167
 3769SOL    HW112206   5.829   6.694   5.619  0.3087  1.4300 -0.5140
 3769SOL    HW212207   5.910   6.725   5.481 -1.0828  0.4475 -1.5833
 3770SOL     OW12208   0.179   1.880   0.596  0.0080  0.0173  0.0792
 3770SOL    HW112209   0.208   1.833   0.680 -0.6501  1.0468  0.9046
 3770SOL    HW212210   0.240   1.957   0.578 -0.8618  0.8274  0.5671
 3771SOL     OW12211   5.032   1.353   4.443 -0.0634  0.3078  0.0236
 3771SOL    HW112212   5.080   1.440   4.429  2.6376 -0.9666  0.7033
 3771SOL    HW212213   5.065   1.286   4.377 -1.4024 -0.5036  0.1409
 3772SOL     OW12214   5.599   1.608   3.337  0.2510 -0.9061 -0.2628
 3772SOL    HW112215   5.587   1.656   3.250  0.3495 -0.0655  0.1830
 3772SOL    HW212216   5.687   1.561   3.337  1.4996  1.3197  0.4120
 3773SOL     OW12217   6.257   2.334   5.471 -0.1407  0.2875  0.0488
 3773SOL    HW112218   6.290   2.244   5.499  1.2213  1.1108  1.1854
 3773SOL    HW212219   6.328   2.381   5.418 -0.2535  1.2727  0.7514
 3774SOL     OW12220   6.932   6.581   1.555 -0.4126  0.5659  0.0302
 3774SOL    HW112221   7.026   6.558   1.527 -0.4914 -3.0307  2.0852
 3774SOL    HW212222   6.930   6.674   1.590  2.3652  0.8243 -0.2576
 3775SOL     OW12223   5.541   3.969   4.118 -0.2342  0.6821 -0.0143
 3775SOL    HW112224   5.454   3.925   4.139  0.1208  0.3179  0.7304
 3775SOL    HW212225   5.544   3.993   4.021 -0.0241 -1.9003 -0.7123
 3776SOL     OW12226   2.735   2.340   0.386  0.2786  0.3652 -0.1002
 3776SOL    HW112227   2.756   2.250   0.423  0.5393  1.3504  2.3038
 3776SOL    HW212228   2.739   2.408   0.459 -3.5294  1.8186 -1.0176
 3777SOL     OW12229   1.488   2.992   3.072 -0.3600 -0.1972  0.7872
 3777SOL    HW112230   1.388   2.985   3.071 -0.2924 -1.2396  0.7788
 3777SOL    HW212231   1.520   3.001   3.166 -0.3795 -1.2663  0.9043
 3778SOL     OW12232   2.176   6.692   0.837 -0.0550  0.5718  0.2527
 3778SOL    HW112233   2.182   6.628   0.760  0.6014 -0.4577  1.1441
 3778SOL    HW212234   2.238   6.769   0.820  0.6776 -0.0351  0.1023
 3779SOL     OW12235   2.640   4.900   0.541 -0.2215 -0.1540 -0.1370
 3779SOL    HW112236   2.554   4.882   0.493  0.1660 -0.9905 -0.5488
 3779SOL    HW212237   2.660   4.825   0.603 -0.7701  0.9754  1.4662
 3780SOL     OW12238   3.573   6.378   6.331 -0.1767  0.1704  0.3513
 3780SOL    HW112239   3.526   6.437   6.265 -0.9812 -0.9778 -0.1373
 3780SOL    HW212240   3.512   6.359   6.408 -0.2276 -0.6767  0.1081
 3781SOL     OW12241   3.926   4.666   5.601  0.6648 -0.4069 -0.3203
 3781SOL    HW112242   3.889   4.733   5.536 -1.7352 -1.1997  0.1118
 3781SOL    HW212243   3.954   4.713   5.685 -2.0822  0.0283  0.4406
 3782SOL     OW12244   2.263   2.758   2.557 -0.1247  0.1710 -0.5501
 3782SOL    HW112245   2.337   2.709   2.512 -1.4857 -1.0803 -1.5462
 3782SOL    HW212246   2.286   2.773   2.653  2.2882  1.7279 -1.2887
 3783SOL     OW12247   3.395   6.812   0.087  0.1575  0.0542 -0.4305
 3783SOL    HW112248   3.311   6.766   0.116  0.4205 -0.9902 -1.2795
 3783SOL    HW212249   3.448   6.838   0.168 -0.5611 -0.0637  0.0901
 3784SOL     OW12250   4.874   1.159   3.911 -0.3884  0.1427 -0.2297
 3784SOL    HW112251   4.840   1.233   3.970  0.7975 -1.6295  2.8890
 3784SOL    HW212252   4.813   1.081   3.916 -0.8057  0.2668 -2.2868
 3785SOL     OW12253   1.546   2.504   0.674  0.1444  0.5842 -0.1124
 3785SOL    HW112254   1.449   2.526   0.669  0.3186  1.1623 -1.2538
 3785SOL    HW212255   1.587   2.510   0.583  1.1956  0.0781  0.3039
 3786SOL     OW12256   2.245   4.035   2.160  0.1109  0.3345  0.0174
 3786SOL    HW112257   2.255   3.942   2.126 -0.7739 -0.2930  1.3825
 3786SOL    HW212258   2.336   4.077   2.171  0.4581  0.3833 -2.4453
 3787SOL     OW12259   4.085   2.276   4.419  0.2618  0.2124  0.1792
 3787SOL    HW112260   4.183   2.259   4.425 -0.2796 -3.3745  0.7377
 3787SOL    HW212261   4.055   2.268   4.325  0.4010  1.0215  0.0519
 3788SOL     OW12262   6.112   2.415   3.760 -0.3218 -0.4974 -0.4351
 3788SOL    HW112263   6.099   2.391   3.856 -1.1715  1.8166  0.1025
 3788SOL    HW212264   6.026   2.404   3.711 -0.1860 -0.5653 -0.6557
 3789SOL     OW12265   6.879   3.160   3.573  0.0060  0.1297  0.2427
 3789SOL    HW112266   6.916   3.119   3.657  0.4767  0.5603  0.2498
 3789SOL    HW212267   6.781   3.180   3.586  0.0178 -0.0360  0.5989
 3790SOL     OW12268   1.487   3.708   5.458 -0.3728  0.5860  0.8837
 3790SOL    HW112269   1.580   3.693   5.425 -0.0333  0.9847  1.6427
 3790SOL    HW212270   1.487   3.780   5.527 -1.6497  2.7819 -1.2259
 3791SOL     OW12271   5.336   6.758   1.325  0.0611  0.1669 -0.0111
 3791SOL    HW112272   5.395   6.723   1.252  1.4525 -1.6827  1.8896
 3791SOL    HW212273   5.241   6.745   1.299  0.3074  3.3913 -3.2483
 3792SOL     OW12274   4.547   6.456   5.215 -0.6669  0.2248  0.3877
 3792SOL    HW112275   4.513   6.376   5.264  0.8781 -0.0541  1.0438
 3792SOL    HW212276   4.588   6.520   5.280 -0.8365  1.0193 -0.2654
 3793SOL     OW12277   3.845   1.017   3.059 -0.3398 -0.6356  0.2257
 3793SOL    HW112278   3.870   0.965   2.978  0.0513  1.2084 -0.8879
 3793SOL    HW212279   3.798   1.102   3.032 -2.3295 -1.0591  2.0280
 3794SOL     OW12280   5.809   6.370   3.253  0.5488 -0.0111 -0.3133
 3794SOL    HW112281   5.835   6.382   3.349  2.5087 -1.6274 -0.5750
 3794SOL    HW212282   5.770   6.280   3.239 -0.6431  0.5700 -0.8946
 3795SOL     OW12283   4.429   6.910   2.507 -0.3654 -0.3419  0.3707
 3795SOL    HW112284   4.522   6.931   2.537 -0.3876 -0.7331  0.7257
 3795SOL    HW212285   4.393   6.986   2.453 -0.1805  0.2167  1.0173
 3796SOL     OW12286   2.610   2.365   2.725  0.4197  0.6929 -0.0935
 3796SOL    HW112287   2.610   2.267   2.746  0.0074  0.2356 -2.0712
 3796SOL    HW212288   2.694   2.390   2.677 -0.1478  0.9691 -0.9742
 3797SOL     OW12289   5.624   5.734   2.595 -0.9205  0.3184 -0.1875
 3797SOL    HW112290   5.645   5.813   2.538  0.5279 -0.0169 -0.1721
 3797SOL    HW212291   5.626   5.760   2.691 -1.5375  0.4970 -0.2238
 3798SOL     OW12292   0.027   4.122   3.382  0.1305  0.2331 -0.2945
 3798SOL    HW112293   0.076   4.161   3.460  1.3741 -1.3484 -0.2299
 3798SOL    HW212294   0.003   4.027   3.402 -1.4018  0.4190 -1.0549
 3799SOL     OW12295   1.554   7.021   6.596  0.3405 -0.2352 -0.6515
 3799SOL    HW112296   1.556   7.120   6.584  1.2538 -0.4475 -2.5678
 3799SOL    HW212297   1.535   7.000   6.692 -0.1594  1.7702 -0.2635
 3800SOL     OW12298   3.702   1.025   6.468 -0.3610  0.3687 -0.1564
 3800SOL    HW112299   3.790   0.980   6.455  0.1288  0.6675  1.8658
 3800SOL    HW212300   3.705   1.116   6.426 -0.4144 -0.3425 -1.7942
 3801SOL     OW12301   6.258   6.898   1.180  0.0033 -0.3355 -0.4278
 3801SOL    HW112302   6.336   6.960   1.188  0.5957 -0.9606 -1.2720
 3801SOL    HW212303   6.271   6.819   1.240 -0.1921 -0.2194 -0.2326
 3802SOL     OW12304   0.810   2.159   5.099 -0.8519  0.1365  0.9455
 3802SOL    HW112305   0.717   2.122   5.094 -0.6793 -0.1374 -1.1854
 3802SOL    HW212306   0.807   2.258   5.081 -0.5890 -0.1976 -1.1919
 3803SOL     OW12307   3.720   2.216   0.758 -0.0688 -0.4339 -0.5911
 3803SOL    HW112308   3.811   2.256   0.760 -0.6755  0.9838 -0.4406
 3803SOL    HW212309   3.685   2.207   0.851 -1.0597  1.3754 -0.7614
 3804SOL     OW12310   6.124   2.286   6.628  0.1709  0.5573  0.1706
 3804SOL    HW112311   6.034   2.329   6.632 -0.7424 -1.2887  0.8283
 3804SOL    HW212312   6.149   2.270   6.533 -1.7564 -1.8664 -0.0188
 3805SOL     OW12313   1.918   3.033   3.063 -0.3269  0.1473 -0.3603
 3805SOL    HW112314   1.995   3.098   3.069 -2.2950  2.5212  1.3201
 3805SOL    HW212315   1.917   2.976   3.146  0.0489 -0.4555 -0.7602
 3806SOL     OW12316   1.987   2.485   6.417 -0.2494  1.0864  0.4964
 3806SOL    HW112317   1.997   2.386   6.412 -1.6434  0.9235  0.4455
 3806SOL    HW212318   2.018   2.517   6.507 -0.5625  0.4841  0.8262
 3807SOL     OW12319   2.413   6.114   1.469 -0.6876 -0.0029  0.1052
 3807SOL    HW112320   2.485   6.183   1.476 -0.0244 -0.6709  0.0637
 3807SOL    HW212321   2.323   6.159   1.466 -0.3854  0.8035  1.7235
 3808SOL     OW12322   1.787   4.864   2.623  0.3616 -0.4395  0.3982
 3808SOL    HW112323   1.865   4.805   2.601 -0.6575 -1.7111  0.0492
 3808SOL    HW212324   1.750   4.838   2.712 -0.4511 -0.7324 -0.0146
 3809SOL     OW12325   3.339   6.560   1.242 -0.5269  0.1368 -0.0919
 3809SOL    HW112326   3.397   6.487   1.279 -0.8528  0.5958  1.3913
 3809SOL    HW212327   3.269   6.584   1.310 -0.9488  1.2550 -0.8999
 3810SOL     OW12328   2.099   3.839   5.001 -0.0395 -0.3668 -0.2123
 3810SOL    HW112329   2.177   3.901   5.017 -0.4351  0.0831  0.0110
 3810SOL    HW212330   2.126   3.768   4.936  1.1844 -1.4293  1.3811
 3811SOL     OW12331   6.713   5.631   0.891  0.3647  0.0731  0.0093
 3811SOL    HW112332   6.645   5.560   0.871  0.7158 -0.5457  0.9253
 3811SOL    HW212333   6.799   5.608   0.846 -0.0247  0.9066 -1.2305
 3812SOL     OW12334   5.691   1.747   3.880  0.3298  0.0089  0.4059
 3812SOL    HW112335   5.698   1.688   3.800  0.7799  1.2547 -0.4917
 3812SOL    HW212336   5.661   1.692   3.959 -1.2527 -1.0079 -0.8507
 3813SOL     OW12337   2.840   4.811   0.988  0.2204  0.0123  0.1598
 3813SOL    HW112338   2.803   4.901   1.009 -1.6327 -0.0338 -2.3996
 3813SOL    HW212339   2.907   4.818   0.914 -0.8407 -0.7877 -0.9170
 3814SOL     OW12340   0.703   5.850   1.809 -0.0658  0.1532 -0.0105
 3814SOL    HW112341   0.650   5.933   1.792  0.3021  0.0346 -1.8794
 3814SOL    HW212342   0.709   5.835   1.908 -1.8848  1.1968  0.3025
 3815SOL     OW12343   4.582   1.965   6.141 -0.2745 -0.1926  0.3084
 3815SOL    HW112344   4.596   1.877   6.185  1.0755  0.2017  0.7055
 3815SOL    HW212345   4.656   1.983   6.077 -0.9504  0.3204 -0.3531
 3816SOL     OW12346   0.393   6.687   1.849  0.0329 -0.1759  0.5725
 3816SOL    HW112347   0.469   6.635   1.809 -0.5471  0.7468 -1.9347
 3816SOL    HW212348   0.402   6.688   1.949  0.2184 -4.7942  0.8218
 3817SOL     OW12349   3.774   0.934   6.767 -0.1728 -0.3917 -0.0373
 3817SOL    HW112350   3.782   0.838   6.744 -0.1811  0.0612 -2.1224
 3817SOL    HW212351   3.777   0.989   6.684  1.0890  1.5081  1.1721
 3818SOL     OW12352   6.192   4.487   2.062 -0.4317  0.0296 -0.7498
 3818SOL    HW112353   6.115   4.536   2.104  0.1176  1.4489 -1.3223
 3818SOL    HW212354   6.169   4.463   1.968 -0.7480 -0.9541 -0.4279
 3819SOL     OW12355   4.514   4.392   5.922  0.2029  1.0405  0.0814
 3819SOL    HW112356   4.603   4.346   5.916 -0.2093  0.1416  0.8143
 3819SOL    HW212357   4.470   4.389   5.832  0.6481  0.9735 -0.1417
 3820SOL     OW12358   4.886   5.485   3.686  0.0177  0.3480  0.0661
 3820SOL    HW112359   4.883   5.391   3.720 -0.2681 -0.5435 -2.2246
 3820SOL    HW212360   4.953   5.538   3.738  0.8005 -1.3548  0.8534
 3821SOL     OW12361   5.640   4.130   3.440  0.0193 -0.1438 -0.4266
 3821SOL    HW112362   5.567   4.197   3.449 -0.5801 -0.6640 -1.2336
 3821SOL    HW212363   5.683   4.139   3.350  0.5707 -0.2092 -0.1707
 3822SOL     OW12364   0.967   4.541   1.471  0.0823  0.3610 -1.0453
 3822SOL    HW112365   1.038   4.527   1.401 -0.8518 -3.3074 -1.4502
 3822SOL    HW212366   0.879   4.557   1.426 -0.3810 -1.2261 -0.7575
 3823SOL     OW12367   3.542   3.071   4.519  0.6631 -0.5055 -0.1814
 3823SOL    HW112368   3.563   3.146   4.583 -0.0769 -1.3787  1.1427
 3823SOL    HW212369   3.624   3.017   4.503  1.2460  0.6484 -1.2715
 3824SOL     OW12370   0.907   1.845   6.430  0.1197 -0.6686 -0.3141
 3824SOL    HW112371   1.002   1.834   6.402  1.4469  2.4241  2.2878
 3824SOL    HW212372   0.854   1.886   6.355  2.0460  1.8545 -0.4342
 3825SOL     OW12373   6.080   0.435   5.279  0.1864  0.2140  0.3112
 3825SOL    HW112374   6.117   0.433   5.186  0.2329 -0.5708  0.3412
 3825SOL    HW212375   5.981   0.421   5.276 -0.3326  3.3045  0.1509
 3826SOL     OW12376   5.688   1.955   1.619  0.3333  0.0933  0.0802
 3826SOL    HW112377   5.687   1.908   1.531 -1.5467  0.2603 -0.0289
 3826SOL    HW212378   5.596   1.987   1.641  1.0748  1.5011  1.3507
 3827SOL     OW12379   2.783   3.539   1.204 -0.4900  0.7330  0.1243
 3827SOL    HW112380   2.864   3.511   1.255  1.4575  2.6924 -1.6558
 3827SOL    HW212381   2.777   3.487   1.119 -2.1346 -0.5582  0.9579
 3828SOL     OW12382   5.020   0.788   2.182  0.0348  0.1346 -0.5327
 3828SOL    HW112383   4.978   0.856   2.122 -0.2474 -1.1392 -1.8527
 3828SOL    HW212384   5.014   0.698   2.138  3.1866 -0.2812 -0.3091
 3829SOL     OW12385   2.402   4.855   2.838 -0.3340  0.1575  0.1081
 3829SOL    HW112386   2.452   4.789   2.782 -0.8005  0.3905 -0.5937
 3829SOL    HW212387   2.458   4.938   2.850 -0.6787  0.5657 -0.9821
 3830SOL     OW12388   2.300   2.383   5.929  0.1280 -0.2707  0.1467
 3830SOL    HW112389   2.389   2.338   5.938 -0.0981 -1.2500 -1.9458
 3830SOL    HW212390   2.310   2.481   5.946  1.6066 -0.3679 -0.0974
 3831SOL     OW12391   5.811   1.518   1.744  0.0210 -0.4802 -0.1190
 3831SOL    HW112392   5.839   1.444   1.806  1.3099 -0.5766 -0.7812
 3831SOL    HW212393   5.823   1.606   1.789  0.5816 -0.5712 -0.0818
 3832SOL     OW12394   4.869   0.063   2.389 -0.3464 -0.1690 -0.0543
 3832SOL    HW112395   4.859   0.072   2.488 -2.4209  0.2371 -0.2535
 3832SOL    HW212396   4.953   0.110   2.360  0.3990 -0.4654  1.5107
 3833SOL     OW12397   1.663   5.804   0.957  0.2615  0.5970 -0.3921
 3833SOL    HW112398   1.613   5.748   0.891  0.9026 -0.5318  0.0650
 3833SOL    HW212399   1.760   5.781   0.954  0.7100  2.3309 -0.8368
 3834SOL     OW12400   1.193   2.512   0.803 -0.3968 -0.1784 -0.1755
 3834SOL    HW112401   1.249   2.429   0.802 -0.5310 -0.2782 -1.7022
 3834SOL    HW212402   1.139   2.517   0.719 -2.4836  0.0661  1.1037
 3835SOL     OW12403   2.922   0.462   4.867  0.2604 -0.2947  0.4310
 3835SOL    HW112404   3.004   0.416   4.832  0.3539  1.4180 -1.8252
 3835SOL    HW212405   2.916   0.447   4.966  2.0488 -2.3175  0.3214
 3836SOL     OW12406   2.703   2.685   5.315  0.3063 -0.1477 -0.1638
 3836SOL    HW112407   2.673   2.652   5.405 -0.2156  0.7233 -0.0053
 3836SOL    HW212408   2.694   2.612   5.248 -0.5617 -0.4173  0.2344
 3837SOL     OW12409   3.074   3.627   0.962  0.2432 -0.4999  0.0723
 3837SOL    HW112410   3.003   3.558   0.974 -0.1064  0.0955  1.8367
 3837SOL    HW212411   3.075   3.687   1.042  0.2077  1.8400 -1.5724
 3838SOL     OW12412   6.954   3.912   6.727  0.1226  0.2521 -0.1281
 3838SOL    HW112413   7.048   3.942   6.713 -0.2471  0.4955 -2.5007
 3838SOL    HW212414   6.935   3.906   6.825  1.7621  2.8255  0.4533
 3839SOL     OW12415   6.262   4.532   6.819 -0.6528 -0.1535 -0.0045
 3839SOL    HW112416   6.267   4.544   6.719 -0.3490 -0.2239  0.0001
 3839SOL    HW212417   6.167   4.523   6.847 -0.7926  0.6222 -0.2032
 3840SOL     OW12418   3.166   0.643   2.289  1.0927  0.7576 -0.0945
 3840SOL    HW112419   3.085   0.602   2.329  1.5312 -0.4727 -0.4125
 3840SOL    HW212420   3.146   0.737   2.261  0.1964  0.9400  1.0879
 3841SOL     OW12421   1.885   3.639   3.539 -0.6854  0.0769 -0.1576
 3841SOL    HW112422   1.946   3.718   3.543 -1.0970  0.3555  2.3243
 3841SOL    HW212423   1.792   3.670   3.520 -0.8763  0.2412  0.9832
 3842SOL     OW12424   2.444   5.821   6.102 -0.1771  0.3259  0.2289
 3842SOL    HW112425   2.344   5.819   6.097 -0.1605  0.3675 -0.1429
 3842SOL    HW212426   2.482   5.781   6.019  0.1200 -0.2866  0.6515
 3843SOL     OW12427   4.175   4.206   0.307  0.0177 -0.2858  0.0598
 3843SOL    HW112428   4.222   4.140   0.249 -1.1670 -0.5563 -0.6306
 3843SOL    HW212429   4.148   4.162   0.393  0.7854 -0.1984  0.3505
 3844SOL     OW12430   1.167   3.538   6.553 -0.6897  0.0561 -0.0312
 3844SOL    HW112431   1.075   3.575   6.542 -0.3515  0.3784 -2.3251
 3844SOL    HW212432   1.222   3.561   6.472  0.9999 -1.2829  0.6748
 3845SOL     OW12433   2.884   3.605   4.439 -1.0817  0.0061  0.5070
 3845SOL    HW112434   2.866   3.512   4.408  0.6418 -0.0375 -0.5114
 3845SOL    HW212435   2.888   3.667   4.360 -0.3526  0.5969  0.9887
 3846SOL     OW12436   6.329   3.604   2.307 -0.2021 -0.6844 -0.2592
 3846SOL    HW112437   6.414   3.652   2.329 -0.8070 -0.3252  1.4561
 3846SOL    HW212438   6.338   3.507   2.331  0.1909 -0.9378 -1.4088
 3847SOL     OW12439   1.392   0.691   6.216 -0.2149 -0.0941 -0.0195
 3847SOL    HW112440   1.431   0.747   6.144 -0.1171 -0.9568 -0.6528
 3847SOL    HW212441   1.461   0.628   6.251 -0.5315 -0.3528  0.1488
 3848SOL     OW12442   2.694   4.314   0.540  0.3606  0.2513  0.0578
 3848SOL    HW112443   2.681   4.215   0.539  0.1725  0.2747 -1.2649
 3848SOL    HW212444   2.622   4.358   0.487  1.6395  0.9269 -1.1877
 3849SOL     OW12445   3.269   3.585   6.597  0.0801 -0.3574  0.4638
 3849SOL    HW112446   3.332   3.606   6.672  0.5950 -0.0810 -0.0337
 3849SOL    HW212447   3.221   3.500   6.616  1.5915 -1.3024  0.2555
 3850SOL     OW12448   2.084   3.638   0.759 -0.0013 -0.2429  0.1330
 3850SOL    HW112449   2.115   3.641   0.854  0.7104  3.8612 -0.0126
 3850SOL    HW212450   1.989   3.668   0.754 -0.0833 -0.5913 -0.4466
 3851SOL     OW12451   6.723   3.576   1.743  0.1536 -0.5067 -0.7272
 3851SOL    HW112452   6.702   3.486   1.706 -0.1428 -2.3807  3.4482
 3851SOL    HW212453   6.641   3.615   1.785  0.7625  0.7963 -0.6923
 3852SOL     OW12454   4.449   0.341   5.479 -0.2798  0.0663 -0.2647
 3852SOL    HW112455   4.389   0.399   5.535  0.1906  0.0792  0.2285
 3852SOL    HW212456   4.393   0.272   5.433 -0.4613 -1.2968  1.8805
 3853SOL     OW12457   2.314   2.770   3.831 -0.0778 -0.6303  0.6920
 3853SOL    HW112458   2.246   2.844   3.831  0.0817 -0.4817  0.6089
 3853SOL    HW212459   2.307   2.719   3.745 -1.2412 -1.6972  1.3989
 3854SOL     OW12460   1.920   3.407   0.304  0.0503  0.0446  0.0601
 3854SOL    HW112461   1.970   3.321   0.296  0.0276  0.0802 -0.5233
 3854SOL    HW212462   1.961   3.463   0.376  1.2344  0.3263 -0.8153
 3855SOL     OW12463   5.554   1.625   5.258 -0.0696  0.0279 -0.5346
 3855SOL    HW112464   5.503   1.686   5.196 -0.6895 -0.6550 -0.7095
 3855SOL    HW212465   5.555   1.533   5.221  0.0284 -0.2774  0.2032
 3856SOL     OW12466   0.673   0.449   5.059  0.4863  0.2127  0.6157
 3856SOL    HW112467   0.734   0.402   4.996  2.5208 -0.0139  2.6217
 3856SOL    HW212468   0.578   0.421   5.041  1.2695 -1.9157 -0.5269
 3857SOL     OW12469   1.119   0.028   0.134 -0.1637  0.0469 -0.5063
 3857SOL    HW112470   1.023   0.038   0.107  0.0475 -0.6424 -1.5951
 3857SOL    HW212471   1.147   0.105   0.191 -1.4323  0.1214  0.0346
 3858SOL     OW12472   2.702   6.067   0.488 -0.2326  0.2165  0.4212
 3858SOL    HW112473   2.631   6.023   0.542 -0.8984 -0.8241 -1.2220
 3858SOL    HW212474   2.660   6.116   0.411  0.7101  1.2950  0.5581
 3859SOL     OW12475   0.458   3.051   2.803 -0.1504  0.2450  0.2818
 3859SOL    HW112476   0.379   3.017   2.854  0.5630  2.2144  2.8997
 3859SOL    HW212477   0.430   3.072   2.709 -2.9371  1.5318  1.2904
 3860SOL     OW12478   0.769   6.473   0.075  0.0621  0.1962 -0.4288
 3860SOL    HW112479   0.852   6.496   0.127  1.3786  0.5311 -2.5537
 3860SOL    HW212480   0.779   6.507  -0.018 -1.5528 -1.7390 -1.3582
 3861SOL     OW12481   3.692   3.960   1.277 -0.2588 -0.1495  0.1531
 3861SOL    HW112482   3.639   3.908   1.344 -0.0805  0.0009  0.4073
 3861SOL    HW212483   3.767   4.008   1.322 -0.8834  0.9685  0.0446
 3862SOL     OW12484   1.940   5.254   5.340  0.1302  0.3251 -0.1688
 3862SOL    HW112485   1.983   5.302   5.417  1.7800  0.0285 -0.8553
 3862SOL    HW212486   1.985   5.282   5.255 -1.4015  0.3553 -1.0021
 3863SOL     OW12487   0.927   2.777   2.454  0.0514  0.3357 -0.4031
 3863SOL    HW112488   0.857   2.720   2.497 -0.5207  0.4459 -1.1636
 3863SOL    HW212489   0.999   2.797   2.520 -0.1580 -0.5723  0.1177
 3864SOL     OW12490   3.948   2.373   0.798 -0.2026 -0.1088 -0.6763
 3864SOL    HW112491   3.876   2.440   0.818 -0.0715 -0.3238  0.5701
 3864SOL    HW212492   4.024   2.418   0.753 -0.1729  0.5657  0.0294
 3865SOL     OW12493   4.912   2.610   1.813 -0.1220 -0.0793  0.2312
 3865SOL    HW112494   4.863   2.608   1.901 -0.3039 -0.2525  0.1267
 3865SOL    HW212495   4.848   2.591   1.739 -0.4683  2.2460 -0.1667
 3866SOL     OW12496   4.723   6.282   0.207 -0.0065  0.0388  0.4170
 3866SOL    HW112497   4.741   6.209   0.272 -2.6429  0.6469  1.9771
 3866SOL    HW212498   4.671   6.246   0.129 -0.7170  0.0865  0.8578
 3867SOL     OW12499   1.329   4.261   3.991 -0.1464 -0.1683  0.5912
 3867SOL    HW112500   1.412   4.305   3.957 -1.1516 -0.6953 -2.9393
 3867SOL    HW212501   1.326   4.167   3.959 -2.0777 -0.1672  0.6797
 3868SOL     OW12502   2.130   4.893   2.770 -0.2982  0.2283 -0.0552
 3868SOL    HW112503   2.229   4.880   2.780 -0.3861 -1.3702 -1.0722
 3868SOL    HW212504   2.092   4.822   2.712 -2.1915  0.3553  0.9409
 3869SOL     OW12505   1.877   3.251   4.340 -0.1424 -0.1113  0.0371
 3869SOL    HW112506   1.855   3.198   4.259  1.7732 -0.9217 -0.0009
 3869SOL    HW212507   1.918   3.339   4.313 -0.8920  0.2753  0.1299
 3870SOL     OW12508   4.530   4.300   1.432 -0.0212  0.3465 -0.0146
 3870SOL    HW112509   4.562   4.234   1.500  0.2800  1.7852  1.3033
 3870SOL    HW212510   4.544   4.393   1.467 -0.7907  1.1133 -1.6455
 3871SOL     OW12511   2.100   1.705   5.662  0.2055  1.1786 -0.0139
 3871SOL    HW112512   2.040   1.630   5.633 -0.4863  1.9979 -0.7480
 3871SOL    HW212513   2.044   1.783   5.689  0.8431  0.8644  2.4947
 3872SOL     OW12514   5.729   2.805   0.566  0.4860 -0.1859 -0.4829
 3872SOL    HW112515   5.758   2.898   0.589 -2.0870  0.5769  0.0407
 3872SOL    HW212516   5.647   2.782   0.619  0.9634 -2.7236 -0.7217
 3873SOL     OW12517   4.875   3.839   3.832  0.0603 -0.0150 -0.4676
 3873SOL    HW112518   4.834   3.929   3.815  0.0502  0.0958  0.1163
 3873SOL    HW212519   4.839   3.802   3.917  0.3181 -0.4243 -0.5362
 3874SOL     OW12520   5.249   6.357   6.050  0.2151  0.4222 -0.1599
 3874SOL    HW112521   5.334   6.305   6.052  1.1348  1.8346 -0.6937
 3874SOL    HW212522   5.185   6.313   5.988  1.2738  0.3476 -1.2433
 3875SOL     OW12523   2.295   5.366   1.520  0.1034  0.5772 -0.1479
 3875SOL    HW112524   2.279   5.427   1.597  0.8644  1.7274 -0.8762
 3875SOL    HW212525   2.242   5.396   1.441  1.3175  0.9774 -0.8370
 3876SOL     OW12526   6.141   4.735   1.244  0.0123 -0.0758 -0.4336
 3876SOL    HW112527   6.170   4.818   1.197 -0.3372 -0.3598 -1.1665
 3876SOL    HW212528   6.211   4.665   1.235  0.1794  0.0389 -0.0638
 3877SOL     OW12529   1.954   4.453   2.548 -0.5145  0.7174  0.1957
 3877SOL    HW112530   2.005   4.371   2.522  1.6780  1.5019  1.7497
 3877SOL    HW212531   1.931   4.448   2.645 -0.8681  1.7084  0.1735
 3878SOL     OW12532   2.523   5.860   3.392  0.1603 -0.0849  0.0246
 3878SOL    HW112533   2.586   5.818   3.326  0.2053 -0.3831  0.2556
 3878SOL    HW212534   2.446   5.900   3.342  1.1769  1.4685 -0.3795
 3879SOL     OW12535   1.874   5.650   1.142 -0.0907 -0.3985  0.6307
 3879SOL    HW112536   1.863   5.555   1.169  0.8607  0.1831  3.4010
 3879SOL    HW212537   1.963   5.663   1.099  1.0587 -0.3365  2.8688
 3880SOL     OW12538   3.570   2.061   4.878 -0.2078 -0.3161  0.3663
 3880SOL    HW112539   3.663   2.035   4.853 -1.3244 -3.2937 -1.2982
 3880SOL    HW212540   3.520   2.089   4.796 -0.8863  1.0526  1.2068
 3881SOL     OW12541   2.925   5.092   1.169 -0.3586  0.1071  0.0141
 3881SOL    HW112542   3.008   5.069   1.118  0.3549  0.8961  0.7803
 3881SOL    HW212543   2.844   5.072   1.113  0.3749  0.1316 -1.0752
 3882SOL     OW12544   1.550   5.229   5.972 -0.5808  0.5188  0.0999
 3882SOL    HW112545   1.601   5.144   5.983 -0.2736  0.6122 -0.5675
 3882SOL    HW212546   1.607   5.296   5.924  0.0796  1.9004  2.5844
 3883SOL     OW12547   2.791   2.400   5.232 -0.2780  0.8977  0.4312
 3883SOL    HW112548   2.844   2.327   5.188 -0.7830  0.5764  0.3556
 3883SOL    HW212549   2.847   2.443   5.303 -0.2368 -0.0737  1.0028
 3884SOL     OW12550   6.635   5.547   5.210 -0.5156 -0.0319  0.0153
 3884SOL    HW112551   6.625   5.572   5.306  0.5654 -0.3826  0.2383
 3884SOL    HW212552   6.680   5.458   5.203  0.7310  0.6239 -0.8204
 3885SOL     OW12553   6.118   1.285   5.272  0.2970 -0.5835 -0.3283
 3885SOL    HW112554   6.044   1.224   5.301  0.4791 -0.5774  0.1595
 3885SOL    HW212555   6.096   1.324   5.183  0.8924 -2.5554 -1.3865
 3886SOL     OW12556   6.855   6.304   4.196 -0.3755 -0.1756  0.2322
 3886SOL    HW112557   6.879   6.358   4.277  0.1778 -0.4709  0.2700
 3886SOL    HW212558   6.862   6.207   4.218 -0.8591 -0.2583  0.0140
 3887SOL     OW12559   5.800   3.373   4.800  0.0089 -0.0904  0.4741
 3887SOL    HW112560   5.823   3.451   4.858 -0.0920  1.6901 -1.7481
 3887SOL    HW212561   5.706   3.382   4.767 -0.1363 -1.3881  0.4873
 3888SOL     OW12562   6.896   1.953   3.126  0.2731 -0.5422 -1.6539
 3888SOL    HW112563   6.924   1.920   3.036 -1.4455  0.5249 -2.6261
 3888SOL    HW212564   6.953   2.031   3.152  1.2179 -1.2662 -1.4781
 3889SOL     OW12565   6.800   6.158   1.373  0.5120  0.3980 -0.3798
 3889SOL    HW112566   6.872   6.150   1.303  0.2402 -1.7416 -0.4830
 3889SOL    HW212567   6.725   6.096   1.351 -0.5556  1.2582  0.7039
 3890SOL     OW12568   5.643   4.805   0.425 -0.2916  0.5433 -0.2012
 3890SOL    HW112569   5.664   4.815   0.522 -0.4346 -0.0046 -0.1071
 3890SOL    HW212570   5.549   4.835   0.408 -0.6321 -0.3462  0.0312
 3891SOL     OW12571   5.833   3.720   6.101 -0.4543 -0.1663 -0.5937
 3891SOL    HW112572   5.740   3.691   6.124 -0.7158  0.3531 -0.9558
 3891SOL    HW212573   5.899   3.661   6.146 -0.9295  0.7516  1.4099
 3892SOL     OW12574   0.212   4.609   4.474 -0.6008 -0.1977  0.2441
 3892SOL    HW112575   0.262   4.661   4.404  1.3283 -1.6444  0.4679
 3892SOL    HW212576   0.254   4.624   4.563 -0.3678 -1.6622  0.3999
 3893SOL     OW12577   3.938   6.682   2.859 -0.1923  0.3877  0.0433
 3893SOL    HW112578   3.993   6.651   2.937 -0.7308 -0.5960  0.0477
 3893SOL    HW212579   3.843   6.656   2.872 -0.1638 -0.4885 -1.2861
 3894SOL     OW12580   3.559   4.913   0.168  0.4859  0.8426 -0.0450
 3894SOL    HW112581   3.569   4.814   0.156 -0.6714  0.5669  1.0531
 3894SOL    HW212582   3.606   4.941   0.252  0.0178  1.0708  0.1393
 3895SOL     OW12583   1.582   2.023   5.484 -0.1384 -0.0169  0.3736
 3895SOL    HW112584   1.498   2.005   5.433 -0.2218 -0.5272  0.6928
 3895SOL    HW212585   1.618   1.938   5.521  1.3564 -0.0454 -1.0299
 3896SOL     OW12586   5.866   3.012   5.414 -0.4971 -0.3124  0.5527
 3896SOL    HW112587   5.874   2.934   5.352  0.2060 -0.7658  1.2029
 3896SOL    HW212588   5.852   2.979   5.508  0.6523  0.3261  0.9586
 3897SOL     OW12589   2.834   6.174   4.845 -0.1812 -0.0666 -0.2164
 3897SOL    HW112590   2.929   6.163   4.816 -0.7843 -0.6693 -2.1238
 3897SOL    HW212591   2.781   6.217   4.771 -1.2955  0.7584  1.0051
 3898SOL     OW12592   3.436   3.119   2.978 -0.7146 -0.4759  0.0684
 3898SOL    HW112593   3.351   3.109   2.927 -1.1210 -0.4244  0.7219
 3898SOL    HW212594   3.421   3.179   3.057  0.0425 -0.0847 -0.0669
 3899SOL     OW12595   4.906   3.189   5.506  0.5537 -0.0052 -0.6674
 3899SOL    HW112596   5.006   3.189   5.507  0.6243 -2.0918 -2.3452
 3899SOL    HW212597   4.873   3.276   5.543  2.9907  1.7172 -2.2685
 3900SOL     OW12598   6.688   1.646   5.081  0.5271  0.0667 -0.4024
 3900SOL    HW112599   6.783   1.635   5.111  0.2624 -0.0333  0.4177
 3900SOL    HW212600   6.646   1.722   5.130  0.0369 -0.2049 -0.3944
 3901SOL     OW12601   2.114   4.617   4.530 -0.3293  0.1769 -0.2578
 3901SOL    HW112602   2.076   4.525   4.528  0.2622 -0.0984  0.4532
 3901SOL    HW212603   2.041   4.684   4.539 -0.7185 -0.2686 -0.0780
 3902SOL     OW12604   4.144   4.752   3.366  0.7746  0.4269  0.6379
 3902SOL    HW112605   4.132   4.752   3.266  0.8714 -0.0954  0.6264
 3902SOL    HW212606   4.054   4.754   3.410  0.6271 -1.8961  0.5414
 3903SOL     OW12607   2.964   4.031   6.431 -0.0238  0.7278 -0.1166
 3903SOL    HW112608   3.025   4.085   6.374  0.8630 -0.9566 -0.8603
 3903SOL    HW212609   3.016   3.993   6.508 -0.4194  0.3202 -0.0453
 3904SOL     OW12610   2.150   6.012   1.694 -0.2717 -0.0517  0.4945
 3904SOL    HW112611   2.204   6.046   1.771  0.1078  1.2578 -0.3174
 3904SOL    HW212612   2.178   6.059   1.610 -0.2528 -1.8680 -0.5753
 3905SOL     OW12613   5.612   0.903   6.263 -0.5826  0.0029 -0.1095
 3905SOL    HW112614   5.608   0.931   6.359  0.8933 -1.8898  0.5705
 3905SOL    HW212615   5.597   0.804   6.257  0.0658 -0.0149 -1.7410
 3906SOL     OW12616   0.271   0.534   3.799  0.0305 -0.0444  0.0332
 3906SOL    HW112617   0.258   0.442   3.763  1.6998  1.4187 -5.2514
 3906SOL    HW212618   0.202   0.595   3.762  0.2297  1.2718  1.6880
 3907SOL     OW12619   1.072   2.474   5.196 -0.0607 -0.2844  0.3269
 3907SOL    HW112620   1.135   2.551   5.183  0.1661 -0.1994  1.7144
 3907SOL    HW212621   1.119   2.388   5.177  0.1025 -0.1567  0.1501
 3908SOL     OW12622   6.765   1.746   3.301  0.0277  0.4476  0.3693
 3908SOL    HW112623   6.700   1.751   3.377  1.3245  0.9947  1.4746
 3908SOL    HW212624   6.840   1.810   3.316 -0.4081  1.6990 -2.1173
 3909SOL     OW12625   5.937   0.010   1.509 -0.1383  0.0716 -0.3392
 3909SOL    HW112626   6.029  -0.025   1.489  0.8215  1.3861  1.5142
 3909SOL    HW212627   5.936   0.109   1.499 -1.4429  0.0518 -0.5524
 3910SOL     OW12628   2.373   2.506   1.015 -0.7072 -0.0439  0.1740
 3910SOL    HW112629   2.392   2.531   0.920 -1.5143 -1.0189 -0.2591
 3910SOL    HW212630   2.424   2.424   1.039 -1.0685 -0.2207  0.3511
 3911SOL     OW12631   1.632   0.450   1.210  0.1306 -0.0922 -0.4589
 3911SOL    HW112632   1.729   0.449   1.237 -0.0529 -1.0370  0.2347
 3911SOL    HW212633   1.616   0.377   1.144  0.1826  1.0197 -1.7326
 3912SOL     OW12634   4.298   4.059   6.670 -0.1409  0.1070  0.6189
 3912SOL    HW112635   4.381   4.099   6.632  0.6106 -0.6155  1.4603
 3912SOL    HW212636   4.220   4.081   6.611  0.8707 -0.3905 -0.9510
 3913SOL     OW12637   5.098   5.637   3.182 -0.0861 -0.0985  0.1700
 3913SOL    HW112638   5.103   5.544   3.145  0.4965 -1.4897  3.3690
 3913SOL    HW212639   5.165   5.646   3.256  1.1149  3.5147 -1.1595
 3914SOL     OW12640   6.761   2.006   0.364 -0.6013 -0.3006 -0.0406
 3914SOL    HW112641   6.687   2.047   0.418 -0.3789 -0.2940  0.2623
 3914SOL    HW212642   6.811   1.941   0.421  0.2331  0.4114  0.0523
 3915SOL     OW12643   5.232   0.952   5.195 -1.2825 -0.0511 -0.1463
 3915SOL    HW112644   5.274   0.958   5.105 -0.1253  1.2830  0.4566
 3915SOL    HW212645   5.143   0.997   5.193  0.0502  2.8501  0.0704
 3916SOL     OW12646   2.219   2.826   1.136  0.5664 -0.0970  0.1575
 3916SOL    HW112647   2.188   2.777   1.217 -1.5157 -0.9826 -1.0918
 3916SOL    HW212648   2.162   2.801   1.058  0.8947  2.6101 -1.0606
 3917SOL     OW12649   4.224   5.049   2.505  0.3239 -0.6722 -0.0954
 3917SOL    HW112650   4.209   4.957   2.469  2.1087 -0.3752 -1.7575
 3917SOL    HW212651   4.233   5.045   2.604  3.0394 -2.7499 -0.3126
 3918SOL     OW12652   5.926   1.864   0.302  0.7289  0.1608  0.2157
 3918SOL    HW112653   5.878   1.780   0.276 -0.9334  1.4387 -1.1384
 3918SOL    HW212654   6.022   1.857   0.276  0.3033 -0.7641 -1.2256
 3919SOL     OW12655   5.835   4.154   3.251  0.3458 -0.5560 -0.4206
 3919SOL    HW112656   5.841   4.182   3.155  2.6873 -0.3134 -0.2816
 3919SOL    HW212657   5.862   4.058   3.259 -1.3524 -1.0292 -0.1574
 3920SOL     OW12658   1.967   3.428   5.088 -0.6291  0.1480  0.2372
 3920SOL    HW112659   2.015   3.390   5.009 -0.8051 -1.3440  0.8158
 3920SOL    HW212660   1.899   3.494   5.057  1.2119  1.7337 -0.6555
 3921SOL     OW12661   0.782   4.584   0.737 -0.4132 -0.6018 -0.2380
 3921SOL    HW112662   0.881   4.577   0.727 -0.3826  0.9064 -1.3877
 3921SOL    HW212663   0.738   4.519   0.675 -0.1507 -1.0545  0.0472
 3922SOL     OW12664   6.478   3.076   3.278  0.1577 -0.2151 -0.4725
 3922SOL    HW112665   6.407   3.146   3.271  0.2318 -0.1314 -0.4072
 3922SOL    HW212666   6.557   3.115   3.326  0.7861  0.1132 -1.7278
 3923SOL     OW12667   6.583   1.012   2.171  0.2882  0.1438 -0.3766
 3923SOL    HW112668   6.604   1.090   2.112  1.1602 -0.0538 -0.3317
 3923SOL    HW212669   6.568   1.043   2.264  0.7038  0.2573 -0.3458
 3924SOL     OW12670   4.091   6.705   4.674 -0.4014 -0.2744  0.7803
 3924SOL    HW112671   4.068   6.778   4.739  2.0444  0.3536  1.0357
 3924SOL    HW212672   4.087   6.741   4.581 -1.6819 -0.5468  0.7167
 3925SOL     OW12673   5.422   4.654   2.531 -0.1892  0.3105 -0.3271
 3925SOL    HW112674   5.475   4.578   2.569 -0.7807  0.8232  1.6255
 3925SOL    HW212675   5.338   4.666   2.584 -1.8439  0.1584 -2.7400
 3926SOL     OW12676   6.458   5.776   4.001  0.3717  0.1197 -0.1772
 3926SOL    HW112677   6.369   5.777   4.047  0.5214  0.6491  0.1164
 3926SOL    HW212678   6.452   5.722   3.917 -0.5647  1.1524 -0.8101
 3927SOL     OW12679   5.146   1.033   6.957  0.5856 -0.2502  0.4705
 3927SOL    HW112680   5.193   0.945   6.949  0.2482 -0.3506 -0.4534
 3927SOL    HW212681   5.193   1.089   7.026  1.0825 -0.9671  0.7284
 3928SOL     OW12682   3.846   5.952   1.716  0.1202 -0.0978  0.7712
 3928SOL    HW112683   3.823   5.862   1.680 -1.3605 -0.2977  2.0937
 3928SOL    HW212684   3.849   5.949   1.816 -2.6746  1.8301  1.0347
 3929SOL     OW12685   2.330   2.367   6.449 -0.3448 -0.2346  0.0343
 3929SOL    HW112686   2.309   2.380   6.546  1.4482 -0.7901  0.5298
 3929SOL    HW212687   2.315   2.272   6.423 -1.1030 -0.0280 -0.3377
 3930SOL     OW12688   2.015   5.004   5.124  0.3734 -0.6437 -0.0523
 3930SOL    HW112689   1.983   4.939   5.193 -0.3072  1.1714  1.4242
 3930SOL    HW212690   1.943   5.019   5.056 -1.3360  1.8468  2.1038
 3931SOL     OW12691   0.847   3.797   1.497 -0.4365  0.4432  0.2118
 3931SOL    HW112692   0.801   3.732   1.436 -0.7988 -0.7514  1.7044
 3931SOL    HW212693   0.945   3.777   1.499 -0.8573 -1.8351  2.6374
 3932SOL     OW12694   4.272   4.749   2.767  0.1949 -0.2916 -0.5222
 3932SOL    HW112695   4.181   4.763   2.728  1.6884  3.5347 -3.2161
 3932SOL    HW212696   4.335   4.722   2.694  1.7169 -0.3052  0.7678
 3933SOL     OW12697   2.377   4.914   2.062  0.3523 -0.2194 -0.4731
 3933SOL    HW112698   2.349   4.913   2.158  1.1336  1.1147 -0.2093
 3933SOL    HW212699   2.421   4.827   2.040  0.6925 -0.3198  0.5448
 3934SOL     OW12700   2.399   0.899   2.191 -0.0069  0.3817  0.3662
 3934SOL    HW112701   2.337   0.891   2.269  0.9770 -1.3742  1.0372
 3934SOL    HW212702   2.488   0.860   2.216  0.7629  1.0807 -1.1921
 3935SOL     OW12703   0.095   3.435   4.815  0.5423 -0.2742  0.0570
 3935SOL    HW112704   0.093   3.363   4.746 -0.1521  0.1927 -0.4212
 3935SOL    HW212705   0.096   3.525   4.769  2.5884  0.0341  0.6101
 3936SOL     OW12706   0.733   4.616   4.403 -0.0033  0.7420  0.2366
 3936SOL    HW112707   0.796   4.552   4.359  0.1387  1.0093  0.0471
 3936SOL    HW212708   0.732   4.600   4.501 -0.3883  0.0801  0.1315
 3937SOL     OW12709   0.069   5.148   6.438  0.1663  0.5113 -0.2484
 3937SOL    HW112710   0.071   5.245   6.412  0.9280  0.4868 -0.3003
 3937SOL    HW212711   0.090   5.092   6.359  0.2880  0.3284 -0.0857
 3938SOL     OW12712   6.759   3.396   0.692  0.2383  0.1588  0.0644
 3938SOL    HW112713   6.660   3.377   0.695  0.3160 -0.2768  0.0398
 3938SOL    HW212714   6.809   3.309   0.698  0.6071  0.2713 -1.2310
 3939SOL     OW12715   1.578   6.053   2.012  0.1242 -0.0061  0.1841
 3939SOL    HW112716   1.503   5.993   2.040 -0.7902  1.8772  2.0870
 3939SOL    HW212717   1.561   6.145   2.046  2.6466  0.8139 -0.5567
 3940SOL     OW12718   2.942   4.076   6.754  0.9176 -1.1838  0.2144
 3940SOL    HW112719   2.955   4.025   6.839 -1.3673 -0.5343  1.0116
 3940SOL    HW212720   2.857   4.047   6.710 -0.2703  1.5521  0.4900
 3941SOL     OW12721   5.227   2.762   0.396 -0.3596 -1.0173 -0.1099
 3941SOL    HW112722   5.245   2.769   0.298  0.8765 -3.0787 -0.0832
 3941SOL    HW212723   5.129   2.774   0.412 -0.6141 -0.8492 -1.6076
 3942SOL     OW12724   5.930   4.803   5.302  0.2376  0.4512  0.0784
 3942SOL    HW112725   6.022   4.832   5.327  0.3326  1.2790 -1.1607
 3942SOL    HW212726   5.882   4.879   5.257 -0.8192 -0.1798  0.0955
 3943SOL     OW12727   2.315   2.107   6.329 -0.1081 -0.9188  0.6478
 3943SOL    HW112728   2.411   2.133   6.327 -0.8375  2.1311  0.5381
 3943SOL    HW212729   2.290   2.062   6.243  1.1992 -1.7925  0.7086
 3944SOL     OW12730   2.817   3.627   0.460  0.2529  0.5697 -0.6279
 3944SOL    HW112731   2.861   3.697   0.403  0.6683  0.1960 -0.7744
 3944SOL    HW212732   2.888   3.576   0.509  0.0825 -0.9032 -1.8584
 3945SOL     OW12733   6.382   0.953   2.982 -0.1057 -0.3250 -0.2382
 3945SOL    HW112734   6.480   0.947   3.000 -0.3151 -1.9795  0.4617
 3945SOL    HW212735   6.335   0.991   3.062 -0.0327  0.6539 -0.6461
 3946SOL     OW12736   0.065   4.070   0.045  0.0362 -0.5175  0.0785
 3946SOL    HW112737   0.163   4.049   0.051  0.5331  1.8571  2.9237
 3946SOL    HW212738   0.053   4.169   0.042 -2.2986 -0.7695 -0.4210
 3947SOL     OW12739   5.354   6.399   1.044  0.2394  0.2083 -0.2992
 3947SOL    HW112740   5.260   6.421   1.018  0.1656  0.2431 -0.0053
 3947SOL    HW212741   5.353   6.329   1.115  0.3956  1.0471  0.5477
 3948SOL     OW12742   0.748   1.379   6.167 -0.0382 -0.4098 -0.1412
 3948SOL    HW112743   0.841   1.415   6.174 -0.8482  1.4786  2.2973
 3948SOL    HW212744   0.745   1.288   6.208  0.5640 -0.1305  0.5468
 3949SOL     OW12745   0.260   6.153   2.229  0.4868  0.1538  0.6638
 3949SOL    HW112746   0.276   6.158   2.328 -2.5583 -1.6601  1.3939
 3949SOL    HW212747   0.249   6.057   2.202  0.6733  0.6656 -1.3585
 3950SOL     OW12748   3.439   5.164   1.688  0.4682  0.4542  0.2900
 3950SOL    HW112749   3.383   5.093   1.645  1.6802  0.0595 -0.6765
 3950SOL    HW212750   3.437   5.151   1.787  2.5985 -2.5114  0.0641
 3951SOL     OW12751   1.021   3.268   5.617  0.0275  0.2341 -0.1236
 3951SOL    HW112752   0.983   3.360   5.618 -2.1612 -0.6051  0.5274
 3951SOL    HW212753   1.009   3.226   5.708 -0.7375 -1.3096 -0.8935
 3952SOL     OW12754   5.623   4.525   6.635  0.0132  0.5309 -0.6737
 3952SOL    HW112755   5.684   4.471   6.577 -0.7018  0.4907 -1.4222
 3952SOL    HW212756   5.666   4.612   6.657  0.5554  0.2827 -0.7359
 3953SOL     OW12757   4.902   0.551   6.353 -0.2445  0.2211  0.4484
 3953SOL    HW112758   4.896   0.647   6.327 -1.9017 -0.5256 -2.2260
 3953SOL    HW212759   4.955   0.501   6.284  0.2132 -0.8889  1.5664
 3954SOL     OW12760   0.598   3.122   3.848  0.0067  0.0613 -1.1717
 3954SOL    HW112761   0.505   3.139   3.879  0.1240  0.9564 -1.3033
 3954SOL    HW212762   0.636   3.204   3.806  2.0146  0.8579  1.7931
 3955SOL     OW12763   5.466   5.136   0.545  0.8585  0.8703  0.4209
 3955SOL    HW112764   5.524   5.209   0.510 -0.0424  1.3211 -0.1481
 3955SOL    HW212765   5.400   5.174   0.610 -0.2602  0.7436 -0.6131
 3956SOL     OW12766   0.004   3.463   6.574 -0.1753 -0.2063 -0.3438
 3956SOL    HW112767   0.080   3.513   6.533 -0.6245  0.6320 -0.1897
 3956SOL    HW212768  -0.077   3.473   6.515  0.0243 -1.7417 -0.9081
 3957SOL     OW12769   0.131   2.074   2.831  0.2262  0.0668  0.2228
 3957SOL    HW112770   0.156   2.083   2.734  2.1619 -1.4678  0.5130
 3957SOL    HW212771   0.203   2.115   2.887 -0.3919  0.0535  1.0301
 3958SOL     OW12772   5.218   5.994   1.122  0.4048 -0.3901 -0.0847
 3958SOL    HW112773   5.207   5.895   1.112  4.3170 -1.2628  1.9299
 3958SOL    HW212774   5.300   6.023   1.072  0.0504  1.5832  0.4069
 3959SOL     OW12775   2.061   4.786   1.797 -0.1931  0.3967  0.6096
 3959SOL    HW112776   2.079   4.868   1.851  1.1243  1.6931 -1.6032
 3959SOL    HW212777   2.081   4.805   1.700 -1.1667 -2.1536 -0.1835
 3960SOL     OW12778   4.974   2.577   1.443 -0.4440 -0.3439 -0.1918
 3960SOL    HW112779   4.970   2.497   1.502 -0.6238 -0.1755  0.0275
 3960SOL    HW212780   4.899   2.574   1.377 -0.2707 -0.5085 -0.3823
 3961SOL     OW12781   3.723   0.543   2.474 -0.5482 -0.4026  0.0831
 3961SOL    HW112782   3.811   0.558   2.519  1.1006 -0.1778 -2.9297
 3961SOL    HW212783   3.676   0.467   2.518  1.1875 -0.5928  1.7600
 3962SOL     OW12784   6.205   6.256   5.281 -0.2131 -0.2036 -0.0476
 3962SOL    HW112785   6.207   6.355   5.292 -2.3412 -0.3802  3.0805
 3962SOL    HW212786   6.111   6.225   5.271  0.4236 -1.9264 -1.1211
 3963SOL     OW12787   4.458   4.884   3.614  0.1812 -0.2909 -0.3123
 3963SOL    HW112788   4.444   4.950   3.687  1.8408  0.5137 -0.6782
 3963SOL    HW212789   4.543   4.834   3.630  0.4481 -0.2653 -1.5414
 3964SOL     OW12790   6.477   6.575   1.050 -0.1314 -0.5581  0.1874
 3964SOL    HW112791   6.509   6.580   0.956 -0.5751  0.6086  0.0898
 3964SOL    HW212792   6.482   6.480   1.082  3.2339 -0.5107  0.1413
 3965SOL     OW12793   2.890   2.348   0.151 -0.7284  0.1930 -0.5465
 3965SOL    HW112794   2.987   2.345   0.174 -0.3595  1.9568 -1.6652
 3965SOL    HW212795   2.839   2.388   0.226 -0.6465 -0.9619  0.1441
 3966SOL     OW12796   0.258   2.931   5.904  0.0469 -0.2474 -0.2187
 3966SOL    HW112797   0.180   2.920   5.843 -0.9048 -0.2079  0.9491
 3966SOL    HW212798   0.236   2.893   5.994  1.3137 -0.0725  0.1945
 3967SOL     OW12799   2.270   1.664   6.990 -0.1237 -0.2197 -0.7005
 3967SOL    HW112800   2.323   1.746   6.966  1.3633 -0.6396  0.9913
 3967SOL    HW212801   2.306   1.586   6.940  1.8547 -0.7620  1.3877
 3968SOL     OW12802   4.551   1.574   2.633 -0.1756  0.5375 -0.0536
 3968SOL    HW112803   4.459   1.545   2.607  0.2407 -0.9231  0.0325
 3968SOL    HW212804   4.558   1.578   2.733 -0.2784  1.1344 -0.0655
 3969SOL     OW12805   0.099   0.486   1.684 -0.2755  0.1464 -0.0718
 3969SOL    HW112806   0.177   0.528   1.637  0.6629 -1.9596 -0.5143
 3969SOL    HW212807   0.020   0.547   1.678  0.8411  1.5694 -1.1376
 3970SOL     OW12808   4.739   4.154   4.478 -0.1541  0.0702  0.1404
 3970SOL    HW112809   4.694   4.174   4.565 -1.1202 -1.0105 -0.0702
 3970SOL    HW212810   4.783   4.064   4.484  1.7984  0.9864  0.2441
 3971SOL     OW12811   0.752   6.545   5.615 -0.8132 -0.3139 -0.6981
 3971SOL    HW112812   0.797   6.626   5.577 -0.4932 -0.6712 -1.0959
 3971SOL    HW212813   0.818   6.470   5.622 -1.1618 -0.6145 -0.5598
 3972SOL     OW12814   1.098   0.499   5.355  0.8500 -0.8312 -0.4207
 3972SOL    HW112815   1.141   0.583   5.321 -1.0047  0.9330  1.2542
 3972SOL    HW212816   1.043   0.458   5.282 -1.8670  2.0294 -0.2051
 3973SOL     OW12817   2.840   3.550   2.046  0.0384  0.4365  0.9052
 3973SOL    HW112818   2.823   3.641   2.009 -0.3390 -0.4817 -1.4010
 3973SOL    HW212819   2.755   3.496   2.041  0.5053 -0.3468  1.2231
 3974SOL     OW12820   5.874   1.607   0.194 -0.2442 -0.8714 -0.4796
 3974SOL    HW112821   5.896   1.612   0.097  2.0423 -0.6788 -0.0196
 3974SOL    HW212822   5.848   1.513   0.217 -1.3516 -0.8001 -1.3445
 3975SOL     OW12823   4.870   5.602   6.594 -0.3032  0.0375  0.0849
 3975SOL    HW112824   4.814   5.590   6.512 -2.0025 -2.5025  1.4579
 3975SOL    HW212825   4.835   5.679   6.648  0.1047  0.9937 -0.9910
 3976SOL     OW12826   7.000   3.359   6.128 -0.4516 -0.1061 -0.4863
 3976SOL    HW112827   7.086   3.314   6.154 -0.6964 -0.4449 -0.2632
 3976SOL    HW212828   7.017   3.419   6.050  0.1997  0.5834  0.1679
 3977SOL     OW12829   2.873   5.598   5.720 -0.0353 -0.4128  0.1110
 3977SOL    HW112830   2.958   5.564   5.761  0.1311 -0.9256 -0.6353
 3977SOL    HW212831   2.823   5.652   5.787  1.7289  1.3963  0.0615
 3978SOL     OW12832   5.385   2.624   0.939  0.1116 -0.2547 -0.3236
 3978SOL    HW112833   5.376   2.690   1.014 -0.2586 -0.8460  0.1629
 3978SOL    HW212834   5.433   2.667   0.863 -0.4941  0.7064 -0.1805
 3979SOL     OW12835   2.807   1.371   5.342  0.7640  0.4887 -0.0105
 3979SOL    HW112836   2.732   1.415   5.293  0.3438  0.8466  0.9245
 3979SOL    HW212837   2.859   1.440   5.392  0.0494 -0.0332  1.5392
 3980SOL     OW12838   5.546   3.810   3.003  0.1913  0.1370 -0.4148
 3980SOL    HW112839   5.448   3.795   2.988  0.1383  0.0919 -0.0289
 3980SOL    HW212840   5.588   3.727   3.039  0.3098  0.2565 -0.2748
 3981SOL     OW12841   6.723   3.181   5.006 -0.1289 -0.0357  0.5979
 3981SOL    HW112842   6.815   3.220   5.009 -0.3156  0.3679  1.8259
 3981SOL    HW212843   6.680   3.192   5.096 -2.0767  1.4375 -0.4584
 3982SOL     OW12844   1.398   4.062   2.185  0.4549 -0.1596  0.2281
 3982SOL    HW112845   1.303   4.056   2.153 -0.0530  1.4060  1.3396
 3982SOL    HW212846   1.404   4.130   2.258  2.8781  1.6539 -1.4947
 3983SOL     OW12847   4.234   6.345   3.449  0.1260  0.4059  0.0536
 3983SOL    HW112848   4.260   6.351   3.545  1.3324  0.6097 -0.2701
 3983SOL    HW212849   4.269   6.425   3.400  0.0177  0.0198 -0.6630
 3984SOL     OW12850   3.967   6.559   1.488  0.5341  0.3977 -0.7092
 3984SOL    HW112851   3.873   6.527   1.498  0.8147 -1.0714 -2.3525
 3984SOL    HW212852   3.967   6.656   1.462 -0.5826  0.0379 -2.1533
 3985SOL     OW12853   6.751   2.640   1.898  0.4549 -0.0418  0.1148
 3985SOL    HW112854   6.836   2.592   1.879 -0.6270 -1.4566 -1.4399
 3985SOL    HW212855   6.767   2.739   1.896  1.8792 -0.2604 -0.9957
 3986SOL     OW12856   0.256   2.636   2.727 -0.3463  0.0667 -0.2057
 3986SOL    HW112857   0.257   2.544   2.689 -0.3621  0.8486 -2.1998
 3986SOL    HW212858   0.166   2.656   2.766  0.2748 -1.4865  2.3060
 3987SOL     OW12859   1.244   2.656   5.446  0.1618  0.1081 -0.1123
 3987SOL    HW112860   1.244   2.560   5.474 -0.3526  0.8394  2.6830
 3987SOL    HW212861   1.322   2.673   5.385 -0.2303 -2.2206 -1.3712
 3988SOL     OW12862   3.857   5.977   1.989  0.2344  0.5497  0.1416
 3988SOL    HW112863   3.859   5.901   2.053 -0.4044  0.0441 -0.4162
 3988SOL    HW212864   3.851   6.064   2.039 -0.8731  0.1366  0.7635
 3989SOL     OW12865   3.403   0.830   5.562 -0.2594 -0.0153 -0.2976
 3989SOL    HW112866   3.493   0.842   5.518 -1.2577  2.1590 -1.9641
 3989SOL    HW212867   3.415   0.789   5.652  2.5071  0.9640 -0.1196
 3990SOL     OW12868   6.789   3.324   4.262 -0.7208 -0.0552 -0.0283
 3990SOL    HW112869   6.748   3.352   4.176  0.6932  1.3933 -0.2827
 3990SOL    HW212870   6.718   3.319   4.333 -1.4941  1.4119 -0.6629
 3991SOL     OW12871   5.328   1.620   3.346 -0.2389 -0.6526 -0.1995
 3991SOL    HW112872   5.294   1.585   3.434 -2.5238  0.3215 -0.6012
 3991SOL    HW212873   5.425   1.601   3.338 -0.0147 -1.0447  2.4061
 3992SOL     OW12874   4.806   4.911   5.445 -0.7955 -0.1773  0.5629
 3992SOL    HW112875   4.801   5.004   5.408  1.4127 -0.3958 -0.4394
 3992SOL    HW212876   4.713   4.875   5.457 -1.6696  1.7040 -0.1519
 3993SOL     OW12877   1.498   5.157   4.159  0.4954  0.2956  0.0738
 3993SOL    HW112878   1.580   5.108   4.188  0.4961  0.6954  0.7570
 3993SOL    HW212879   1.475   5.131   4.065  1.4958  0.3052 -0.1808
 3994SOL     OW12880   2.737   2.005   3.083  0.0053 -0.1874 -0.1186
 3994SOL    HW112881   2.820   2.010   3.027 -0.1768 -2.4984 -0.7212
 3994SOL    HW212882   2.762   1.998   3.180  0.4253  0.9882 -0.1318
 3995SOL     OW12883   0.457   4.454   1.611  0.2467  0.2948 -0.0351
 3995SOL    HW112884   0.405   4.502   1.681 -1.0566 -2.2748  0.9077
 3995SOL    HW212885   0.543   4.420   1.650  0.0299 -0.1898  0.0374
 3996SOL     OW12886   6.970   3.628   5.831 -0.2907 -0.0027 -0.0540
 3996SOL    HW112887   6.897   3.662   5.891  0.5967  1.6871  0.1349
 3996SOL    HW212888   7.058   3.636   5.878  0.4524  1.5250 -1.5804
 3997SOL     OW12889   5.281   3.931   4.313 -0.1025 -0.2078 -0.0740
 3997SOL    HW112890   5.257   3.882   4.396  0.7907 -1.3824 -0.4751
 3997SOL    HW212891   5.204   3.931   4.250  0.2314 -2.1884 -0.5450
 3998SOL     OW12892   3.806   2.093   4.049  0.0859  0.0772  0.2747
 3998SOL    HW112893   3.839   2.053   3.964 -0.1365 -1.0314  0.6965
 3998SOL    HW212894   3.708   2.111   4.043 -0.0993 -0.7828  0.5751
 3999SOL     OW12895   4.848   4.409   1.355  0.6579  0.6027 -0.3457
 3999SOL    HW112896   4.934   4.363   1.377  1.4847  0.9203 -2.6087
 3999SOL    HW212897   4.811   4.453   1.437  0.7979 -2.4284  1.4865
 4000SOL     OW12898   1.884   4.435   2.807  0.4497 -0.0337  0.2175
 4000SOL    HW112899   1.787   4.450   2.788  0.3498 -0.7052  0.1484
 4000SOL    HW212900   1.912   4.490   2.886 -0.1709 -0.3773  0.6846
 4001SOL     OW12901   5.775   7.007   5.353 -0.2592  0.3040  0.1765
 4001SOL    HW112902   5.755   7.070   5.278 -0.3651  0.9813  0.7592
 4001SOL    HW212903   5.763   7.055   5.441  0.4857 -0.2830  0.6135
 4002SOL     OW12904   2.935   3.784   4.260 -0.4258  0.2421  0.2820
 4002SOL    HW112905   2.963   3.855   4.325 -0.3431  0.1713  0.3234
 4002SOL    HW212906   3.007   3.770   4.192  0.6199 -1.5020  1.6715
 4003SOL     OW12907   1.422   1.962   0.001 -0.1705  0.7111 -0.2816
 4003SOL    HW112908   1.373   1.929   0.082  1.4424  0.0372  0.4798
 4003SOL    HW212909   1.370   2.035  -0.043 -1.2010  0.9398  1.2429
 4004SOL     OW12910   6.747   4.129   0.002  0.0072  0.4758  0.0770
 4004SOL    HW112911   6.657   4.171  -0.005  0.3766  1.8050  2.4895
 4004SOL    HW212912   6.812   4.194   0.039  1.7297 -0.8330 -0.4935
 4005SOL     OW12913   4.448   2.901   6.088 -0.3565 -0.3493 -0.0092
 4005SOL    HW112914   4.450   2.814   6.138  1.4976 -0.0574  0.4774
 4005SOL    HW212915   4.473   2.975   6.150 -0.4191  0.3361 -0.7956
 4006SOL     OW12916   0.395   5.826   2.105 -0.4582  0.1273  0.3976
 4006SOL    HW112917   0.464   5.834   2.177  1.2944  1.3746 -1.3328
 4006SOL    HW212918   0.304   5.840   2.145  0.3067 -0.6153  2.5701
 4007SOL     OW12919   6.958   6.683   1.953 -0.0766  0.2408  0.0422
 4007SOL    HW112920   6.868   6.656   1.919  0.2064  1.0376 -1.4193
 4007SOL    HW212921   7.024   6.681   1.878  1.4828 -1.6980  1.3523
 4008SOL     OW12922   4.489   2.399   2.829 -0.1459 -0.1474  0.0008
 4008SOL    HW112923   4.411   2.388   2.767 -0.8338 -1.9744  1.1241
 4008SOL    HW212924   4.573   2.378   2.780 -0.7356 -2.2233 -0.2110
 4009SOL     OW12925   4.894   2.297   0.717  0.3064 -0.5364  0.6440
 4009SOL    HW112926   4.801   2.330   0.730  0.0559 -0.5468 -0.9831
 4009SOL    HW212927   4.952   2.330   0.793 -0.4043  1.7932  0.2530
 4010SOL     OW12928   0.184   5.176   2.446 -0.2430  0.7827 -0.0054
 4010SOL    HW112929   0.110   5.128   2.495  0.1468 -0.6451 -0.7768
 4010SOL    HW212930   0.145   5.228   2.370 -0.3673 -1.0319 -1.2341
 4011SOL     OW12931   5.883   6.002   6.294 -0.0346  0.0686 -0.2097
 4011SOL    HW112932   5.967   5.949   6.288  1.0846  1.3627  2.4309
 4011SOL    HW212933   5.806   5.942   6.317  0.7179 -0.7524  0.1865
 4012SOL     OW12934   3.423   6.226   2.310  0.5900 -0.0247 -0.3792
 4012SOL    HW112935   3.420   6.306   2.251 -1.0838 -0.1458 -0.5041
 4012SOL    HW212936   3.333   6.182   2.311  1.7997 -2.7786 -1.5026
 4013SOL     OW12937   0.613   6.758   6.097 -0.2889  0.4816  0.2555
 4013SOL    HW112938   0.543   6.827   6.076 -1.1254 -0.7792 -1.3191
 4013SOL    HW212939   0.687   6.801   6.148 -0.7151  2.5727 -0.7549
 4014SOL     OW12940   2.989   5.434   0.231  0.0660  0.1269 -0.4981
 4014SOL    HW112941   2.898   5.423   0.191  0.4056 -0.2875 -1.1651
 4014SOL    HW212942   3.006   5.358   0.294  0.7149 -0.9168 -1.8695
 4015SOL     OW12943   3.854   4.415   5.675 -0.4326  0.2691  0.2192
 4015SOL    HW112944   3.890   4.506   5.653  0.8734 -0.2974 -0.0879
 4015SOL    HW212945   3.887   4.387   5.765  0.8366 -0.7082 -0.5222
 4016SOL     OW12946   4.896   4.193   4.845  0.4769 -0.3956 -0.1415
 4016SOL    HW112947   4.903   4.264   4.915  0.2360 -0.4818 -0.0277
 4016SOL    HW212948   4.803   4.192   4.807  1.0145  0.6606 -1.5505
 4017SOL     OW12949   0.535   4.543   6.722 -0.3060 -0.1587  0.3162
 4017SOL    HW112950   0.471   4.590   6.662 -1.0032  0.2687  1.3620
 4017SOL    HW212951   0.627   4.579   6.708 -0.1140 -1.2743 -1.7228
 4018SOL     OW12952   3.503   6.053   2.512 -0.3391 -0.4780 -0.3142
 4018SOL    HW112953   3.480   6.088   2.421 -0.0853  0.5627  0.0058
 4018SOL    HW212954   3.452   6.105   2.581  0.5077 -0.3368  0.2109
 4019SOL     OW12955   6.148   3.792   3.500  0.2745 -0.3002 -0.6666
 4019SOL    HW112956   6.074   3.799   3.433  1.5133  1.3282 -1.9323
 4019SOL    HW212957   6.223   3.853   3.474  1.4357 -0.7520  1.4122
 4020SOL     OW12958   6.468   4.770   4.641  0.3502  0.3415  0.0397
 4020SOL    HW112959   6.526   4.846   4.610  0.7976  0.6772  1.5907
 4020SOL    HW212960   6.470   4.696   4.574  2.1941  0.5612 -0.1887
 4021SOL     OW12961   3.556   5.548   4.968 -0.0944 -0.2320 -0.0702
 4021SOL    HW112962   3.506   5.630   4.994 -0.1739  0.3617 -2.0217
 4021SOL    HW212963   3.493   5.470   4.966 -0.3304 -0.0553  0.2679
 4022SOL     OW12964   4.102   6.594   0.660 -0.0623 -0.2378  0.0556
 4022SOL    HW112965   4.073   6.675   0.608  2.0599  0.9289  0.5888
 4022SOL    HW212966   4.106   6.515   0.599 -0.4364  0.4414 -0.8804
 4023SOL     OW12967   1.333   1.478   5.563 -0.1479  0.4034  0.1826
 4023SOL    HW112968   1.267   1.435   5.500 -0.7121  1.2793  0.1539
 4023SOL    HW212969   1.314   1.448   5.656  0.3676 -0.5059  0.0045
 4024SOL     OW12970   1.073   0.225   5.694  0.3930  0.1186  0.0438
 4024SOL    HW112971   1.083   0.198   5.598 -1.8757 -2.6030  0.4330
 4024SOL    HW212972   1.161   0.255   5.729  1.5014  0.2665 -2.6086
 4025SOL     OW12973   4.615   0.176   3.588  0.4040  0.1314  0.3094
 4025SOL    HW112974   4.596   0.167   3.490 -3.4964 -2.6913  1.1152
 4025SOL    HW212975   4.577   0.263   3.621  0.9510  0.6798 -0.4400
 4026SOL     OW12976   6.837   5.373   5.246 -0.7133 -0.1758  0.0571
 4026SOL    HW112977   6.796   5.318   5.173 -1.4992  0.9659 -0.3931
 4026SOL    HW212978   6.936   5.378   5.232 -0.9194  0.5652 -1.3391
 4027SOL     OW12979   3.619   5.694   6.263  0.4714 -0.7528  0.6147
 4027SOL    HW112980   3.584   5.787   6.255  0.3851 -0.8777 -0.6887
 4027SOL    HW212981   3.617   5.665   6.358  0.3428  0.5160  1.0064
 4028SOL     OW12982   5.987   1.025   3.809 -0.9140  0.1175  0.1925
 4028SOL    HW112983   5.950   1.031   3.716  1.5901 -2.9899 -1.1815
 4028SOL    HW212984   6.073   1.075   3.814  0.5672 -2.2363 -0.2078
 4029SOL     OW12985   3.410   5.984   6.916  0.5458 -0.1847  0.5304
 4029SOL    HW112986   3.341   5.918   6.944  1.4494 -0.7751  1.3937
 4029SOL    HW212987   3.437   6.040   6.994  1.5294 -0.4103  0.3616
 4030SOL     OW12988   6.063   1.059   2.223 -0.5312 -0.1923 -0.5137
 4030SOL    HW112989   6.093   0.997   2.295 -0.1489 -0.9788 -1.3308
 4030SOL    HW212990   6.018   1.007   2.151  0.0437  0.4386 -1.3482
 4031SOL     OW12991   0.536   6.208   6.620 -0.0619  0.1987  0.0068
 4031SOL    HW112992   0.480   6.125   6.617  0.4160 -0.1034 -0.6056
 4031SOL    HW212993   0.533   6.246   6.713  1.3083 -1.6111  0.8531
 4032SOL     OW12994   4.795   0.821   2.386 -0.0805 -0.0039  0.0994
 4032SOL    HW112995   4.881   0.828   2.335 -0.9736  0.0953 -1.4647
 4032SOL    HW212996   4.769   0.912   2.418  0.3770 -0.0308  0.5624
 4033SOL     OW12997   1.460   2.079   2.073 -0.5879 -0.1838 -0.1927
 4033SOL    HW112998   1.370   2.058   2.112 -0.7246  0.4648 -0.1509
 4033SOL    HW212999   1.526   2.094   2.147 -0.0126 -2.3795 -0.2047
 4034SOL     OW13000   1.033   3.640   4.524  0.2373 -0.1424  0.2217
 4034SOL    HW113001   1.058   3.544   4.541  0.7444 -0.4868 -2.1409
 4034SOL    HW213002   0.933   3.649   4.526  0.2270 -0.1816  2.8090
 4035SOL     OW13003   4.210   3.509   1.024  0.4414  0.0559 -0.3393
 4035SOL    HW113004   4.226   3.498   1.122 -0.0739 -2.0965 -0.4422
 4035SOL    HW213005   4.297   3.507   0.976  0.7494  1.7304  0.0848
 4036SOL     OW13006   2.348   5.843   2.451  0.0503 -0.0710 -0.2236
 4036SOL    HW113007   2.403   5.926   2.443  2.0252 -1.2859  0.1329
 4036SOL    HW213008   2.297   5.828   2.366  1.4172  0.3281 -1.1441
 4037SOL     OW13009   2.086   2.296   6.091  0.0985  0.5641 -0.5223
 4037SOL    HW113010   2.074   2.256   6.183  0.0744 -2.7897 -1.8350
 4037SOL    HW213011   2.181   2.327   6.081  1.1527 -2.2499 -0.3552
 4038SOL     OW13012   2.808   3.839   6.273 -0.1954 -0.2718 -0.0370
 4038SOL    HW113013   2.876   3.895   6.321 -0.5666 -0.0999  0.2911
 4038SOL    HW213014   2.805   3.748   6.313 -1.3715  0.2376  1.0864
 4039SOL     OW13015   5.471   5.422   0.761 -0.0283 -0.1705  0.2235
 4039SOL    HW113016   5.454   5.375   0.848  0.8905 -0.3601  0.3059
 4039SOL    HW213017   5.437   5.516   0.768 -1.4968 -0.6628  0.1962
 4040SOL     OW13018   3.184   0.612   5.020 -0.1173 -0.0082  0.0508
 4040SOL    HW113019   3.151   0.529   5.065 -0.0808 -0.2316 -0.3240
 4040SOL    HW213020   3.256   0.587   4.954 -0.6278  0.2270 -0.6039
 4041SOL     OW13021   1.824   6.964   0.518 -0.1567  0.2034  0.0074
 4041SOL    HW113022   1.829   6.921   0.608 -0.1856  1.9852  0.9038
 4041SOL    HW213023   1.915   6.962   0.475 -0.2641 -1.1563 -0.2021
 4042SOL     OW13024   5.605   6.316   2.903  0.3426  0.3631  0.0098
 4042SOL    HW113025   5.567   6.375   2.832 -2.9620 -0.8369  0.6319
 4042SOL    HW213026   5.599   6.362   2.991  1.3033  0.5276  0.0008
 4043SOL     OW13027   5.742   3.404   5.192  0.0431 -0.5121  0.2883
 4043SOL    HW113028   5.759   3.433   5.286  0.8017 -0.3607  0.1124
 4043SOL    HW213029   5.727   3.305   5.190 -1.7972 -0.2784  0.7905
 4044SOL     OW13030   5.005   4.195   5.375  0.4593  0.4730 -0.4231
 4044SOL    HW113031   5.068   4.192   5.298  2.4333 -0.1869  1.1244
 4044SOL    HW213032   5.056   4.182   5.460 -1.6817  0.7817  0.9862
 4045SOL     OW13033   4.016   2.147   5.111  0.0971 -0.7199 -0.0475
 4045SOL    HW113034   3.918   2.129   5.098  0.1808 -0.6364 -0.8203
 4045SOL    HW213035   4.032   2.179   5.205 -0.4017 -2.2569  0.6019
 4046SOL     OW13036   5.862   1.829   3.388  0.1233  0.3490 -0.3637
 4046SOL    HW113037   5.762   1.832   3.378 -0.0458 -1.9439  0.1273
 4046SOL    HW213038   5.896   1.921   3.408 -2.1456  0.8372  1.8184
 4047SOL     OW13039   3.325   2.433   5.459  0.5892  0.0502 -0.6194
 4047SOL    HW113040   3.389   2.505   5.487  0.9560 -0.1993 -0.8005
 4047SOL    HW213041   3.276   2.462   5.377 -0.8533  0.9966  0.5104
 4048SOL     OW13042   4.725   2.888   2.610 -0.3096  0.7008  0.3884
 4048SOL    HW113043   4.674   2.812   2.650  1.3063 -0.0554  1.0943
 4048SOL    HW213044   4.712   2.970   2.665 -1.4693  0.7811  0.0349
 4049SOL     OW13045   4.934   3.052   0.508  0.8304  0.7750  0.6484
 4049SOL    HW113046   4.874   3.098   0.574 -0.8734  0.8283 -0.8790
 4049SOL    HW213047   4.910   3.080   0.416  3.0021  0.4920 -0.0526
 4050SOL     OW13048   2.073   4.205   2.512 -0.1358  0.6663 -0.1692
 4050SOL    HW113049   1.997   4.156   2.470 -0.2784  0.9117 -0.1994
 4050SOL    HW213050   2.099   4.161   2.597  1.6472 -1.2331 -1.5910
 4051SOL     OW13051   6.822   1.272   2.932  0.0192 -0.1053 -0.2843
 4051SOL    HW113052   6.897   1.311   2.878  0.0618  0.4037  0.1349
 4051SOL    HW213053   6.749   1.241   2.871  0.3076 -0.0407 -0.6631
 4052SOL     OW13054   5.400   1.429   3.794  0.2781  0.4204  0.6937
 4052SOL    HW113055   5.403   1.481   3.879 -0.6264 -1.7436  2.1433
 4052SOL    HW213056   5.350   1.480   3.725  0.4928  1.9676  1.6491
 4053SOL     OW13057   1.103   5.356   4.492  0.0515 -0.2366 -0.1222
 4053SOL    HW113058   1.051   5.299   4.556  1.0421  0.9073  1.7943
 4053SOL    HW213059   1.060   5.446   4.485  0.3123 -0.1445 -0.5795
 4054SOL     OW13060   4.497   2.489   4.059  0.3286 -0.2635  0.0400
 4054SOL    HW113061   4.504   2.470   3.961 -1.8592  0.9934 -0.4328
 4054SOL    HW213062   4.409   2.456   4.093  1.1475 -0.8874  1.6713
 4055SOL     OW13063   0.465   4.168   0.261 -0.0984 -0.1167 -0.5966
 4055SOL    HW113064   0.535   4.223   0.306  1.4061 -1.5442 -1.0739
 4055SOL    HW213065   0.411   4.120   0.330  0.5568 -0.3622 -0.2432
 4056SOL     OW13066   4.434   4.747   0.347 -0.2010 -0.7928  0.1821
 4056SOL    HW113067   4.471   4.673   0.290 -1.3276 -1.4060  0.2175
 4056SOL    HW213068   4.502   4.775   0.414  0.6464 -1.0184 -0.5685
 4057SOL     OW13069   0.681   5.104   0.118 -0.4594 -0.2568 -0.0309
 4057SOL    HW113070   0.660   5.159   0.038  1.3191  0.7353  0.1451
 4057SOL    HW213071   0.653   5.009   0.102 -0.6097  0.0370 -1.5968
 4058SOL     OW13072   3.150   1.038   5.266 -0.3877 -0.3723 -0.4442
 4058SOL    HW113073   3.206   1.033   5.350  0.7001 -0.4086 -1.1533
 4058SOL    HW213074   3.187   1.109   5.206 -1.1724 -0.3423 -0.8917
 4059SOL     OW13075   2.590   1.042   3.240 -0.2319 -0.8324 -0.1356
 4059SOL    HW113076   2.533   0.961   3.252 -0.6151 -0.6280 -0.5404
 4059SOL    HW213077   2.625   1.071   3.329 -1.2090 -0.6476  0.2031
 4060SOL     OW13078   6.694   0.675   4.771  0.1195  0.1057  0.9315
 4060SOL    HW113079   6.703   0.657   4.673 -1.9213  0.7849  0.5747
 4060SOL    HW213080   6.701   0.773   4.788 -2.7233  0.3616  0.9895
 4061SOL     OW13081   2.106   0.900   1.020 -0.1577 -0.2710  0.1429
 4061SOL    HW113082   2.164   0.979   1.040  1.8593 -0.6425 -3.3981
 4061SOL    HW213083   2.136   0.822   1.075  0.7116  0.3273  0.5417
 4062SOL     OW13084   0.572   3.943   1.459 -0.1771  0.5019  0.1488
 4062SOL    HW113085   0.518   3.871   1.416  0.8466  0.0241 -0.3680
 4062SOL    HW213086   0.659   3.905   1.491  0.0849  1.3638  0.4972
 4063SOL     OW13087   4.836   0.551   4.817 -0.0920 -0.2300 -0.0124
 4063SOL    HW113088   4.857   0.496   4.897  2.8478  0.3670 -0.2863
 4063SOL    HW213089   4.915   0.555   4.756  0.1118  4.4479  0.1368
 4064SOL     OW13090   2.375   0.092   4.840  0.8710  0.3472 -0.5889
 4064SOL    HW113091   2.429   0.143   4.773  0.8642  1.2837  0.0980
 4064SOL    HW213092   2.307   0.152   4.881 -0.4835 -0.7350 -1.1835
 4065SOL     OW13093   3.343   6.809   0.959  0.2196 -0.1671  0.4254
 4065SOL    HW113094   3.396   6.864   0.895  1.0105 -0.9715  0.3822
 4065SOL    HW213095   3.259   6.858   0.983  1.9190  2.1302  2.1451
 4066SOL     OW13096   0.235   2.527   3.496 -0.1297 -0.0912  0.4120
 4066SOL    HW113097   0.321   2.513   3.447 -0.1487 -0.6317  0.5241
 4066SOL    HW213098   0.248   2.505   3.593 -0.2732  0.2908  0.5210
 4067SOL     OW13099   4.782   4.222   2.138  0.0762 -0.0893 -0.1551
 4067SOL    HW113100   4.759   4.174   2.222  1.9287 -0.3791  0.2428
 4067SOL    HW213101   4.748   4.316   2.142  1.1966  0.2800  1.4779
 4068SOL     OW13102   0.755   4.051   4.903  0.4756  0.2767  0.4223
 4068SOL    HW113103   0.672   4.079   4.855  0.0297  1.3373  1.7361
 4068SOL    HW213104   0.767   4.108   4.985  2.1594 -0.2848  0.6056
 4069SOL     OW13105   4.712   6.872   0.300 -0.1168 -0.0182  0.5559
 4069SOL    HW113106   4.799   6.885   0.348  0.6669  0.6009 -0.9597
 4069SOL    HW213107   4.721   6.795   0.237 -0.1901  0.9063 -0.6139
 4070SOL     OW13108   2.362   2.106   5.004  0.2063  0.0095 -0.0338
 4070SOL    HW113109   2.390   2.201   4.993  0.8675 -0.1564  0.2016
 4070SOL    HW213110   2.441   2.050   5.031 -0.2301 -0.5556  0.0983
 4071SOL     OW13111   2.064   6.498   4.642 -0.1437 -0.5431  0.4598
 4071SOL    HW113112   2.140   6.478   4.704 -0.5146 -2.0701  0.4416
 4071SOL    HW213113   2.009   6.416   4.628 -1.7123  0.4848  0.3370
 4072SOL     OW13114   3.451   5.780   3.473  0.0352 -0.0403  0.0200
 4072SOL    HW113115   3.420   5.685   3.478  2.4752 -0.9325 -0.2888
 4072SOL    HW213116   3.446   5.811   3.378  2.4064 -1.1145 -0.5354
 4073SOL     OW13117   2.752   4.180   6.375 -0.4638  0.3907  0.4953
 4073SOL    HW113118   2.804   4.118   6.434 -1.9851 -0.6482  0.7958
 4073SOL    HW213119   2.815   4.231   6.317  0.9181 -0.3376  1.3017
 4074SOL     OW13120   3.061   6.024   3.643 -0.0453  0.2556 -0.5656
 4074SOL    HW113121   2.967   6.038   3.614 -0.3390 -1.9705 -0.8700
 4074SOL    HW213122   3.087   6.094   3.709 -2.7051 -0.4740  1.3908
 4075SOL     OW13123   6.787   0.659   2.411  0.1426 -0.4057  0.1314
 4075SOL    HW113124   6.690   0.670   2.433 -0.8393 -1.9025 -2.7988
 4075SOL    HW213125   6.835   0.745   2.427 -2.0645  0.9384 -0.0034
 4076SOL     OW13126   2.917   3.339   5.117  0.4914  0.0944  0.0943
 4076SOL    HW113127   2.851   3.343   5.192 -1.0214 -2.4834 -1.0048
 4076SOL    HW213128   2.900   3.415   5.054 -1.4864 -0.5289 -0.1808
 4077SOL     OW13129   2.959   6.461   3.409  0.4389  0.2260 -0.5082
 4077SOL    HW113130   2.908   6.531   3.459  1.7465  0.9575 -0.1447
 4077SOL    HW213131   3.055   6.490   3.400  0.7747 -1.0496 -1.2581
 4078SOL     OW13132   4.070   5.072   1.725 -1.0462  0.3013  0.4707
 4078SOL    HW113133   4.012   5.011   1.779 -0.3602 -0.8099 -0.0240
 4078SOL    HW213134   4.093   5.152   1.780 -0.8011 -0.5477  1.6452
 4079SOL     OW13135   1.393   2.048   3.378  0.1157  0.0379  0.2651
 4079SOL    HW113136   1.415   2.094   3.464 -0.5026  1.0767 -0.1134
 4079SOL    HW213137   1.475   2.040   3.322  0.2319  0.6753  0.3392
 4080SOL     OW13138   6.492   2.306   5.060  0.0174  0.1586  0.1140
 4080SOL    HW113139   6.396   2.322   5.083  0.3257 -0.2427  1.8627
 4080SOL    HW213140   6.508   2.331   4.964 -1.9345 -0.2859 -0.3775
 4081SOL     OW13141   2.388   4.484   3.289 -0.1776 -0.0089  0.0644
 4081SOL    HW113142   2.421   4.578   3.299 -1.6202  0.6462 -1.0798
 4081SOL    HW213143   2.301   4.484   3.241 -0.6683 -1.8815  0.8741
 4082SOL     OW13144   1.945   2.294   2.825 -0.3057 -0.1831  0.4144
 4082SOL    HW113145   1.947   2.194   2.837  2.2572 -0.4801 -1.6500
 4082SOL    HW213146   1.931   2.316   2.729 -0.9263  1.5073  0.8560
 4083SOL     OW13147   6.489   1.880   4.245  0.0693  0.7210 -0.3389
 4083SOL    HW113148   6.426   1.803   4.244 -0.9043  1.4826 -1.3131
 4083SOL    HW213149   6.526   1.892   4.336 -0.9903  0.0680  0.2004
 4084SOL     OW13150   6.464   1.749   2.860  0.1415  0.0099 -0.5197
 4084SOL    HW113151   6.367   1.730   2.842  0.4090 -1.2966 -0.7225
 4084SOL    HW213152   6.477   1.767   2.958 -0.4011  0.8756 -0.6015
 4085SOL     OW13153   4.695   6.413   5.889 -0.8419  0.1939  0.1872
 4085SOL    HW113154   4.630   6.391   5.962 -1.9099 -2.4194 -1.4081
 4085SOL    HW213155   4.788   6.389   5.918 -0.9560  1.0666  1.3628
 4086SOL     OW13156   1.232   4.916   0.722 -0.0412 -0.3051 -0.5739
 4086SOL    HW113157   1.313   4.875   0.681  1.3384  1.5612  0.1463
 4086SOL    HW213158   1.197   4.855   0.794  0.6760 -1.1602 -0.9262
 4087SOL     OW13159   2.036   1.737   1.210  0.0689 -0.0403 -0.1322
 4087SOL    HW113160   2.082   1.652   1.182 -0.2302 -0.4418  0.5621
 4087SOL    HW213161   1.957   1.752   1.152 -0.3851 -0.7155  0.2997
 4088SOL     OW13162   6.183   3.832   7.021 -0.0384  0.5068  0.0485
 4088SOL    HW113163   6.254   3.889   7.062 -0.3468  1.0570 -0.1814
 4088SOL    HW213164   6.225   3.771   6.953  0.2398  0.7187  0.0300
 4089SOL     OW13165   0.852   6.031   5.470 -0.3718 -0.4007  0.1843
 4089SOL    HW113166   0.876   5.969   5.544  1.5368  1.4406  1.2339
 4089SOL    HW213167   0.837   6.123   5.508 -2.3303 -0.0086 -1.3892
 4090SOL     OW13168   1.527   5.298   5.581  0.5316 -0.7878  0.1607
 4090SOL    HW113169   1.566   5.272   5.493  2.9825  0.6026  0.7346
 4090SOL    HW213170   1.567   5.242   5.653  1.4254  0.5220  0.7426
 4091SOL     OW13171   5.551   6.400   5.719  0.2696  0.3234  0.1839
 4091SOL    HW113172   5.631   6.412   5.662 -0.6536  0.3849 -1.1476
 4091SOL    HW213173   5.517   6.489   5.750 -1.2231  0.6404 -2.0901
 4092SOL     OW13174   0.263   3.808   4.524  0.0664  0.0668 -0.1395
 4092SOL    HW113175   0.341   3.814   4.462 -0.3900 -0.3081 -0.7539
 4092SOL    HW213176   0.216   3.896   4.527  2.0242  1.1726  2.2796
 4093SOL     OW13177   0.949   1.182   4.750  0.2258  0.1707 -0.3535
 4093SOL    HW113178   0.999   1.123   4.687  0.7131 -0.6828  0.8192
 4093SOL    HW213179   0.872   1.132   4.789  0.9577  0.1154  1.0593
 4094SOL     OW13180   2.997   5.241   4.169 -0.4140  0.4778 -0.3609
 4094SOL    HW113181   2.958   5.194   4.248  0.5337 -0.8613 -0.6576
 4094SOL    HW213182   3.037   5.328   4.198 -1.4105  0.7086  0.3555
 4095SOL     OW13183   0.892   5.342   5.475  0.3113  0.1548  0.1784
 4095SOL    HW113184   0.793   5.334   5.488  0.4567 -2.2962  0.2024
 4095SOL    HW213185   0.915   5.437   5.452 -2.1021  0.6541 -0.4697
 4096SOL     OW13186   5.192   4.222   1.826 -0.5639 -0.1889  0.0002
 4096SOL    HW113187   5.196   4.135   1.779  0.5335  0.4919 -1.2373
 4096SOL    HW213188   5.134   4.214   1.907 -2.1499 -1.5194 -1.1907
 4097SOL     OW13189   2.212   4.537   5.907  0.0941  0.3096  0.2305
 4097SOL    HW113190   2.258   4.556   5.993 -0.7676  1.2221  0.5137
 4097SOL    HW213191   2.279   4.528   5.834  0.8209 -0.3187  0.9630
 4098SOL     OW13192   6.915   0.346   1.926 -0.6055 -0.0580 -0.6033
 4098SOL    HW113193   6.841   0.397   1.883 -2.0793 -0.5942  1.1840
 4098SOL    HW213194   6.970   0.408   1.983 -1.2861 -0.1193  0.1306
 4099SOL     OW13195   4.426   0.318   2.206  0.0341  0.1268  0.0974
 4099SOL    HW113196   4.415   0.298   2.109 -0.5829 -0.3875  0.2705
 4099SOL    HW213197   4.516   0.287   2.237 -0.0809 -0.4380 -0.1285
 4100SOL     OW13198   4.770   5.049   3.379  0.6025 -0.3805 -0.5204
 4100SOL    HW113199   4.674   5.056   3.409  0.5083 -1.1751 -0.5889
 4100SOL    HW213200   4.785   5.107   3.300 -0.5221 -2.1415 -2.1177
 4101SOL     OW13201   3.900   1.585   5.130 -0.2445 -0.0255  0.2142
 4101SOL    HW113202   3.829   1.528   5.088 -1.3612  2.2168 -1.1361
 4101SOL    HW213203   3.861   1.633   5.208  0.3062 -0.0940  0.5337
 4102SOL     OW13204   6.651   2.290   6.207 -0.3593  0.0693 -0.5111
 4102SOL    HW113205   6.617   2.342   6.129  1.6477  1.2876 -0.6648
 4102SOL    HW213206   6.750   2.304   6.215 -0.4696 -0.1775  2.1387
 4103SOL     OW13207   2.613   6.407   4.174 -0.4240 -0.0422  0.1644
 4103SOL    HW113208   2.708   6.383   4.193 -0.4291 -0.2568 -0.0761
 4103SOL    HW213209   2.567   6.329   4.131 -1.0735 -0.4211  1.4767
 4104SOL     OW13210   2.366   5.221   3.865  0.0452  0.3838 -0.5381
 4104SOL    HW113211   2.366   5.298   3.929 -1.1949 -0.5162  0.6259
 4104SOL    HW213212   2.384   5.254   3.772 -1.0493  2.1663 -0.1620
 4105SOL     OW13213   6.125   4.755   6.367 -0.1257  0.3935 -0.1870
 4105SOL    HW113214   6.081   4.726   6.282  1.5932  1.0826 -1.3897
 4105SOL    HW213215   6.080   4.713   6.445 -0.2990 -2.1825 -1.5805
 4106SOL     OW13216   6.397   3.394   4.096 -0.0538  0.2727 -0.4730
 4106SOL    HW113217   6.471   3.459   4.116 -0.0768 -0.2804  1.6384
 4106SOL    HW213218   6.435   3.315   4.048  1.2164 -0.8778  2.1760
 4107SOL     OW13219   6.664   1.603   2.742  0.6363  0.3380  0.1000
 4107SOL    HW113220   6.669   1.507   2.714  0.3791  0.4990 -0.5212
 4107SOL    HW213221   6.578   1.619   2.790  0.1629  0.4983 -0.7798
 4108SOL     OW13222   5.707   2.760   4.593  0.2192  0.0234  0.2153
 4108SOL    HW113223   5.797   2.757   4.550 -0.0108 -0.4219 -0.2459
 4108SOL    HW213224   5.706   2.831   4.664  0.4765  1.0661 -0.7973
 4109SOL     OW13225   4.336   0.231   4.201  0.2625 -0.1927  0.2172
 4109SOL    HW113226   4.280   0.272   4.273  1.0397  0.1228  0.6538
 4109SOL    HW213227   4.343   0.295   4.124 -2.4421 -1.4020 -1.1703
 4110SOL     OW13228   6.367   5.346   5.795  0.3587 -0.2144 -0.6812
 4110SOL    HW113229   6.421   5.265   5.775  1.0022 -0.1087  0.5412
 4110SOL    HW213230   6.303   5.326   5.870  0.7664  0.4907 -0.1313
 4111SOL     OW13231   4.034   3.012   0.264  0.1102  0.1241 -0.1211
 4111SOL    HW113232   4.034   3.011   0.164  1.6392 -0.4290 -0.1358
 4111SOL    HW213233   4.093   2.938   0.298 -1.3603 -0.4943  1.2122
 4112SOL     OW13234   3.763   1.127   5.969 -0.2422 -0.0536  0.1136
 4112SOL    HW113235   3.807   1.149   6.056 -0.4368 -1.0743  0.4768
 4112SOL    HW213236   3.706   1.205   5.941  0.2631  0.5109  0.6018
 4113SOL     OW13237   2.965   0.598   4.508 -0.9877  0.2719 -0.5584
 4113SOL    HW113238   2.872   0.605   4.472 -0.6315  1.0361 -1.3600
 4113SOL    HW213239   2.968   0.634   4.601 -1.3959  0.6886 -0.7032
 4114SOL     OW13240   1.191   1.832   1.723 -0.2512  0.0185 -0.2548
 4114SOL    HW113241   1.254   1.903   1.753 -0.9797  0.5577  0.0559
 4114SOL    HW213242   1.097   1.868   1.726 -0.5732 -0.7535 -0.7128
 4115SOL     OW13243   4.840   4.885   0.677  0.6320 -0.0793 -0.1849
 4115SOL    HW113244   4.899   4.964   0.663 -0.3017  0.6323 -0.1735
 4115SOL    HW213245   4.894   4.801   0.669  2.0101  0.5705  1.5992
 4116SOL     OW13246   2.009   1.054   0.615  0.0050 -0.0521  0.4910
 4116SOL    HW113247   1.993   1.088   0.708 -1.4940  1.6579 -0.3269
 4116SOL    HW213248   1.962   0.967   0.602 -2.6231  1.2552  0.4390
 4117SOL     OW13249   2.461   6.376   2.961  0.0105  0.2914 -0.2325
 4117SOL    HW113250   2.390   6.440   2.934 -1.6854 -1.6807 -0.6142
 4117SOL    HW213251   2.544   6.427   2.984 -1.2334  2.5925 -0.5709
 4118SOL     OW13252   2.569   0.009   5.993  0.2111  0.0764  0.1874
 4118SOL    HW113253   2.575  -0.086   6.024  1.8371  0.1349  0.1232
 4118SOL    HW213254   2.575   0.012   5.894  0.2396  0.2466  0.1944
 4119SOL     OW13255   3.521   2.151   2.912 -0.8989 -0.2266 -0.4992
 4119SOL    HW113256   3.567   2.135   3.000  0.5955  0.7764 -1.0599
 4119SOL    HW213257   3.494   2.247   2.906  1.4891  0.4197 -2.2071
 4120SOL     OW13258   4.886   3.047   2.464 -0.9036 -0.0830 -0.0930
 4120SOL    HW113259   4.928   3.079   2.549 -1.2244  1.1481 -0.3827
 4120SOL    HW213260   4.836   2.962   2.482 -1.3749  0.4119  1.0627
 4121SOL     OW13261   5.081   1.509   0.511  0.2586  0.5396  0.1672
 4121SOL    HW113262   5.174   1.531   0.541 -0.7002  1.1289  3.1069
 4121SOL    HW213263   5.025   1.490   0.592 -2.4143  1.2032 -1.4456
 4122SOL     OW13264   2.907   6.905   5.155  0.7560  0.6360  0.2426
 4122SOL    HW113265   2.859   6.871   5.236 -1.0233  0.5291 -0.8164
 4122SOL    HW213266   2.907   7.005   5.156  0.2126  0.6417  0.0985
 4123SOL     OW13267   5.100   5.576   5.867 -0.6206  0.1543 -0.1596
 4123SOL    HW113268   5.169   5.643   5.842 -1.2029  1.0482  0.5726
 4123SOL    HW213269   5.029   5.573   5.796 -0.4505  0.1037 -0.3276
 4124SOL     OW13270   5.396   5.721   3.876  0.3459 -0.4065 -0.4912
 4124SOL    HW113271   5.360   5.799   3.823  0.6202 -0.5946 -0.9540
 4124SOL    HW213272   5.382   5.739   3.973  1.7539  0.9171 -0.4954
 4125SOL     OW13273   3.702   0.276   1.591  0.5363 -0.9227 -0.3185
 4125SOL    HW113274   3.624   0.310   1.537  0.8934  0.8480  0.2174
 4125SOL    HW213275   3.769   0.234   1.530  0.9560  1.0755 -1.3117
 4126SOL     OW13276   1.892   4.564   3.113 -0.3088  0.0890  0.1739
 4126SOL    HW113277   1.869   4.653   3.154  0.4477  0.3596  0.0177
 4126SOL    HW213278   1.808   4.519   3.082 -0.4972  2.1805 -2.7143
 4127SOL     OW13279   0.319   5.533   6.715 -0.8243 -0.1153  0.0715
 4127SOL    HW113280   0.394   5.547   6.780 -0.8913  0.1727  0.0870
 4127SOL    HW213281   0.356   5.509   6.625 -0.7543 -2.2094  0.6015
 4128SOL     OW13282   1.244   1.482   3.192  1.1291  0.3407 -0.0718
 4128SOL    HW113283   1.205   1.475   3.100 -0.4336 -1.3075  0.6567
 4128SOL    HW213284   1.194   1.552   3.243 -1.7390 -2.3449  1.1370
 4129SOL     OW13285   5.175   1.817   5.483 -1.0219  0.1807 -0.0245
 4129SOL    HW113286   5.097   1.853   5.534 -1.7696  1.1201 -1.7450
 4129SOL    HW213287   5.239   1.892   5.463  0.0336 -0.4593  0.8146
 4130SOL     OW13288   5.428   3.987   0.702 -0.0478  0.1466 -0.5326
 4130SOL    HW113289   5.429   4.087   0.699  0.2936  0.1889  0.4635
 4130SOL    HW213290   5.398   3.957   0.793 -1.5554 -0.6823 -1.2595
 4131SOL     OW13291   5.242   6.233   1.238 -0.5681 -0.3127  0.1069
 4131SOL    HW113292   5.287   6.233   1.327  1.7096 -0.6277 -0.9554
 4131SOL    HW213293   5.237   6.139   1.204 -1.9375 -0.2611  0.1110
 4132SOL     OW13294   6.469   3.808   3.180 -0.2628  0.0310 -0.0582
 4132SOL    HW113295   6.554   3.764   3.150 -1.1200 -2.4926  0.9577
 4132SOL    HW213296   6.466   3.901   3.144  2.1053 -0.3688 -1.5611
 4133SOL     OW13297   3.486   2.087   2.274 -0.2159  0.1287  0.1301
 4133SOL    HW113298   3.392   2.118   2.288 -0.5162 -0.0465 -1.3030
 4133SOL    HW213299   3.525   2.137   2.196  0.9344  0.3028  0.8031
 4134SOL     OW13300   2.243   0.472   6.371 -0.1175 -0.0921  0.3456
 4134SOL    HW113301   2.216   0.551   6.316  0.2179 -0.4191 -0.2944
 4134SOL    HW213302   2.328   0.434   6.335  0.2509 -0.1570  1.2537
 4135SOL     OW13303   1.032   7.006   2.181  0.3182 -0.1514 -0.0346
 4135SOL    HW113304   0.944   7.043   2.208  0.1119  1.4768 -2.5571
 4135SOL    HW213305   1.106   7.059   2.222  0.0525  0.6650 -0.5905
 4136SOL     OW13306   1.383   2.572   3.096  0.8374 -0.1996 -0.4210
 4136SOL    HW113307   1.329   2.636   3.042 -0.2428 -0.5546  0.1981
 4136SOL    HW213308   1.478   2.574   3.066  0.8010  1.5841 -0.5032
 4137SOL     OW13309   1.626   4.482   6.406 -0.0483  0.1395 -0.5270
 4137SOL    HW113310   1.690   4.417   6.448  0.5208  0.7872 -0.3799
 4137SOL    HW213311   1.598   4.550   6.474 -1.4170 -0.5150 -0.4032
 4138SOL     OW13312   3.094   5.300   4.582 -0.2923  0.2917  0.0542
 4138SOL    HW113313   3.056   5.311   4.674 -3.1615 -3.0851 -0.5403
 4138SOL    HW213314   3.169   5.234   4.585 -0.1490  0.4525  0.0136
 4139SOL     OW13315   1.835   1.019   6.556  0.1470 -0.7606  0.1697
 4139SOL    HW113316   1.843   1.118   6.567  0.8858 -0.8373  0.4017
 4139SOL    HW213317   1.864   0.974   6.641 -2.2887 -1.1208  0.8795
 4140SOL     OW13318   3.890   0.833   3.421 -0.3439 -0.4130  0.4008
 4140SOL    HW113319   3.852   0.751   3.464  0.4897 -0.1491  1.6856
 4140SOL    HW213320   3.890   0.821   3.321 -1.9814 -1.1817  0.4697
 4141SOL     OW13321   5.871   5.740   0.435  0.1545 -0.0822  0.2095
 4141SOL    HW113322   5.866   5.640   0.433  1.2428 -0.1373 -1.2835
 4141SOL    HW213323   5.778   5.778   0.441 -0.3134 -1.1757  0.0590
 4142SOL     OW13324   6.342   4.415   0.924 -0.2523  0.0948  0.1966
 4142SOL    HW113325   6.300   4.367   0.847 -0.8736 -0.5425  0.9175
 4142SOL    HW213326   6.310   4.510   0.926  4.7742  2.4897 -4.3454
 4143SOL     OW13327   0.376   2.676   1.125  0.2811  0.1079 -0.2436
 4143SOL    HW113328   0.284   2.662   1.161  0.5198  0.8986  0.7041
 4143SOL    HW213329   0.393   2.610   1.051 -0.6197 -0.8104  0.3393
 4144SOL     OW13330   4.572   1.145   1.567  0.0477  0.2905  0.1606
 4144SOL    HW113331   4.568   1.052   1.605  0.9010 -0.1425 -0.7482
 4144SOL    HW213332   4.625   1.203   1.629 -1.0144  0.3533  1.0487
 4145SOL     OW13333   2.077   4.399   3.432 -0.0725  0.5144  0.6228
 4145SOL    HW113334   2.161   4.437   3.470 -0.6786  0.4469  2.0966
 4145SOL    HW213335   2.088   4.385   3.334  1.5519  0.7073  0.7548
 4146SOL     OW13336   5.544   4.005   6.503  0.2068  0.2678  0.1146
 4146SOL    HW113337   5.536   3.907   6.485  1.3160  0.2728 -0.4521
 4146SOL    HW213338   5.637   4.036   6.484 -0.2959  1.5646 -0.3953
 4147SOL     OW13339   3.933   0.813   6.082 -0.3289  0.2376 -0.0758
 4147SOL    HW113340   4.019   0.787   6.126 -0.0115  0.7335 -0.3995
 4147SOL    HW213341   3.867   0.841   6.152 -1.0446 -2.3919  0.3945
 4148SOL     OW13342   0.235   0.962   3.250  0.2224 -0.3186 -0.5916
 4148SOL    HW113343   0.270   0.886   3.305 -1.1873 -1.2593 -0.9415
 4148SOL    HW213344   0.191   1.029   3.310 -0.9651 -1.1476 -0.5062
 4149SOL     OW13345   4.944   3.184   3.979  0.3211  0.0060 -0.7450
 4149SOL    HW113346   5.037   3.220   3.971  0.0728  0.4001 -2.1432
 4149SOL    HW213347   4.909   3.203   4.071  1.5401  0.0308 -0.2659
 4150SOL     OW13348   5.775   0.663   0.324 -0.2857  0.8086 -0.5276
 4150SOL    HW113349   5.703   0.731   0.318 -1.2706 -0.1768 -0.3351
 4150SOL    HW213350   5.735   0.571   0.320  0.9480  0.2297 -0.3362
 4151SOL     OW13351   1.084   4.996   0.008 -0.0116 -0.6616 -0.6750
 4151SOL    HW113352   1.161   4.999   0.072 -0.0917 -0.4033 -0.5899
 4151SOL    HW213353   1.078   4.905  -0.032  0.3433 -0.6800 -0.6872
 4152SOL     OW13354   3.664   4.061   0.302 -0.5854  0.2576  0.2230
 4152SOL    HW113355   3.583   4.026   0.255 -0.9850 -0.7750  1.6036
 4152SOL    HW213356   3.640   4.144   0.352 -0.8604 -0.1658  0.8039
 4153SOL     OW13357   6.659   4.891   4.410 -0.0090 -0.1585 -0.0883
 4153SOL    HW113358   6.696   4.801   4.430 -1.8997 -0.7540  1.0317
 4153SOL    HW213359   6.712   4.934   4.337  1.2139 -1.9645 -0.3267
 4154SOL     OW13360   6.337   4.320   0.480  0.4863  0.6032  0.0402
 4154SOL    HW113361   6.315   4.308   0.577 -0.4664 -1.2174 -0.3570
 4154SOL    HW213362   6.424   4.276   0.460  0.5783  0.7933  0.0184
 4155SOL     OW13363   0.319   2.256   1.386  0.4963  0.4822  0.4016
 4155SOL    HW113364   0.272   2.197   1.321  0.3787 -0.0576  0.9640
 4155SOL    HW213365   0.397   2.300   1.342 -0.0065  0.6896 -0.2983
 4156SOL     OW13366   0.132   6.911   5.530 -0.0952 -0.0855  0.0091
 4156SOL    HW113367   0.153   6.905   5.432 -2.3080 -3.1650 -0.4167
 4156SOL    HW213368   0.152   6.824   5.574 -2.5500  0.0195  1.5023
 4157SOL     OW13369   3.583   0.918   3.158  0.2493  0.4859  0.0078
 4157SOL    HW113370   3.642   0.995   3.132 -0.1678  0.6484 -0.4588
 4157SOL    HW213371   3.636   0.833   3.155  0.5235  0.6613 -0.1888
 4158SOL     OW13372   2.272   6.435   4.810  0.0956 -0.3917  0.5441
 4158SOL    HW113373   2.241   6.355   4.861  0.9057  0.1107  1.8884
 4158SOL    HW213374   2.313   6.501   4.874  0.4138  0.6206 -0.6694
 4159SOL     OW13375   1.221   3.584   6.876 -0.6169  0.9386 -0.2305
 4159SOL    HW113376   1.304   3.628   6.841  0.2733 -0.3615  0.1664
 4159SOL    HW213377   1.218   3.489   6.845 -1.2548  0.5704  0.8827
 4160SOL     OW13378   1.747   0.789   2.341 -0.4484 -0.1305 -0.0159
 4160SOL    HW113379   1.738   0.822   2.247  1.7577  1.5259  0.2838
 4160SOL    HW213380   1.808   0.849   2.392 -2.2477 -0.4764  2.7859
 4161SOL     OW13381   4.962   1.060   5.194 -0.3429 -0.7711  0.2732
 4161SOL    HW113382   4.920   1.100   5.112 -0.9478  0.3486  1.1077
 4161SOL    HW213383   4.973   1.130   5.264  1.9234 -1.2844  0.5093
 4162SOL     OW13384   0.343   0.686   6.557  0.1417 -0.4245  0.1587
 4162SOL    HW113385   0.377   0.768   6.511  1.6306 -0.2577  1.4714
 4162SOL    HW213386   0.269   0.712   6.620  1.7674  0.2609  1.8738
 4163SOL     OW13387   6.711   6.588   5.077  0.9486  1.0456 -0.1738
 4163SOL    HW113388   6.647   6.661   5.102 -0.0163  0.0436  0.3683
 4163SOL    HW213389   6.780   6.579   5.148  1.2471  1.6194 -0.3846
 4164SOL     OW13390   1.682   0.709   5.545 -0.1884  0.4697 -0.6453
 4164SOL    HW113391   1.760   0.771   5.554  0.0484  0.5105 -2.6447
 4164SOL    HW213392   1.710   0.628   5.494 -0.9131 -0.5851  0.5638
 4165SOL     OW13393   3.474   6.897   1.204 -0.0081 -0.7408  0.2692
 4165SOL    HW113394   3.387   6.940   1.229 -0.6435 -2.8121  1.9406
 4165SOL    HW213395   3.459   6.831   1.131 -0.0680 -1.8124  1.2271
 4166SOL     OW13396   5.471   3.161   2.388 -0.2722  0.0217 -0.1329
 4166SOL    HW113397   5.383   3.148   2.433 -1.5260  1.4962 -2.0087
 4166SOL    HW213398   5.495   3.077   2.339 -1.2749  0.0015 -0.6232
 4167SOL     OW13399   1.271   1.167   1.271 -0.6008 -1.1414 -1.0129
 4167SOL    HW113400   1.201   1.104   1.302  0.4692 -1.9558 -0.1699
 4167SOL    HW213401   1.340   1.117   1.218  0.6448 -0.8556  0.2787
 4168SOL     OW13402   6.868   5.132   6.800 -0.3673  0.0139  0.1155
 4168SOL    HW113403   6.872   5.226   6.833  2.2436 -0.2451  0.7717
 4168SOL    HW213404   6.852   5.132   6.701 -0.1902  1.1482  0.0730
 4169SOL     OW13405   5.266   2.086   5.167  0.1816  0.1176  0.2987
 4169SOL    HW113406   5.283   2.012   5.102 -0.5045 -0.3479  0.6335
 4169SOL    HW213407   5.284   2.174   5.123 -2.4549 -0.0339 -1.3031
 4170SOL     OW13408   4.165   2.689   6.115  0.3261 -0.0150  0.0111
 4170SOL    HW113409   4.105   2.753   6.067 -0.8633 -0.5071  0.8145
 4170SOL    HW213410   4.145   2.596   6.085  0.4494 -0.2125  0.5447
 4171SOL     OW13411   5.142   3.381   3.362 -0.2008 -0.1915 -0.9166
 4171SOL    HW113412   5.161   3.325   3.281  1.8944 -1.1551  0.1667
 4171SOL    HW213413   5.222   3.437   3.383 -0.3640 -0.6280  0.9917
 4172SOL     OW13414   7.016   1.462   1.058 -0.4251 -0.7574 -0.1389
 4172SOL    HW113415   6.935   1.405   1.067  0.1057 -1.6698 -1.0283
 4172SOL    HW213416   7.093   1.420   1.105  0.1055 -1.0644 -1.2545
 4173SOL     OW13417   6.107   4.830   4.708 -0.2377  0.1025 -0.0696
 4173SOL    HW113418   6.070   4.863   4.621  1.8556  0.0653 -1.0377
 4173SOL    HW213419   6.069   4.740   4.728 -0.4882 -0.0487 -1.1278
 4174SOL     OW13420   6.465   0.530   3.508 -0.4376 -0.2610  0.1489
 4174SOL    HW113421   6.414   0.484   3.581  1.4992  0.2556  1.9455
 4174SOL    HW213422   6.409   0.603   3.469 -2.3495 -1.9975 -0.5284
 4175SOL     OW13423   2.090   1.641   3.831 -0.1548  0.4562 -0.2058
 4175SOL    HW113424   2.113   1.565   3.770  1.6904  0.7173  0.0908
 4175SOL    HW213425   2.133   1.725   3.798  0.4005  0.7145  1.1077
 4176SOL     OW13426   4.321   7.006   1.720  0.2278 -0.4636  0.0160
 4176SOL    HW113427   4.347   6.944   1.645  1.1762  0.1674 -0.1912
 4176SOL    HW213428   4.311   6.954   1.804 -1.2523 -1.2583 -0.5956
 4177SOL     OW13429   6.422   5.035   2.857  0.1070  0.3468  0.4881
 4177SOL    HW113430   6.362   4.967   2.899 -0.6882  0.4976 -0.3622
 4177SOL    HW213431   6.426   5.116   2.915  1.3816 -0.5530  1.7092
 4178SOL     OW13432   3.550   0.546   6.026 -0.1443 -0.4468  0.0445
 4178SOL    HW113433   3.526   0.603   6.104  0.5857 -1.3046  0.9205
 4178SOL    HW213434   3.645   0.564   5.999 -0.8255  0.9034 -1.6058
 4179SOL     OW13435   6.116   1.990   6.951  0.2012 -0.4931  0.5357
 4179SOL    HW113436   6.018   1.977   6.970  0.6403 -1.9335  1.9885
 4179SOL    HW213437   6.133   2.086   6.930 -1.4651 -0.1460  0.6333
 4180SOL     OW13438   3.685   4.119   6.912 -0.1726  0.0745  0.3172
 4180SOL    HW113439   3.736   4.180   6.851  0.1706 -1.1563 -0.6761
 4180SOL    HW213440   3.630   4.173   6.975  0.5663  1.4061 -0.1443
 4181SOL     OW13441   5.506   2.279   1.338 -0.0160  0.5393  0.5161
 4181SOL    HW113442   5.533   2.366   1.295  0.0898  1.5340  2.4762
 4181SOL    HW213443   5.411   2.260   1.315  0.7936 -0.5110 -2.4914
 4182SOL     OW13444   4.676   2.220   3.534  0.2996  0.3435 -0.1855
 4182SOL    HW113445   4.766   2.177   3.536  0.1054 -0.1495 -1.1805
 4182SOL    HW213446   4.620   2.177   3.463 -0.9240  0.2532  0.8036
 4183SOL     OW13447   1.339   0.571   0.322 -0.5962 -0.6627  0.5627
 4183SOL    HW113448   1.408   0.642   0.309 -0.9014 -0.4818 -0.1582
 4183SOL    HW213449   1.383   0.485   0.347 -0.2645 -0.0841  2.0340
 4184SOL     OW13450   6.302   6.776   6.809 -0.2743 -0.1533  0.2987
 4184SOL    HW113451   6.293   6.834   6.890  1.8173 -1.0056  1.1895
 4184SOL    HW213452   6.390   6.793   6.765  0.0788 -2.1025  0.1555
 4185SOL     OW13453   1.588   0.325   4.495  0.3595 -0.3235 -0.1906
 4185SOL    HW113454   1.531   0.287   4.568  0.3478 -2.1780 -1.1038
 4185SOL    HW213455   1.565   0.421   4.481 -0.1762 -0.1362  1.6984
 4186SOL     OW13456   1.915   2.872   2.022  0.4028 -0.4385 -0.1246
 4186SOL    HW113457   1.845   2.840   2.086  0.9025 -0.2437  0.5232
 4186SOL    HW213458   1.877   2.947   1.966 -0.1017 -0.7576 -0.2175
 4187SOL     OW13459   4.585   3.425   6.840 -0.8294  0.6285 -0.1827
 4187SOL    HW113460   4.554   3.347   6.894 -1.5722  0.1251 -1.2965
 4187SOL    HW213461   4.508   3.487   6.824 -1.1180 -0.1401 -2.1526
 4188SOL     OW13462   5.973   4.554   3.518 -0.6203 -0.3385 -0.3410
 4188SOL    HW113463   5.932   4.470   3.483 -0.7052 -0.4333 -0.0263
 4188SOL    HW213464   5.926   4.581   3.603 -0.4109 -0.1288 -0.2885
 4189SOL     OW13465   1.704   3.989   3.789 -0.3339 -0.2879  0.1384
 4189SOL    HW113466   1.732   3.992   3.693 -0.6561  0.6412  0.0679
 4189SOL    HW213467   1.728   3.900   3.828  0.8629 -0.2538 -0.4747
 4190SOL     OW13468   2.838   5.556   3.092 -0.4323 -0.6013 -0.3787
 4190SOL    HW113469   2.777   5.494   3.143 -0.4858 -0.4788 -0.2933
 4190SOL    HW213470   2.886   5.504   3.021 -0.3143 -0.7860 -0.1666
 4191SOL     OW13471   0.776   2.539   1.707  0.7031 -0.0999  0.0620
 4191SOL    HW113472   0.798   2.613   1.643 -0.1764 -0.1911 -0.3651
 4191SOL    HW213473   0.856   2.481   1.721  1.6011  1.3050  0.9227
 4192SOL     OW13474   0.098   1.880   3.563 -0.0135  0.2480  0.6632
 4192SOL    HW113475   0.162   1.889   3.487 -0.6236 -0.3669  0.0739
 4192SOL    HW213476   0.030   1.953   3.558 -1.5030 -1.1762 -0.7968
 4193SOL     OW13477   6.897   2.634   1.401 -0.3933 -0.0353  0.1069
 4193SOL    HW113478   6.837   2.629   1.481  0.3891 -0.1861  0.6923
 4193SOL    HW213479   6.969   2.566   1.409  1.4438  1.8770  0.7355
 4194SOL     OW13480   6.400   0.695   3.244 -0.1667 -0.3661 -0.1898
 4194SOL    HW113481   6.315   0.667   3.287 -0.3731 -0.4362 -0.6359
 4194SOL    HW213482   6.411   0.646   3.157  0.5620 -0.7183  0.0928
 4195SOL     OW13483   4.966   6.665   1.358 -0.3477 -0.1399 -0.7524
 4195SOL    HW113484   4.868   6.649   1.344 -0.1365 -2.5660  0.0851
 4195SOL    HW213485   4.980   6.720   1.440 -0.9870 -1.5007  0.3082
 4196SOL     OW13486   5.754   2.418   5.556  0.2018 -0.0105  0.2626
 4196SOL    HW113487   5.799   2.507   5.550  0.9266 -0.4821 -2.0184
 4196SOL    HW213488   5.817   2.352   5.598 -0.2600  0.4372  1.7524
 4197SOL     OW13489   4.841   5.228   3.808  0.3100 -0.0358 -0.0517
 4197SOL    HW113490   4.808   5.136   3.789 -0.1328  0.1831 -0.3485
 4197SOL    HW213491   4.879   5.231   3.901  1.0312 -0.7041 -0.3182
 4198SOL     OW13492   5.108   3.131   6.106  0.2361 -0.3433  0.0227
 4198SOL    HW113493   5.124   3.032   6.108  0.5343 -0.3970 -2.2399
 4198SOL    HW213494   5.151   3.172   6.186  0.8752 -1.9415  0.5598
 4199SOL     OW13495   3.873   3.685   3.755 -0.6909  0.6446  0.0293
 4199SOL    HW113496   3.952   3.689   3.817 -1.4995 -0.1373  1.1460
 4199SOL    HW213497   3.844   3.777   3.732  0.1442  0.9444  0.1288
 4200SOL     OW13498   3.566   0.532   5.036 -0.5212 -0.1141  0.0962
 4200SOL    HW113499   3.500   0.547   4.962 -1.2623 -0.7266  0.6227
 4200SOL    HW213500   3.658   0.552   5.002 -0.8578 -0.3120 -0.9791
 4201SOL     OW13501   5.689   0.177   5.120  0.5083  0.3967 -0.2743
 4201SOL    HW113502   5.607   0.235   5.110  1.9738  2.8836  1.0121
 4201SOL    HW213503   5.679   0.096   5.063 -3.1653  0.1885  0.3883
 4202SOL     OW13504   4.418   5.222   4.656  0.1369 -0.5385  0.2457
 4202SOL    HW113505   4.347   5.163   4.619  0.1230 -0.2952 -0.1236
 4202SOL    HW213506   4.507   5.194   4.620 -0.0473  0.6698 -1.2373
 4203SOL     OW13507   0.253   5.909   2.479  0.5182 -0.3094  0.4526
 4203SOL    HW113508   0.193   5.864   2.413  1.2408 -2.0155  0.9008
 4203SOL    HW213509   0.287   5.841   2.545  1.6100  0.9217  1.2065
 4204SOL     OW13510   1.337   3.591   1.144  0.3676  0.2582 -0.1575
 4204SOL    HW113511   1.375   3.683   1.134 -0.6706  1.1263  2.9043
 4204SOL    HW213512   1.239   3.594   1.129  0.4480 -0.5829 -0.9599
 4205SOL     OW13513   4.051   4.770   3.078 -0.0491 -0.3245 -0.2359
 4205SOL    HW113514   3.985   4.845   3.068 -0.1163 -0.4030 -0.3792
 4205SOL    HW213515   4.017   4.689   3.029 -1.7356 -1.5957  2.7489
 4206SOL     OW13516   5.734   6.887   4.088  0.9413 -0.6103 -0.2392
 4206SOL    HW113517   5.742   6.789   4.104  1.7285 -0.9398 -2.3401
 4206SOL    HW213518   5.762   6.908   3.994  0.0486  1.5274 -0.0874
 4207SOL     OW13519   1.038   0.437   5.923  0.2153 -0.4595  0.4444
 4207SOL    HW113520   1.006   0.525   5.887  1.0843 -0.2201  0.2170
 4207SOL    HW213521   1.059   0.376   5.847 -1.2971 -1.2272  0.6096
 4208SOL     OW13522   2.357   2.302   3.335  0.2422 -0.0864 -0.1439
 4208SOL    HW113523   2.281   2.289   3.271 -0.6292  0.4352  0.7537
 4208SOL    HW213524   2.438   2.255   3.300 -0.2415  0.0674 -1.5525
 4209SOL     OW13525   2.680   6.461   2.573 -0.5447  0.5823 -0.1003
 4209SOL    HW113526   2.625   6.422   2.500 -0.0570 -0.4830  0.0907
 4209SOL    HW213527   2.623   6.520   2.631 -2.0305 -2.0995  1.3365
 4210SOL     OW13528   3.180   2.391   1.404  0.2235  0.7142  0.5499
 4210SOL    HW113529   3.106   2.429   1.349  0.3401 -1.0032 -0.8754
 4210SOL    HW213530   3.143   2.360   1.492 -0.7243  0.1141 -0.0351
 4211SOL     OW13531   4.767   2.867   4.202  0.0507  0.3537  0.5758
 4211SOL    HW113532   4.752   2.891   4.106 -0.7547 -2.0319  0.0261
 4211SOL    HW213533   4.697   2.802   4.231  2.1839 -1.5612  1.7609
 4212SOL     OW13534   0.467   6.963   2.440 -0.0730 -0.3265  0.2453
 4212SOL    HW113535   0.391   6.912   2.481 -2.7409  2.4313 -0.8362
 4212SOL    HW213536   0.528   6.996   2.512 -0.1864 -2.0680  1.1991
 4213SOL     OW13537   0.635   6.576   1.552 -0.2248 -0.3383 -0.2686
 4213SOL    HW113538   0.626   6.531   1.641  0.1960 -0.3512 -0.2279
 4213SOL    HW213539   0.719   6.631   1.552 -1.7009  2.0726  0.4068
 4214SOL     OW13540   1.573   3.651   4.596 -0.5140  0.3559 -0.7776
 4214SOL    HW113541   1.528   3.695   4.673 -0.3880  2.1627 -1.6779
 4214SOL    HW213542   1.524   3.567   4.572 -1.3260  0.4659  0.4291
 4215SOL     OW13543   1.409   3.709   3.724 -0.0781 -0.4792  0.3246
 4215SOL    HW113544   1.348   3.788   3.730 -0.6942 -0.7980 -1.3377
 4215SOL    HW213545   1.419   3.668   3.815 -0.2027  1.1467  1.1090
 4216SOL     OW13546   0.925   3.931   5.291 -0.9645 -0.0193  0.0993
 4216SOL    HW113547   0.827   3.936   5.310 -1.0755 -2.7463  0.6610
 4216SOL    HW213548   0.976   3.954   5.374 -1.1701  0.3800  0.1124
 4217SOL     OW13549   0.444   1.198   4.117 -0.3502  0.2477  0.8345
 4217SOL    HW113550   0.528   1.147   4.133 -0.1114  0.6186  0.7910
 4217SOL    HW213551   0.373   1.167   4.179  0.0959  0.5833  1.5250
 4218SOL     OW13552   4.116   0.326   2.377 -0.6480 -0.0525  0.1262
 4218SOL    HW113553   4.155   0.405   2.329 -0.0169 -0.9474 -0.8751
 4218SOL    HW213554   4.185   0.289   2.440 -0.1809 -1.0580 -0.9471
 4219SOL     OW13555   5.656   5.639   3.974 -0.9923  0.0418  0.5186
 4219SOL    HW113556   5.590   5.636   3.898 -0.1226 -2.0901 -0.2347
 4219SOL    HW213557   5.737   5.690   3.946 -1.1458  0.2526  0.4512
 4220SOL     OW13558   0.141   3.525   2.756  0.4603 -0.1664 -0.7385
 4220SOL    HW113559   0.141   3.430   2.725  2.9115 -0.5592  0.2357
 4220SOL    HW213560   0.081   3.534   2.836  0.0159 -0.8340 -0.9925
 4221SOL     OW13561   5.447   5.271   5.872  0.4887 -0.1451 -0.5341
 4221SOL    HW113562   5.378   5.290   5.941 -0.5474 -0.6903 -1.3924
 4221SOL    HW213563   5.449   5.345   5.805  2.2809  0.9511  0.6416
 4222SOL     OW13564   4.522   3.279   5.894  0.2264 -0.4439  0.0763
 4222SOL    HW113565   4.600   3.248   5.840  0.6684 -0.2418  0.5889
 4222SOL    HW213566   4.506   3.376   5.875  0.3296 -0.3939  0.2487
 4223SOL     OW13567   3.575   4.106   4.017 -0.0620 -0.2111  0.0297
 4223SOL    HW113568   3.527   4.168   3.954 -0.1035  0.0048  0.2661
 4223SOL    HW213569   3.525   4.019   4.023  0.9717 -0.9488 -1.6678
 4224SOL     OW13570   4.278   1.339   3.913  0.3510  0.0123 -0.1444
 4224SOL    HW113571   4.201   1.319   3.852 -0.7260 -2.5460  1.8554
 4224SOL    HW213572   4.246   1.395   3.989  0.3174 -1.3843  0.8991
 4225SOL     OW13573   4.962   0.931   5.610 -0.1155  0.1444 -0.0606
 4225SOL    HW113574   4.978   0.858   5.544 -1.6929  0.2932 -0.6402
 4225SOL    HW213575   4.912   1.005   5.566 -0.8726  0.4091  1.2129
 4226SOL     OW13576   2.687   5.865   3.169 -0.3200  0.0526 -0.1976
 4226SOL    HW113577   2.768   5.845   3.114 -1.8552 -0.1162 -2.5833
 4226SOL    HW213578   2.660   5.960   3.156 -0.5162  0.1018  0.5400
 4227SOL     OW13579   5.799   2.747   0.287 -0.0638 -0.1676  0.3113
 4227SOL    HW113580   5.811   2.788   0.378 -1.1237  0.9846 -0.0408
 4227SOL    HW213581   5.887   2.718   0.252  0.7843  1.9684  0.5335
 4228SOL     OW13582   0.800   5.910   2.984  0.6431 -0.2553  0.1990
 4228SOL    HW113583   0.787   5.978   3.056 -0.1502 -0.8698  0.6617
 4228SOL    HW213584   0.725   5.844   2.988 -0.8547  1.0982 -2.8056
 4229SOL     OW13585   4.613   5.602   4.629 -0.4101 -0.2100 -0.5429
 4229SOL    HW113586   4.571   5.572   4.715 -0.6365 -0.7935 -0.8531
 4229SOL    HW213587   4.570   5.687   4.599 -1.6966 -1.0265 -1.0864
 4230SOL     OW13588   3.616   0.050   2.239 -0.2716  0.2594 -0.5241
 4230SOL    HW113589   3.525   0.016   2.215 -0.2400 -1.1381  1.0927
 4230SOL    HW213590   3.685  -0.018   2.211  0.1932  0.8883 -0.9184
 4231SOL     OW13591   4.674   0.298   6.214  0.5260  0.0236 -0.1398
 4231SOL    HW113592   4.625   0.376   6.254  1.6455  1.4203 -1.3781
 4231SOL    HW213593   4.636   0.213   6.250 -0.4808  1.1293  1.5670
 4232SOL     OW13594   1.151   4.730   0.926  0.0883 -0.0734 -0.0014
 4232SOL    HW113595   1.057   4.700   0.937  0.2318 -0.0279  1.7863
 4232SOL    HW213596   1.213   4.652   0.938  0.3091  0.0606 -0.2482
 4233SOL     OW13597   4.957   0.900   3.621  0.2869 -0.4226  0.8746
 4233SOL    HW113598   4.948   0.999   3.612 -1.7787 -0.7163 -1.2515
 4233SOL    HW213599   5.038   0.870   3.570  0.3846  0.0907  0.7134
 4234SOL     OW13600   3.450   4.137   5.016 -0.4599 -0.2427 -0.8951
 4234SOL    HW113601   3.403   4.059   4.976 -1.7645 -2.2369  3.8219
 4234SOL    HW213602   3.386   4.190   5.071  1.3844  1.4991 -0.2743
 4235SOL     OW13603   1.653   4.390   6.779 -0.9843 -0.2695 -0.6468
 4235SOL    HW113604   1.565   4.343   6.772 -1.1277  0.1101 -1.4829
 4235SOL    HW213605   1.644   4.483   6.744 -0.9642  0.7831  1.9301
 4236SOL     OW13606   0.042   4.343   6.368 -0.6673 -0.1016  0.8166
 4236SOL    HW113607   0.066   4.382   6.457  0.5834 -1.0487  0.9286
 4236SOL    HW213608   0.115   4.364   6.303 -0.6987 -0.9581  0.5020
 4237SOL     OW13609   4.866   5.646   4.800 -0.5042  0.3818  0.7501
 4237SOL    HW113610   4.937   5.704   4.760 -0.6282  0.6378  0.9070
 4237SOL    HW213611   4.778   5.666   4.757 -0.0138 -1.9936 -1.6182
 4238SOL     OW13612   3.400   6.070   3.922  0.6629 -0.0736  0.3785
 4238SOL    HW113613   3.360   6.009   3.854  1.2324  0.5842 -0.5877
 4238SOL    HW213614   3.360   6.161   3.912 -0.1367 -0.2628  1.7627
 4239SOL     OW13615   4.122   5.126   0.200  0.3235  0.1796  0.2501
 4239SOL    HW113616   4.149   5.030   0.198  2.1776  0.6529 -1.9864
 4239SOL    HW213617   4.118   5.158   0.295  2.0123 -1.5037  0.9420
 4240SOL     OW13618   1.192   6.170   6.003  0.3819 -0.6148 -0.0871
 4240SOL    HW113619   1.286   6.141   5.990  0.1434 -1.0028 -0.9578
 4240SOL    HW213620   1.150   6.116   6.077  0.7278 -0.6775  0.0633
 4241SOL     OW13621   2.845   0.284   1.008 -0.7819 -0.4113 -0.5451
 4241SOL    HW113622   2.774   0.286   0.937 -1.0235  2.2192 -0.3265
 4241SOL    HW213623   2.819   0.343   1.084  0.5014 -1.4101  0.7313
 4242SOL     OW13624   1.913   1.896   2.963  0.7819 -0.2228 -0.4901
 4242SOL    HW113625   1.960   1.902   3.051  0.1099 -0.5631 -0.1029
 4242SOL    HW213626   1.860   1.979   2.947 -2.0884 -1.5941  1.1759
 4243SOL     OW13627   1.127   2.702   3.535  0.3425 -0.2258  0.4426
 4243SOL    HW113628   1.123   2.793   3.578 -1.0262 -0.7446  1.4635
 4243SOL    HW213629   1.210   2.655   3.566  2.8712  1.8011 -2.5803
 4244SOL     OW13630   4.533   6.642   1.906  0.3512 -0.0438 -0.2073
 4244SOL    HW113631   4.462   6.644   1.976 -1.0686  1.8225 -1.5832
 4244SOL    HW213632   4.575   6.733   1.898  0.9021 -0.3750 -1.3324
 4245SOL     OW13633   6.796   1.280   1.023 -0.0833  0.1238 -0.2070
 4245SOL    HW113634   6.767   1.283   0.928 -2.3293  1.0126  0.4474
 4245SOL    HW213635   6.815   1.185   1.049 -1.0800 -0.3381 -1.0892
 4246SOL     OW13636   3.638   1.224   3.314  0.1913  0.2228 -0.1053
 4246SOL    HW113637   3.733   1.223   3.345 -0.0456 -0.2983  0.6239
 4246SOL    HW213638   3.634   1.256   3.219  0.8882  2.2772  0.5090
 4247SOL     OW13639   4.153   4.901   6.758 -0.0503 -0.5459 -0.0011
 4247SOL    HW113640   4.170   4.983   6.812 -0.3498 -1.0130  0.8206
 4247SOL    HW213641   4.237   4.847   6.751  0.0271 -0.4084 -0.1263
 4248SOL     OW13642   2.851   6.931   1.067  0.2274 -0.4485 -0.0226
 4248SOL    HW113643   2.853   6.833   1.086  0.1914 -0.1776  1.5767
 4248SOL    HW213644   2.935   6.958   1.021  0.7859 -1.0425  0.6241
 4249SOL     OW13645   4.922   1.011   4.688  0.4666 -0.0690 -0.1678
 4249SOL    HW113646   4.865   0.983   4.611  0.6925 -1.9051  0.2883
 4249SOL    HW213647   5.000   0.949   4.696  2.0983  1.8958 -0.2552
 4250SOL     OW13648   6.811   0.550   5.020  0.4961 -0.4831 -0.2821
 4250SOL    HW113649   6.788   0.620   5.087  2.5860 -1.0943  1.2089
 4250SOL    HW213650   6.793   0.584   4.928  1.1032  1.9041  0.4006
 4251SOL     OW13651   5.081   3.683   5.174 -0.0958  0.3696 -0.1861
 4251SOL    HW113652   4.984   3.674   5.153 -0.0047 -0.5271 -0.2446
 4251SOL    HW213653   5.110   3.777   5.155 -0.5699  0.2232 -1.7748
 4252SOL     OW13654   0.093   5.977   0.053  0.5190 -0.5239 -0.1074
 4252SOL    HW113655   0.018   5.917   0.025  0.0704  0.8273 -1.9941
 4252SOL    HW213656   0.178   5.944   0.013  0.3600 -0.2307 -0.7038
 4253SOL     OW13657   4.523   1.964   3.648 -0.2034  0.5518  0.0911
 4253SOL    HW113658   4.550   1.998   3.738  0.7541  2.4884 -0.8707
 4253SOL    HW213659   4.503   2.041   3.587 -1.8124 -0.7111 -1.1065
 4254SOL     OW13660   3.108   2.704   6.157 -0.0781  0.1122 -0.1467
 4254SOL    HW113661   3.032   2.726   6.097 -0.8579  0.2518  0.8556
 4254SOL    HW213662   3.185   2.765   6.138 -0.1977 -0.0383 -1.1760
 4255SOL     OW13663   0.921   4.439   3.571  0.5010  0.1021  0.3594
 4255SOL    HW113664   0.848   4.506   3.561  0.3704  0.0145  0.7220
 4255SOL    HW213665   1.008   4.482   3.545  0.4079  0.3862  0.5081
 4256SOL     OW13666   0.567   6.071   0.850 -0.2228  0.1043  0.1452
 4256SOL    HW113667   0.657   6.048   0.887  0.1642 -1.1072 -1.3977
 4256SOL    HW213668   0.550   6.015   0.769 -2.5138  0.1011  0.5784
 4257SOL     OW13669   0.606   6.476   1.809 -0.1388 -0.1196  0.3011
 4257SOL    HW113670   0.685   6.458   1.868  0.5328 -1.1912 -0.8460
 4257SOL    HW213671   0.541   6.401   1.816  0.7782 -1.1771 -1.5483
 4258SOL     OW13672   4.458   5.781   1.008  0.2333 -0.5497  0.3437
 4258SOL    HW113673   4.406   5.819   1.084  0.2703 -0.9928  0.5987
 4258SOL    HW213674   4.397   5.762   0.932  0.3974  1.0991 -0.2299
 4259SOL     OW13675   2.108   1.097   6.679  0.5123 -0.8457 -0.3614
 4259SOL    HW113676   2.054   1.013   6.687  0.1115 -0.5191  0.4543
 4259SOL    HW213677   2.141   1.106   6.585  0.3497 -1.7847 -0.5178
 4260SOL     OW13678   5.665   0.356   3.501 -0.3366  0.1799  0.4891
 4260SOL    HW113679   5.593   0.404   3.451 -0.9054 -0.8279  0.3281
 4260SOL    HW213680   5.703   0.283   3.443 -1.4213 -1.4099  1.7087
 4261SOL     OW13681   2.441   0.298   6.281 -0.4020 -0.4606 -0.0907
 4261SOL    HW113682   2.406   0.261   6.195  0.5157 -2.7635  0.4474
 4261SOL    HW213683   2.541   0.297   6.280 -0.3291  1.6077  0.1896
 4262SOL     OW13684   2.932   1.837   0.488 -1.2013 -0.2306  0.0721
 4262SOL    HW113685   2.961   1.792   0.403 -2.1550 -3.0203  1.1391
 4262SOL    HW213686   2.833   1.829   0.498 -0.9562 -1.3427  2.1461
 4263SOL     OW13687   2.937   1.338   5.026 -0.1530  0.1863 -0.2964
 4263SOL    HW113688   2.868   1.326   4.955  1.0527 -0.0211 -1.4732
 4263SOL    HW213689   2.893   1.370   5.110 -1.4649  1.7308 -1.4998
 4264SOL     OW13690   4.922   1.888   4.623  0.5957  0.0966 -0.4609
 4264SOL    HW113691   4.843   1.871   4.681  0.9513 -2.1419 -0.5716
 4264SOL    HW213692   4.937   1.987   4.616 -1.3443  0.5199  0.6535
 4265SOL     OW13693   3.517   6.796   6.621 -1.0420  0.0993  0.3497
 4265SOL    HW113694   3.514   6.698   6.643 -1.9320  0.0595  0.0916
 4265SOL    HW213695   3.433   6.839   6.652  0.0704  1.1663  2.1050
 4266SOL     OW13696   1.821   5.417   2.067 -0.9788  0.5525 -0.4339
 4266SOL    HW113697   1.906   5.365   2.063 -1.1139  0.1715  1.0373
 4266SOL    HW213698   1.830   5.489   2.135 -1.5457  1.0666 -0.8959
 4267SOL     OW13699   1.702   3.977   4.286  0.0374 -0.0213  0.0002
 4267SOL    HW113700   1.724   4.028   4.369 -1.3821  1.2286 -0.3531
 4267SOL    HW213701   1.755   4.014   4.210  1.0015 -0.8744  0.2251
 4268SOL     OW13702   6.166   4.243   0.175  0.1537  0.3036  0.3057
 4268SOL    HW113703   6.248   4.292   0.146 -0.1112  0.5020 -0.1087
 4268SOL    HW213704   6.157   4.250   0.274  0.4301  0.6031  0.3115
 4269SOL     OW13705   3.884   0.966   4.077 -0.6868 -0.4791  0.1077
 4269SOL    HW113706   3.894   1.061   4.105 -2.5365 -0.1152 -0.3780
 4269SOL    HW213707   3.947   0.948   4.001  0.6170 -0.0424  1.0433
 4270SOL     OW13708   5.059   2.403   6.472 -0.0218  0.0658  0.3057
 4270SOL    HW113709   5.099   2.377   6.560  0.2828  0.4720  0.2932
 4270SOL    HW213710   4.998   2.481   6.486  2.0870  1.9097 -0.2099
 4271SOL     OW13711   0.017   0.114   2.161  0.1138  0.1256 -0.1057
 4271SOL    HW113712  -0.035   0.031   2.182  0.4113  0.1307  0.6948
 4271SOL    HW213713  -0.002   0.183   2.230 -1.6315  1.4377 -1.8172
 4272SOL     OW13714   6.624   6.483   4.329 -0.0836 -0.4756  0.0868
 4272SOL    HW113715   6.573   6.568   4.343  1.6021  0.7943 -1.0390
 4272SOL    HW213716   6.560   6.407   4.322 -1.7786  0.9374 -0.5644
 4273SOL     OW13717   2.442   4.783   3.264  0.4238 -0.0411  0.6878
 4273SOL    HW113718   2.392   4.779   3.177 -1.0111  1.8863  1.3667
 4273SOL    HW213719   2.436   4.875   3.302  0.6754 -0.9297  3.0364
 4274SOL     OW13720   0.232   0.737   1.470 -0.3863 -0.0485 -0.3983
 4274SOL    HW113721   0.167   0.702   1.403 -2.2692  1.3755  0.5940
 4274SOL    HW213722   0.211   0.832   1.491  0.5141 -0.2674  1.7773
 4275SOL     OW13723   1.220   1.759   2.874 -0.2055  0.1432 -0.0932
 4275SOL    HW113724   1.266   1.672   2.891 -0.0104 -0.1183 -1.7311
 4275SOL    HW213725   1.288   1.828   2.847 -0.4511  0.5721  0.3784
 4276SOL     OW13726   3.627   5.094   2.301 -0.1990  0.5229  0.0024
 4276SOL    HW113727   3.559   5.132   2.237  1.0234  1.3161 -0.8744
 4276SOL    HW213728   3.653   5.164   2.367 -1.0705 -0.1406  1.0757
 4277SOL     OW13729   5.644   6.011   1.945  0.3322 -0.0524  0.1088
 4277SOL    HW113730   5.633   5.948   1.868  1.1347 -0.4567  0.3155
 4277SOL    HW213731   5.709   5.973   2.010  0.6282  0.8747  0.3712
 4278SOL     OW13732   2.268   6.145   0.237  0.3194 -0.0947  0.1058
 4278SOL    HW113733   2.333   6.173   0.166  2.2972  1.3253  2.3301
 4278SOL    HW213734   2.235   6.053   0.217  0.3629  0.4578 -2.8921
 4279SOL     OW13735   1.088   2.371   4.899  0.5680  0.2109 -0.6532
 4279SOL    HW113736   1.125   2.346   4.988  0.2114  0.1761 -0.5142
 4279SOL    HW213737   1.149   2.437   4.855 -0.5462  2.2428  0.7229
 4280SOL     OW13738   3.170   5.285   6.791  0.0336 -0.4300 -0.3612
 4280SOL    HW113739   3.146   5.296   6.888 -3.1450  0.5765 -1.1302
 4280SOL    HW213740   3.147   5.193   6.761  0.9256 -0.7101 -0.2119
 4281SOL     OW13741   6.688   5.891   1.594  0.0046 -0.1939  0.5024
 4281SOL    HW113742   6.739   5.955   1.652  0.4762 -0.5986  0.5383
 4281SOL    HW213743   6.729   5.801   1.599 -0.0283 -0.2674 -0.3669
 4282SOL     OW13744   5.719   3.595   2.967 -0.5660 -0.3237 -0.3597
 4282SOL    HW113745   5.713   3.503   3.005  1.1731 -0.4961 -0.4141
 4282SOL    HW213746   5.743   3.590   2.870  1.0151  0.1781 -0.0172
 4283SOL     OW13747   4.637   2.724   4.694  0.4690 -0.0982 -0.2345
 4283SOL    HW113748   4.710   2.661   4.665 -0.0130 -1.6953  1.7444
 4283SOL    HW213749   4.652   2.750   4.789 -0.8878  0.5288 -0.1717
 4284SOL     OW13750   5.629   3.693   5.494  0.2965 -0.1460  0.1151
 4284SOL    HW113751   5.533   3.705   5.520  0.0323 -1.4868 -0.1872
 4284SOL    HW213752   5.650   3.751   5.415 -0.3676 -0.1338 -0.0558
 4285SOL     OW13753   3.485   1.582   5.168  0.4323 -0.2639  0.2535
 4285SOL    HW113754   3.457   1.594   5.073  1.7049 -0.3867 -0.1669
 4285SOL    HW213755   3.455   1.492   5.200 -1.0232  0.2379  0.3721
 4286SOL     OW13756   0.272   0.659   5.158 -0.3277  0.2469 -0.3811
 4286SOL    HW113757   0.172   0.665   5.156 -0.2958  1.0748  0.2178
 4286SOL    HW213758   0.310   0.746   5.190  0.4594 -0.9629  2.2456
 4287SOL     OW13759   2.917   0.590   2.448 -0.8801 -0.1618  0.1599
 4287SOL    HW113760   2.838   0.591   2.386 -0.6319 -1.2079 -0.1787
 4287SOL    HW213761   2.912   0.510   2.508  1.0172 -1.4839 -1.3165
 4288SOL     OW13762   0.029   3.986   1.525 -0.4272  1.0666 -0.7435
 4288SOL    HW113763   0.091   4.029   1.591  0.1970 -0.4222 -0.3266
 4288SOL    HW213764   0.003   3.896   1.557 -1.1070  0.8022 -1.9608
 4289SOL     OW13765   0.350   3.574   5.198  0.4999 -0.1303  0.2062
 4289SOL    HW113766   0.270   3.577   5.139  1.6721  0.0317 -1.4487
 4289SOL    HW213767   0.322   3.578   5.293 -1.4442 -0.1329 -0.3359
 4290SOL     OW13768   6.746   0.564   1.928 -0.0515  0.0627  0.4028
 4290SOL    HW113769   6.697   0.651   1.935 -0.5838 -0.2731  1.0754
 4290SOL    HW213770   6.793   0.546   2.015 -1.3469 -1.1184  0.8946
 4291SOL     OW13771   4.452   3.978   0.884  0.2824 -0.2776  0.5319
 4291SOL    HW113772   4.403   4.038   0.948  0.6278  1.0295 -0.3861
 4291SOL    HW213773   4.534   3.942   0.929 -0.9254 -1.6575  1.7363
 4292SOL     OW13774   5.871   6.285   2.978  0.2260  0.2108 -0.0389
 4292SOL    HW113775   5.842   6.321   3.067  0.4842  0.2738  0.0219
 4292SOL    HW213776   5.795   6.290   2.913  0.2611  0.9046 -0.0395
 4293SOL     OW13777   2.037   2.752   0.866 -0.2498  0.0453 -0.3896
 4293SOL    HW113778   1.949   2.738   0.910  0.8481  0.7715  2.2103
 4293SOL    HW213779   2.048   2.849   0.844  0.7117  0.3698  1.3245
 4294SOL     OW13780   2.808   0.133   5.854  0.5762  0.0435 -0.2744
 4294SOL    HW113781   2.731   0.114   5.915  1.1520  0.5205  0.6191
 4294SOL    HW213782   2.891   0.145   5.908  1.0340  0.8457 -1.1320
 4295SOL     OW13783   4.098   5.250   0.444  0.2737 -0.5042  0.2782
 4295SOL    HW113784   4.035   5.328   0.444  2.2147  1.1512 -0.2218
 4295SOL    HW213785   4.086   5.198   0.529 -0.7604  0.6030  0.8498
 4296SOL     OW13786   3.878   6.996   2.558 -0.7584 -0.7366 -0.5012
 4296SOL    HW113787   3.914   7.089   2.559 -1.1694 -0.5377 -1.8507
 4296SOL    HW213788   3.947   6.933   2.593 -0.5147  0.0785  0.5314
 4297SOL     OW13789   4.753   6.953   5.581 -0.0374 -0.0388 -0.2233
 4297SOL    HW113790   4.816   6.926   5.654 -2.8940 -2.4634  1.6247
 4297SOL    HW213791   4.716   7.043   5.601 -0.4777 -0.5023  1.1821
 4298SOL     OW13792   2.819   0.419   1.620 -0.4460 -0.0926  0.2664
 4298SOL    HW113793   2.917   0.400   1.624 -0.7458 -1.6379  0.7757
 4298SOL    HW213794   2.794   0.444   1.527  0.1429 -1.4004 -0.2571
 4299SOL     OW13795   1.086   1.979   1.977 -0.3419  0.1370 -0.5126
 4299SOL    HW113796   1.072   2.077   1.966  1.3318  0.7086  1.6858
 4299SOL    HW213797   1.022   1.929   1.918 -1.5799  2.5112 -1.3102
 4300SOL     OW13798   3.281   0.056   0.771 -0.5212  0.3622  0.4224
 4300SOL    HW113799   3.353   0.003   0.726 -2.5046 -2.9036  0.8070
 4300SOL    HW213800   3.305   0.153   0.768  2.8563 -0.3672 -1.2383
 4301SOL     OW13801   2.611   0.731   5.347  0.2683  0.0487 -0.3651
 4301SOL    HW113802   2.572   0.733   5.439  0.0694 -0.4188 -0.4356
 4301SOL    HW213803   2.668   0.812   5.332 -0.6077  0.7047 -0.2223
 4302SOL     OW13804   3.654   4.782   5.933  0.2576  0.4412  0.6200
 4302SOL    HW113805   3.711   4.710   5.972 -1.9441 -0.2362  2.8780
 4302SOL    HW213806   3.684   4.871   5.967 -1.3448 -0.1039  3.7976
 4303SOL     OW13807   7.013   4.442   1.465  0.2044 -0.8749  0.6142
 4303SOL    HW113808   7.018   4.343   1.456 -0.0062 -0.8160 -0.2184
 4303SOL    HW213809   6.953   4.479   1.394  0.7724 -0.0938  0.5255
 4304SOL     OW13810   3.455   2.835   0.971  0.0997  0.1051  0.0854
 4304SOL    HW113811   3.455   2.748   1.022 -0.1275 -0.7558 -1.3198
 4304SOL    HW213812   3.389   2.829   0.897 -0.9425  2.0296  0.8082
 4305SOL     OW13813   2.041   6.539   0.128  0.2778  0.6216 -0.1597
 4305SOL    HW113814   2.057   6.637   0.123  2.1758  0.5769  2.7046
 4305SOL    HW213815   1.965   6.520   0.191 -0.1350  0.2298 -0.7606
 4306SOL     OW13816   5.509   4.011   4.590 -0.0458  0.3596  0.6689
 4306SOL    HW113817   5.508   4.072   4.511  0.7572  0.9144  1.0699
 4306SOL    HW213818   5.457   4.052   4.665 -2.1630 -0.8809 -0.0513
 4307SOL     OW13819   0.409   6.895   6.231  0.0278  0.4985  0.1419
 4307SOL    HW113820   0.310   6.902   6.239 -0.0576 -0.1723 -0.2352
 4307SOL    HW213821   0.446   6.983   6.200 -0.2764  1.1968  1.6897
 4308SOL     OW13822   3.967   5.063   6.657  0.3963  0.0187 -0.1751
 4308SOL    HW113823   4.015   4.987   6.702 -2.6507 -1.7498  0.3010
 4308SOL    HW213824   3.891   5.093   6.714 -0.5559  1.1203 -1.9301
 4309SOL     OW13825   2.385   0.198   0.097 -0.5038 -0.5055 -0.1988
 4309SOL    HW113826   2.402   0.289   0.059 -2.5561  0.3932  0.8802
 4309SOL    HW213827   2.294   0.167   0.071  0.3582 -2.5605 -1.0122
 4310SOL     OW13828   6.833   1.712   2.082  0.5378  0.4309 -0.2194
 4310SOL    HW113829   6.756   1.772   2.100  0.2837 -0.2130  0.9324
 4310SOL    HW213830   6.827   1.676   1.989  0.1714  1.4017 -0.5826
 4311SOL     OW13831   1.169   0.015   1.920 -0.3790  0.3572 -0.1680
 4311SOL    HW113832   1.171   0.006   2.020 -0.5900 -0.4725 -0.2252
 4311SOL    HW213833   1.200   0.106   1.894  0.3685  0.3383  0.6177
 4312SOL     OW13834   6.589   3.769   0.606 -0.1006 -0.0401 -0.4635
 4312SOL    HW113835   6.687   3.760   0.595 -0.0934  0.6878 -1.0902
 4312SOL    HW213836   6.548   3.680   0.625  0.7266 -0.2809  0.2318
 4313SOL     OW13837   0.083   2.613   6.330  1.0906 -0.5275 -0.2980
 4313SOL    HW113838  -0.017   2.620   6.331  1.1993  2.9332 -1.2167
 4313SOL    HW213839   0.112   2.574   6.243  0.5841 -0.8922 -0.3119
 4314SOL     OW13840   6.613   2.249   5.918 -0.3338  0.0493 -0.1233
 4314SOL    HW113841   6.617   2.273   5.821 -1.3260  0.9647  0.0481
 4314SOL    HW213842   6.532   2.290   5.959  0.0502 -0.3739  1.0908
 4315SOL     OW13843   2.200   6.405   3.173 -0.2572 -0.2395 -0.7897
 4315SOL    HW113844   2.113   6.422   3.127 -0.5698 -1.7717 -0.8020
 4315SOL    HW213845   2.272   6.394   3.105 -0.5492 -1.5676 -0.9103
 4316SOL     OW13846   5.145   5.406   2.162 -0.1130  0.0423 -0.3686
 4316SOL    HW113847   5.128   5.352   2.080  1.2998  1.3584 -1.5701
 4316SOL    HW213848   5.209   5.357   2.222 -1.2530 -0.9806  0.0602
 4317SOL     OW13849   5.778   1.620   6.644  0.4989  0.2302  0.4859
 4317SOL    HW113850   5.771   1.575   6.733 -1.8117  0.0333  0.2817
 4317SOL    HW213851   5.835   1.565   6.583  0.0274 -0.9805  1.0952
 4318SOL     OW13852   6.050   6.718   4.273  0.7248 -0.7137  0.5987
 4318SOL    HW113853   5.995   6.641   4.243  0.2522 -0.0875 -0.2018
 4318SOL    HW213854   6.102   6.754   4.195  2.3176 -1.3130  1.3371
 4319SOL     OW13855   0.443   5.034   1.254  0.1889 -0.0501 -0.4483
 4319SOL    HW113856   0.518   4.968   1.250  2.7769  2.7290 -2.6661
 4319SOL    HW213857   0.436   5.071   1.346  0.4175 -1.4770  0.1776
 4320SOL     OW13858   5.130   6.918   0.902 -0.7760 -0.2468  0.1972
 4320SOL    HW113859   5.095   6.826   0.883 -1.6583  0.1508 -0.1568
 4320SOL    HW213860   5.156   6.924   0.998 -2.0492 -0.4590  0.5790
 4321SOL     OW13861   6.989   5.169   1.990  0.3012  0.0065 -0.5359
 4321SOL    HW113862   6.982   5.260   1.949  2.6928  0.1809 -0.7040
 4321SOL    HW213863   6.999   5.101   1.918  0.4732 -0.1715 -0.3440
 4322SOL     OW13864   2.635   2.357   4.174  0.0762 -0.2528  0.1524
 4322SOL    HW113865   2.575   2.381   4.097  1.1705  0.8585 -0.3896
 4322SOL    HW213866   2.631   2.429   4.243  0.5389 -0.3218  0.2534
 4323SOL     OW13867   4.562   6.678   6.909  0.0037  0.6762 -0.1187
 4323SOL    HW113868   4.541   6.676   7.007  1.7019 -0.2828  0.2671
 4323SOL    HW213869   4.657   6.649   6.895 -0.9395 -1.7166 -2.2721
 4324SOL     OW13870   2.506   3.632   5.480 -0.6623 -0.4731 -0.3916
 4324SOL    HW113871   2.547   3.723   5.481 -0.7700 -0.1828 -4.5298
 4324SOL    HW213872   2.412   3.638   5.448 -0.8404 -1.9970 -0.2205
 4325SOL     OW13873   4.309   6.257   1.100  0.2649  0.4591 -0.5113
 4325SOL    HW113874   4.305   6.352   1.132 -0.3496  0.6839 -1.2358
 4325SOL    HW213875   4.294   6.254   1.001  0.4101 -0.3858 -0.5157
 4326SOL     OW13876   5.683   1.948   1.158  0.3208 -0.2123 -0.5074
 4326SOL    HW113877   5.763   1.904   1.117  2.6008  1.6975  1.5784
 4326SOL    HW213878   5.677   2.043   1.126 -0.7206 -0.1431 -0.1445
 4327SOL     OW13879   2.742   6.329   5.338  0.3683 -0.3449  0.3146
 4327SOL    HW113880   2.657   6.287   5.368  0.5510 -1.8603 -1.1360
 4327SOL    HW213881   2.738   6.344   5.239  1.1806  1.0609  0.4675
 4328SOL     OW13882   6.154   6.055   3.665  0.2918  0.0276  0.1945
 4328SOL    HW113883   6.233   6.106   3.631 -0.2168  0.8970  0.2975
 4328SOL    HW213884   6.137   6.079   3.761 -0.7122  0.6232 -0.1210
 4329SOL     OW13885   6.651   1.760   5.927 -0.0850 -0.3812  0.1566
 4329SOL    HW113886   6.558   1.794   5.912  0.5477  1.1485 -0.6189
 4329SOL    HW213887   6.696   1.817   5.997 -0.1603 -2.0053  1.5978
 4330SOL     OW13888   1.586   6.876   5.393 -0.1707 -0.1362 -0.0891
 4330SOL    HW113889   1.606   6.824   5.310  0.6930  1.4940 -0.9535
 4330SOL    HW213890   1.535   6.958   5.369 -1.4620 -0.5033  1.2432
 4331SOL     OW13891   4.045   0.236   3.181 -0.4951  0.6859  0.4570
 4331SOL    HW113892   4.101   0.168   3.228 -3.1451 -0.8211  1.6309
 4331SOL    HW213893   4.058   0.227   3.082  0.4091 -0.4203  0.6500
 4332SOL     OW13894   0.952   6.017   1.517 -0.4953 -0.1629  0.6813
 4332SOL    HW113895   0.893   6.098   1.520 -2.0733 -1.1411 -1.6280
 4332SOL    HW213896   0.916   5.948   1.580 -0.6449 -0.0353  0.7374
 4333SOL     OW13897   4.908   0.298   5.678 -0.1595  0.6555 -0.2269
 4333SOL    HW113898   4.993   0.255   5.646  0.6107 -1.4876  3.9105
 4333SOL    HW213899   4.931   0.378   5.733 -0.8852  0.7255 -0.0205
 4334SOL     OW13900   2.456   2.509   5.303 -0.0171  1.0048 -0.0942
 4334SOL    HW113901   2.412   2.579   5.247 -2.7954  0.0448  0.7191
 4334SOL    HW213902   2.395   2.484   5.379  0.1643 -3.1834 -1.0707
 4335SOL     OW13903   2.233   3.050   2.869 -0.8113 -1.1084  0.2038
 4335SOL    HW113904   2.229   3.107   2.951  0.8623  0.2861 -0.6288
 4335SOL    HW213905   2.194   3.100   2.792  0.9371 -0.9035 -0.6040
 4336SOL     OW13906   3.995   5.856   6.127  0.2058  0.2676  0.0146
 4336SOL    HW113907   3.943   5.910   6.061  0.5419  1.1993  0.4909
 4336SOL    HW213908   3.998   5.760   6.097 -0.2436  0.5380 -0.9390
 4337SOL     OW13909   6.544   5.063   4.164 -0.0364 -0.0246 -0.4023
 4337SOL    HW113910   6.493   5.139   4.205 -1.1846 -0.5363 -0.8410
 4337SOL    HW213911   6.637   5.061   4.201 -0.7056  0.1659  1.3775
 4338SOL     OW13912   2.935   2.827   5.606 -0.2169  0.1076 -0.2271
 4338SOL    HW113913   3.000   2.808   5.532 -1.1285 -0.1954 -0.9623
 4338SOL    HW213914   2.852   2.866   5.567 -1.2631 -1.3641  0.4754
 4339SOL     OW13915   2.978   4.318   6.206  0.5714 -0.0496  0.0140
 4339SOL    HW113916   3.057   4.258   6.194  1.2681  0.7078  0.6717
 4339SOL    HW213917   2.973   4.382   6.130 -0.7692 -1.5372 -1.2364
 4340SOL     OW13918   6.219   3.902   2.760  0.1629 -0.6834  0.2869
 4340SOL    HW113919   6.173   3.930   2.844  0.6144 -0.4310  0.4554
 4340SOL    HW213920   6.264   3.981   2.719  0.0509 -0.8317 -0.1277
 4341SOL     OW13921   5.366   6.074   0.665 -0.1236 -0.4067 -0.1630
 4341SOL    HW113922   5.391   6.170   0.650 -0.0264 -0.4037  0.0210
 4341SOL    HW213923   5.382   6.022   0.581  1.1760 -0.5477  0.1484
 4342SOL     OW13924   4.790   2.366   4.162 -0.2154 -0.4026 -0.1213
 4342SOL    HW113925   4.802   2.385   4.064 -2.0916 -1.2153 -0.5662
 4342SOL    HW213926   4.812   2.270   4.180 -2.6408 -1.0837 -0.3838
 4343SOL     OW13927   4.292   6.647   5.636  0.4416 -0.0012  0.1833
 4343SOL    HW113928   4.336   6.677   5.552  1.8889 -1.1560  0.4876
 4343SOL    HW213929   4.317   6.710   5.710 -0.2543  0.6062 -0.0811
 4344SOL     OW13930   1.804   5.281   2.786  0.1323 -0.0140  0.3458
 4344SOL    HW113931   1.889   5.233   2.808  1.5875  1.8967 -0.8191
 4344SOL    HW213932   1.771   5.250   2.697 -0.4797 -0.8350  0.8467
 4345SOL     OW13933   3.555   2.906   3.151 -0.9749  0.1645  0.2554
 4345SOL    HW113934   3.638   2.899   3.206 -1.7390  0.6476  1.5299
 4345SOL    HW213935   3.573   2.958   3.068 -0.2761  1.3300  1.1078
 4346SOL     OW13936   1.296   3.289   3.030 -0.2516 -0.3793  0.3538
 4346SOL    HW113937   1.234   3.211   3.029 -0.1338 -0.4734  0.3290
 4346SOL    HW213938   1.340   3.296   3.119 -1.0778  0.3118  0.7240
 4347SOL     OW13939   0.127   6.159   6.455 -0.1176 -0.2616 -0.1552
 4347SOL    HW113940   0.149   6.141   6.359  0.1280 -0.7584 -0.0112
 4347SOL    HW213941   0.199   6.122   6.513 -0.5039 -0.4055  0.2421
 4348SOL     OW13942   5.051   4.867   4.614 -0.1638  0.4744  0.4393
 4348SOL    HW113943   5.079   4.898   4.705  0.9854  1.2093 -0.1383
 4348SOL    HW213944   4.952   4.874   4.605 -0.4533 -0.8685  2.0764
 4349SOL     OW13945   6.257   1.789   3.551 -0.1311 -0.2462 -0.0331
 4349SOL    HW113946   6.275   1.799   3.453 -2.1785 -0.8234 -0.5125
 4349SOL    HW213947   6.195   1.712   3.566  0.3593 -0.3307  1.7593
 4350SOL     OW13948   4.384   0.774   4.545  0.4171 -0.3169  0.3140
 4350SOL    HW113949   4.345   0.689   4.580 -2.5995 -0.2792 -2.4435
 4350SOL    HW213950   4.321   0.850   4.562  1.2409  0.6211 -0.6297
 4351SOL     OW13951   1.140   5.907   0.431 -0.3156 -0.3540 -0.3116
 4351SOL    HW113952   1.083   5.833   0.394 -2.0831  1.4327 -1.3571
 4351SOL    HW213953   1.082   5.985   0.455  1.7051  1.7108 -1.7208
 4352SOL     OW13954   3.405   4.390   0.242  0.1794 -0.4192  0.0927
 4352SOL    HW113955   3.363   4.439   0.165 -0.9172 -0.9514  0.3297
 4352SOL    HW213956   3.463   4.452   0.294  0.6419  0.0437 -0.9415
 4353SOL     OW13957   2.081   1.598   2.416 -0.0415 -0.3693  0.3631
 4353SOL    HW113958   2.173   1.617   2.385 -0.5847  1.6998 -0.1531
 4353SOL    HW213959   2.081   1.518   2.476  1.6903 -1.8033 -1.4514
 4354SOL     OW13960   5.197   6.281   1.986 -0.0404  0.1313 -0.3663
 4354SOL    HW113961   5.256   6.309   2.061 -1.2460  1.3307  0.1610
 4354SOL    HW213962   5.195   6.353   1.917 -0.7799  0.0322 -0.4497
 4355SOL     OW13963   1.949   5.831   2.733  0.4223  0.3749  0.2001
 4355SOL    HW113964   1.946   5.924   2.696 -0.4453  0.8852  1.4804
 4355SOL    HW213965   2.043   5.809   2.760  0.5956  0.9508  0.0763
 4356SOL     OW13966   5.333   3.833   5.071 -0.3045  0.3831 -0.0452
 4356SOL    HW113967   5.343   3.835   5.170 -1.3201 -0.4388  0.0942
 4356SOL    HW213968   5.399   3.896   5.029 -0.6154  1.5969  1.2066
 4357SOL     OW13969   4.754   0.264   0.952 -0.3922 -0.0410  0.4105
 4357SOL    HW113970   4.659   0.270   0.985 -0.1743  0.3453  0.9766
 4357SOL    HW213971   4.789   0.355   0.935  0.1278 -0.1343  0.9344
 4358SOL     OW13972   2.489   0.697   6.861 -0.1958  0.2547 -0.5262
 4358SOL    HW113973   2.533   0.608   6.868 -1.0119 -0.1501 -0.4732
 4358SOL    HW213974   2.486   0.726   6.765 -2.3063 -1.0224 -0.9198
 4359SOL     OW13975   3.792   1.067   0.373 -0.1561  0.3881  0.1521
 4359SOL    HW113976   3.850   0.988   0.392 -0.2843  0.3937  0.5847
 4359SOL    HW213977   3.715   1.038   0.316 -0.3328  0.1453  0.5066
 4360SOL     OW13978   1.071   5.332   4.170  0.0240 -0.0478  0.1438
 4360SOL    HW113979   0.975   5.338   4.198 -0.1915 -1.8812 -0.0633
 4360SOL    HW213980   1.091   5.239   4.138  2.0215  0.1310  0.7029
 4361SOL     OW13981   6.721   3.488   5.347 -0.3419 -0.3521 -0.0744
 4361SOL    HW113982   6.784   3.525   5.415 -2.3316 -1.0648  2.2993
 4361SOL    HW213983   6.632   3.532   5.356 -0.7571 -0.6711 -2.0944
 4362SOL     OW13984   1.937   6.745   2.057  0.8972 -0.8072 -0.6116
 4362SOL    HW113985   1.967   6.811   1.988  0.3745  0.0071 -0.0769
 4362SOL    HW213986   1.868   6.684   2.016  0.3515 -0.1257 -0.7348
 4363SOL     OW13987   4.388   6.937   3.457 -0.2194  0.2719  0.5138
 4363SOL    HW113988   4.351   6.977   3.541  0.5404 -0.7548  1.3596
 4363SOL    HW213989   4.385   6.838   3.464  0.9240  0.1796 -0.2003
 4364SOL     OW13990   3.385   4.469   1.208  0.2681  0.4682 -0.6972
 4364SOL    HW113991   3.483   4.459   1.191  0.1643 -1.4322 -0.4006
 4364SOL    HW213992   3.335   4.441   1.126 -0.0379  2.0343 -1.0689
 4365SOL     OW13993   0.841   1.129   2.849 -0.3860 -0.1491  0.1653
 4365SOL    HW113994   0.821   1.076   2.932 -0.0854 -1.7941 -0.7696
 4365SOL    HW213995   0.755   1.152   2.803 -0.7159  2.4112  1.8173
 4366SOL     OW13996   4.790   6.544   5.641 -0.2360 -0.1586  0.2078
 4366SOL    HW113997   4.707   6.499   5.675 -1.0666  1.7049  0.7539
 4366SOL    HW213998   4.869   6.510   5.692 -0.9543 -0.3382  1.2292
 4367SOL     OW13999   3.670   6.599   2.015  0.2003  0.1588  0.3566
 4367SOL    HW114000   3.707   6.682   1.973  0.4366 -0.6808 -1.1752
 4367SOL    HW214001   3.570   6.598   2.005  0.0072  1.0627  1.9395
 4368SOL     OW14002   6.317   3.570   3.179 -0.6648 -0.3899 -0.1115
 4368SOL    HW114003   6.363   3.658   3.170 -1.0667  0.0712  1.8640
 4368SOL    HW214004   6.232   3.571   3.127 -1.4380  0.9668  1.1355
 4369SOL     OW14005   6.837   4.857   4.886 -0.1885  0.2733 -0.2494
 4369SOL    HW114006   6.756   4.807   4.855  0.1700  0.0232 -0.8053
 4369SOL    HW214007   6.883   4.898   4.808 -0.1834  1.0403  0.1455
 4370SOL     OW14008   2.365   3.402   0.847 -0.1808  0.2407  0.1117
 4370SOL    HW114009   2.297   3.399   0.920  2.0585 -0.1536  2.3054
 4370SOL    HW214010   2.409   3.492   0.846  0.8621 -0.2551  0.2840
 4371SOL     OW14011   6.876   0.714   0.871  0.0873  0.0102 -0.1744
 4371SOL    HW114012   6.940   0.739   0.798 -0.1097 -0.5205 -0.5394
 4371SOL    HW214013   6.828   0.630   0.846 -1.1078  0.6559 -0.1213
 4372SOL     OW14014   1.028   2.807   4.879  0.6766 -0.1482 -0.1898
 4372SOL    HW114015   1.060   2.779   4.788 -1.7011 -1.0875 -0.8203
 4372SOL    HW214016   0.995   2.901   4.875 -1.3722 -0.8281 -0.9378
 4373SOL     OW14017   4.289   0.510   5.649 -0.2527  0.5039 -0.3222
 4373SOL    HW114018   4.262   0.603   5.674 -2.7766  0.4701 -2.5470
 4373SOL    HW214019   4.255   0.446   5.717 -1.0766  0.9689 -0.2866
 4374SOL     OW14020   3.301   0.859   1.177  0.1983 -0.4600  0.2423
 4374SOL    HW114021   3.324   0.934   1.239 -0.4590 -0.1516  0.1118
 4374SOL    HW214022   3.203   0.860   1.158  0.5527  0.1353 -1.7084
 4375SOL     OW14023   4.866   0.719   3.149 -0.0996 -0.5709  0.0161
 4375SOL    HW114024   4.812   0.799   3.178 -0.3505 -0.4764 -0.7080
 4375SOL    HW214025   4.846   0.642   3.210  0.0294 -0.1325  0.6300
 4376SOL     OW14026   4.640   5.651   6.886 -0.0493  0.4434 -0.8253
 4376SOL    HW114027   4.671   5.714   6.814  1.2308 -0.5529 -1.1819
 4376SOL    HW214028   4.543   5.629   6.872 -0.0712  1.0254 -1.6623
 4377SOL     OW14029   7.007   6.793   0.648  0.6890 -0.2080  0.0220
 4377SOL    HW114030   7.000   6.771   0.746  0.0376 -1.3764 -0.2692
 4377SOL    HW214031   7.089   6.749   0.611  0.5981 -0.2815 -0.0897
 4378SOL     OW14032   1.514   6.329   2.077 -0.2069  0.1455 -0.0338
 4378SOL    HW114033   1.451   6.355   2.004 -2.0661 -0.9375  1.1171
 4378SOL    HW214034   1.480   6.363   2.164  1.2573  0.2244  0.5357
 4379SOL     OW14035   1.876   5.224   0.578 -0.2609  0.3820  0.4497
 4379SOL    HW114036   1.900   5.308   0.530 -0.0952 -0.6383 -1.3290
 4379SOL    HW214037   1.796   5.241   0.637  0.3665  1.9901  0.8812
 4380SOL     OW14038   2.719   5.888   3.575  0.1746  0.7168  0.8163
 4380SOL    HW114039   2.655   5.877   3.498  1.6366  0.1629 -0.3683
 4380SOL    HW214040   2.766   5.976   3.566  0.5654  0.5182  0.8913
 4381SOL     OW14041   6.467   6.208   6.322 -0.0673 -0.1188  0.0953
 4381SOL    HW114042   6.461   6.144   6.246  0.9287  0.4374 -0.4565
 4381SOL    HW214043   6.456   6.157   6.408  0.6608 -1.0280 -0.3299
 4382SOL     OW14044   4.874   4.866   3.163 -0.5375 -0.4585 -0.0354
 4382SOL    HW114045   4.860   4.770   3.189 -1.2448 -0.1291  0.8503
 4382SOL    HW214046   4.862   4.924   3.243  1.0380  0.2904 -0.3057
 4383SOL     OW14047   1.937   2.037   6.071 -0.8620 -0.0215 -0.0738
 4383SOL    HW114048   1.981   2.124   6.047 -0.6891  0.2206  1.0989
 4383SOL    HW214049   1.841   2.054   6.093 -1.5195 -0.5012 -2.2978
 4384SOL     OW14050   4.122   0.576   0.119  0.1774 -0.3308 -0.2893
 4384SOL    HW114051   4.107   0.479   0.137  0.7063 -0.0760  1.7021
 4384SOL    HW214052   4.199   0.609   0.174  0.5908  1.0277 -1.6085
 4385SOL     OW14053   6.619   1.647   1.753  0.1478 -0.3858 -0.0886
 4385SOL    HW114054   6.716   1.671   1.754  0.3106 -0.7754 -2.0683
 4385SOL    HW214055   6.590   1.622   1.846  1.7884  0.2208  0.6370
 4386SOL     OW14056   2.510   4.086   1.050  0.0553 -0.3885 -0.4577
 4386SOL    HW114057   2.411   4.075   1.045 -0.1403  0.9817 -0.1150
 4386SOL    HW214058   2.540   4.074   1.145 -0.2097  1.9654 -0.0056
 4387SOL     OW14059   5.579   2.393   1.642  0.3438  0.3421 -0.7168
 4387SOL    HW114060   5.605   2.367   1.549  0.7713  0.8270 -0.7293
 4387SOL    HW214061   5.524   2.476   1.639  1.1912  0.9160 -0.4557
 4388SOL     OW14062   2.474   0.739   5.575 -0.2017  0.1671  0.2514
 4388SOL    HW114063   2.389   0.731   5.627  0.9104 -2.3981  1.9137
 4388SOL    HW214064   2.548   0.763   5.638  1.0972 -2.5050 -0.0990
 4389SOL     OW14065   4.845   2.463   3.478 -0.1746 -0.0266  0.1569
 4389SOL    HW114066   4.753   2.439   3.511 -0.2222  1.2128  1.0163
 4389SOL    HW214067   4.904   2.482   3.556  0.7500 -0.5590 -0.4036
 4390SOL     OW14068   5.877   2.452   2.539 -0.5504  0.4866  0.3825
 4390SOL    HW114069   5.888   2.353   2.535 -0.4730  0.4788  0.8107
 4390SOL    HW214070   5.959   2.496   2.501 -0.9174  0.3814 -0.5496
 4391SOL     OW14071   1.017   5.689   0.641  0.3520 -0.0668  0.0955
 4391SOL    HW114072   1.103   5.660   0.682  0.3517 -1.4232 -0.8109
 4391SOL    HW214073   1.000   5.785   0.663  2.6144  0.5417 -0.6073
 4392SOL     OW14074   5.267   3.159   4.659  0.1912 -0.0651 -0.3086
 4392SOL    HW114075   5.209   3.144   4.579  1.2342  0.8091 -1.2811
 4392SOL    HW214076   5.211   3.182   4.738 -0.9295 -1.9417 -0.5131
 4393SOL     OW14077   6.321   4.047   3.692 -0.3309  0.0908  0.0815
 4393SOL    HW114078   6.307   4.144   3.714 -2.0943  0.3058 -1.6866
 4393SOL    HW214079   6.370   4.040   3.605 -1.8531 -0.5047 -0.7810
 4394SOL     OW14080   5.632   2.549   2.489 -0.5271 -1.0679  0.0299
 4394SOL    HW114081   5.721   2.518   2.522 -0.4948 -0.0957  0.9211
 4394SOL    HW214082   5.636   2.562   2.390  1.1991  1.5696  0.3425
 4395SOL     OW14083   5.163   3.599   2.668 -0.2156  0.1342  0.0695
 4395SOL    HW114084   5.243   3.562   2.714 -0.5523 -0.4072  0.2295
 4395SOL    HW214085   5.164   3.573   2.572 -0.6097 -0.5763  0.2477
 4396SOL     OW14086   0.329   0.010   4.106  0.7410 -0.1087  0.1679
 4396SOL    HW114087   0.399   0.024   4.177  3.6964 -1.4430 -2.2152
 4396SOL    HW214088   0.297  -0.084   4.110  0.2533  0.0594  0.2566
 4397SOL     OW14089   4.185   1.327   1.218 -0.4337  0.2226  0.3487
 4397SOL    HW114090   4.191   1.232   1.248 -1.1198  0.2041  0.4369
 4397SOL    HW214091   4.166   1.331   1.120 -0.4041  0.2693  0.3445
 4398SOL     OW14092   6.401   6.160   2.985 -0.2784 -0.2521 -0.4381
 4398SOL    HW114093   6.305   6.159   2.955  0.0462 -3.4815 -1.8426
 4398SOL    HW214094   6.405   6.145   3.083 -1.1774  1.5512 -0.0687
 4399SOL     OW14095   1.622   2.398   1.267 -0.2764  0.0170 -0.0300
 4399SOL    HW114096   1.706   2.380   1.318 -0.1293  0.3236 -0.1551
 4399SOL    HW214097   1.546   2.411   1.331 -0.3871 -1.0143  0.0569
 4400SOL     OW14098   3.946   3.733   5.455 -0.2042 -0.1080  0.0188
 4400SOL    HW114099   3.885   3.812   5.466 -1.2976 -0.8091 -0.7277
 4400SOL    HW214100   4.032   3.762   5.413 -0.8706  0.5897 -0.9130
 4401SOL     OW14101   0.047   0.913   3.050 -0.1481  0.0049  0.2571
 4401SOL    HW114102  -0.016   0.989   3.061  0.6599  1.2470 -2.6395
 4401SOL    HW214103   0.132   0.932   3.098  0.0782  1.0290 -0.5122
 4402SOL     OW14104   6.754   0.879   2.732  0.2865 -0.5666  0.9710
 4402SOL    HW114105   6.769   0.947   2.660 -1.3788 -0.3655  0.7873
 4402SOL    HW214106   6.841   0.833   2.753  0.8918 -0.3315 -0.8497
 4403SOL     OW14107   0.486   4.878   3.917 -0.1277 -0.0215 -0.5061
 4403SOL    HW114108   0.402   4.824   3.922 -0.1876  0.0124 -1.0855
 4403SOL    HW214109   0.565   4.820   3.940 -0.4751  0.4649  2.2581
 4404SOL     OW14110   2.242   5.116   5.268 -0.0230  0.0568  0.1622
 4404SOL    HW114111   2.186   5.068   5.200 -1.1578 -2.0343  2.4237
 4404SOL    HW214112   2.228   5.075   5.358  3.0181  1.3678  1.3610
 4405SOL     OW14113   4.028   3.357   0.867  0.4489  0.0378  0.1649
 4405SOL    HW114114   4.071   3.360   0.777 -1.8164  1.6982 -0.9779
 4405SOL    HW214115   4.075   3.420   0.928 -0.0302  1.4937 -0.9137
 4406SOL     OW14116   6.112   3.670   4.113  0.2408 -0.0653  0.1222
 4406SOL    HW114117   6.063   3.612   4.177  1.7411 -0.6679  0.7624
 4406SOL    HW214118   6.093   3.640   4.019 -1.2039  0.2186  0.2979
 4407SOL     OW14119   0.144   4.951   6.234  0.2607  0.5271  0.0294
 4407SOL    HW114120   0.232   4.904   6.237  0.3114  0.6494  1.4703
 4407SOL    HW214121   0.080   4.900   6.177  1.5654  1.0185 -1.9384
 4408SOL     OW14122   4.291   5.928   2.015 -0.1362 -0.4766  0.3220
 4408SOL    HW114123   4.255   5.892   2.102 -1.8937 -1.9637 -0.9395
 4408SOL    HW214124   4.328   5.853   1.961 -0.0595  0.2667 -0.6812
 4409SOL     OW14125   2.384   1.194   3.428 -0.2210 -0.1944 -0.0522
 4409SOL    HW114126   2.351   1.289   3.423  1.8317  0.5148 -1.6751
 4409SOL    HW214127   2.385   1.155   3.336  1.6827 -0.7675  0.1733
 4410SOL     OW14128   1.732   6.166   1.291 -0.4044  0.5326  0.0560
 4410SOL    HW114129   1.682   6.150   1.205  1.3756  2.1124 -1.3635
 4410SOL    HW214130   1.786   6.250   1.283  2.2711 -0.9105  1.5744
 4411SOL     OW14131   3.083   3.483   2.156  0.1875 -0.0235 -0.3307
 4411SOL    HW114132   2.984   3.475   2.141  0.0470  1.0127 -0.0368
 4411SOL    HW214133   3.118   3.563   2.107  1.0229 -0.7721 -1.0026
 4412SOL     OW14134   3.609   0.853   5.041  0.6303  0.2216  0.0177
 4412SOL    HW114135   3.517   0.838   5.078  0.6178  0.6272  0.1553
 4412SOL    HW214136   3.659   0.914   5.102 -0.1738  2.8620 -1.7814
 4413SOL     OW14137   4.912   4.658   3.691  0.2338 -0.2770 -0.3906
 4413SOL    HW114138   4.856   4.720   3.637 -1.1281 -1.4890 -0.4246
 4413SOL    HW214139   4.904   4.565   3.654  2.1212 -0.5279 -0.2710
 4414SOL     OW14140   3.510   5.494   6.941  0.3024  0.2401  0.2539
 4414SOL    HW114141   3.423   5.540   6.929  0.9086  1.1184 -1.0095
 4414SOL    HW214142   3.498   5.412   6.998 -1.0259  1.2205  1.4282
 4415SOL     OW14143   3.975   0.871   0.457 -0.2378 -0.4253  1.1507
 4415SOL    HW114144   3.969   0.815   0.375 -0.2255  0.8213  0.2773
 4415SOL    HW214145   4.068   0.909   0.465 -0.2153 -0.5919  1.7907
 4416SOL     OW14146   3.351   0.554   4.803 -0.2202  0.6254 -0.1303
 4416SOL    HW114147   3.350   0.645   4.762  0.7211 -0.0877 -1.8755
 4416SOL    HW214148   3.435   0.507   4.775  0.7617  0.2326  3.0972
 4417SOL     OW14149   0.357   6.733   5.876 -0.3029  0.0575 -0.2515
 4417SOL    HW114150   0.428   6.663   5.881  0.4610  0.7605 -0.9484
 4417SOL    HW214151   0.281   6.708   5.937  0.2110 -1.0663 -0.0464
 4418SOL     OW14152   4.858   0.221   5.201  0.0582 -0.2311  0.1360
 4418SOL    HW114153   4.923   0.206   5.127 -1.1358  0.1372 -1.0093
 4418SOL    HW214154   4.824   0.132   5.234 -1.4721 -0.3757 -1.6620
 4419SOL     OW14155   1.049   5.539   1.051  0.0456 -0.2356 -0.2416
 4419SOL    HW114156   1.146   5.522   1.069  0.2458 -1.6914 -2.3089
 4419SOL    HW214157   0.995   5.462   1.082  0.2000 -1.8833 -3.6256
 4420SOL     OW14158   4.646   0.949   0.259  0.4235 -0.4409  0.0622
 4420SOL    HW114159   4.571   0.953   0.325  0.0360  1.8513 -0.4388
 4420SOL    HW214160   4.725   0.905   0.301 -0.2092 -0.1307  1.6267
 4421SOL     OW14161   0.757   1.979   4.474 -0.1452 -0.2386 -0.1307
 4421SOL    HW114162   0.729   2.042   4.402  1.9291 -1.4765 -2.1539
 4421SOL    HW214163   0.843   2.009   4.514 -0.5680 -0.3298  0.8900
 4422SOL     OW14164   2.265   2.725   6.698 -0.2290  0.0844  0.7208
 4422SOL    HW114165   2.279   2.788   6.775  0.6968  1.1217 -0.2547
 4422SOL    HW214166   2.339   2.738   6.631 -0.0620 -2.0038  0.4427
 4423SOL     OW14167   1.014   1.466   4.329  0.3435 -0.1625 -0.0554
 4423SOL    HW114168   1.074   1.403   4.378 -1.1344 -0.8479  0.9812
 4423SOL    HW214169   0.940   1.495   4.390  0.5337  1.9725 -0.7639
 4424SOL     OW14170   0.527   5.975   2.769  0.2157 -0.1005 -0.2555
 4424SOL    HW114171   0.568   5.962   2.678 -0.5694 -1.3180 -0.4536
 4424SOL    HW214172   0.540   5.893   2.823 -1.5188 -0.3481 -0.1545
 4425SOL     OW14173   2.315   5.199   6.464 -0.0113 -0.7118  0.1999
 4425SOL    HW114174   2.234   5.253   6.442  1.1141  0.0472 -2.6608
 4425SOL    HW214175   2.289   5.119   6.517 -2.5975 -0.4032 -0.4532
 4426SOL     OW14176   0.258   0.393   5.566  0.2255 -0.4203  0.4645
 4426SOL    HW114177   0.198   0.343   5.503  0.4935 -0.8527  0.5503
 4426SOL    HW214178   0.348   0.350   5.568  0.7192  0.5613 -0.0842
 4427SOL     OW14179   2.458   6.785   4.666 -0.0964  0.0085  0.1824
 4427SOL    HW114180   2.512   6.863   4.696  1.3642 -1.0058  0.3285
 4427SOL    HW214181   2.438   6.793   4.568  1.4275 -0.1758 -0.1713
 4428SOL     OW14182   2.601   5.415   3.216 -0.1870  0.1267  0.2615
 4428SOL    HW114183   2.640   5.324   3.224  1.7001  0.8931  0.2281
 4428SOL    HW214184   2.558   5.425   3.126  0.5221 -0.3963 -0.1476
 4429SOL     OW14185   4.845   1.012   4.397 -0.7730  0.2751  0.9040
 4429SOL    HW114186   4.832   0.913   4.399 -4.2957  0.5463 -0.7965
 4429SOL    HW214187   4.780   1.053   4.333  0.6524  3.7270  1.4187
 4430SOL     OW14188   3.162   1.534   2.779  0.2727 -0.2277  0.1872
 4430SOL    HW114189   3.216   1.565   2.700 -1.8569 -0.3749 -1.3999
 4430SOL    HW214190   3.065   1.548   2.760 -0.2900  0.3257  3.0794
 4431SOL     OW14191   2.215   1.141   3.176  0.8142  0.4182  0.5168
 4431SOL    HW114192   2.195   1.209   3.106  0.5803  1.0095  1.1447
 4431SOL    HW214193   2.240   1.054   3.132 -1.5578  0.0834 -0.3142
 4432SOL     OW14194   3.880   3.529   3.126  0.0584 -0.6402  0.1086
 4432SOL    HW114195   3.851   3.558   3.034 -1.3772  0.5654  0.8945
 4432SOL    HW214196   3.799   3.521   3.184  1.0107 -0.8261  1.4296
 4433SOL     OW14197   6.698   0.956   2.981  0.0226 -0.7091  0.0593
 4433SOL    HW114198   6.744   0.892   3.043  1.1677 -0.3101 -0.3398
 4433SOL    HW214199   6.719   0.932   2.886 -0.9447 -0.7587 -0.1460
 4434SOL     OW14200   5.125   3.389   4.463  0.2412 -0.1107 -0.7958
 4434SOL    HW114201   5.191   3.426   4.396 -0.9268  1.3554 -1.1856
 4434SOL    HW214202   5.128   3.444   4.546 -0.9318  0.3590 -1.0567
 4435SOL     OW14203   3.127   2.091   1.735  0.1324  0.4045 -0.0495
 4435SOL    HW114204   3.050   2.050   1.686 -0.0864 -2.1601  2.1890
 4435SOL    HW214205   3.211   2.075   1.683  0.0389 -3.0319  0.6250
 4436SOL     OW14206   4.728   0.324   1.645 -0.6444  0.5697  0.4886
 4436SOL    HW114207   4.647   0.334   1.589  0.6174  0.6905 -1.4099
 4436SOL    HW214208   4.784   0.249   1.610  0.2252  0.6865  1.5579
 4437SOL     OW14209   4.553   0.444   3.611  0.4605  0.4831 -0.2369
 4437SOL    HW114210   4.632   0.478   3.560  0.6425 -0.2376 -0.4420
 4437SOL    HW214211   4.480   0.512   3.607  1.1828  1.3154  0.2482
 4438SOL     OW14212   4.109   4.195   5.301 -0.0344 -0.1670  0.5690
 4438SOL    HW114213   4.045   4.129   5.262  0.2796 -0.0083 -0.2330
 4438SOL    HW214214   4.161   4.239   5.228  0.5658  0.1447  1.1661
 4439SOL     OW14215   3.329   4.886   2.708  0.1585  0.0154 -0.1088
 4439SOL    HW114216   3.308   4.845   2.620  0.3823  1.2734 -0.7695
 4439SOL    HW214217   3.245   4.923   2.748  0.0170 -0.7451  0.3347
 4440SOL     OW14218   1.312   1.032   0.697  0.5464  0.3590 -0.6047
 4440SOL    HW114219   1.295   1.114   0.642  1.2409  0.2818 -0.9383
 4440SOL    HW214220   1.251   1.032   0.777 -0.1829  0.6746 -1.1551
 4441SOL     OW14221   6.855   2.953   4.099 -0.2945 -0.0248 -0.0386
 4441SOL    HW114222   6.790   2.878   4.090  0.0727 -0.3073 -0.3629
 4441SOL    HW214223   6.871   2.972   4.196  0.4626 -1.1164  0.0664
 4442SOL     OW14224   2.051   0.617   0.553  0.0547 -0.4072  0.1347
 4442SOL    HW114225   2.008   0.675   0.484  2.6941  0.0465 -1.2946
 4442SOL    HW214226   2.065   0.670   0.637 -1.3880 -0.3488  0.3661
 4443SOL     OW14227   3.403   1.633   6.510  0.5284  0.2822 -0.3982
 4443SOL    HW114228   3.327   1.578   6.474  1.1570 -1.1608  0.3646
 4443SOL    HW214229   3.480   1.572   6.531  1.3740  1.5294  0.2022
 4444SOL     OW14230   6.642   6.830   3.078  0.2313  0.1562  0.5923
 4444SOL    HW114231   6.690   6.914   3.053 -0.7316  0.7325  0.6298
 4444SOL    HW214232   6.630   6.773   2.997 -1.3089  1.2066  0.0431
 4445SOL     OW14233   2.432   1.773   5.059 -0.2386 -0.0723  0.2712
 4445SOL    HW114234   2.398   1.823   5.138  1.2192 -2.2398  2.3851
 4445SOL    HW214235   2.532   1.774   5.059 -0.1751  0.4795 -2.0217
 4446SOL     OW14236   6.733   6.872   2.650  0.3369 -0.3729 -0.0370
 4446SOL    HW114237   6.822   6.878   2.695 -0.2409 -0.8728  1.2040
 4446SOL    HW214238   6.694   6.964   2.641  0.7412 -0.2056 -0.1192
 4447SOL     OW14239   3.846   3.288   5.330  0.6974  0.2445 -0.1280
 4447SOL    HW114240   3.888   3.321   5.415 -0.8037  1.2213  0.2890
 4447SOL    HW214241   3.863   3.355   5.257 -0.0242  0.5984  0.0207
 4448SOL     OW14242   4.076   1.820   6.546 -0.4197 -0.3381 -0.0371
 4448SOL    HW114243   4.059   1.771   6.632 -2.7387  0.7099  0.1704
 4448SOL    HW214244   4.035   1.911   6.551  0.4525  0.1979 -1.8467
 4449SOL     OW14245   1.691   0.321   3.948  0.4037  0.0679  0.1020
 4449SOL    HW114246   1.678   0.243   4.009  4.7988 -1.7180 -0.8920
 4449SOL    HW214247   1.649   0.301   3.859 -2.5628  1.0193  1.1600
 4450SOL     OW14248   3.335   2.919   4.533  0.4815  0.4522 -0.0819
 4450SOL    HW114249   3.407   2.988   4.530  0.7025  0.2612  0.6761
 4450SOL    HW214250   3.254   2.958   4.577 -0.4352  1.1563 -2.2911
 4451SOL     OW14251   1.424   3.424   2.425  0.0893  0.6189  0.2606
 4451SOL    HW114252   1.496   3.391   2.487 -2.5097 -0.7616  2.8015
 4451SOL    HW214253   1.428   3.524   2.420  0.0511  0.8689  3.2999
 4452SOL     OW14254   0.302   4.268   4.670 -0.5235  0.1339  0.3130
 4452SOL    HW114255   0.308   4.206   4.592  0.1217  1.4946 -0.7498
 4452SOL    HW214256   0.220   4.247   4.723 -1.6887  0.0059 -1.4661
 4453SOL     OW14257   5.415   3.040   1.694  0.5669  0.4625 -0.0389
 4453SOL    HW114258   5.512   3.036   1.670  0.6957  1.9790  0.1703
 4453SOL    HW214259   5.385   2.949   1.724  1.8957 -0.0494 -0.1976
 4454SOL     OW14260   6.010   3.140   1.248 -0.4533 -0.1672 -0.7152
 4454SOL    HW114261   6.013   3.136   1.149 -0.5215 -1.0648 -0.6874
 4454SOL    HW214262   5.942   3.074   1.282 -0.5810  0.2797 -0.0834
 4455SOL     OW14263   4.501   1.245   1.313 -0.1804 -0.9687  0.2021
 4455SOL    HW114264   4.485   1.343   1.318 -2.5803 -1.3587  1.2762
 4455SOL    HW214265   4.528   1.210   1.403 -2.3583 -1.7078  0.6246
 4456SOL     OW14266   1.545   4.710   2.334 -0.2113  0.4897 -0.7146
 4456SOL    HW114267   1.559   4.618   2.297  0.6699  0.1112  0.4730
 4456SOL    HW214268   1.567   4.778   2.265  2.5306 -0.1692 -0.5961
 4457SOL     OW14269   5.664   3.052   0.071  0.0791  0.0786  0.1160
 4457SOL    HW114270   5.714   2.972   0.040  0.6041  1.3605 -2.6132
 4457SOL    HW214271   5.577   3.058   0.023  0.8699  2.0963 -1.1836
 4458SOL     OW14272   3.370   1.215   6.624  0.4902 -0.3461 -0.0159
 4458SOL    HW114273   3.436   1.148   6.655  1.0812  0.6400  0.9285
 4458SOL    HW214274   3.330   1.185   6.537  1.4767 -1.4066 -0.1255
 4459SOL     OW14275   6.753   6.903   6.087  0.2284  0.0952  0.1441
 4459SOL    HW114276   6.768   6.804   6.080  0.0126  0.0128  0.7689
 4459SOL    HW214277   6.668   6.920   6.138 -0.6425  0.5792 -1.4120
 4460SOL     OW14278   0.336   1.702   0.770 -0.1455 -0.1938  0.3383
 4460SOL    HW114279   0.346   1.610   0.807 -1.5041 -0.0091  1.2253
 4460SOL    HW214280   0.404   1.762   0.812  0.4977 -0.6893  0.0341
 4461SOL     OW14281   1.494   0.449   2.266  0.0277  0.2599  0.7492
 4461SOL    HW114282   1.462   0.536   2.303  1.1869  0.3349  1.6477
 4461SOL    HW214283   1.485   0.378   2.337 -0.3991 -0.2319  0.2073
 4462SOL     OW14284   6.188   3.901   2.303  0.0391 -0.1804 -0.0437
 4462SOL    HW114285   6.155   3.864   2.216  0.0611  0.9857 -0.5625
 4462SOL    HW214286   6.286   3.918   2.298  0.5898 -2.5789  1.1236
 4463SOL     OW14287   2.667   4.182   0.201 -0.2010 -0.0930 -0.6459
 4463SOL    HW114288   2.750   4.133   0.229  0.2046  0.9176 -0.0442
 4463SOL    HW214289   2.648   4.162   0.105  1.3503  0.4998 -1.1089
 4464SOL     OW14290   5.805   1.466   6.874 -0.2822 -0.0357 -0.0303
 4464SOL    HW114291   5.731   1.415   6.917  0.3024 -0.5832  0.3305
 4464SOL    HW214292   5.881   1.476   6.938  0.2359 -0.0838 -0.6296
 4465SOL     OW14293   0.597   5.523   0.196 -0.2518  0.7275  0.1987
 4465SOL    HW114294   0.628   5.521   0.291 -0.0090 -1.1927  0.1135
 4465SOL    HW214295   0.539   5.604   0.182 -0.4229  0.9671  2.0127
 4466SOL     OW14296   1.695   2.075   5.001 -0.2443 -0.9016  0.6451
 4466SOL    HW114297   1.621   2.099   5.063 -0.5432  0.0181 -0.0397
 4466SOL    HW214298   1.690   2.132   4.919  1.8506 -0.0512  1.0426
 4467SOL     OW14299   1.345   0.241   2.110 -0.2179  0.4532 -0.1456
 4467SOL    HW114300   1.377   0.241   2.015 -0.1451  1.9188 -0.1454
 4467SOL    HW214301   1.402   0.303   2.164 -0.9881  0.5293  0.5932
 4468SOL     OW14302   1.630   4.276   0.838 -0.4725  0.1354  0.9152
 4468SOL    HW114303   1.544   4.313   0.803 -0.7405  0.9281  2.3097
 4468SOL    HW214304   1.656   4.196   0.785 -2.1625 -0.2314  0.5710
 4469SOL     OW14305   5.889   6.248   0.236 -0.1451  0.8321  0.0641
 4469SOL    HW114306   5.805   6.199   0.214  0.7380 -0.4333 -0.6729
 4469SOL    HW214307   5.880   6.344   0.212 -0.7520  0.3520 -1.7836
 4470SOL     OW14308   4.844   3.148   0.273 -0.2313  0.4364 -0.1801
 4470SOL    HW114309   4.745   3.137   0.275 -0.0785 -1.1105 -0.0620
 4470SOL    HW214310   4.881   3.113   0.187  0.1503  1.8037 -0.5995
 4471SOL     OW14311   0.240   2.661   6.758 -0.1416  0.3381  0.0782
 4471SOL    HW114312   0.172   2.735   6.761  0.6311  1.0444  1.1178
 4471SOL    HW214313   0.205   2.586   6.702 -1.8382  0.6075  0.7114
 4472SOL     OW14314   2.470   4.601   0.120  0.6487 -0.1960 -0.5600
 4472SOL    HW114315   2.492   4.687   0.075  0.5684  0.9405  1.4264
 4472SOL    HW214316   2.391   4.559   0.075  0.1006  1.2451 -1.0133
 4473SOL     OW14317   0.610   0.789   5.382  0.3329  0.1565 -0.2395
 4473SOL    HW114318   0.665   0.861   5.426  1.2175 -1.3257  1.2255
 4473SOL    HW214319   0.564   0.736   5.453 -0.7771 -0.3675 -1.3314
 4474SOL     OW14320   5.165   0.503   2.934  0.1468  0.2261 -0.3539
 4474SOL    HW114321   5.163   0.529   2.837 -0.1727 -0.6265 -0.5847
 4474SOL    HW214322   5.220   0.569   2.985  0.3800  0.6440 -1.1316
 4475SOL     OW14323   1.456   3.335   0.170  0.6066  0.5491  0.8103
 4475SOL    HW114324   1.363   3.366   0.192  0.6634 -0.3100  2.3774
 4475SOL    HW214325   1.456   3.236   0.156  1.2526  0.5755  0.5911
 4476SOL     OW14326   3.740   6.163   3.481 -0.3448 -0.0425  0.6484
 4476SOL    HW114327   3.821   6.213   3.449 -0.8474  1.0952  1.0911
 4476SOL    HW214328   3.761   6.117   3.567  0.6354 -2.0660 -0.6103
 4477SOL     OW14329   1.812   0.233   0.451  0.0009  0.2265 -0.1180
 4477SOL    HW114330   1.744   0.285   0.501  0.9330  0.7325  0.6669
 4477SOL    HW214331   1.798   0.135   0.466 -1.4571  0.2479 -1.2027
 4478SOL     OW14332   1.147   4.576   3.528 -0.0624 -0.3125 -0.1605
 4478SOL    HW114333   1.238   4.573   3.570  0.8393 -0.6124 -1.9970
 4478SOL    HW214334   1.154   4.621   3.438 -1.5384 -1.2170 -0.7588
 4479SOL     OW14335   5.765   0.149   6.471 -0.4976  0.5220 -0.6173
 4479SOL    HW114336   5.793   0.215   6.402  1.6262 -0.5438 -0.8578
 4479SOL    HW214337   5.786   0.056   6.439  1.2959  0.0265  1.7294
 4480SOL     OW14338   1.268   4.276   3.540  0.1909 -0.0348 -0.1818
 4480SOL    HW114339   1.328   4.196   3.530  0.6161 -0.1804  2.6912
 4480SOL    HW214340   1.324   4.358   3.548 -0.0656  0.0798  0.4970
 4481SOL     OW14341   1.382   5.093   3.898  0.0549 -0.4250 -0.5295
 4481SOL    HW114342   1.301   5.072   3.844  0.2390  0.5899 -1.2294
 4481SOL    HW214343   1.457   5.119   3.836  0.3905  0.3461  0.1885
 4482SOL     OW14344   1.359   3.941   4.326  0.4759  0.2063  0.4074
 4482SOL    HW114345   1.279   3.931   4.384 -1.0854  1.1425 -1.4796
 4482SOL    HW214346   1.398   4.032   4.338 -0.9299  1.0602 -1.2650
 4483SOL     OW14347   5.494   2.367   0.986 -0.3168 -0.2574  0.1076
 4483SOL    HW114348   5.453   2.457   0.979 -0.0388 -0.2551 -2.6007
 4483SOL    HW214349   5.434   2.299   0.945 -0.5371 -1.3776  2.1236
 4484SOL     OW14350   3.529   2.970   5.236 -0.1200  0.2025 -0.0526
 4484SOL    HW114351   3.441   2.942   5.199 -0.5631  1.9450 -0.4427
 4484SOL    HW214352   3.567   3.043   5.179  1.1739  0.0641  0.6000
 4485SOL     OW14353   4.468   0.712   0.378 -0.2170 -0.4918 -0.1761
 4485SOL    HW114354   4.448   0.644   0.449 -1.1261 -0.0286  0.0205
 4485SOL    HW214355   4.403   0.787   0.384 -0.1558 -0.3241 -1.3472
 4486SOL     OW14356   0.718   1.950   4.164 -0.0802 -0.0547  0.6464
 4486SOL    HW114357   0.815   1.963   4.145 -0.1254 -1.0814 -0.4370
 4486SOL    HW214358   0.664   2.005   4.100 -0.2074 -1.6093 -0.6652
 4487SOL     OW14359   2.871   3.608   6.407  0.3664 -0.7383 -0.2323
 4487SOL    HW114360   2.964   3.581   6.384  0.3006 -0.0571 -1.3810
 4487SOL    HW214361   2.807   3.563   6.344  0.1630  1.0023 -1.3446
 4488SOL     OW14362   2.525   0.249   4.016  0.5883  0.6565 -0.3911
 4488SOL    HW114363   2.519   0.167   3.960 -0.0915  0.8571 -0.6308
 4488SOL    HW214364   2.511   0.330   3.958 -0.7004  0.8408  0.1287
 4489SOL     OW14365   6.300   2.352   3.248 -0.3482  0.0853  0.1337
 4489SOL    HW114366   6.228   2.378   3.312  0.6451  1.6466  0.7009
 4489SOL    HW214367   6.291   2.404   3.164 -0.8994 -1.0318 -0.5239
 4490SOL     OW14368   4.440   1.625   3.980 -0.7556 -0.1163 -0.0074
 4490SOL    HW114369   4.442   1.526   3.968 -2.3939 -0.0527 -1.0300
 4490SOL    HW214370   4.492   1.669   3.907 -0.2472 -0.1969  0.3000
 4491SOL     OW14371   1.843   2.695   4.250 -0.4212  0.1342 -0.0891
 4491SOL    HW114372   1.747   2.722   4.260 -0.8865 -1.0182 -1.2844
 4491SOL    HW214373   1.882   2.738   4.169  0.5243  1.6933  1.1103
 4492SOL     OW14374   3.568   3.921   6.022  0.1316 -1.0321  0.1719
 4492SOL    HW114375   3.527   3.862   6.092 -0.8269 -1.9523 -1.1126
 4492SOL    HW214376   3.581   3.868   5.938 -0.6819  0.5602 -1.0015
 4493SOL     OW14377   6.100   4.828   2.158 -0.1764 -0.1340 -0.4660
 4493SOL    HW114378   6.005   4.838   2.187 -0.0353  1.1530 -0.3791
 4493SOL    HW214379   6.160   4.844   2.236  0.1539  1.1971 -0.9735
 4494SOL     OW14380   5.250   3.176   3.538 -0.2957 -0.8235  0.5687
 4494SOL    HW114381   5.335   3.140   3.500  0.3649 -0.6970  1.8714
 4494SOL    HW214382   5.214   3.248   3.478  2.0560  1.1342  1.3683
 4495SOL     OW14383   4.271   5.819   2.610  0.1762  0.1367 -0.1908
 4495SOL    HW114384   4.212   5.860   2.680 -0.8877 -1.3222 -0.1843
 4495SOL    HW214385   4.367   5.830   2.636 -0.1170  1.5842  0.3619
 4496SOL     OW14386   5.042   3.857   5.869  0.6566  0.3608 -0.0624
 4496SOL    HW114387   5.118   3.875   5.931  1.1647  0.8635 -0.8228
 4496SOL    HW214388   4.960   3.905   5.903  0.9661  0.7570  0.1397
 4497SOL     OW14389   6.871   6.941   0.945  0.0002  0.6500 -0.0264
 4497SOL    HW114390   6.943   6.973   0.884  0.6954 -0.7694  0.0096
 4497SOL    HW214391   6.897   6.853   0.985 -1.9105 -0.0885 -0.2846
 4498SOL     OW14392   0.520   2.838   6.932 -0.0369 -0.4291  0.0468
 4498SOL    HW114393   0.519   2.835   7.032  0.2167  0.4372  0.0836
 4498SOL    HW214394   0.550   2.750   6.896 -0.0221 -0.7103  0.7345
 4499SOL     OW14395   6.254   2.891   5.383  0.0544 -0.6377 -0.2078
 4499SOL    HW114396   6.212   2.981   5.395 -0.4380 -0.7238 -1.1796
 4499SOL    HW214397   6.259   2.844   5.471 -0.2333  0.0971  0.2062
 4500SOL     OW14398   3.809   4.091   3.405  0.1278 -0.2308  0.7201
 4500SOL    HW114399   3.718   4.116   3.372  0.2539  0.9851  1.2200
 4500SOL    HW214400   3.871   4.082   3.327  0.3155  2.1597  0.5031
 4501SOL     OW14401   6.751   3.433   4.563 -0.3569 -0.0646 -0.2619
 4501SOL    HW114402   6.836   3.398   4.524  0.0356 -1.3830  1.6436
 4501SOL    HW214403   6.675   3.373   4.539 -0.5631  0.4555 -0.9582
 4502SOL     OW14404   6.784   2.604   6.648  0.4128  0.4782 -0.0175
 4502SOL    HW114405   6.690   2.608   6.614  0.4346 -0.1732 -0.1493
 4502SOL    HW214406   6.799   2.682   6.709  0.0373  1.0416 -0.6245
 4503SOL     OW14407   0.396   1.309   2.706  0.1136 -0.1436  0.2405
 4503SOL    HW114408   0.326   1.251   2.748 -1.2029  0.9502 -0.3788
 4503SOL    HW214409   0.384   1.404   2.737  0.7016  0.2342 -0.6327
 4504SOL     OW14410   5.261   1.306   4.711  0.0097  0.1486 -0.0589
 4504SOL    HW114411   5.272   1.208   4.724  0.7396  0.3589  0.9273
 4504SOL    HW214412   5.164   1.326   4.692 -0.1385 -0.7539 -0.2881
 4505SOL     OW14413   1.656   6.489   6.214 -0.1100  0.4028  0.1164
 4505SOL    HW114414   1.618   6.556   6.149  1.3497  1.0438 -0.1085
 4505SOL    HW214415   1.734   6.443   6.172 -1.3215 -1.7744  0.1181
 4506SOL     OW14416   4.796   6.973   5.294  0.1472  0.1406  0.3556
 4506SOL    HW114417   4.723   6.912   5.264 -0.8580  0.4675  2.0170
 4506SOL    HW214418   4.811   6.962   5.392  1.1204  1.3543  0.3712
 4507SOL     OW14419   5.071   3.427   0.788  0.1217 -0.0106  0.3466
 4507SOL    HW114420   5.112   3.518   0.795  1.7930 -0.6164 -0.9822
 4507SOL    HW214421   5.109   3.379   0.710 -1.4403 -1.5293  0.4527
 4508SOL     OW14422   1.308   3.397   2.162  0.2531 -0.3192 -0.2416
 4508SOL    HW114423   1.262   3.326   2.108 -2.1760  1.1183 -0.1851
 4508SOL    HW214424   1.320   3.365   2.256 -2.7876  0.0150  0.3640
 4509SOL     OW14425   2.477   1.595   4.432 -0.1900 -0.3093 -0.0548
 4509SOL    HW114426   2.428   1.568   4.348  0.7060 -0.2067 -0.6190
 4509SOL    HW214427   2.567   1.552   4.433 -0.3059 -0.5577  1.0246
 4510SOL     OW14428   2.836   6.803   6.378  0.2079  0.5557  0.5897
 4510SOL    HW114429   2.790   6.727   6.333  1.1631  0.6278 -0.5433
 4510SOL    HW214430   2.810   6.889   6.336  0.7435  0.6678  0.4763
 4511SOL     OW14431   6.597   3.224   6.539  0.0651  0.4132  0.2578
 4511SOL    HW114432   6.650   3.157   6.592 -2.3917 -1.4290  0.5513
 4511SOL    HW214433   6.600   3.199   6.442 -0.9594 -0.2619  0.3823
 4512SOL     OW14434   2.223   4.749   6.997  0.1198 -0.1204  0.1514
 4512SOL    HW114435   2.210   4.833   6.945  0.7767 -0.9164 -1.3650
 4512SOL    HW214436   2.300   4.761   7.061  1.8416 -0.2849 -1.7801
 4513SOL     OW14437   3.944   0.410   1.659  0.0976  0.5131  0.1972
 4513SOL    HW114438   3.847   0.394   1.643 -0.0269 -0.9041  2.0634
 4513SOL    HW214439   3.998   0.362   1.590 -0.5071 -0.1669  0.1888
 4514SOL     OW14440   3.539   1.526   5.673 -0.1702 -0.3520 -0.5796
 4514SOL    HW114441   3.605   1.601   5.676  0.9944 -1.2188 -2.5814
 4514SOL    HW214442   3.476   1.540   5.597 -0.8467 -0.7163 -0.1016
 4515SOL     OW14443   6.309   5.425   1.103 -0.4981  0.4600 -0.4683
 4515SOL    HW114444   6.214   5.398   1.115  0.6296 -3.8913  0.4744
 4515SOL    HW214445   6.329   5.435   1.005 -1.4359 -0.8858 -0.8191
 4516SOL     OW14446   1.851   0.381   5.863 -0.1584 -0.0914 -0.3143
 4516SOL    HW114447   1.812   0.391   5.955  0.1258 -1.3029 -0.0371
 4516SOL    HW214448   1.844   0.285   5.834 -1.4658  0.4981 -2.1360
 4517SOL     OW14449   3.578   5.249   6.157  0.1200 -0.4515 -0.1599
 4517SOL    HW114450   3.650   5.315   6.179  0.0183 -0.6778  0.9179
 4517SOL    HW214451   3.602   5.160   6.196  0.0318 -0.9482 -1.1937
 4518SOL     OW14452   2.220   0.735   4.673 -0.1900  0.0233  0.0342
 4518SOL    HW114453   2.301   0.685   4.704 -0.2688  0.1777  0.4999
 4518SOL    HW214454   2.237   0.774   4.582  0.6940  1.0570  0.6201
 4519SOL     OW14455   6.325   2.354   5.995 -0.4612 -0.2212 -0.5859
 4519SOL    HW114456   6.253   2.310   6.048 -1.5636  1.7387 -0.3347
 4519SOL    HW214457   6.368   2.425   6.051 -0.4148  0.6639 -1.7139
 4520SOL     OW14458   0.829   5.990   4.458  0.1780 -0.2162  0.0303
 4520SOL    HW114459   0.921   6.027   4.470 -0.7200  2.6170 -1.1150
 4520SOL    HW214460   0.761   6.061   4.477 -1.7408 -1.6653 -1.0444
 4521SOL     OW14461   4.496   1.817   4.912 -0.1454 -0.1557  0.1458
 4521SOL    HW114462   4.570   1.806   4.979 -0.2008  0.7400  0.3649
 4521SOL    HW214463   4.441   1.897   4.935 -1.7769 -1.3267  0.5258
 4522SOL     OW14464   5.239   2.412   2.778  0.4102 -0.3353 -0.2434
 4522SOL    HW114465   5.170   2.340   2.777  0.2349 -0.1717 -0.1145
 4522SOL    HW214466   5.230   2.467   2.695  0.0657 -0.0177 -0.0003
 4523SOL     OW14467   3.286   4.239   5.905 -0.3437  0.2853 -0.5278
 4523SOL    HW114468   3.231   4.323   5.912 -0.7327  0.0747 -1.0529
 4523SOL    HW214469   3.309   4.222   5.810 -1.1673 -0.7842 -0.5417
 4524SOL     OW14470   5.696   1.287   4.714 -0.6946  0.1507  0.2690
 4524SOL    HW114471   5.704   1.278   4.814  0.7626 -1.2387  0.0553
 4524SOL    HW214472   5.624   1.226   4.681 -0.5064 -0.1285  0.3693
 4525SOL     OW14473   3.905   2.050   4.319  0.1437  0.0223 -0.6974
 4525SOL    HW114474   3.836   2.057   4.391  0.0035 -0.5333 -0.7681
 4525SOL    HW214475   3.862   2.064   4.230  0.4058  1.2010 -0.6539
 4526SOL     OW14476   5.208   0.323   0.230 -0.9674  0.1500 -0.3379
 4526SOL    HW114477   5.131   0.332   0.167 -0.9477  1.6020 -0.1730
 4526SOL    HW214478   5.197   0.239   0.284 -1.9302 -0.1449 -0.9660
 4527SOL     OW14479   4.891   1.709   4.418 -0.1658 -0.3532  0.1213
 4527SOL    HW114480   4.855   1.639   4.481  0.0358  0.0525  0.7003
 4527SOL    HW214481   4.912   1.792   4.470 -1.5674  0.5802 -0.7464
 4528SOL     OW14482   5.516   0.637   5.122  0.3802  0.1707 -0.0105
 4528SOL    HW114483   5.553   0.617   5.213 -0.4892  1.7478  0.7385
 4528SOL    HW214484   5.570   0.709   5.079 -0.4406  0.9126  0.1651
 4529SOL     OW14485   5.676   1.506   2.839 -0.0844  0.0105 -0.4672
 4529SOL    HW114486   5.593   1.493   2.785  0.8176 -2.7558 -1.3519
 4529SOL    HW214487   5.713   1.417   2.865  2.1843  1.1800  0.5876
 4530SOL     OW14488   1.617   3.795   5.166  0.1769 -0.2300 -0.3096
 4530SOL    HW114489   1.549   3.750   5.108 -0.7663  1.4640 -0.6082
 4530SOL    HW214490   1.626   3.745   5.252 -4.0179  1.1630  1.2300
 4531SOL     OW14491   0.066   5.566   3.474  0.0714  0.2359  0.2132
 4531SOL    HW114492   0.121   5.493   3.434 -0.6614  0.2672 -0.9206
 4531SOL    HW214493   0.007   5.605   3.403  0.7062  2.1880  0.6995
 4532SOL     OW14494   6.028   3.200   6.369 -0.5858  0.2478  0.3475
 4532SOL    HW114495   6.034   3.222   6.272 -1.2800  0.3630  0.3255
 4532SOL    HW214496   6.074   3.271   6.422  0.4966 -0.2315  0.0617
 4533SOL     OW14497   4.084   4.774   2.261 -0.3316 -0.2877  0.8039
 4533SOL    HW114498   3.986   4.782   2.244 -0.3003 -1.1870  0.1250
 4533SOL    HW214499   4.134   4.825   2.191 -0.2913 -0.7700  0.4791
 4534SOL     OW14500   0.736   3.803   5.578  0.4147 -0.4146  0.2134
 4534SOL    HW114501   0.693   3.815   5.489  0.0350 -0.9291  0.3246
 4534SOL    HW214502   0.834   3.787   5.567  0.3550 -0.5528 -0.1142
 4535SOL     OW14503   5.133   2.806   1.767 -0.0126 -0.3626 -0.0168
 4535SOL    HW114504   5.220   2.790   1.816 -0.2344 -1.1733  0.1293
 4535SOL    HW214505   5.067   2.736   1.795  0.1164 -1.3890 -2.1108
 4536SOL     OW14506   0.238   1.261   2.062  0.1506  0.1952 -0.9100
 4536SOL    HW114507   0.319   1.205   2.045 -0.0574 -1.1363  1.9050
 4536SOL    HW214508   0.214   1.311   1.978  4.0739  0.9999 -1.7669
 4537SOL     OW14509   4.794   3.201   5.251  0.2499 -0.0537  0.3651
 4537SOL    HW114510   4.822   3.192   5.346 -1.2412  1.0662  0.9543
 4537SOL    HW214511   4.850   3.271   5.205  2.1640 -1.8275 -0.1386
 4538SOL     OW14512   3.267   1.780   2.402 -0.3919 -0.6147 -0.6950
 4538SOL    HW114513   3.226   1.826   2.481  0.2567 -0.9317 -0.1600
 4538SOL    HW214514   3.217   1.804   2.319 -1.0849 -0.2769 -0.1857
 4539SOL     OW14515   0.272   0.837   3.572 -0.1830 -0.0797  0.2399
 4539SOL    HW114516   0.350   0.814   3.630 -0.8701  0.3864  1.3681
 4539SOL    HW214517   0.228   0.920   3.605 -1.6659 -0.7922  0.1356
 4540SOL     OW14518   2.934   3.850   3.884  0.1438  0.1383 -0.1354
 4540SOL    HW114519   2.844   3.869   3.924 -0.6473  0.0517 -1.8232
 4540SOL    HW214520   2.998   3.923   3.910 -0.1089 -0.3072  1.8883
 4541SOL     OW14521   5.032   3.008   1.911 -0.4504 -0.0732  0.1961
 4541SOL    HW114522   5.076   2.925   1.875 -1.0557 -1.0338  1.5800
 4541SOL    HW214523   4.933   2.995   1.910 -0.5109  0.1773  1.4538
 4542SOL     OW14524   4.549   0.081   4.042  0.0984 -0.4213 -0.6350
 4542SOL    HW114525   4.488   0.142   4.093 -0.8522 -0.5638 -1.5641
 4542SOL    HW214526   4.494   0.019   3.986  1.1114 -0.3667 -1.7163
 4543SOL     OW14527   1.025   1.108   2.643 -0.0038 -0.4221 -0.6858
 4543SOL    HW114528   0.967   1.129   2.722  0.3652 -0.6727 -0.3387
 4543SOL    HW214529   1.103   1.171   2.641 -1.0941  0.9389 -2.0543
 4544SOL     OW14530   3.363   4.358   0.707  0.0755  0.2854  0.4146
 4544SOL    HW114531   3.397   4.279   0.657  1.6034  1.3121 -0.2495
 4544SOL    HW214532   3.266   4.371   0.687  0.4855  0.2694 -1.7750
 4545SOL     OW14533   4.359   1.767   5.831 -0.3460 -0.0811 -0.3158
 4545SOL    HW114534   4.339   1.860   5.801 -1.4192 -0.0747  0.3538
 4545SOL    HW214535   4.450   1.763   5.873 -1.1577  1.1931  1.7058
 4546SOL     OW14536   0.730   6.992   5.591 -0.2248  0.5162  0.2817
 4546SOL    HW114537   0.748   7.060   5.662  0.1688 -0.0268  0.7175
 4546SOL    HW214538   0.684   6.913   5.632 -3.3736  1.6774 -0.7055
 4547SOL     OW14539   1.514   2.137   1.724 -0.0346  0.4887 -0.6169
 4547SOL    HW114540   1.565   2.190   1.792  1.6603  1.6516 -2.6604
 4547SOL    HW214541   1.529   2.040   1.738  0.4178  0.7204  0.5514
 4548SOL     OW14542   6.695   3.656   3.104  0.1614 -0.4040 -0.5134
 4548SOL    HW114543   6.771   3.715   3.131  0.1411 -0.5079 -0.2279
 4548SOL    HW214544   6.685   3.581   3.170  0.3946 -0.9161 -1.0455
 4549SOL     OW14545   5.175   3.503   3.671 -0.0284 -0.7448  0.5406
 4549SOL    HW114546   5.162   3.484   3.769 -0.3861 -0.5485  0.5340
 4549SOL    HW214547   5.200   3.419   3.624  3.0209 -0.3593  1.2550
 4550SOL     OW14548   0.933   4.848   5.213 -0.4066  0.2554 -0.0370
 4550SOL    HW114549   1.027   4.872   5.188 -0.3773 -1.5433 -1.8397
 4550SOL    HW214550   0.871   4.871   5.137 -0.5366 -3.9325 -1.4380
 4551SOL     OW14551   1.471   4.342   5.561  0.0039 -0.2349 -0.5367
 4551SOL    HW114552   1.406   4.315   5.490 -0.2364  1.3409 -0.9499
 4551SOL    HW214553   1.422   4.381   5.639  0.3736 -0.4530 -0.1863
 4552SOL     OW14554   6.758   2.576   3.849  0.0343  0.1396 -0.3794
 4552SOL    HW114555   6.726   2.481   3.843 -0.4059  0.2009  0.8767
 4552SOL    HW214556   6.781   2.608   3.757 -1.7401 -0.5146 -1.1084
 4553SOL     OW14557   3.367   4.423   6.795 -0.0743 -0.0400  0.3286
 4553SOL    HW114558   3.416   4.475   6.725 -0.7135  2.2295  1.4847
 4553SOL    HW214559   3.312   4.352   6.750  1.3809 -0.2396 -1.2475
 4554SOL     OW14560   4.894   0.434   2.925 -0.1301 -0.6694 -0.4494
 4554SOL    HW114561   4.965   0.489   2.971  0.5818 -0.9066 -1.2360
 4554SOL    HW214562   4.935   0.385   2.849 -1.1092 -1.0136 -0.7641
 4555SOL     OW14563   5.796   1.716   2.266 -0.3045 -0.8134  0.3426
 4555SOL    HW114564   5.788   1.668   2.354 -0.8775 -1.3018  0.0332
 4555SOL    HW214565   5.873   1.678   2.214 -0.2481 -0.8351  0.4419
 4556SOL     OW14566   5.868   1.713   4.712 -0.1677 -0.3259  0.4793
 4556SOL    HW114567   5.820   1.784   4.660  1.2832  0.8264  0.6298
 4556SOL    HW214568   5.804   1.640   4.736 -1.6335  0.7476  0.0055
 4557SOL     OW14569   4.255   0.102   5.722  0.3202 -0.6655  0.0771
 4557SOL    HW114570   4.176   0.135   5.774 -0.6739 -1.3117 -0.9680
 4557SOL    HW214571   4.240   0.120   5.625  2.8587  2.0526  0.0393
 4558SOL     OW14572   6.814   3.980   6.438  0.5029 -0.2981 -0.1386
 4558SOL    HW114573   6.871   3.958   6.517 -1.1436 -1.5213  0.7638
 4558SOL    HW214574   6.720   3.950   6.454 -0.8554  3.0983 -0.9121
 4559SOL     OW14575   1.370   0.018   2.534  0.1651  0.5314 -0.1266
 4559SOL    HW114576   1.363   0.026   2.634 -0.1994  1.7107 -0.2301
 4559SOL    HW214577   1.403  -0.073   2.510 -2.0025 -0.6212  0.9842
 4560SOL     OW14578   5.578   3.488   3.645 -0.6541  0.2987 -0.3863
 4560SOL    HW114579   5.628   3.526   3.723  0.7469 -1.2879 -0.4525
 4560SOL    HW214580   5.625   3.513   3.560  0.3637 -1.5432 -0.4265
 4561SOL     OW14581   3.663   0.203   0.068  0.4438 -0.1686 -0.0428
 4561SOL    HW114582   3.663   0.139   0.144  0.3022  1.7642  1.6876
 4561SOL    HW214583   3.660   0.153  -0.019 -0.2654 -2.4237  1.2111
 4562SOL     OW14584   1.902   6.387   6.078 -0.1371  0.3006  0.0650
 4562SOL    HW114585   1.990   6.378   6.033 -1.1547 -0.2913 -1.9156
 4562SOL    HW214586   1.884   6.304   6.133  1.4217  1.3325  2.2805
 4563SOL     OW14587   4.570   2.175   6.627 -0.0798 -0.1412 -0.2460
 4563SOL    HW114588   4.528   2.093   6.589 -0.7056 -0.0401  0.1969
 4563SOL    HW214589   4.569   2.170   6.727  0.4249  0.1377 -0.2207
 4564SOL     OW14590   1.405   5.440   6.882  0.3151  0.3535 -0.3844
 4564SOL    HW114591   1.426   5.358   6.936  0.4192  0.3398 -0.4440
 4564SOL    HW214592   1.464   5.515   6.913 -0.5015  0.6923  0.3719
 4565SOL     OW14593   3.289   0.220   3.590 -0.2847 -0.5405 -0.2809
 4565SOL    HW114594   3.254   0.296   3.535  1.2097  0.7069  0.4165
 4565SOL    HW214595   3.389   0.225   3.594 -0.3169 -0.9669  2.0336
 4566SOL     OW14596   0.690   6.884   0.356 -0.0237  0.1135 -0.2738
 4566SOL    HW114597   0.661   6.860   0.264  0.4816 -0.5401 -0.2741
 4566SOL    HW214598   0.737   6.972   0.355  1.4805 -0.6538 -0.9504
 4567SOL     OW14599   6.280   1.706   1.542 -0.2552  0.1372  0.0883
 4567SOL    HW114600   6.204   1.751   1.588  1.2526  1.4163  1.4784
 4567SOL    HW214601   6.331   1.651   1.609  2.1856  2.2959  0.1574
 4568SOL     OW14602   4.859   5.080   4.884  0.7012  0.0533  0.4130
 4568SOL    HW114603   4.792   5.073   4.958  0.3127  1.9996  0.2904
 4568SOL    HW214604   4.861   4.993   4.834 -2.1999  0.0705  0.0461
 4569SOL     OW14605   6.570   1.798   3.497 -0.0789 -0.2060 -0.4454
 4569SOL    HW114606   6.590   1.896   3.507  1.2897 -0.6164  1.4562
 4569SOL    HW214607   6.497   1.786   3.430  0.7758  2.0026 -1.9312
 4570SOL     OW14608   6.259   5.030   4.914 -0.8031  0.2770 -0.2169
 4570SOL    HW114609   6.243   4.972   4.834  1.8880 -0.0920 -0.5774
 4570SOL    HW214610   6.191   5.103   4.916 -1.2557  0.0147 -2.5744
 4571SOL     OW14611   3.136   3.020   2.254  1.1208 -0.0999 -0.1245
 4571SOL    HW114612   3.047   3.007   2.298  1.5118 -1.2009  0.3532
 4571SOL    HW214613   3.159   3.117   2.254  0.3548  0.0909  0.5952
 4572SOL     OW14614   4.137   6.764   0.113  0.2424  0.4818  0.2495
 4572SOL    HW114615   4.159   6.692   0.179  0.3298  1.2709  1.1028
 4572SOL    HW214616   4.221   6.812   0.087  0.2451  0.0073 -0.6466
 4573SOL     OW14617   4.330   5.790   4.369  0.5443  0.4874  0.0924
 4573SOL    HW114618   4.388   5.833   4.438  0.4166 -1.3532  1.4089
 4573SOL    HW214619   4.256   5.741   4.414 -2.0684  2.6615 -1.5303
 4574SOL     OW14620   2.105   4.647   2.158  0.2032  0.3044  0.3381
 4574SOL    HW114621   2.129   4.551   2.170 -1.7238 -0.2404  0.1254
 4574SOL    HW214622   2.077   4.663   2.063  1.0318  1.2136  0.2334
 4575SOL     OW14623   5.959   5.287   1.721  0.7170  0.4880 -0.5093
 4575SOL    HW114624   5.940   5.385   1.723  3.7361  1.1686 -0.7456
 4575SOL    HW214625   5.899   5.243   1.654  0.5742  2.4991 -1.7863
 4576SOL     OW14626   5.110   5.137   5.042  0.2721 -0.2186  0.1743
 4576SOL    HW114627   5.026   5.135   4.987  0.6078 -0.0601 -0.3595
 4576SOL    HW214628   5.091   5.104   5.134 -0.9291  1.9684  0.8067
 4577SOL     OW14629   1.180   3.025   5.164 -0.5501  0.7440  0.4652
 4577SOL    HW114630   1.241   3.096   5.198 -0.1854  1.4592 -1.5332
 4577SOL    HW214631   1.091   3.065   5.141 -0.0181  0.8038 -1.6321
 4578SOL     OW14632   0.969   4.674   3.994  0.6854  0.6148 -0.0766
 4578SOL    HW114633   1.022   4.689   4.078 -0.3399 -2.3052  1.2472
 4578SOL    HW214634   1.025   4.697   3.915  2.6950  0.8911  1.3306
 4579SOL     OW14635   5.577   3.554   4.240  0.4866 -0.0301 -0.2028
 4579SOL    HW114636   5.520   3.556   4.158  0.4940  3.6712 -0.2890
 4579SOL    HW214637   5.521   3.528   4.319 -0.9233  1.6517 -0.5867
 4580SOL     OW14638   6.867   6.416   0.573 -0.3269  0.1207 -0.5752
 4580SOL    HW114639   6.897   6.431   0.479 -1.4884  0.7678 -0.8521
 4580SOL    HW214640   6.776   6.454   0.586 -0.4324 -0.5025  0.6555
 4581SOL     OW14641   5.569   4.647   2.099 -0.3151 -0.1649 -0.3332
 4581SOL    HW114642   5.651   4.698   2.072 -2.1104  2.7910 -0.5912
 4581SOL    HW214643   5.514   4.627   2.018 -0.9713 -0.0629  0.0796
 4582SOL     OW14644   5.444   5.659   1.499  0.2806 -0.4256 -0.6160
 4582SOL    HW114645   5.501   5.578   1.484  0.9404 -0.5543  2.0225
 4582SOL    HW214646   5.494   5.741   1.471  0.5554 -0.7506 -1.0876
 4583SOL     OW14647   4.598   1.288   2.603 -0.5214  0.6095  0.0118
 4583SOL    HW114648   4.607   1.307   2.700 -1.9392  0.4650  0.1932
 4583SOL    HW214649   4.591   1.374   2.552  0.6065  0.6946 -0.0217
 4584SOL     OW14650   1.150   5.246   5.569 -0.0793 -0.0309 -0.0902
 4584SOL    HW114651   1.222   5.288   5.513  0.9606  0.7066  1.7290
 4584SOL    HW214652   1.066   5.300   5.563  1.1489  2.2968  1.9941
 4585SOL     OW14653   4.105   6.004   2.469 -0.1146  0.0928 -0.7860
 4585SOL    HW114654   4.049   6.052   2.536  0.5088  0.8253 -0.7702
 4585SOL    HW214655   4.170   5.945   2.516 -0.1444  0.0794 -0.7618
 4586SOL     OW14656   3.699   6.055   0.126  0.6764  0.2396  0.2281
 4586SOL    HW114657   3.754   6.088   0.049  0.3558 -0.4708 -0.3187
 4586SOL    HW214658   3.718   6.111   0.206  1.1827  0.8585 -0.3055
 4587SOL     OW14659   2.169   5.055   1.934  0.1702 -0.0254  0.1919
 4587SOL    HW114660   2.121   5.115   1.998 -1.5787 -1.8500  0.7048
 4587SOL    HW214661   2.212   4.980   1.984 -0.0601 -0.7348 -0.6392
 4588SOL     OW14662   5.307   5.106   4.856  0.4107 -0.6373 -0.6685
 4588SOL    HW114663   5.310   5.012   4.823 -1.9236 -1.8730  2.2281
 4588SOL    HW214664   5.231   5.117   4.919  0.1345  3.4624 -1.4514
 4589SOL     OW14665   2.141   2.231   3.173 -0.5444 -0.3368 -0.2263
 4589SOL    HW114666   2.156   2.292   3.096 -0.8204 -0.2941 -0.2462
 4589SOL    HW214667   2.043   2.221   3.190 -0.4890 -0.4175  0.0606
 4590SOL     OW14668   4.981   5.042   2.495 -0.1302 -0.1622 -0.7327
 4590SOL    HW114669   4.947   5.041   2.589  2.3846  0.2262  0.2821
 4590SOL    HW214670   5.002   5.137   2.468  1.3349 -0.4654 -0.7698
 4591SOL     OW14671   5.884   5.841   5.058  0.2067 -0.4853 -0.0361
 4591SOL    HW114672   5.821   5.824   4.982  0.4714 -1.2231 -0.1000
 4591SOL    HW214673   5.978   5.847   5.023  0.4182 -1.5626  0.2962
 4592SOL     OW14674   2.866   6.753   6.027  0.2579  0.1018  0.2764
 4592SOL    HW114675   2.825   6.684   6.087 -2.3291  1.3382  0.0726
 4592SOL    HW214676   2.827   6.746   5.935  0.9432  0.9975 -0.1059
 4593SOL     OW14677   4.886   5.961   0.359  0.1486  0.0985 -0.5459
 4593SOL    HW114678   4.867   6.029   0.429 -1.8886 -2.1365  1.2696
 4593SOL    HW214679   4.985   5.943   0.355  0.3285  0.2491  1.8758
 4594SOL     OW14680   4.181   1.983   4.372 -0.3177 -0.2562 -0.2002
 4594SOL    HW114681   4.228   2.007   4.287 -0.9166  2.6964  0.1781
 4594SOL    HW214682   4.085   2.013   4.366 -1.3550 -3.1706  0.2684
 4595SOL     OW14683   4.716   3.102   5.767  0.3847 -0.1426 -0.5710
 4595SOL    HW114684   4.797   3.109   5.824  0.4070  0.4923 -0.6711
 4595SOL    HW214685   4.719   3.017   5.715  0.1767 -0.9094  0.6450
 4596SOL     OW14686   6.299   5.786   1.817  0.8990 -0.5261 -0.0033
 4596SOL    HW114687   6.343   5.788   1.907 -0.7937  1.1117  0.8403
 4596SOL    HW214688   6.305   5.876   1.775 -1.0246 -0.4401 -0.1510
 4597SOL     OW14689   5.218   3.704   6.705 -0.1746 -0.4093 -0.0476
 4597SOL    HW114690   5.311   3.703   6.742 -0.5715  1.6295  1.1422
 4597SOL    HW214691   5.219   3.743   6.613  0.0705  0.2105  0.2169
 4598SOL     OW14692   3.086   5.037   6.668  0.1071  0.2101  0.5237
 4598SOL    HW114693   3.147   4.958   6.669 -2.0251 -1.5297  0.3963
 4598SOL    HW214694   3.088   5.080   6.577  0.8698 -0.0079  0.4307
 4599SOL     OW14695   1.313   6.017   6.397 -0.4164 -0.6876 -0.0012
 4599SOL    HW114696   1.346   5.977   6.312  0.6519 -1.9499  0.9637
 4599SOL    HW214697   1.335   5.956   6.473 -0.9131  0.6345  1.2451
 4600SOL     OW14698   3.466   5.002   1.941 -0.0897  0.1018  0.2029
 4600SOL    HW114699   3.527   4.926   1.965  0.2558  1.0572  2.5968
 4600SOL    HW214700   3.372   4.968   1.937 -0.0522 -0.3634  2.0910
 4601SOL     OW14701   2.206   5.813   5.031  0.4853  0.3727  0.4392
 4601SOL    HW114702   2.263   5.731   5.038  0.9003  0.7614  2.3390
 4601SOL    HW214703   2.259   5.892   5.061 -0.2069  1.2008 -0.4636
 4602SOL     OW14704   4.144   0.476   6.565  0.1198  0.0699  0.0310
 4602SOL    HW114705   4.113   0.485   6.471  0.6017  0.2218 -0.1157
 4602SOL    HW214706   4.072   0.435   6.620 -0.3118  0.3516 -0.3191
 4603SOL     OW14707   2.126   5.896   0.144  0.6266 -0.7656  0.0722
 4603SOL    HW114708   2.133   5.827   0.072 -0.6457  0.3411 -1.1760
 4603SOL    HW214709   2.040   5.882   0.195  0.0544  0.2363 -0.5911
 4604SOL     OW14710   3.499   1.037   2.277  0.4196 -0.0777  0.2666
 4604SOL    HW114711   3.459   0.967   2.217  0.4401  1.4421 -1.6446
 4604SOL    HW214712   3.599   1.035   2.268  0.3896  0.5725 -0.2714
 4605SOL     OW14713   6.813   1.797   3.647  0.2317 -0.0076 -0.4685
 4605SOL    HW114714   6.834   1.887   3.609 -0.8990 -0.0373 -1.1937
 4605SOL    HW214715   6.715   1.779   3.639  0.2613 -0.8288  0.7329
 4606SOL     OW14716   1.435   5.381   0.183  0.4434  0.1092  0.3569
 4606SOL    HW114717   1.385   5.464   0.157  0.4094 -0.0973 -0.2712
 4606SOL    HW214718   1.525   5.406   0.217  0.3063  0.4238  0.4952
 4607SOL     OW14719   0.263   2.880   2.069  0.0586 -0.1152 -0.1227
 4607SOL    HW114720   0.303   2.968   2.095 -2.1781  1.3576 -1.3170
 4607SOL    HW214721   0.281   2.862   1.973 -1.0723  0.0138 -0.3775
 4608SOL     OW14722   1.597   3.135   4.499 -0.0732 -0.4103 -0.0093
 4608SOL    HW114723   1.660   3.197   4.453  0.6976 -0.0042  1.5310
 4608SOL    HW214724   1.537   3.092   4.432  0.5100  0.7151 -1.2840
 4609SOL     OW14725   5.143   0.184   6.224 -0.9899 -0.2295  0.0738
 4609SOL    HW114726   5.121   0.281   6.220 -0.9975 -0.2069  0.5273
 4609SOL    HW214727   5.108   0.146   6.310  0.3927 -0.2731  0.6433
 4610SOL     OW14728   1.853   3.663   0.124  0.1462  0.0675 -0.4267
 4610SOL    HW114729   1.756   3.650   0.102  0.2844 -1.3330 -0.3294
 4610SOL    HW214730   1.891   3.577   0.157  1.1708  0.8806  0.5701
 4611SOL     OW14731   1.773   1.915   0.197  0.5758  0.3912 -0.1873
 4611SOL    HW114732   1.804   1.852   0.269  2.5157 -0.8359 -1.9733
 4611SOL    HW214733   1.719   1.866   0.129 -3.3674  1.9991  1.4663
 4612SOL     OW14734   1.813   1.637   5.102  0.4540 -0.6936 -0.0837
 4612SOL    HW114735   1.789   1.716   5.046  2.0568 -1.0836 -1.3673
 4612SOL    HW214736   1.830   1.668   5.196  0.2169  0.3484 -0.3639
 4613SOL     OW14737   2.708   4.597   0.877  0.0764  0.0078 -0.0113
 4613SOL    HW114738   2.730   4.683   0.922  0.4600  0.7580 -1.5793
 4613SOL    HW214739   2.786   4.535   0.880  0.2686  0.2493 -0.0886
 4614SOL     OW14740   4.429   5.647   1.290 -0.6513  0.2760  0.0963
 4614SOL    HW114741   4.418   5.747   1.296  0.4214  0.4459 -0.4734
 4614SOL    HW214742   4.351   5.602   1.332 -0.2524  1.3596  2.1072
 4615SOL     OW14743   1.708   4.075   0.678 -0.5685  0.0673 -0.0519
 4615SOL    HW114744   1.689   4.057   0.581  0.1312  0.3849 -0.2541
 4615SOL    HW214745   1.797   4.037   0.702 -1.5521 -1.6993  0.9686
 4616SOL     OW14746   5.487   0.360   5.991 -0.4422 -0.3235 -0.3851
 4616SOL    HW114747   5.412   0.316   5.941 -1.8598  0.5883  0.8668
 4616SOL    HW214748   5.497   0.454   5.959  1.3441 -0.9032 -1.7297
 4617SOL     OW14749   1.858   3.373   3.681  0.2406  0.0333  0.2077
 4617SOL    HW114750   1.859   3.471   3.660  0.2583  0.0437  0.2563
 4617SOL    HW214751   1.944   3.348   3.725 -0.5648  0.4071  2.0712
 4618SOL     OW14752   1.626   1.788   5.593 -0.3347 -0.2507 -0.9562
 4618SOL    HW114753   1.651   1.698   5.556  0.4058 -0.2803 -0.4090
 4618SOL    HW214754   1.665   1.798   5.685 -1.1800  0.2705 -0.6481
 4619SOL     OW14755   2.820   2.009   3.360 -0.3498 -0.0144 -0.3132
 4619SOL    HW114756   2.864   1.921   3.378 -1.7809 -0.3861  1.7860
 4619SOL    HW214757   2.873   2.082   3.403  1.2644  0.3226 -2.7148
 4620SOL     OW14758   2.376   4.123   5.412 -0.0825  0.3857 -0.2005
 4620SOL    HW114759   2.383   4.077   5.324 -0.1253  1.5647 -0.8326
 4620SOL    HW214760   2.385   4.055   5.486 -0.3754 -0.6550 -1.0955
 4621SOL     OW14761   0.573   1.655   6.881  0.4451 -0.4498 -0.0318
 4621SOL    HW114762   0.643   1.709   6.928  0.0884  0.1305 -0.1564
 4621SOL    HW214763   0.615   1.606   6.804  0.7097 -0.0769 -0.1288
 4622SOL     OW14764   1.978   3.452   1.332 -0.4656  0.2831 -0.1278
 4622SOL    HW114765   1.960   3.406   1.419 -0.6102  0.1381 -0.2331
 4622SOL    HW214766   2.075   3.475   1.326 -0.1350 -1.0941 -0.5829
 4623SOL     OW14767   5.326   4.751   3.043  0.1788  0.1554  0.4429
 4623SOL    HW114768   5.280   4.840   3.038 -2.8199 -1.3084 -0.6440
 4623SOL    HW214769   5.299   4.705   3.127 -0.7062 -0.8602 -0.3635
 4624SOL     OW14770   3.223   6.570   5.734  0.8214 -0.0085 -0.1666
 4624SOL    HW114771   3.240   6.666   5.755 -0.4934  0.5923 -1.6831
 4624SOL    HW214772   3.167   6.563   5.652  1.1743 -2.0957 -0.2839
 4625SOL     OW14773   0.488   4.061   6.376 -0.5568 -0.0192  0.4143
 4625SOL    HW114774   0.454   4.106   6.459  0.8143  0.2412  0.8668
 4625SOL    HW214775   0.412   4.018   6.328 -1.4126 -0.0186  1.7061
 4626SOL     OW14776   5.389   4.914   0.385 -0.0814  0.9366  0.5218
 4626SOL    HW114777   5.397   5.002   0.430 -1.6391  1.3936 -0.0241
 4626SOL    HW214778   5.329   4.854   0.438  1.0434  0.1461  0.9416
 4627SOL     OW14779   2.006   6.848   3.750 -0.2746 -0.2308  0.0048
 4627SOL    HW114780   2.036   6.803   3.834  1.3385 -0.3526 -0.5934
 4627SOL    HW214781   1.954   6.930   3.772 -0.5113 -0.6535  1.1013
 4628SOL     OW14782   6.034   3.066   0.982  0.1379  0.1556  0.2147
 4628SOL    HW114783   5.979   2.985   0.960  0.4608  0.2441 -1.0394
 4628SOL    HW214784   5.980   3.148   0.967  0.3243  0.2153 -0.1495
 4629SOL     OW14785   3.102   4.396   5.335  0.1444  0.1299  0.1976
 4629SOL    HW114786   3.036   4.334   5.291  0.2034  0.1930  0.0183
 4629SOL    HW214787   3.056   4.481   5.359  0.8897  1.6939 -3.2139
 4630SOL     OW14788   1.530   6.371   3.418 -0.2661  0.1864  0.2573
 4630SOL    HW114789   1.584   6.298   3.376  0.4902  1.0388 -0.2842
 4630SOL    HW214790   1.563   6.386   3.512 -1.0915 -0.8240  0.7391
 4631SOL     OW14791   2.076   0.747   1.834 -0.0406  0.2367  0.5335
 4631SOL    HW114792   2.153   0.789   1.881 -0.5823  1.5370  0.2993
 4631SOL    HW214793   1.994   0.755   1.891 -0.4054  0.5703 -0.0324
 4632SOL     OW14794   6.147   6.468   3.277 -0.3012  0.2602  0.5949
 4632SOL    HW114795   6.245   6.450   3.263 -0.2292  0.3360  1.0069
 4632SOL    HW214796   6.100   6.382   3.296 -0.6286 -0.0621 -1.3756
 4633SOL     OW14797   6.730   3.543   5.699  0.2305  0.5116  0.5514
 4633SOL    HW114798   6.826   3.521   5.717  0.3550 -0.7400 -1.3365
 4633SOL    HW214799   6.723   3.638   5.670  1.2812  0.0115 -1.5384
 4634SOL     OW14800   1.166   3.267   1.284  0.7118  0.1383  0.5540
 4634SOL    HW114801   1.194   3.319   1.204 -3.3996 -0.0667 -1.3048
 4634SOL    HW214802   1.115   3.327   1.346 -3.1178 -1.1098 -1.0749
 4635SOL     OW14803   4.997   3.201   1.634 -0.6756  0.1341  0.7434
 4635SOL    HW114804   4.959   3.252   1.557  2.2688  0.3052 -0.7183
 4635SOL    HW214805   5.094   3.222   1.644  0.1608 -3.3615  1.5662
 4636SOL     OW14806   1.285   5.218   1.568  0.1693 -0.0180 -0.1037
 4636SOL    HW114807   1.219   5.246   1.638 -0.2531  1.4471 -1.0320
 4636SOL    HW214808   1.236   5.183   1.489  0.4686  1.1524 -0.8304
 4637SOL     OW14809   2.144   1.416   5.305  0.2232  0.0823 -0.4241
 4637SOL    HW114810   2.196   1.348   5.356  0.0260  0.1004 -0.1977
 4637SOL    HW214811   2.153   1.505   5.349 -0.0138  0.0815 -0.3745
 4638SOL     OW14812   5.932   2.018   0.796 -0.1023 -0.0804 -0.3434
 4638SOL    HW114813   5.949   1.958   0.874  0.5271  2.4569  1.6505
 4638SOL    HW214814   5.997   1.998   0.723  0.1434 -1.7163  0.2942
 4639SOL     OW14815   0.554   4.144   5.774  0.0175 -0.1111  0.1507
 4639SOL    HW114816   0.479   4.077   5.774 -2.0848  2.1113  1.0564
 4639SOL    HW214817   0.552   4.196   5.689  0.7805 -0.2809  0.0279
 4640SOL     OW14818   6.251   4.027   1.979  0.3339  0.2228 -0.0896
 4640SOL    HW114819   6.168   3.974   2.000  0.6566  0.3220  1.6034
 4640SOL    HW214820   6.318   4.013   2.051  0.8933  2.0092 -0.2066
 4641SOL     OW14821   2.722   4.591   5.957 -0.3366  0.0062 -0.2353
 4641SOL    HW114822   2.807   4.539   5.947 -0.9020 -0.8173 -0.9154
 4641SOL    HW214823   2.708   4.648   5.876 -0.4833  0.0726 -0.1642
 4642SOL     OW14824   6.475   0.283   3.052 -0.1175  0.3932 -0.3856
 4642SOL    HW114825   6.561   0.279   3.003 -0.0197 -0.7894 -0.1349
 4642SOL    HW214826   6.492   0.289   3.150 -0.3278  0.7484 -0.3652
 4643SOL     OW14827   3.884   3.009   2.351  0.3673  1.0006  0.0996
 4643SOL    HW114828   3.918   3.022   2.445  0.9134  1.3945 -0.1489
 4643SOL    HW214829   3.959   3.023   2.286  0.4894 -1.2563 -0.3174
 4644SOL     OW14830   0.902   3.522   6.429 -0.2018  0.6223  0.9024
 4644SOL    HW114831   0.895   3.568   6.340 -1.5972  1.0701  1.2137
 4644SOL    HW214832   0.919   3.425   6.415 -0.1655  0.7293  0.1570
 4645SOL     OW14833   0.047   4.620   6.033 -0.2563 -0.2218  1.2064
 4645SOL    HW114834  -0.016   4.639   5.958  0.7620  2.2412  0.8662
 4645SOL    HW214835  -0.003   4.621   6.119 -0.8931  0.3837  0.8382
 4646SOL     OW14836   4.259   2.346   2.687 -0.1575  0.8057 -0.0793
 4646SOL    HW114837   4.265   2.366   2.589 -2.0888  1.0801 -0.1773
 4646SOL    HW214838   4.167   2.312   2.709  0.9929 -1.7349  1.2332
 4647SOL     OW14839   1.160   0.306   4.699 -0.5325 -0.4825  0.1618
 4647SOL    HW114840   1.136   0.403   4.693  0.2703 -0.3758 -2.9321
 4647SOL    HW214841   1.095   0.252   4.645  0.4774 -1.3619 -0.2071
 4648SOL     OW14842   1.422   4.198   4.263  0.0108  0.4365 -0.2781
 4648SOL    HW114843   1.439   4.297   4.267  0.1679  0.3920  0.1892
 4648SOL    HW214844   1.417   4.169   4.167  3.2077  0.3460 -0.5191
 4649SOL     OW14845   4.206   0.962   6.686 -0.4887  0.2181 -0.2921
 4649SOL    HW114846   4.171   0.941   6.777  0.5648 -0.1573  0.0456
 4649SOL    HW214847   4.285   1.022   6.693 -0.6877  0.5751 -0.9927
 4650SOL     OW14848   1.118   4.776   1.833 -0.3013  0.4544 -0.2437
 4650SOL    HW114849   1.084   4.689   1.798  0.4565  0.4573 -1.0275
 4650SOL    HW214850   1.041   4.835   1.857 -0.8425  0.2418 -1.4118
 4651SOL     OW14851   6.938   5.946   6.197  0.2943 -0.3460 -0.4130
 4651SOL    HW114852   6.981   6.000   6.269 -0.4367 -0.0649 -0.1861
 4651SOL    HW214853   6.916   5.855   6.232  0.9936 -0.6050 -0.6264
 4652SOL     OW14854   6.864   4.824   6.175 -0.1645  0.1660 -0.0274
 4652SOL    HW114855   6.766   4.831   6.193 -0.5532 -0.7271 -1.6260
 4652SOL    HW214856   6.899   4.738   6.212 -0.4801 -0.5757 -1.3925
 4653SOL     OW14857   5.624   5.021   0.002 -0.7895 -0.7147 -0.6496
 4653SOL    HW114858   5.550   5.059   0.057 -0.8403 -2.1742  0.3367
 4653SOL    HW214859   5.659   4.938   0.045  2.2100  0.5381 -0.4685
 4654SOL     OW14860   1.799   6.463   0.249 -0.0076 -0.2901 -0.1707
 4654SOL    HW114861   1.778   6.373   0.288  1.3888 -0.0707  1.1696
 4654SOL    HW214862   1.746   6.476   0.165 -0.9668 -1.9526  0.1354
 4655SOL     OW14863   0.616   5.130   2.688 -0.1162  0.0214 -0.3002
 4655SOL    HW114864   0.698   5.177   2.722 -0.8706  0.7452  0.5501
 4655SOL    HW214865   0.634   5.096   2.596  1.6638 -1.1361  0.4051
 4656SOL     OW14866   1.263   5.920   1.568  0.3234 -0.1972 -0.6954
 4656SOL    HW114867   1.168   5.891   1.570  0.1297  0.4565 -0.2426
 4656SOL    HW214868   1.310   5.874   1.493 -0.5621  0.1220 -1.4629
 4657SOL     OW14869   6.396   0.379   6.862  0.1962  0.3862 -0.4242
 4657SOL    HW114870   6.480   0.396   6.913  0.4398  0.5570 -0.8731
 4657SOL    HW214871   6.420   0.352   6.768 -0.2475  0.3336 -0.5219
 4658SOL     OW14872   4.129   1.562   4.667 -0.4809 -0.5765 -0.8052
 4658SOL    HW114873   4.167   1.639   4.718 -1.2259  0.5128 -1.8366
 4658SOL    HW214874   4.112   1.486   4.730 -0.2845  0.3066  0.3527
 4659SOL     OW14875   1.814   3.945   4.963  0.4860 -0.0539  0.0296
 4659SOL    HW114876   1.908   3.910   4.957  0.3782 -0.4830  0.6862
 4659SOL    HW214877   1.771   3.910   5.046 -0.7690 -1.1126 -1.0269
 4660SOL     OW14878   5.559   1.468   0.363  0.3490 -0.3530 -0.2638
 4660SOL    HW114879   5.465   1.447   0.338  0.7254 -3.3527  0.4092
 4660SOL    HW214880   5.567   1.565   0.389 -2.3389  0.1360 -1.0211
 4661SOL     OW14881   4.041   3.875   4.183 -0.0325 -0.8183 -0.4126
 4661SOL    HW114882   4.083   3.852   4.271  1.0528  0.7499 -0.4815
 4661SOL    HW214883   3.946   3.899   4.197 -0.1480 -1.5687  0.1702
 4662SOL     OW14884   5.931   0.815   5.657  0.3433  0.4785  0.5412
 4662SOL    HW114885   5.902   0.752   5.584 -1.1100 -0.1300  1.5972
 4662SOL    HW214886   5.990   0.886   5.618 -0.0353 -0.0861 -1.1406
 4663SOL     OW14887   0.489   0.209   2.980  0.3432 -0.2142  0.0753
 4663SOL    HW114888   0.573   0.154   2.984  0.8189  0.5485  0.6204
 4663SOL    HW214889   0.418   0.166   3.036  1.1379  0.4236  1.6283
 4664SOL     OW14890   3.135   3.102   1.543 -0.4106 -0.5109  0.0726
 4664SOL    HW114891   3.209   3.118   1.608 -0.9168 -0.9447  0.7724
 4664SOL    HW214892   3.157   3.022   1.487  1.4097  1.5363 -2.3863
 4665SOL     OW14893   0.116   0.752   6.164 -0.2501 -0.1292 -0.1282
 4665SOL    HW114894   0.215   0.763   6.160 -0.3365  0.9700  0.2919
 4665SOL    HW214895   0.091   0.660   6.134  0.9794 -0.8351  0.9134
 4666SOL     OW14896   2.530   2.281   5.635  0.3420  0.5181  0.6035
 4666SOL    HW114897   2.489   2.198   5.673  1.1807  0.0593  0.5216
 4666SOL    HW214898   2.624   2.262   5.607  0.7026  1.6316  1.0290
 4667SOL     OW14899   6.425   0.289   6.386  0.0072 -0.4367  0.0052
 4667SOL    HW114900   6.364   0.223   6.343  1.1265  0.6224 -3.5125
 4667SOL    HW214901   6.510   0.243   6.411 -0.4645 -0.9690  0.6717
 4668SOL     OW14902   4.909   3.204   5.928 -0.0906  0.1514  0.3133
 4668SOL    HW114903   4.972   3.169   5.997  0.4162  1.7689  0.7064
 4668SOL    HW214904   4.907   3.304   5.932 -0.1398  0.2914 -1.9321
 4669SOL     OW14905   1.736   0.467   1.869 -0.0044 -0.2581 -0.2393
 4669SOL    HW114906   1.802   0.408   1.823 -0.1967  0.5112 -1.5580
 4669SOL    HW214907   1.731   0.443   1.966  0.5036 -1.8469 -0.5840
 4670SOL     OW14908   1.589   0.729   4.663  0.2948  0.1034 -0.1117
 4670SOL    HW114909   1.544   0.670   4.596 -0.3664 -1.1740  1.4070
 4670SOL    HW214910   1.640   0.800   4.615  0.2205 -1.0377 -1.9817
 4671SOL     OW14911   0.509   3.877   1.020 -0.0326  0.0547  0.6459
 4671SOL    HW114912   0.455   3.793   1.021 -0.6053  0.4143  0.0983
 4671SOL    HW214913   0.532   3.902   0.926 -0.1045  0.6622  0.7823
 4672SOL     OW14914   3.949   2.069   6.487  0.1759 -0.0729  0.8305
 4672SOL    HW114915   4.028   2.123   6.460  0.2523 -0.7834 -0.4256
 4672SOL    HW214916   3.885   2.127   6.538  0.8134  0.8831  0.5691
 4673SOL     OW14917   2.581   1.874   3.416  0.2791 -0.6276  0.4537
 4673SOL    HW114918   2.491   1.898   3.379  0.3866 -0.9679 -0.0368
 4673SOL    HW214919   2.653   1.917   3.361  0.4843 -2.1718 -0.5474
 4674SOL     OW14920   5.002   6.699   6.866 -0.2492  0.4343 -0.2918
 4674SOL    HW114921   4.926   6.719   6.804  1.2239 -0.2663 -2.4450
 4674SOL    HW214922   5.083   6.751   6.837  1.0599 -1.5040 -0.3001
 4675SOL     OW14923   0.253   4.458   5.543 -0.3173  0.5048 -0.3424
 4675SOL    HW114924   0.326   4.397   5.514 -0.7125  0.9932 -2.6173
 4675SOL    HW214925   0.239   4.528   5.473 -2.6706  0.6672  0.1977
 4676SOL     OW14926   5.672   6.922   2.718 -0.0893 -0.4265 -0.0192
 4676SOL    HW114927   5.716   6.904   2.630  0.4442 -0.6877  0.2995
 4676SOL    HW214928   5.599   6.989   2.705  0.0408 -0.3980 -0.6459
 4677SOL     OW14929   0.414   3.757   0.267 -0.2526  0.2030  0.1707
 4677SOL    HW114930   0.377   3.823   0.201 -0.2333  0.0697  0.0260
 4677SOL    HW214931   0.485   3.802   0.321  0.8335 -0.1097 -0.9515
 4678SOL     OW14932   1.240   5.769   1.831  0.2659  0.5349 -0.4174
 4678SOL    HW114933   1.286   5.804   1.749 -0.6107  1.0033 -0.7191
 4678SOL    HW214934   1.213   5.674   1.815 -1.2625  1.0872 -1.2681
 4679SOL     OW14935   6.484   6.653   0.044 -0.4585 -0.1037  0.2042
 4679SOL    HW114936   6.388   6.664   0.072 -0.3245 -0.4631  0.8359
 4679SOL    HW214937   6.494   6.569  -0.010 -0.7089  0.5630 -0.9067
 4680SOL     OW14938   2.197   1.936   2.726  0.3674 -0.0837 -0.3747
 4680SOL    HW114939   2.165   1.879   2.801  1.2277  0.2209  0.2417
 4680SOL    HW214940   2.294   1.920   2.710  0.5182  0.8509 -0.4987
 4681SOL     OW14941   5.313   4.288   2.453 -0.3539  0.4499  0.2718
 4681SOL    HW114942   5.410   4.291   2.477 -0.4836  1.0350  0.7438
 4681SOL    HW214943   5.301   4.318   2.358 -0.0783  0.3595  0.2070
 4682SOL     OW14944   1.128   4.748   6.281 -0.1546 -0.1125 -0.1762
 4682SOL    HW114945   1.221   4.784   6.277 -0.3818  0.5351  0.2508
 4682SOL    HW214946   1.064   4.824   6.292 -0.5571 -0.7341  2.1073
 4683SOL     OW14947   5.392   5.175   1.995  0.4434 -0.5553 -0.0994
 4683SOL    HW114948   5.423   5.198   2.087 -1.0136  2.0915 -0.1586
 4683SOL    HW214949   5.302   5.133   1.999  0.2711 -0.2144 -0.3049
 4684SOL     OW14950   5.185   5.611   0.341 -0.1988 -0.0517 -0.3058
 4684SOL    HW114951   5.268   5.557   0.352  2.3355  2.9079 -2.8227
 4684SOL    HW214952   5.154   5.643   0.430  1.1538 -1.4916  0.7389
 4685SOL     OW14953   4.025   4.834   5.797 -0.4356  0.3898 -0.2468
 4685SOL    HW114954   3.946   4.892   5.777 -1.4226 -1.4907 -2.1507
 4685SOL    HW214955   4.106   4.870   5.750 -0.7018  0.9389 -0.3006
 4686SOL     OW14956   3.453   6.556   0.973  0.4236  0.1187 -0.5626
 4686SOL    HW114957   3.457   6.655   0.968 -0.9468  0.1696 -1.1598
 4686SOL    HW214958   3.408   6.528   1.058  0.9183  0.0007 -0.3369
 4687SOL     OW14959   3.803   0.428   3.258 -0.2479  0.2677  1.0956
 4687SOL    HW114960   3.781   0.348   3.313 -2.7988  0.2337  0.1736
 4687SOL    HW214961   3.800   0.404   3.161  4.1222  0.3321  0.7353
 4688SOL     OW14962   6.974   3.273   4.984 -0.9578 -0.0627  0.0250
 4688SOL    HW114963   7.016   3.329   4.913  0.5174  0.2785  1.1191
 4688SOL    HW214964   7.045   3.242   5.048 -2.2611 -0.2247  1.4395
 4689SOL     OW14965   6.298   1.123   2.617 -0.0815  0.4682 -0.2392
 4689SOL    HW114966   6.335   1.035   2.646  1.3585  1.0263 -0.3059
 4689SOL    HW214967   6.307   1.190   2.691 -1.2629  0.5634 -0.1493
 4690SOL     OW14968   3.983   2.102   1.078  0.2985 -0.0398 -0.0304
 4690SOL    HW114969   3.960   2.155   1.159 -0.7407  1.1747 -1.0708
 4690SOL    HW214970   4.070   2.135   1.040  1.5201 -1.5476  1.3238
 4691SOL     OW14971   0.383   5.208   1.845 -0.0422  0.4712  0.5467
 4691SOL    HW114972   0.295   5.185   1.803  0.6770 -0.0998 -0.6979
 4691SOL    HW214973   0.430   5.124   1.871  1.9739  0.4251 -2.6999
 4692SOL     OW14974   6.610   2.738   4.820 -0.2815  0.2127  0.0745
 4692SOL    HW114975   6.668   2.811   4.783  0.4112 -0.5204 -0.3202
 4692SOL    HW214976   6.514   2.769   4.821 -0.1331  0.7700 -1.0290
 4693SOL     OW14977   2.902   0.322   3.612 -0.2335 -0.5117  0.7909
 4693SOL    HW114978   2.884   0.349   3.517  1.0059 -0.1504  0.6412
 4693SOL    HW214979   2.965   0.244   3.613  0.4338  0.0198  1.3179
 4694SOL     OW14980   2.201   0.093   5.843 -0.5136 -0.3318 -0.2288
 4694SOL    HW114981   2.163   0.186   5.840  1.1905  0.4237  0.3399
 4694SOL    HW214982   2.196   0.052   5.752 -0.8931  0.4920 -0.5893
 4695SOL     OW14983   6.648   0.266   0.325  0.1527  1.2630 -0.2305
 4695SOL    HW114984   6.577   0.329   0.356 -0.8403 -0.4147  1.0540
 4695SOL    HW214985   6.728   0.274   0.384 -0.4837  0.4332  0.7964
 4696SOL     OW14986   4.358   6.087   5.753 -0.7057  0.7053  0.6630
 4696SOL    HW114987   4.409   6.009   5.789  0.5682  1.3383  0.2908
 4696SOL    HW214988   4.421   6.152   5.711 -1.9282  0.9995 -0.8292
 4697SOL     OW14989   3.355   5.626   1.484  0.0963 -0.0584 -0.3216
 4697SOL    HW114990   3.272   5.655   1.436 -0.1423 -2.2789 -1.3681
 4697SOL    HW214991   3.366   5.527   1.476  3.0566  0.1867 -0.5765
 4698SOL     OW14992   4.667   1.313   6.089 -0.0419  0.2736 -0.0402
 4698SOL    HW114993   4.755   1.266   6.091  0.0572  0.4821  1.1030
 4698SOL    HW214994   4.638   1.335   6.183 -1.0913  0.6138 -0.4241
 4699SOL     OW14995   2.052   2.090   2.549 -0.0502  0.0496 -0.2195
 4699SOL    HW114996   2.109   2.046   2.619  0.0460 -0.6986 -0.7629
 4699SOL    HW214997   2.089   2.070   2.458 -0.7066  0.2420 -0.5324
 4700SOL     OW14998   0.560   6.819   4.045  0.1849  0.3281  0.0071
 4700SOL    HW114999   0.533   6.868   3.962  0.5895  0.1281 -0.2439
 4700SOL    HW215000   0.491   6.750   4.066  1.3909 -1.5342 -1.7428
 4701SOL     OW15001   3.791   1.824   2.378  0.6759 -0.1875 -0.7061
 4701SOL    HW115002   3.816   1.839   2.282  0.3872  0.6887 -0.6513
 4701SOL    HW215003   3.719   1.888   2.404  1.5449  0.3595  0.4287
 4702SOL     OW15004   6.364   5.562   0.246 -0.0289  0.0339 -0.0474
 4702SOL    HW115005   6.337   5.625   0.320 -2.1783  1.6278 -2.0442
 4702SOL    HW215006   6.283   5.517   0.210  1.0171 -0.9303 -1.2685
 4703SOL     OW15007   1.384   5.827   2.055  0.2470  0.1783 -0.2603
 4703SOL    HW115008   1.320   5.814   1.979 -0.4705 -0.0180  0.3683
 4703SOL    HW215009   1.455   5.758   2.051 -2.2346 -2.7840  1.7290
 4704SOL     OW15010   1.846   3.168   6.802 -0.7637 -0.2742 -0.3572
 4704SOL    HW115011   1.832   3.227   6.881  0.0056 -2.3054  1.3712
 4704SOL    HW215012   1.787   3.087   6.810 -1.1061 -0.2480 -2.1807
 4705SOL     OW15013   1.797   1.941   1.086 -0.4342 -0.1704 -0.4280
 4705SOL    HW115014   1.739   2.023   1.075 -0.9013 -0.3860  0.3304
 4705SOL    HW215015   1.762   1.886   1.162  2.1445  0.8871  1.6813
 4706SOL     OW15016   1.840   1.232   0.464  0.0338 -0.2306  0.7979
 4706SOL    HW115017   1.781   1.247   0.543 -1.4295 -1.6625  0.0380
 4706SOL    HW215018   1.915   1.171   0.489 -0.6440 -0.9947  1.0163
 4707SOL     OW15019   2.231   0.173   1.243 -0.3649  0.1373 -0.0485
 4707SOL    HW115020   2.145   0.224   1.233 -0.2025  0.0352 -2.4256
 4707SOL    HW215021   2.211   0.075   1.252 -0.4972  0.1338 -0.3855
 4708SOL     OW15022   1.269   1.606   4.913  0.1619 -0.6333  0.4055
 4708SOL    HW115023   1.366   1.620   4.895  0.4138 -1.6477  0.8990
 4708SOL    HW215024   1.218   1.609   4.827  0.7449 -0.9628  0.0432
 4709SOL     OW15025   5.024   3.913   4.187 -0.3599  0.0679  0.0714
 4709SOL    HW115026   4.958   3.981   4.217  0.6452  0.5992  1.1423
 4709SOL    HW215027   4.976   3.829   4.162 -1.3937  0.2310  1.4070
 4710SOL     OW15028   6.233   6.665   1.338  0.0711 -0.2257 -0.0966
 4710SOL    HW115029   6.304   6.625   1.395 -0.2417 -0.2128  0.3125
 4710SOL    HW215030   6.187   6.593   1.286 -0.5850 -0.4412  0.7456
 4711SOL     OW15031   4.223   3.006   1.270 -0.0674  0.6669 -0.6503
 4711SOL    HW115032   4.167   2.952   1.331  1.4031 -0.8754 -0.5796
 4711SOL    HW215033   4.172   3.086   1.238 -1.6495  0.2401  0.7208
 4712SOL     OW15034   4.140   3.151   6.123 -0.4474 -0.0980 -0.0225
 4712SOL    HW115035   4.212   3.118   6.062 -0.5809  1.6742 -1.2221
 4712SOL    HW215036   4.182   3.199   6.200 -0.2648  1.5447 -1.0756
 4713SOL     OW15037   6.739   4.962   0.601  0.6111  0.1109  0.5446
 4713SOL    HW115038   6.746   4.920   0.510  1.3179  0.3879  0.4599
 4713SOL    HW215039   6.781   4.902   0.669  0.8065  0.2627  0.5606
 4714SOL     OW15040   2.064   0.671   0.126 -0.0011 -0.3666 -0.1250
 4714SOL    HW115041   2.052   0.595   0.062  0.4940 -0.7062  0.1843
 4714SOL    HW215042   2.162   0.692   0.136 -0.1789  1.2856 -1.3441
 4715SOL     OW15043   5.735   0.166   3.713  0.2785 -0.4060 -0.0775
 4715SOL    HW115044   5.750   0.211   3.801 -0.5222 -2.4008  1.1371
 4715SOL    HW215045   5.711   0.235   3.644 -1.0414  1.0136  1.7135
 4716SOL     OW15046   4.612   4.785   6.396  0.4907  0.0767  0.3562
 4716SOL    HW115047   4.583   4.834   6.314 -2.8725 -0.1468  1.2420
 4716SOL    HW215048   4.684   4.836   6.442  0.1220  1.9250 -0.9929
 4717SOL     OW15049   0.864   4.496   6.427  0.1925 -0.3242 -0.6978
 4717SOL    HW115050   0.934   4.458   6.367  0.1041  0.6618 -1.4543
 4717SOL    HW215051   0.810   4.564   6.377 -1.4121 -1.1582 -0.1786
 4718SOL     OW15052   3.845   4.292   0.516 -0.3554 -0.6027 -0.2690
 4718SOL    HW115053   3.898   4.322   0.437  0.6548 -0.0287  0.5926
 4718SOL    HW215054   3.749   4.286   0.491 -0.4016  1.7971 -0.9605
 4719SOL     OW15055   0.610   4.081   2.689  0.1816 -0.0956 -0.4814
 4719SOL    HW115056   0.531   4.033   2.727 -0.4440  1.1459 -0.1465
 4719SOL    HW215057   0.688   4.020   2.687  0.1041 -0.4235  2.3002
 4720SOL     OW15058   2.226   4.505   0.980  0.2949  0.0364  0.4312
 4720SOL    HW115059   2.199   4.422   1.028 -0.9266  0.4751  0.5519
 4720SOL    HW215060   2.262   4.571   1.045 -0.4417  0.2650  0.6195
 4721SOL     OW15061   4.853   3.872   2.403 -0.5668 -0.7747 -0.6325
 4721SOL    HW115062   4.838   3.789   2.349 -1.0723 -1.1857  0.1126
 4721SOL    HW215063   4.948   3.873   2.436  0.6409  0.8414 -3.7121
 4722SOL     OW15064   0.318   4.643   0.850  0.6673  0.3070  0.1123
 4722SOL    HW115065   0.306   4.556   0.803  0.8987 -0.4128  1.3549
 4722SOL    HW215066   0.415   4.657   0.872  0.6754  1.0194 -0.3153
 4723SOL     OW15067   4.536   4.854   1.493 -0.3218 -0.4287  0.1071
 4723SOL    HW115068   4.634   4.838   1.509 -0.5473 -0.0434  2.0119
 4723SOL    HW215069   4.500   4.915   1.563 -1.9104 -0.4251 -0.6766
 4724SOL     OW15070   6.860   0.247   4.652  0.3653  0.0352 -0.4499
 4724SOL    HW115071   6.880   0.262   4.749 -0.1478  3.1974 -0.7249
 4724SOL    HW215072   6.840   0.150   4.636 -0.6121 -0.4037  2.7927
 4725SOL     OW15073   6.245   0.125   5.094  0.4666 -0.2351  0.4830
 4725SOL    HW115074   6.316   0.196   5.099  0.9992 -0.8734  3.2746
 4725SOL    HW215075   6.261   0.069   5.013  2.3528  0.4580  0.3268
 4726SOL     OW15076   0.779   3.683   6.674  0.4787 -0.0384  0.3493
 4726SOL    HW115077   0.693   3.704   6.628 -0.6696 -2.9871  0.9278
 4726SOL    HW215078   0.835   3.625   6.615  1.5748  0.8410  0.4818
 4727SOL     OW15079   0.301   5.856   0.390 -0.1155 -0.1147 -0.8931
 4727SOL    HW115080   0.246   5.799   0.328  0.0720 -0.3689 -0.8275
 4727SOL    HW215081   0.398   5.833   0.379 -0.2506 -2.1851  1.4931
 4728SOL     OW15082   6.089   6.113   4.816  0.5627  0.0162 -0.5084
 4728SOL    HW115083   5.993   6.118   4.791  0.5223  1.9882 -0.0914
 4728SOL    HW215084   6.146   6.132   4.735  0.5522  0.6411 -0.3732
 4729SOL     OW15085   6.233   0.291   2.250 -0.9568 -0.0824 -0.2119
 4729SOL    HW115086   6.208   0.388   2.256 -2.2388 -0.2306 -2.0207
 4729SOL    HW215087   6.275   0.273   2.161  0.1545 -1.0333  0.4787
 4730SOL     OW15088   3.290   6.803   5.284  0.5927 -0.4256  0.1729
 4730SOL    HW115089   3.312   6.886   5.232 -0.2495 -0.9545 -1.0727
 4730SOL    HW215090   3.245   6.827   5.369 -1.9209  0.3898 -1.2756
 4731SOL     OW15091   4.862   5.010   0.023  0.4031  0.2863 -0.1158
 4731SOL    HW115092   4.805   5.089   0.001  0.1927 -0.3247 -1.8854
 4731SOL    HW215093   4.814   4.952   0.089 -0.0915  0.8605  0.0393
 4732SOL     OW15094   0.992   4.498   2.989 -0.1885  0.6467  0.0100
 4732SOL    HW115095   0.999   4.581   2.934  0.3536  0.6569  0.0859
 4732SOL    HW215096   1.050   4.427   2.949  1.0739  0.9921  1.1657
 4733SOL     OW15097   1.616   3.423   5.219  0.6184  0.0205 -0.4716
 4733SOL    HW115098   1.676   3.438   5.141 -1.0768 -0.3411 -1.9006
 4733SOL    HW215099   1.664   3.448   5.303  2.2469  1.1215 -1.6656
 4734SOL     OW15100   5.464   2.617   0.465  0.3550  0.0059  0.4832
 4734SOL    HW115101   5.377   2.661   0.443 -0.1380 -1.4851 -0.7575
 4734SOL    HW215102   5.529   2.634   0.392 -0.6349 -3.2453 -1.3932
 4735SOL     OW15103   0.676   1.759   4.648  0.1215  0.2136 -0.2912
 4735SOL    HW115104   0.699   1.845   4.603 -0.4899  0.1483 -0.7507
 4735SOL    HW215105   0.656   1.776   4.745 -1.2201  0.7999 -0.6528
 4736SOL     OW15106   6.237   2.745   2.579  0.5059 -0.2229  0.3564
 4736SOL    HW115107   6.201   2.656   2.608  0.5036 -0.0274  0.9841
 4736SOL    HW215108   6.293   2.733   2.498  0.9478 -0.8865  0.7447
 4737SOL     OW15109   4.283   5.452   0.653  0.2129 -0.2254  0.0401
 4737SOL    HW115110   4.299   5.383   0.582  3.4439 -1.2312  1.5573
 4737SOL    HW215111   4.298   5.543   0.615 -0.6636 -0.5506 -1.1470
 4738SOL     OW15112   2.561   6.347   3.384  0.6159  0.5216  0.7653
 4738SOL    HW115113   2.521   6.438   3.395  0.0108  0.3138  0.3357
 4738SOL    HW215114   2.507   6.280   3.435 -0.6324 -0.0272 -1.1488
 4739SOL     OW15115   5.947   5.200   3.046  0.0482 -0.2196  0.3014
 4739SOL    HW115116   6.013   5.126   3.032 -1.8373 -1.9225 -0.2267
 4739SOL    HW215117   5.979   5.262   3.117  3.1276  0.2407 -1.3351
 4740SOL     OW15118   0.303   6.656   1.060  0.7667  0.6721 -0.5376
 4740SOL    HW115119   0.229   6.712   1.099 -0.8998 -0.4175 -1.9855
 4740SOL    HW215120   0.319   6.577   1.119 -0.0520  0.3005 -0.8039
 4741SOL     OW15121   3.715   4.173   6.561  0.2020  0.5151 -1.0114
 4741SOL    HW115122   3.734   4.250   6.622  1.0300  0.5978 -1.3601
 4741SOL    HW215123   3.618   4.170   6.539 -0.6495 -1.0077  2.3295
 4742SOL     OW15124   3.285   5.972   1.531  0.6076 -0.4665 -0.0604
 4742SOL    HW115125   3.300   6.007   1.439  2.0137 -2.2510 -0.5676
 4742SOL    HW215126   3.305   6.044   1.598  0.4548  0.5762 -1.1086
 4743SOL     OW15127   0.581   2.408   6.465  0.5241  0.1916  0.6065
 4743SOL    HW115128   0.590   2.371   6.557 -2.2580 -0.9085  0.5343
 4743SOL    HW215129   0.512   2.480   6.465  1.2078  0.8731 -0.4700
 4744SOL     OW15130   1.641   2.313   3.926  0.6198 -0.0172 -0.3760
 4744SOL    HW115131   1.554   2.266   3.911  1.6083 -2.1057  0.1075
 4744SOL    HW215132   1.625   2.412   3.926 -1.8715 -0.3397  0.4437
 4745SOL     OW15133   4.022   5.756   5.784  0.0804  0.1890  0.3041
 4745SOL    HW115134   3.955   5.761   5.710 -2.8655 -1.5142  2.6563
 4745SOL    HW215135   4.058   5.663   5.791  1.1457  0.5904  0.3877
 4746SOL     OW15136   6.279   6.936   0.268  0.6888  0.0071 -0.3475
 4746SOL    HW115137   6.196   6.892   0.301  1.5283 -0.4427  1.3103
 4746SOL    HW215138   6.358   6.895   0.314  1.7585  1.0210 -1.2253
 4747SOL     OW15139   6.955   1.428   1.997  1.0742  0.5099 -0.5438
 4747SOL    HW115140   6.936   1.456   2.091 -1.4144  3.7791 -1.8433
 4747SOL    HW215141   6.913   1.339   1.980  0.3516  0.5073  1.0746
 4748SOL     OW15142   0.310   1.737   1.809  0.4649  0.3423  0.1114
 4748SOL    HW115143   0.230   1.684   1.782 -0.6189  1.1456  1.6400
 4748SOL    HW215144   0.285   1.833   1.821  1.9717  0.8710 -0.6860
 4749SOL     OW15145   3.636   0.432   3.733  0.3558  0.6111 -0.0611
 4749SOL    HW115146   3.557   0.493   3.734  0.1041  0.3219  2.3660
 4749SOL    HW215147   3.715   0.481   3.771  0.6969  0.0826 -0.0882
 4750SOL     OW15148   1.068   0.910   3.403  0.5606  0.1814 -0.7864
 4750SOL    HW115149   1.048   0.826   3.455  0.7931  0.6140  0.0278
 4750SOL    HW215150   1.155   0.899   3.354  1.6047  0.6225  0.8821
 4751SOL     OW15151   2.019   4.234   0.865  0.2409  0.3540  0.0786
 4751SOL    HW115152   1.989   4.153   0.814 -1.4764  0.1769  1.2562
 4751SOL    HW215153   2.096   4.276   0.819 -1.1564  0.1717 -2.6389
 4752SOL     OW15154   4.878   0.496   1.230 -0.3122 -0.1980  0.4502
 4752SOL    HW115155   4.962   0.527   1.275 -0.2155 -0.4694  0.4583
 4752SOL    HW215156   4.799   0.520   1.286 -0.5144  2.5962 -0.8084
 4753SOL     OW15157   5.320   6.818   4.508 -0.1862 -0.0172 -0.4617
 4753SOL    HW115158   5.414   6.795   4.535 -0.7887 -1.7670  0.3262
 4753SOL    HW215159   5.256   6.773   4.571 -1.5540  1.3197 -0.8515
 4754SOL     OW15160   6.700   2.191   6.630  0.3051 -0.4014 -0.2742
 4754SOL    HW115161   6.693   2.094   6.652 -1.4014 -0.1366  0.4861
 4754SOL    HW215162   6.618   2.220   6.582  1.5560  0.3084 -2.1018
 4755SOL     OW15163   0.877   2.433   6.457 -0.0761 -0.0412  0.1847
 4755SOL    HW115164   0.780   2.441   6.435  0.0256 -0.5950 -0.5344
 4755SOL    HW215165   0.927   2.507   6.413 -0.0187 -0.5071 -0.5652
 4756SOL     OW15166   5.580   3.652   2.375  0.3801  0.3835 -0.1271
 4756SOL    HW115167   5.548   3.682   2.465 -0.0453  0.2149 -0.2181
 4756SOL    HW215168   5.547   3.559   2.358  0.2989  0.4849 -0.5329
 4757SOL     OW15169   6.973   1.135   1.719 -1.0685 -0.1170  0.3765
 4757SOL    HW115170   7.040   1.137   1.793 -1.8805  0.5741  1.1071
 4757SOL    HW215171   6.978   1.046   1.673  1.1047  0.3137 -0.3163
 4758SOL     OW15172   4.870   2.274   6.264 -0.4837 -0.3654  0.2764
 4758SOL    HW115173   4.963   2.279   6.300 -0.2663 -1.5787 -0.0788
 4758SOL    HW215174   4.854   2.183   6.225 -2.4881 -0.8748  2.1182
 4759SOL     OW15175   5.092   4.079   5.636 -0.2833  0.1283 -0.1116
 4759SOL    HW115176   5.187   4.099   5.614 -0.1196  1.3819  1.5566
 4759SOL    HW215177   5.084   3.987   5.674  0.7429  0.9986  2.3453
 4760SOL     OW15178   1.944   2.336   0.163 -0.0071 -0.3536 -0.2717
 4760SOL    HW115179   1.969   2.261   0.102 -0.1667  0.1754 -1.0001
 4760SOL    HW215180   1.930   2.300   0.255 -1.6316 -1.4976 -0.9163
 4761SOL     OW15181   1.180   3.906   4.761  0.2592  0.1792  0.1477
 4761SOL    HW115182   1.201   3.868   4.851  0.0630 -1.3378 -0.4069
 4761SOL    HW215183   1.081   3.906   4.747  0.3301 -0.4703 -0.4093
 4762SOL     OW15184   3.997   2.193   2.724  0.1797 -0.7076  0.7976
 4762SOL    HW115185   3.898   2.209   2.733 -0.1875 -1.6649 -1.1074
 4762SOL    HW215186   4.038   2.191   2.815 -1.9204 -2.5320  1.8122
 4763SOL     OW15187   0.570   6.834   4.516  0.1408  0.0751  0.2741
 4763SOL    HW115188   0.621   6.749   4.516  1.3066  0.7473  0.2312
 4763SOL    HW215189   0.473   6.816   4.497  0.3343 -1.2396  0.4848
 4764SOL     OW15190   2.942   3.577   4.941 -0.6678 -0.7300  0.1992
 4764SOL    HW115191   2.886   3.637   4.885  1.3633  0.1239 -1.0041
 4764SOL    HW215192   2.970   3.497   4.888  0.9843 -0.0910  0.0585
 4765SOL     OW15193   0.200   4.355   4.980  0.7344  0.1869 -0.6759
 4765SOL    HW115194   0.299   4.337   4.976  1.3006  2.2882  1.4360
 4765SOL    HW215195   0.173   4.371   5.075 -1.0651  2.4760 -1.4674
 4766SOL     OW15196   3.393   0.764   3.961  0.3646  0.0090  0.5730
 4766SOL    HW115197   3.473   0.805   4.005  0.7133 -0.0876  0.0297
 4766SOL    HW215198   3.422   0.712   3.881 -0.3921  1.1806 -0.5000
 4767SOL     OW15199   3.825   4.617   6.054 -0.1604 -0.4335  0.4065
 4767SOL    HW115200   3.812   4.538   5.995  1.3957 -2.4112  2.5378
 4767SOL    HW215201   3.917   4.654   6.039 -0.9575  1.2425 -0.7592
 4768SOL     OW15202   0.420   2.244   4.215 -0.1237  0.3210 -0.1664
 4768SOL    HW115203   0.435   2.255   4.314 -1.2359 -0.7903  0.1488
 4768SOL    HW215204   0.325   2.263   4.193 -0.2985 -1.1463 -0.7452
 4769SOL     OW15205   2.349   6.629   2.908 -0.0962  0.3708 -0.3268
 4769SOL    HW115206   2.350   6.649   3.006  0.4960  0.0393 -0.2577
 4769SOL    HW215207   2.273   6.678   2.864 -0.5420  0.2837  0.3418
 4770SOL     OW15208   3.728   6.180   1.699  0.1031 -0.1288  0.5270
 4770SOL    HW115209   3.781   6.096   1.690 -2.2311 -1.5135 -1.7452
 4770SOL    HW215210   3.674   6.178   1.783 -0.0209 -0.9793  0.4346
 4771SOL     OW15211   1.902   3.879   5.968 -0.5406  0.1512  0.0569
 4771SOL    HW115212   1.882   3.897   6.065 -1.9543 -0.4465 -0.1001
 4771SOL    HW215213   1.842   3.934   5.911  0.1102  0.3051 -0.4952
 4772SOL     OW15214   1.395   2.191   1.485  0.3609 -0.0336 -0.0706
 4772SOL    HW115215   1.419   2.171   1.580  1.1248  0.5428 -0.1261
 4772SOL    HW215216   1.437   2.123   1.426  2.1618  1.0884 -0.1839
 4773SOL     OW15217   6.306   6.266   3.554  0.0464 -0.1621  0.4562
 4773SOL    HW115218   6.360   6.331   3.500  0.0040 -0.9626 -0.5757
 4773SOL    HW215219   6.257   6.315   3.626  0.4372  0.8677  0.0359
 4774SOL     OW15220   0.705   3.618   1.333 -0.0232  0.0719  0.3360
 4774SOL    HW115221   0.713   3.518   1.325 -0.8351 -0.0275  0.5972
 4774SOL    HW215222   0.623   3.648   1.284 -0.0004  0.5626  0.6000
 4775SOL     OW15223   1.624   1.826   2.352 -0.1011  0.1395  0.0007
 4775SOL    HW115224   1.614   1.756   2.281 -0.0931 -0.4532  0.5770
 4775SOL    HW215225   1.666   1.785   2.433  0.7181  1.0117  0.0389
 4776SOL     OW15226   5.505   4.323   1.018 -0.5566 -0.4194  0.1901
 4776SOL    HW115227   5.527   4.400   0.959  0.2700 -1.1993 -0.5432
 4776SOL    HW215228   5.580   4.307   1.081 -1.0740 -0.1315  0.8975
 4777SOL     OW15229   2.627   5.028   1.497  0.0839 -0.3522  0.0465
 4777SOL    HW115230   2.546   5.084   1.479  0.6012  0.3883 -0.0654
 4777SOL    HW215231   2.611   4.970   1.577  0.0863  1.1452  1.1754
 4778SOL     OW15232   5.215   3.930   0.223 -0.3267 -0.2241 -0.1900
 4778SOL    HW115233   5.292   3.987   0.194  0.0692 -0.0203  1.1895
 4778SOL    HW215234   5.202   3.938   0.322 -1.4423 -1.1022 -0.2334
 4779SOL     OW15235   5.374   1.384   4.411  0.6278 -0.0856  0.4592
 4779SOL    HW115236   5.327   1.356   4.495 -0.3623  0.7198  0.1864
 4779SOL    HW215237   5.364   1.312   4.342  0.6163 -0.3281  0.7111
 4780SOL     OW15238   6.638   5.604   5.488 -0.0586 -0.4472 -0.2198
 4780SOL    HW115239   6.599   5.687   5.529  1.4881  0.4008 -0.3983
 4780SOL    HW215240   6.623   5.526   5.549 -1.5396 -0.0545 -0.0493
 4781SOL     OW15241   3.295   4.897   2.426 -0.0894  0.3715 -0.3700
 4781SOL    HW115242   3.370   4.874   2.365  0.9450  0.8263  0.7084
 4781SOL    HW215243   3.289   4.996   2.437 -0.4883  0.3119 -0.0139
 4782SOL     OW15244   5.012   1.070   6.462 -0.4206  0.0013 -0.4197
 4782SOL    HW115245   5.052   1.002   6.401  0.2990 -0.8149  0.9050
 4782SOL    HW215246   4.934   1.030   6.510 -1.9186  1.0995 -1.8510
 4783SOL     OW15247   5.263   2.803   3.417 -0.6804  0.5648 -0.8601
 4783SOL    HW115248   5.235   2.854   3.498  2.4180  0.4343  0.4382
 4783SOL    HW215249   5.282   2.708   3.443  0.6928  0.6059 -1.6479
 4784SOL     OW15250   4.674   4.270   5.273  0.0034  0.4253  0.0863
 4784SOL    HW115251   4.700   4.173   5.267 -2.5936 -0.2966 -0.4411
 4784SOL    HW215252   4.754   4.326   5.255  1.6107 -1.5967  0.4556
 4785SOL     OW15253   5.804   0.837   6.620 -0.0571  0.0076 -0.0880
 4785SOL    HW115254   5.783   0.765   6.685  1.3816  1.5570  2.2336
 4785SOL    HW215255   5.854   0.798   6.542 -0.6852 -1.7010  0.3300
 4786SOL     OW15256   1.370   1.638   1.732 -0.0489  0.0238 -0.5039
 4786SOL    HW115257   1.292   1.694   1.706 -1.6766 -2.1154 -0.5088
 4786SOL    HW215258   1.386   1.646   1.831 -0.3929  0.3496 -0.4737
 4787SOL     OW15259   4.238   2.224   3.355  0.6715 -0.2316 -0.2143
 4787SOL    HW115260   4.219   2.268   3.268 -1.0897  0.3994  0.4438
 4787SOL    HW215261   4.164   2.160   3.377  1.3013 -0.6989  0.6234
 4788SOL     OW15262   2.305   5.373   4.546 -0.0972 -0.4382 -0.1471
 4788SOL    HW115263   2.345   5.441   4.607  0.6102 -1.0915  0.1353
 4788SOL    HW215264   2.366   5.294   4.539 -0.5716 -0.7460 -1.0248
 4789SOL     OW15265   5.993   1.595   0.914  0.2765 -0.0315  0.3096
 4789SOL    HW115266   5.931   1.656   0.964 -0.7731 -0.4914 -0.3839
 4789SOL    HW215267   6.055   1.550   0.979 -0.8335 -0.3613  1.1795
 4790SOL     OW15268   5.274   6.406   6.687 -0.0053  0.0530 -0.7224
 4790SOL    HW115269   5.335   6.443   6.618  0.6750  0.0481 -0.1408
 4790SOL    HW215270   5.326   6.350   6.751 -0.7751 -0.6984 -0.7315
 4791SOL     OW15271   5.421   0.447   3.938 -0.3854  0.4644 -0.3717
 4791SOL    HW115272   5.368   0.411   4.015 -1.6926  0.7103 -1.1393
 4791SOL    HW215273   5.361   0.497   3.876  0.2927 -1.2435 -2.5289
 4792SOL     OW15274   3.188   2.842   2.059  0.3453 -0.3547  0.1330
 4792SOL    HW115275   3.176   2.918   2.123  1.0370 -0.4136  0.3373
 4792SOL    HW215276   3.126   2.768   2.083 -1.6999  0.8244 -1.1660
 4793SOL     OW15277   6.939   6.453   6.221 -0.2191 -0.1655 -0.0778
 4793SOL    HW115278   6.894   6.382   6.275  0.8711 -2.2542 -1.7564
 4793SOL    HW215279   7.024   6.416   6.183  1.9171  2.9490  1.2751
 4794SOL     OW15280   2.533   6.957   2.299 -0.3272  0.2081  0.5931
 4794SOL    HW115281   2.458   6.923   2.355 -1.5172  1.9252  0.1049
 4794SOL    HW215282   2.596   7.010   2.357 -0.2586 -0.0272  0.7350
 4795SOL     OW15283   6.747   5.442   4.080  0.1486 -0.1243 -0.5748
 4795SOL    HW115284   6.752   5.465   4.177  0.4216  1.5209 -0.9510
 4795SOL    HW215285   6.783   5.349   4.065  0.8803 -0.0749  0.7744
 4796SOL     OW15286   5.122   3.641   1.865  0.1092 -0.3513  0.5187
 4796SOL    HW115287   5.094   3.728   1.824  1.6960  0.4334  1.0406
 4796SOL    HW215288   5.041   3.593   1.899 -0.9416  0.2457 -1.0263
 4797SOL     OW15289   0.095   6.439   4.324  0.3222  0.6305  0.4143
 4797SOL    HW115290   0.164   6.442   4.396  1.4727 -0.4980 -0.5995
 4797SOL    HW215291   0.004   6.430   4.366  1.1480 -3.4107  1.8561
 4798SOL     OW15292   0.737   4.826   4.831 -0.2347 -0.1923 -0.0081
 4798SOL    HW115293   0.828   4.798   4.801 -0.8317 -0.9769 -1.1683
 4798SOL    HW215294   0.744   4.874   4.919  1.4468  1.0833 -0.7784
 4799SOL     OW15295   6.214   2.107   4.828 -0.1936 -0.0988  0.0636
 4799SOL    HW115296   6.196   2.010   4.847  2.6076 -0.8749 -0.8721
 4799SOL    HW215297   6.213   2.158   4.914 -3.0638 -0.6123  0.4502
 4800SOL     OW15298   1.962   0.469   2.624 -0.1347 -1.2560  0.3753
 4800SOL    HW115299   1.901   0.404   2.670 -0.3809 -0.0875  1.7999
 4800SOL    HW215300   2.024   0.509   2.692  1.3463 -1.4394 -0.8170
 4801SOL     OW15301   2.241   1.680   2.093 -0.2675  0.0264 -0.2472
 4801SOL    HW115302   2.312   1.723   2.148 -0.2529  2.0664 -1.7480
 4801SOL    HW215303   2.159   1.739   2.093 -1.5431 -1.6726  0.4518
 4802SOL     OW15304   1.015   0.575   1.390  0.2261  0.0066  0.0223
 4802SOL    HW115305   1.040   0.665   1.352  1.4449 -1.2425 -2.3929
 4802SOL    HW215306   1.079   0.550   1.462  0.9851  0.3538 -0.5122
 4803SOL     OW15307   0.658   1.007   1.088  0.0630  0.0539 -0.1755
 4803SOL    HW115308   0.625   0.938   1.153  3.0967 -1.0306  0.3937
 4803SOL    HW215309   0.651   0.970   0.995  1.2191 -0.9281  0.0891
 4804SOL     OW15310   4.772   3.369   1.118 -0.1615  0.2667 -0.0368
 4804SOL    HW115311   4.696   3.402   1.174 -1.5296 -1.6956 -0.6536
 4804SOL    HW215312   4.835   3.315   1.175 -0.1964  0.3749  0.1046
 4805SOL     OW15313   1.148   2.064   5.910  0.2370 -0.5443 -0.4041
 4805SOL    HW115314   1.196   2.121   5.978 -0.7849  2.9733 -2.3786
 4805SOL    HW215315   1.050   2.067   5.928  0.0632 -0.6322 -1.3060
 4806SOL     OW15316   1.361   3.966   3.957  0.1402 -0.0035 -0.2046
 4806SOL    HW115317   1.406   4.010   3.880  0.5297 -0.5210 -0.2739
 4806SOL    HW215318   1.428   3.915   4.011 -0.2879 -0.4253 -0.0636
 4807SOL     OW15319   0.021   6.098   1.801 -0.2429 -0.0376 -0.2461
 4807SOL    HW115320   0.091   6.038   1.762 -0.3650 -0.2447 -0.1522
 4807SOL    HW215321   0.056   6.191   1.806  0.4366 -0.3374  0.8344
 4808SOL     OW15322   3.293   2.732   1.235 -0.0290 -0.6162 -0.0613
 4808SOL    HW115323   3.347   2.682   1.168 -1.7292 -2.8134  0.1180
 4808SOL    HW215324   3.325   2.710   1.327  1.2361  1.1397 -0.0201
 4809SOL     OW15325   3.443   5.278   6.408 -0.0804  0.0514  0.0640
 4809SOL    HW115326   3.528   5.230   6.429 -0.6657 -0.4615  1.4158
 4809SOL    HW215327   3.435   5.291   6.309  1.2764 -0.4138 -0.1275
 4810SOL     OW15328   1.582   0.231   1.064  0.2580  0.3522  0.2887
 4810SOL    HW115329   1.558   0.192   0.975  0.0422  1.0104  0.0590
 4810SOL    HW215330   1.645   0.169   1.110 -2.0408 -1.5889  1.0383
 4811SOL     OW15331   3.951   5.140   2.040  0.8186 -0.1467  0.3203
 4811SOL    HW115332   3.992   5.200   2.109  0.5485  1.6958 -1.0338
 4811SOL    HW215333   3.989   5.162   1.950 -1.5345  0.1523 -0.6770
 4812SOL     OW15334   5.556   4.794   3.390 -0.2048  0.4918  0.3112
 4812SOL    HW115335   5.470   4.818   3.344 -0.4967  3.1378  1.9601
 4812SOL    HW215336   5.632   4.805   3.326 -1.0001 -1.7015 -1.1193
 4813SOL     OW15337   5.271   1.963   2.871 -0.1391  0.8242  0.3288
 4813SOL    HW115338   5.198   1.995   2.932 -1.2432  0.0922 -0.5644
 4813SOL    HW215339   5.279   1.863   2.880 -0.5988  0.6553 -1.0079
 4814SOL     OW15340   5.430   3.460   2.038 -0.6874  0.1617 -0.2561
 4814SOL    HW115341   5.426   3.366   2.004  0.7294 -0.0214  0.0121
 4814SOL    HW215342   5.339   3.489   2.067 -1.3113 -0.8049 -1.1879
 4815SOL     OW15343   4.813   0.416   2.140 -0.0183 -0.4673 -0.0152
 4815SOL    HW115344   4.874   0.491   2.113  0.2611 -0.6705  0.0481
 4815SOL    HW215345   4.794   0.358   2.060 -2.2743  1.0760 -0.7086
 4816SOL     OW15346   6.529   5.328   2.035  0.5131  0.2681 -0.9668
 4816SOL    HW115347   6.580   5.332   2.120  3.7677  0.1572 -2.7629
 4816SOL    HW215348   6.547   5.240   1.990 -0.9102  0.4387 -1.9360
 4817SOL     OW15349   1.251   1.646   6.415  0.5517 -0.4918 -0.2011
 4817SOL    HW115350   1.304   1.584   6.357 -1.5140 -1.1696 -1.4422
 4817SOL    HW215351   1.213   1.595   6.492  1.5659 -0.0184  0.6479
 4818SOL     OW15352   1.444   5.998   3.713 -0.5879 -0.0513  0.3947
 4818SOL    HW115353   1.477   6.052   3.790 -0.8907  0.2379  0.3214
 4818SOL    HW215354   1.447   5.900   3.737 -2.1035  0.1007  1.3378
 4819SOL     OW15355   0.922   1.975   0.158 -0.1535 -0.2787  0.2594
 4819SOL    HW115356   0.883   2.022   0.238  1.2030 -0.9627  1.3705
 4819SOL    HW215357   0.981   2.039   0.108 -0.5239 -0.0183  0.1510
 4820SOL     OW15358   0.087   2.492   3.026  0.0691 -0.1397 -0.1782
 4820SOL    HW115359   0.006   2.439   3.052  0.7891 -0.4715  1.5531
 4820SOL    HW215360   0.061   2.567   2.967 -2.2872  2.5057  3.7961
 4821SOL     OW15361   6.769   6.034   2.843  0.0917 -0.1834  0.6959
 4821SOL    HW115362   6.826   5.996   2.771 -0.8500 -1.1172  0.4156
 4821SOL    HW215363   6.766   5.971   2.920  0.8772  0.6894  1.4653
 4822SOL     OW15364   1.198   3.752   5.680  0.5205  0.7084  0.3013
 4822SOL    HW115365   1.122   3.767   5.743 -0.4670 -1.1324 -0.3784
 4822SOL    HW215366   1.280   3.729   5.732 -0.0345  0.1847  0.9667
 4823SOL     OW15367   2.134   3.364   2.463  0.3267  0.9628  0.3625
 4823SOL    HW115368   2.037   3.384   2.470 -0.3531 -2.0482  0.7826
 4823SOL    HW215369   2.166   3.384   2.370 -0.6896  1.8816  0.1945
 4824SOL     OW15370   5.894   1.484   6.089 -0.3631 -0.0119  0.4283
 4824SOL    HW115371   5.934   1.393   6.077  1.9602  0.9141  0.6924
 4824SOL    HW215372   5.877   1.501   6.186 -1.5666 -0.4472  0.3062
 4825SOL     OW15373   2.459   5.084   3.113 -0.0230 -0.2614  0.0650
 4825SOL    HW115374   2.540   5.108   3.166 -0.0962  1.1403 -0.4216
 4825SOL    HW215375   2.378   5.088   3.173  0.1581 -0.8956  0.3636
 4826SOL     OW15376   3.801   6.868   1.571 -0.5614 -0.2960  0.9362
 4826SOL    HW115377   3.836   6.845   1.662 -1.0450 -1.7688  0.7787
 4826SOL    HW215378   3.701   6.870   1.574 -0.5481  1.8250  0.9148
 4827SOL     OW15379   6.156   3.208   6.120 -0.3649  0.2407  0.2632
 4827SOL    HW115380   6.182   3.303   6.137 -3.6233  1.3895 -0.4117
 4827SOL    HW215381   6.232   3.159   6.078  1.2868  2.6514  0.2601
 4828SOL     OW15382   5.462   2.999   3.457 -0.1624 -0.2855  0.2622
 4828SOL    HW115383   5.502   2.969   3.543 -1.0379  1.6922  1.4532
 4828SOL    HW215384   5.391   2.934   3.428  1.0196 -1.6356  0.3138
 4829SOL     OW15385   4.113   5.314   5.123  0.5384 -0.4318  0.9449
 4829SOL    HW115386   4.153   5.296   5.033  0.6095 -0.3890  0.9681
 4829SOL    HW215387   4.013   5.321   5.113  0.6277  0.6249  0.6882
 4830SOL     OW15388   1.837   5.861   3.242 -0.1633 -0.0222  0.4663
 4830SOL    HW115389   1.925   5.892   3.280 -0.2960  0.2170  0.5806
 4830SOL    HW215390   1.822   5.905   3.154 -1.1420  1.5955  1.3827
 4831SOL     OW15391   1.530   4.627   6.196  0.0380  0.5820  0.4507
 4831SOL    HW115392   1.521   4.573   6.112 -1.5069 -0.3919  1.2033
 4831SOL    HW215393   1.569   4.570   6.268 -0.9324  0.6870  1.0626
 4832SOL     OW15394   3.445   3.860   4.667  0.1120  0.6560  0.3212
 4832SOL    HW115395   3.447   3.944   4.612 -0.0513  0.5677  0.1812
 4832SOL    HW215396   3.351   3.838   4.692 -0.0144 -0.2893 -0.8802
 4833SOL     OW15397   6.359   3.523   4.435  0.3164  0.5526  0.6361
 4833SOL    HW115398   6.266   3.508   4.402  0.9856  0.7088 -1.5022
 4833SOL    HW215399   6.358   3.594   4.506 -0.9970  2.0177 -0.7551
 4834SOL     OW15400   2.071   6.914   0.412  0.0204  0.4455  0.3408
 4834SOL    HW115401   2.084   6.818   0.387 -0.5230  0.2186  0.8844
 4834SOL    HW215402   2.158   6.962   0.408  0.5887 -0.4299  1.5256
 4835SOL     OW15403   6.762   3.067   6.688 -0.0153  0.0621  0.0424
 4835SOL    HW115404   6.724   3.127   6.758 -2.0101 -0.0781 -0.8427
 4835SOL    HW215405   6.848   3.105   6.654  0.3941  0.7141  1.7400
 4836SOL     OW15406   4.910   0.810   6.260  0.4881 -0.4030  0.0061
 4836SOL    HW115407   4.852   0.886   6.289  0.1728 -0.5120 -0.3277
 4836SOL    HW215408   5.006   0.837   6.264  0.4196 -0.2411  0.6205
 4837SOL     OW15409   0.109   3.932   5.371 -0.2169 -0.4791 -0.3994
 4837SOL    HW115410   0.085   3.948   5.467  2.4345 -0.0462  0.2538
 4837SOL    HW215411   0.063   3.849   5.340 -1.6390 -0.2794  1.0301
 4838SOL     OW15412   2.290   3.025   6.287  0.1162  0.1288 -0.4138
 4838SOL    HW115413   2.224   3.053   6.357  0.5963  0.5510 -0.1174
 4838SOL    HW215414   2.354   3.101   6.270  0.4816 -0.2499 -0.7379
 4839SOL     OW15415   1.929   3.219   2.269  0.0308 -0.3264  0.3863
 4839SOL    HW115416   1.946   3.318   2.272  0.8352 -0.4832  1.2316
 4839SOL    HW215417   2.006   3.173   2.226 -0.2800 -0.6072  0.1262
 4840SOL     OW15418   5.947   4.145   5.434  0.5321 -0.1648 -0.4910
 4840SOL    HW115419   6.038   4.170   5.401  0.3623 -1.2477 -1.8573
 4840SOL    HW215420   5.943   4.047   5.450 -0.0652  0.0329  0.7301
 4841SOL     OW15421   3.950   5.886   3.490 -0.1002 -0.0443 -0.5754
 4841SOL    HW115422   3.889   5.887   3.411 -2.8841  0.9008  1.4101
 4841SOL    HW215423   3.899   5.914   3.571  3.5821  3.2486  0.9018
 4842SOL     OW15424   3.183   5.723   1.988  0.0296  0.1802 -0.2965
 4842SOL    HW115425   3.226   5.710   2.077  0.1816 -0.9058 -0.5130
 4842SOL    HW215426   3.245   5.692   1.916  0.3335  2.0069 -0.8793
 4843SOL     OW15427   0.888   1.965   0.449  0.4477 -0.2733  0.2084
 4843SOL    HW115428   0.922   1.872   0.461 -2.0548 -1.3253 -0.1471
 4843SOL    HW215429   0.866   2.004   0.538  2.9155  0.6228  0.4855
 4844SOL     OW15430   2.253   0.771   4.414  0.2502 -0.4557 -0.3646
 4844SOL    HW115431   2.171   0.753   4.360  0.5710  0.2567 -1.1198
 4844SOL    HW215432   2.325   0.807   4.354  1.3329 -1.6496  0.1494
 4845SOL     OW15433   5.234   4.309   4.472 -0.0652  0.2109 -0.0180
 4845SOL    HW115434   5.281   4.376   4.529 -2.1132  0.3448  1.5868
 4845SOL    HW215435   5.299   4.237   4.446  1.2131  0.7547  1.4841
 4846SOL     OW15436   6.445   4.630   4.396 -0.1427  0.2499 -0.1977
 4846SOL    HW115437   6.392   4.565   4.342  1.1609 -1.2731  0.2935
 4846SOL    HW215438   6.438   4.721   4.354 -3.1837  0.1705 -0.0798
 4847SOL     OW15439   2.540   5.336   6.536 -0.1199 -0.7085  0.4282
 4847SOL    HW115440   2.514   5.428   6.506 -2.3010 -1.0935  0.9384
 4847SOL    HW215441   2.472   5.271   6.502  1.2426 -2.1065  0.3069
 4848SOL     OW15442   4.916   2.213   4.574 -0.1141  0.2834  0.1837
 4848SOL    HW115443   4.924   2.278   4.498 -2.6102  0.6446  0.1568
 4848SOL    HW215444   4.821   2.183   4.582  0.8885 -3.2574  0.3381
 4849SOL     OW15445   3.285   5.403   1.123 -0.2780 -0.7537  0.3066
 4849SOL    HW115446   3.196   5.436   1.092 -0.7927  0.2168  2.6489
 4849SOL    HW215447   3.273   5.318   1.175  0.1903 -0.6868  0.5289
 4850SOL     OW15448   3.272   0.541   1.822 -0.4058  0.1274  0.7137
 4850SOL    HW115449   3.319   0.590   1.895  0.5328  0.4871 -0.1140
 4850SOL    HW215450   3.324   0.459   1.798 -0.8287 -0.1127  0.6042
 4851SOL     OW15451   3.144   4.570   0.096  0.7161 -0.5043 -0.0237
 4851SOL    HW115452   3.102   4.642   0.041  2.3855 -0.0419 -0.7686
 4851SOL    HW215453   3.075   4.526   0.152 -1.0723 -0.9421 -2.4056
 4852SOL     OW15454   5.544   3.935   5.988  0.0667  0.3124 -0.1122
 4852SOL    HW115455   5.569   4.005   6.055  0.5769  1.6630 -1.6236
 4852SOL    HW215456   5.613   3.933   5.915  1.0571 -3.0868  0.7461
 4853SOL     OW15457   4.775   2.017   2.741  0.1883  0.0012  0.3099
 4853SOL    HW115458   4.838   2.068   2.799  0.0752 -0.5006  0.8913
 4853SOL    HW215459   4.695   2.074   2.720  0.7619  0.5927 -0.3250
 4854SOL     OW15460   4.828   7.019   1.434 -0.1836 -0.2360  0.2548
 4854SOL    HW115461   4.885   6.972   1.501 -1.0190 -0.4981  0.8003
 4854SOL    HW215462   4.884   7.085   1.383  0.8219 -1.1946  0.0637
 4855SOL     OW15463   6.629   4.680   0.388  0.7471 -0.0555 -0.3140
 4855SOL    HW115464   6.695   4.620   0.342  2.1651  0.6670  0.7225
 4855SOL    HW215465   6.650   4.684   0.485 -0.6590  0.4411 -0.0125
 4856SOL     OW15466   2.069   5.656   4.820 -0.1575 -0.3335  0.3848
 4856SOL    HW115467   2.144   5.621   4.764  0.9530  0.8055  1.1232
 4856SOL    HW215468   2.104   5.722   4.886 -1.8986  0.6930  0.3391
 4857SOL     OW15469   1.911   4.827   5.311 -0.0150  0.8280  0.0717
 4857SOL    HW115470   1.924   4.729   5.319  0.7307  0.9316  0.1928
 4857SOL    HW215471   1.903   4.867   5.402 -2.7487  0.5893  0.0033
 4858SOL     OW15472   6.993   6.510   5.850  0.5307  0.7035 -0.0636
 4858SOL    HW115473   6.957   6.599   5.877  1.0370  0.9988 -0.3475
 4858SOL    HW215474   7.070   6.486   5.910 -0.9864 -0.5596  1.4466
 4859SOL     OW15475   0.835   6.083   1.068 -0.6910  0.2245  0.2275
 4859SOL    HW115476   0.882   6.140   1.136  0.3931  0.4383 -0.6569
 4859SOL    HW215477   0.857   5.987   1.085 -0.5311  0.2671  0.2679
 4860SOL     OW15478   4.722   5.325   0.304  0.1504  0.3286 -0.2025
 4860SOL    HW115479   4.767   5.348   0.219  0.1018 -0.2347 -0.3851
 4860SOL    HW215480   4.665   5.244   0.291  0.4066  0.0323  0.4442
 4861SOL     OW15481   1.665   4.961   5.956 -0.3923 -0.3060  0.4322
 4861SOL    HW115482   1.591   4.906   5.918  0.6804 -0.8899 -0.9116
 4861SOL    HW215483   1.721   4.903   6.016  0.7101 -0.7321 -0.9463
 4862SOL     OW15484   1.571   6.216   4.786  0.4441 -0.4645 -0.2721
 4862SOL    HW115485   1.477   6.234   4.814  0.0721  0.1972 -1.8572
 4862SOL    HW215486   1.623   6.301   4.789  1.1187 -0.8944  0.9564
 4863SOL     OW15487   3.895   1.129   3.394  0.1826  0.4587 -0.3487
 4863SOL    HW115488   3.904   1.033   3.370  0.8855  0.6817 -1.0338
 4863SOL    HW215489   3.846   1.138   3.481  0.3031 -0.5176 -0.1731
 4864SOL     OW15490   3.195   1.412   0.559 -0.0589  0.1454  0.5549
 4864SOL    HW115491   3.240   1.352   0.492  0.3281 -0.2007  1.1236
 4864SOL    HW215492   3.169   1.497   0.513 -1.2634 -0.7170 -0.4420
 4865SOL     OW15493   3.486   4.945   4.585 -0.1556 -0.2836 -0.2627
 4865SOL    HW115494   3.470   4.885   4.663 -0.2685  0.2668  0.1400
 4865SOL    HW215495   3.413   5.013   4.579 -0.5524 -0.7737 -1.2897
 4866SOL     OW15496   6.228   4.821   2.424  0.4274 -0.1442  0.6362
 4866SOL    HW115497   6.282   4.737   2.428  1.4193  0.4975  0.9387
 4866SOL    HW215498   6.213   4.856   2.516 -0.6132 -0.3636  0.5678
 4867SOL     OW15499   4.147   6.227   3.705  0.2599 -0.1837  0.4023
 4867SOL    HW115500   4.202   6.194   3.781  1.4425  1.6604  0.4121
 4867SOL    HW215501   4.099   6.311   3.733 -1.1235 -0.7429 -0.1901
 4868SOL     OW15502   1.689   6.252   2.735 -0.0861  0.1664  0.3424
 4868SOL    HW115503   1.701   6.274   2.638 -2.1568  0.7216  0.1633
 4868SOL    HW215504   1.646   6.162   2.743 -1.5197  0.8452  0.6331
 4869SOL     OW15505   6.398   2.272   2.092  0.3661 -0.2111  0.4402
 4869SOL    HW115506   6.396   2.313   2.001  1.7558 -0.9437  0.0594
 4869SOL    HW215507   6.305   2.247   2.119 -0.0759  0.1339 -0.7113
 4870SOL     OW15508   6.094   5.841   6.408  0.0155 -0.4135 -0.1639
 4870SOL    HW115509   6.052   5.809   6.494  2.5621 -1.5679  0.7535
 4870SOL    HW215510   6.088   5.769   6.339  2.5107 -1.5948  0.7487
 4871SOL     OW15511   1.119   3.404   4.567 -0.7457  0.5052 -0.2857
 4871SOL    HW115512   1.127   3.366   4.659 -0.5649  0.9960 -0.0973
 4871SOL    HW215513   1.209   3.411   4.525 -0.6630  1.5822  0.0362
 4872SOL     OW15514   0.870   0.472   3.393 -0.4039  0.5397  0.3880
 4872SOL    HW115515   0.794   0.445   3.334  1.0714 -1.5387 -0.7338
 4872SOL    HW215516   0.916   0.390   3.427  1.8115  1.6906  0.3478
 4873SOL     OW15517   1.234   5.858   5.733 -0.4039  0.2570  0.0196
 4873SOL    HW115518   1.283   5.776   5.703 -0.6778  0.4255 -0.8987
 4873SOL    HW215519   1.200   5.908   5.654 -1.8816  0.2619  0.6239
 4874SOL     OW15520   5.888   4.391   4.139  0.0374  0.4419 -0.3424
 4874SOL    HW115521   5.911   4.302   4.177 -0.1218  0.0705 -1.0985
 4874SOL    HW215522   5.956   4.459   4.167 -0.8117  0.4979  1.7352
 4875SOL     OW15523   0.285   2.601   5.575 -0.3501  0.2430 -0.3277
 4875SOL    HW115524   0.230   2.678   5.545  0.6666  0.9522 -0.4171
 4875SOL    HW215525   0.379   2.631   5.591 -0.3884 -0.5175  1.6706
 4876SOL     OW15526   6.455   3.111   6.961 -0.4667 -0.0758  0.3008
 4876SOL    HW115527   6.462   3.025   6.911  1.1188 -0.9797  1.9426
 4876SOL    HW215528   6.468   3.094   7.059 -2.0175  1.7997  0.8995
 4877SOL     OW15529   6.449   1.901   0.255 -0.1865  0.2124 -0.1166
 4877SOL    HW115530   6.515   1.976   0.257 -2.1590  2.0619 -0.9230
 4877SOL    HW215531   6.418   1.881   0.348  1.1721 -0.4215  0.2238
 4878SOL     OW15532   6.979   2.944   1.758  0.5679 -0.0748  0.8367
 4878SOL    HW115533   7.059   3.001   1.775  1.3705 -1.2336  1.1504
 4878SOL    HW215534   6.927   2.933   1.844  0.9451 -0.5657  1.0103
 4879SOL     OW15535   6.093   4.649   2.735  0.0730 -0.1142 -0.1715
 4879SOL    HW115536   6.065   4.555   2.755 -0.5975  0.1758  0.2829
 4879SOL    HW215537   6.128   4.692   2.819  0.3650  0.0456 -0.3742
 4880SOL     OW15538   5.285   2.121   6.147  0.1537  0.1433  0.0462
 4880SOL    HW115539   5.371   2.075   6.168  1.1374  1.2563 -1.3356
 4880SOL    HW215540   5.248   2.085   6.062 -1.0711 -0.7255  0.9244
 4881SOL     OW15541   2.804   5.109   0.511 -0.1009  0.3210 -0.6482
 4881SOL    HW115542   2.741   5.185   0.494 -0.2422 -0.1430 -2.4472
 4881SOL    HW215543   2.751   5.025   0.528  0.0433  0.2892 -0.3558
 4882SOL     OW15544   5.820   0.360   5.262  0.6031  0.4492  0.1734
 4882SOL    HW115545   5.752   0.433   5.255  1.9166  1.6780 -0.3218
 4882SOL    HW215546   5.794   0.283   5.204 -0.6456  0.6510  0.4481
 4883SOL     OW15547   0.178   5.198   1.319 -0.1462 -0.1934 -0.6200
 4883SOL    HW115548   0.179   5.112   1.268  0.5423 -0.9015  0.5364
 4883SOL    HW215549   0.241   5.192   1.396  0.5441  1.6650 -0.9907
 4884SOL     OW15550   4.172   5.512   1.280  0.6943 -0.2281 -0.3323
 4884SOL    HW115551   4.180   5.413   1.270  1.2048 -0.1388 -0.8954
 4884SOL    HW215552   4.138   5.534   1.372 -0.6588 -0.9594 -0.6374
 4885SOL     OW15553   2.692   0.509   2.307 -0.1108 -0.5866  0.0843
 4885SOL    HW115554   2.661   0.503   2.213  1.3246 -0.7539 -0.4013
 4885SOL    HW215555   2.642   0.443   2.363 -1.7868  0.3148 -0.3071
 4886SOL     OW15556   0.453   0.910   5.115 -0.2539  0.2491  0.0271
 4886SOL    HW115557   0.537   0.873   5.155 -0.6143 -0.2968  0.2940
 4886SOL    HW215558   0.444   0.877   5.020 -1.6056 -2.1293  0.8837
 4887SOL     OW15559   0.728   2.323   5.947  0.3556 -0.5502  0.6606
 4887SOL    HW115560   0.639   2.316   5.901  0.7112 -1.7748  0.1164
 4887SOL    HW215561   0.717   2.372   6.033 -0.3561  1.7534 -0.6444
 4888SOL     OW15562   2.762   4.687   6.916  0.1693 -0.4407 -0.0415
 4888SOL    HW115563   2.787   4.659   7.009 -0.1585  0.8075  0.4378
 4888SOL    HW215564   2.695   4.622   6.879  0.1687 -0.8487  0.6530
 4889SOL     OW15565   1.707   2.586   0.394 -0.6231 -0.1560 -0.3243
 4889SOL    HW115566   1.698   2.555   0.300 -1.3749 -0.5339 -0.1346
 4889SOL    HW215567   1.702   2.686   0.397 -1.2128 -0.1787 -0.6195
 4890SOL     OW15568   0.434   0.993   5.702 -0.0732  0.5339 -1.1280
 4890SOL    HW115569   0.499   1.060   5.736  0.9623 -1.4286  1.0431
 4890SOL    HW215570   0.387   1.030   5.622  1.7479  3.0609 -1.1539
 4891SOL     OW15571   0.986   4.217   1.708 -0.2181  0.3260  0.4509
 4891SOL    HW115572   0.927   4.136   1.707 -0.4551  0.4732  1.3332
 4891SOL    HW215573   1.070   4.196   1.757 -0.2976  0.6195  0.7204
 4892SOL     OW15574   1.777   4.085   3.545  0.2372 -0.5389 -0.0612
 4892SOL    HW115575   1.822   4.174   3.545  1.3765 -1.1038 -0.4423
 4892SOL    HW215576   1.678   4.098   3.531  0.5055  0.6007 -1.0936
 4893SOL     OW15577   1.453   3.815   4.810  0.2967  0.2645  0.0468
 4893SOL    HW115578   1.367   3.866   4.804  0.0305  0.1689  2.3546
 4893SOL    HW215579   1.462   3.775   4.901  2.5674 -0.1395 -0.3003
 4894SOL     OW15580   0.784   1.132   3.426  0.0625  0.7137  0.1368
 4894SOL    HW115581   0.841   1.203   3.467  0.6583 -0.1782  0.8877
 4894SOL    HW215582   0.825   1.103   3.339  0.4700  0.4491  0.4152
 4895SOL     OW15583   6.278   0.129   0.714 -0.0394  0.9443  0.3464
 4895SOL    HW115584   6.247   0.130   0.619 -0.3475 -0.1162  0.4338
 4895SOL    HW215585   6.366   0.081   0.720  0.2776  1.5247  0.5224
 4896SOL     OW15586   6.642   6.058   3.375 -0.0710 -0.3592 -0.0788
 4896SOL    HW115587   6.720   6.019   3.326 -0.6113 -1.6417  0.0631
 4896SOL    HW215588   6.670   6.145   3.416  0.9466 -0.2254 -0.9907
 4897SOL     OW15589   3.172   6.211   5.543  0.0948  0.4690 -0.1498
 4897SOL    HW115590   3.085   6.210   5.494  0.1185 -0.8607 -0.2207
 4897SOL    HW215591   3.156   6.222   5.641 -0.1767  0.1145 -0.1498
 4898SOL     OW15592   5.397   1.768   6.924  0.0283 -0.5282 -0.3238
 4898SOL    HW115593   5.401   1.806   6.832  1.3809 -0.5504 -0.2977
 4898SOL    HW215594   5.490   1.758   6.960 -0.5161  1.8766  2.0436
 4899SOL     OW15595   3.970   5.070   3.948 -0.4474 -0.2116  0.0254
 4899SOL    HW115596   3.960   5.103   3.854  0.9485 -0.4292 -0.2135
 4899SOL    HW215597   4.059   5.026   3.959 -0.4101  0.2104  1.5787
 4900SOL     OW15598   5.551   6.335   5.073 -0.3305  0.2760  0.4591
 4900SOL    HW115599   5.596   6.408   5.022 -1.1230  0.3994 -0.0789
 4900SOL    HW215600   5.549   6.359   5.170  1.8645 -0.3099  0.7046
 4901SOL     OW15601   1.957   5.324   3.907  0.4401 -0.3133 -0.1234
 4901SOL    HW115602   2.035   5.328   3.970  0.2347 -0.6568  0.1564
 4901SOL    HW215603   1.982   5.270   3.827  0.6252 -0.0713 -0.2311
 4902SOL     OW15604   3.860   4.901   2.072  0.3857 -0.5161  0.2424
 4902SOL    HW115605   3.767   4.876   2.045  0.0439 -0.2778  1.1550
 4902SOL    HW215606   3.873   5.000   2.062  0.6279 -0.5823 -0.1246
 4903SOL     OW15607   4.461   6.858   4.180  0.3738 -0.1699  0.6041
 4903SOL    HW115608   4.482   6.876   4.084 -0.4091 -0.1482  0.4263
 4903SOL    HW215609   4.366   6.885   4.199  0.2392 -1.0073  1.1675
 4904SOL     OW15610   4.671   6.916   3.649 -0.2940 -0.5971  0.2995
 4904SOL    HW115611   4.664   6.999   3.594  3.2378  0.4462  1.1614
 4904SOL    HW215612   4.741   6.856   3.611 -0.0582 -1.3543  1.8394
 4905SOL     OW15613   0.549   1.786   3.691 -0.0181  0.2021  0.3415
 4905SOL    HW115614   0.471   1.841   3.661  0.0626 -0.3496 -0.9391
 4905SOL    HW215615   0.523   1.690   3.694  1.0736 -0.2189 -1.8944
 4906SOL     OW15616   4.950   1.249   3.155 -0.3857  0.1899 -0.5066
 4906SOL    HW115617   4.954   1.345   3.127 -1.2951  0.4745  0.2949
 4906SOL    HW215618   4.959   1.243   3.254  0.3013 -0.6159 -0.6040
 4907SOL     OW15619   2.166   2.371   2.943  0.0057  0.0298 -0.3840
 4907SOL    HW115620   2.085   2.348   2.888 -2.4041  2.1120  2.0192
 4907SOL    HW215621   2.191   2.466   2.926 -0.0935  0.3669  1.2461
 4908SOL     OW15622   4.022   2.706   0.584  0.4535  0.1388  0.4796
 4908SOL    HW115623   3.949   2.756   0.539  1.1674 -0.6939 -1.7548
 4908SOL    HW215624   4.010   2.711   0.684 -1.5932  1.4873  0.2255
 4909SOL     OW15625   4.153   6.262   6.797 -0.1242  0.0936  0.4668
 4909SOL    HW115626   4.090   6.336   6.774  0.4421  0.5588  0.4133
 4909SOL    HW215627   4.215   6.292   6.869  1.6913  0.5118 -1.1999
 4910SOL     OW15628   6.276   1.541   6.241 -0.0079 -0.4677 -0.0727
 4910SOL    HW115629   6.299   1.526   6.144  1.9789 -0.7416  0.3957
 4910SOL    HW215630   6.274   1.453   6.289  0.8077 -0.1972  0.4806
 4911SOL     OW15631   0.101   3.209   5.886 -0.3522  0.2618 -0.4785
 4911SOL    HW115632   0.119   3.126   5.834 -0.6600  0.1006 -0.3245
 4911SOL    HW215633   0.003   3.229   5.884 -0.3562  0.2895 -0.0105
 4912SOL     OW15634   0.748   3.821   3.133  0.4812  0.6533 -0.0137
 4912SOL    HW115635   0.820   3.751   3.128  1.1238  1.3434 -0.6938
 4912SOL    HW215636   0.746   3.872   3.047  0.8099  2.2334  0.8827
 4913SOL     OW15637   3.173   4.071   2.102 -0.6172  0.5543 -0.4031
 4913SOL    HW115638   3.254   4.129   2.101  0.1830 -0.4504  1.2088
 4913SOL    HW215639   3.150   4.046   2.196 -0.1173 -2.7624 -1.0227
 4914SOL     OW15640   2.291   6.938   0.716  0.1120 -0.3192 -0.1594
 4914SOL    HW115641   2.341   7.025   0.720  0.0551 -0.3230  0.8963
 4914SOL    HW215642   2.234   6.936   0.634 -3.2182  2.5055  1.8389
 4915SOL     OW15643   1.321   6.114   3.229  0.5805 -0.2315 -0.0912
 4915SOL    HW115644   1.288   6.071   3.145 -0.0438 -0.4547  0.2614
 4915SOL    HW215645   1.309   6.051   3.306  1.0889 -0.0073  0.1780
 4916SOL     OW15646   0.442   0.983   1.395 -0.2055 -0.2591 -0.3859
 4916SOL    HW115647   0.413   1.002   1.301  1.1506 -0.5676 -0.8902
 4916SOL    HW215648   0.474   0.889   1.402  1.3481  0.2593 -0.0657
 4917SOL     OW15649   1.144   3.309   6.759  0.0245  0.1839 -0.4764
 4917SOL    HW115650   1.120   3.381   6.693  1.6259  0.2898 -0.9707
 4917SOL    HW215651   1.138   3.220   6.715 -3.3966 -0.2358  0.5129
 4918SOL     OW15652   4.107   0.490   4.017  0.6754 -0.1913  0.3358
 4918SOL    HW115653   4.054   0.467   4.099  1.1457  1.0367  1.0072
 4918SOL    HW215654   4.147   0.407   3.979  0.9809 -0.7048  1.7280
 4919SOL     OW15655   2.152   3.577   2.654  0.0223 -0.0720 -0.2984
 4919SOL    HW115656   2.097   3.494   2.661 -1.0934  0.5542 -1.1283
 4919SOL    HW215657   2.245   3.554   2.628  0.1461 -1.1583  0.9867
 4920SOL     OW15658   3.113   1.162   5.697  0.1497 -0.8347 -1.1855
 4920SOL    HW115659   3.122   1.135   5.601  2.1476 -0.6416 -1.0992
 4920SOL    HW215660   3.170   1.103   5.754  0.5064  0.2563 -0.3726
 4921SOL     OW15661   1.799   4.049   1.339 -0.0090 -0.1875  0.0347
 4921SOL    HW115662   1.775   4.138   1.377 -2.5126 -1.1890  0.9840
 4921SOL    HW215663   1.824   3.987   1.414 -0.1092 -0.7943 -0.4286
 4922SOL     OW15664   0.200   1.272   5.149  0.1409 -0.1854  0.4103
 4922SOL    HW115665   0.132   1.331   5.192  0.6776 -0.6577  1.9982
 4922SOL    HW215666   0.287   1.321   5.140 -0.3253  0.3781 -1.5049
 4923SOL     OW15667   4.038   3.135   0.504 -0.2873 -0.6338  0.0441
 4923SOL    HW115668   3.972   3.093   0.566 -2.5716 -0.9190 -2.4098
 4923SOL    HW215669   4.020   3.105   0.410  2.7243  0.1269 -0.8987
 4924SOL     OW15670   6.528   4.830   3.444 -0.2927  0.1556 -0.1703
 4924SOL    HW115671   6.620   4.805   3.474 -0.1965 -1.3071 -1.5168
 4924SOL    HW215672   6.533   4.912   3.386 -0.2644  1.8769  2.1192
 4925SOL     OW15673   4.314   6.011   0.028 -0.3052 -0.1741  0.3328
 4925SOL    HW115674   4.299   6.107   0.050  0.2851  0.1549 -0.6173
 4925SOL    HW215675   4.250   5.983  -0.044 -0.0542 -0.3084  0.1582
 4926SOL     OW15676   3.520   1.925   0.140 -0.3153  0.1866  0.1806
 4926SOL    HW115677   3.546   1.838   0.097  0.4482 -0.0182  1.0285
 4926SOL    HW215678   3.480   1.907   0.230 -1.6968  0.6242 -0.3215
 4927SOL     OW15679   4.165   3.604   2.508 -0.4462  0.4053  0.2090
 4927SOL    HW115680   4.130   3.692   2.538 -0.1839  0.6116 -0.0866
 4927SOL    HW215681   4.181   3.607   2.409 -2.0226 -0.4856 -0.1165
 4928SOL     OW15682   2.133   5.858   0.586 -0.2538 -0.0715 -0.4246
 4928SOL    HW115683   2.043   5.871   0.543 -0.8527 -1.1232  0.4626
 4928SOL    HW215684   2.179   5.946   0.592 -1.8619  0.7595  0.4939
 4929SOL     OW15685   6.306   5.852   4.746 -0.6487 -0.0330 -0.2211
 4929SOL    HW115686   6.230   5.793   4.718 -1.1313  0.3599  0.2546
 4929SOL    HW215687   6.388   5.828   4.692 -0.8476 -1.1000 -0.0797
 4930SOL     OW15688   0.014   3.526   1.451  0.6281  0.2940  0.2666
 4930SOL    HW115689  -0.054   3.453   1.447  1.0819 -0.1037 -2.7996
 4930SOL    HW215690  -0.016   3.603   1.395  3.3267 -0.6484 -2.8114
 4931SOL     OW15691   0.166   5.964   1.150 -0.1214  0.3863  0.4920
 4931SOL    HW115692   0.183   5.900   1.075 -0.2506  2.1240 -1.0932
 4931SOL    HW215693   0.174   5.916   1.237 -2.0937 -2.2334 -0.6292
 4932SOL     OW15694   3.696   1.199   0.900 -0.1032  0.6495 -0.0268
 4932SOL    HW115695   3.612   1.190   0.847 -0.3584  0.7851  0.3499
 4932SOL    HW215696   3.683   1.268   0.971 -0.2361 -0.5165  1.1229
 4933SOL     OW15697   3.002   0.727   6.098 -0.3908 -0.6967  0.1644
 4933SOL    HW115698   2.903   0.721   6.085 -0.4140 -2.3610  0.8295
 4933SOL    HW215699   3.032   0.653   6.159  1.0896  0.5700  1.0389
 4934SOL     OW15700   1.239   6.542   5.225 -0.5434 -0.2669 -0.1230
 4934SOL    HW115701   1.299   6.464   5.238 -0.4227 -0.0689  0.5429
 4934SOL    HW215702   1.292   6.619   5.189 -0.0506  0.3617  1.7972
 4935SOL     OW15703   2.609   1.259   0.200 -0.1961  0.1597 -0.0191
 4935SOL    HW115704   2.555   1.341   0.220  0.1148  0.1921  0.7447
 4935SOL    HW215705   2.622   1.250   0.101 -0.6688  0.7457 -0.1382
 4936SOL     OW15706   3.178   5.842   3.190 -0.3282 -0.1877 -0.3515
 4936SOL    HW115707   3.238   5.916   3.160 -1.6069  1.0037 -0.0462
 4936SOL    HW215708   3.142   5.862   3.281 -1.9729 -0.3493 -0.9253
 4937SOL     OW15709   0.028   2.296   5.963  0.4805  0.3571  0.1458
 4937SOL    HW115710   0.103   2.230   5.972  0.1386  0.1564  2.1709
 4937SOL    HW215711  -0.032   2.268   5.889  0.9172 -1.0411  0.2783
 4938SOL     OW15712   3.679   5.297   1.984 -0.6194 -0.0300 -0.1048
 4938SOL    HW115713   3.703   5.202   1.967 -0.4528  0.0579 -0.3785
 4938SOL    HW215714   3.728   5.356   1.919 -0.9039  0.2222 -0.0963
 4939SOL     OW15715   5.602   1.409   2.347 -0.1385 -0.5986  0.1697
 4939SOL    HW115716   5.663   1.430   2.423 -0.5736 -3.2874  1.3928
 4939SOL    HW215717   5.525   1.473   2.347  0.5921  0.3197  1.1056
 4940SOL     OW15718   1.309   1.885   4.647  0.3464 -0.1023  0.4441
 4940SOL    HW115719   1.387   1.830   4.616 -0.1131 -0.6852  0.3144
 4940SOL    HW215720   1.323   1.909   4.743  1.2267  0.7585  0.1202
 4941SOL     OW15721   3.399   3.276   3.941 -0.1850 -0.4448  0.1107
 4941SOL    HW115722   3.358   3.362   3.970  0.6835  0.1177 -0.2565
 4941SOL    HW215723   3.474   3.252   4.003  3.1152  1.8743 -2.5777
 4942SOL     OW15724   0.407   1.052   1.965 -0.1137  0.1931 -0.0054
 4942SOL    HW115725   0.386   0.954   1.962  0.8589 -0.0072 -0.4893
 4942SOL    HW215726   0.490   1.067   2.018  2.0922  0.3055 -3.2537
 4943SOL     OW15727   4.546   1.717   6.587 -0.2073  0.8680 -0.1839
 4943SOL    HW115728   4.454   1.683   6.607  0.3984  0.1569  1.5199
 4943SOL    HW215729   4.612   1.643   6.595  0.8269  1.8707  1.1429
 4944SOL     OW15730   6.147   5.503   6.136 -0.0546  0.3448  0.1333
 4944SOL    HW115731   6.051   5.486   6.114 -0.0773 -0.2322  0.6526
 4944SOL    HW215732   6.203   5.430   6.096  0.0401  0.0316  0.8233
 4945SOL     OW15733   1.336   6.768   5.131 -0.2765  0.0558  0.6219
 4945SOL    HW115734   1.295   6.854   5.160  0.2292  0.3518  0.4703
 4945SOL    HW215735   1.430   6.784   5.101  0.5458 -0.8718  2.5360
 4946SOL     OW15736   2.396   5.335   6.795  0.5699  0.0198 -0.2250
 4946SOL    HW115737   2.447   5.382   6.867 -2.2941  2.3310  0.4930
 4946SOL    HW215738   2.445   5.345   6.708  2.2945  0.3491  0.7364
 4947SOL     OW15739   1.746   0.552   6.079  0.2405 -0.0069 -0.3543
 4947SOL    HW115740   1.711   0.599   6.160 -2.0581  0.2680 -1.4380
 4947SOL    HW215741   1.716   0.600   5.996  0.4243 -1.6559 -1.4266
 4948SOL     OW15742   2.393   2.213   2.917 -0.4642 -0.1659  0.0915
 4948SOL    HW115743   2.477   2.247   2.960 -0.0052 -1.3982  0.2186
 4948SOL    HW215744   2.324   2.284   2.919  0.3329  0.6228  0.6841
 4949SOL     OW15745   0.526   5.113   6.260  0.3958 -0.4029  0.5623
 4949SOL    HW115746   0.614   5.082   6.295 -0.1438  1.1289  3.5844
 4949SOL    HW215747   0.469   5.146   6.335 -2.9980 -1.7202 -1.1907
 4950SOL     OW15748   3.475   5.828   5.694 -0.1736 -0.3568  0.4379
 4950SOL    HW115749   3.546   5.865   5.635 -0.5631 -0.3922 -0.0679
 4950SOL    HW215750   3.418   5.902   5.729 -0.3006 -0.3801  0.2860
 4951SOL     OW15751   4.143   4.913   2.008 -0.3545  0.3098 -0.2595
 4951SOL    HW115752   4.043   4.908   2.015 -0.5596  0.8298 -2.3710
 4951SOL    HW215753   4.174   4.859   1.930  1.0466  0.1427  0.3776
 4952SOL     OW15754   0.793   0.149   5.365  0.0412  0.6935 -0.6624
 4952SOL    HW115755   0.794   0.104   5.455  0.4924  1.2628 -0.3725
 4952SOL    HW215756   0.825   0.243   5.375  0.7671  0.5498 -1.5358
 4953SOL     OW15757   2.030   0.689   3.674 -0.0531 -0.0914 -0.0339
 4953SOL    HW115758   2.098   0.619   3.698 -0.0573 -0.3009 -0.6247
 4953SOL    HW215759   2.019   0.752   3.751  1.2085  0.2622 -0.1194
 4954SOL     OW15760   4.122   3.456   3.914  0.2164 -0.5296 -0.4361
 4954SOL    HW115761   4.128   3.452   3.815 -1.0704 -0.9863 -0.5092
 4954SOL    HW215762   4.073   3.375   3.948 -0.0615  0.0187  0.5007
 4955SOL     OW15763   2.909   5.397   5.372  0.0290 -0.4518 -0.6100
 4955SOL    HW115764   2.875   5.324   5.313  0.6352  0.3467 -1.9976
 4955SOL    HW215765   2.996   5.369   5.413  1.5440  0.3219 -3.0601
 4956SOL     OW15766   3.248   6.390   6.258  0.0918 -0.7137 -0.2727
 4956SOL    HW115767   3.226   6.487   6.244  1.5284 -0.4206 -0.6853
 4956SOL    HW215768   3.165   6.341   6.286 -1.2258  0.1762 -2.3056
 4957SOL     OW15769   5.782   5.773   2.064  0.1621 -0.0029 -0.3095
 4957SOL    HW115770   5.826   5.764   1.975 -1.9968  0.7208 -1.5179
 4957SOL    HW215771   5.720   5.696   2.079  0.3105  0.0153  0.4720
 4958SOL     OW15772   2.942   4.425   1.194 -0.0583 -0.0909  0.1772
 4958SOL    HW115773   2.843   4.417   1.182  0.0734 -0.8024 -0.4992
 4958SOL    HW215774   2.967   4.522   1.203 -0.6561  0.2068 -1.1352
 4959SOL     OW15775   5.056   2.806   4.536 -0.0483 -0.1229  0.4914
 4959SOL    HW115776   4.969   2.798   4.583 -0.0652 -0.7910  0.3514
 4959SOL    HW215777   5.059   2.893   4.485 -0.5100  0.0319  0.7319
 4960SOL     OW15778   5.730   5.211   4.514 -0.5275 -0.5497  0.2600
 4960SOL    HW115779   5.796   5.262   4.569 -1.6095  0.1408  0.9625
 4960SOL    HW215780   5.681   5.147   4.573 -0.8716 -0.6559 -0.1418
 4961SOL     OW15781   1.326   2.282   0.821 -0.6876 -0.2835 -0.4370
 4961SOL    HW115782   1.371   2.280   0.910  1.1191  2.2464 -1.1977
 4961SOL    HW215783   1.342   2.195   0.774  2.3441  0.0147 -0.1105
 4962SOL     OW15784   0.379   4.247   1.988 -0.2570  0.0562 -0.2767
 4962SOL    HW115785   0.336   4.253   1.898  0.9280  0.6220 -0.8234
 4962SOL    HW215786   0.445   4.173   1.989  0.7729  0.9475 -0.3439
 4963SOL     OW15787   5.982   2.297   5.227 -0.0650 -0.0707  0.4008
 4963SOL    HW115788   5.985   2.242   5.310  0.1775  1.0834  1.1869
 4963SOL    HW215789   5.888   2.325   5.209 -0.6868 -3.0582 -1.6310
 4964SOL     OW15790   3.123   5.525   5.796 -0.0118  0.0100 -0.1116
 4964SOL    HW115791   3.144   5.615   5.759  1.7105 -0.4816 -0.3848
 4964SOL    HW215792   3.130   5.456   5.725 -0.6991 -0.4383  0.2379
 4965SOL     OW15793   2.697   6.549   2.999  0.1588 -0.0574  0.0489
 4965SOL    HW115794   2.738   6.507   3.081 -0.0548  0.3452  0.3627
 4965SOL    HW215795   2.698   6.648   3.009 -0.6736 -0.0399 -0.0524
 4966SOL     OW15796   3.702   6.032   2.767 -0.1039 -0.1385  0.0327
 4966SOL    HW115797   3.664   6.124   2.763 -0.3188 -0.2520 -0.9180
 4966SOL    HW215798   3.649   5.976   2.829  0.9940  0.7929  1.8942
 4967SOL     OW15799   4.072   4.812   4.375  0.1089  0.0574  0.4435
 4967SOL    HW115800   4.124   4.784   4.294 -0.3862  0.5214 -0.0351
 4967SOL    HW215801   4.113   4.770   4.456  0.0160 -1.2129 -0.1446
 4968SOL     OW15802   6.048   1.539   3.969 -0.1230  0.1246  0.2214
 4968SOL    HW115803   6.066   1.593   3.887  1.2031  0.0775  0.4469
 4968SOL    HW215804   6.032   1.600   4.046  1.7457  0.2668  0.5550
 4969SOL     OW15805   6.960   4.565   4.786  0.5570  0.2964 -0.2922
 4969SOL    HW115806   7.018   4.532   4.861 -0.2544  2.6416  1.4949
 4969SOL    HW215807   6.972   4.663   4.775  0.6886  0.0417 -3.3795
 4970SOL     OW15808   1.481   2.703   1.273  0.4613  0.0164  0.0950
 4970SOL    HW115809   1.439   2.612   1.280  0.2435  0.0133 -1.0654
 4970SOL    HW215810   1.415   2.771   1.304 -0.5496  0.0300 -1.9283
 4971SOL     OW15811   5.732   4.937   2.515 -0.5885  0.1195  0.0389
 4971SOL    HW115812   5.820   4.976   2.488  0.4367 -1.2595  1.2232
 4971SOL    HW215813   5.713   4.856   2.459 -0.3615 -0.4505  0.7758
 4972SOL     OW15814   0.862   2.749   1.553  0.1624 -0.2498 -0.2549
 4972SOL    HW115815   0.849   2.846   1.533 -0.4598 -0.2668  0.0520
 4972SOL    HW215816   0.874   2.699   1.467 -0.9352 -0.1015 -0.4996
 4973SOL     OW15817   0.150   0.614   2.165 -0.4288 -0.7775 -0.0259
 4973SOL    HW115818   0.162   0.547   2.091 -0.9738 -1.4027  0.4470
 4973SOL    HW215819   0.235   0.621   2.217 -0.2940 -0.9332 -0.2214
 4974SOL     OW15820   2.775   0.094   2.490 -0.1195  0.3582  0.2966
 4974SOL    HW115821   2.816   0.066   2.404 -1.2894  1.1821 -0.5673
 4974SOL    HW215822   2.841   0.083   2.564  0.9167 -0.3351 -0.7012
 4975SOL     OW15823   5.184   4.909   0.169 -0.2259  0.2781  0.3557
 4975SOL    HW115824   5.198   4.967   0.089 -2.6555  2.0001  1.0807
 4975SOL    HW215825   5.268   4.904   0.222  1.6092 -1.2794 -2.4190
 4976SOL     OW15826   2.995   1.746   3.334  0.1422  0.5627  0.1919
 4976SOL    HW115827   3.078   1.745   3.278 -0.7333 -2.4483 -1.2792
 4976SOL    HW215828   2.915   1.745   3.273 -0.9149  0.2842  1.5503
 4977SOL     OW15829   0.593   3.641   5.839 -0.0579 -0.7207 -0.4784
 4977SOL    HW115830   0.598   3.667   5.742 -0.4735 -1.4399 -0.6962
 4977SOL    HW215831   0.567   3.721   5.893  0.3937 -0.2573 -0.9279
 4978SOL     OW15832   6.195   5.313   3.463 -0.1865 -0.1146 -0.1565
 4978SOL    HW115833   6.178   5.252   3.386  0.3556  0.4172 -0.7165
 4978SOL    HW215834   6.133   5.392   3.457 -1.2699 -0.8702  0.8754
 4979SOL     OW15835   1.625   1.101   5.620  0.2155 -0.5310  0.1761
 4979SOL    HW115836   1.553   1.087   5.688  0.0152 -1.5447 -0.2219
 4979SOL    HW215837   1.586   1.098   5.528  0.9566 -2.9369 -0.1345
 4980SOL     OW15838   4.986   1.337   5.711  0.1335  0.4962 -0.1234
 4980SOL    HW115839   5.060   1.296   5.764 -1.0866 -1.0259  0.5126
 4980SOL    HW215840   4.964   1.427   5.747 -1.6966 -1.0840  3.1666
 4981SOL     OW15841   3.139   5.067   2.803 -0.1677  0.2254  0.2760
 4981SOL    HW115842   3.151   5.117   2.889  2.5894  0.5910 -0.2455
 4981SOL    HW215843   3.119   5.132   2.730  1.2588  0.3661 -0.0100
 4982SOL     OW15844   3.606   3.644   6.916 -0.3660  0.7439 -0.0272
 4982SOL    HW115845   3.636   3.595   6.998  1.4118  0.7680 -0.6224
 4982SOL    HW215846   3.671   3.717   6.896 -0.6624  0.5999 -1.5847
 4983SOL     OW15847   4.174   4.408   0.638 -0.1028  0.5444 -0.3517
 4983SOL    HW115848   4.167   4.378   0.733  0.9891 -1.5768 -0.8610
 4983SOL    HW215849   4.128   4.342   0.579 -1.7742  2.4217 -1.2745
 4984SOL     OW15850   5.168   3.514   4.709 -0.2249 -0.2829  0.8091
 4984SOL    HW115851   5.254   3.480   4.748 -0.3830  0.5598  1.9301
 4984SOL    HW215852   5.120   3.569   4.777 -0.8682  0.6263 -0.3504
 4985SOL     OW15853   5.296   5.758   2.164 -0.0426 -0.0733  0.0601
 4985SOL    HW115854   5.228   5.736   2.094  1.9741 -1.1581 -1.6386
 4985SOL    HW215855   5.342   5.675   2.193  0.9074  0.7046  0.8348
 4986SOL     OW15856   6.135   4.054   1.170  0.3838 -0.0464  0.0809
 4986SOL    HW115857   6.184   4.016   1.091  1.2321  1.0102  0.0761
 4986SOL    HW215858   6.120   3.982   1.237  1.4394 -0.5255 -0.1730
 4987SOL     OW15859   1.016   6.722   3.311  0.2512 -0.1716  0.3917
 4987SOL    HW115860   1.111   6.691   3.313 -0.1466 -1.8224 -2.1469
 4987SOL    HW215861   0.958   6.654   3.356 -0.0852 -0.9618 -1.1594
 4988SOL     OW15862   0.932   6.243   2.534 -0.4177  1.0924 -0.6361
 4988SOL    HW115863   0.847   6.295   2.542 -0.5139  0.6789  1.7281
 4988SOL    HW215864   0.912   6.146   2.523 -0.2577  1.0548 -0.6061
 4989SOL     OW15865   4.619   0.601   2.462  0.2483  0.4894  0.2861
 4989SOL    HW115866   4.667   0.689   2.458  2.2004 -0.5308 -0.2929
 4989SOL    HW215867   4.600   0.569   2.369 -1.5400  0.8126  0.5027
 4990SOL     OW15868   5.539   0.991   5.594 -0.5377  0.4851 -0.7780
 4990SOL    HW115869   5.571   1.069   5.647  1.6225  0.1071 -1.4137
 4990SOL    HW215870   5.532   1.016   5.498 -0.5069  0.0860 -0.8859
 4991SOL     OW15871   2.062   5.892   5.624  0.1692  0.1966  0.1858
 4991SOL    HW115872   2.011   5.978   5.622  0.4582  0.3591 -0.1517
 4991SOL    HW215873   2.103   5.875   5.534  1.9738  0.8181  0.8527
 4992SOL     OW15874   1.127   5.067   4.110 -0.2766  0.3743 -0.0533
 4992SOL    HW115875   1.217   5.099   4.080 -0.4017  0.8552  0.0863
 4992SOL    HW215876   1.137   4.976   4.151 -0.1820 -0.5499 -2.0253
 4993SOL     OW15877   2.958   1.159   3.195 -0.5513 -0.6478  0.9159
 4993SOL    HW115878   2.879   1.115   3.152 -0.9346 -0.3384  1.3025
 4993SOL    HW215879   3.039   1.145   3.137 -1.1590  0.1967 -0.1826
 4994SOL     OW15880   1.661   6.592   5.756 -0.3728 -0.4323 -0.9793
 4994SOL    HW115881   1.746   6.595   5.809  0.9664  1.8904 -3.0353
 4994SOL    HW215882   1.630   6.497   5.749  1.9091 -1.3340  0.0301
 4995SOL     OW15883   1.263   1.405   5.828  0.0544  0.2667  0.2904
 4995SOL    HW115884   1.325   1.334   5.862 -0.1661 -0.0821 -0.0295
 4995SOL    HW215885   1.240   1.467   5.903  0.3108  0.0474  0.5557
 4996SOL     OW15886   0.175   1.854   5.362  0.1621 -0.4200  0.0202
 4996SOL    HW115887   0.224   1.934   5.329  0.7208 -0.7326  0.0667
 4996SOL    HW215888   0.197   1.839   5.458 -0.6727 -0.0936  0.2743
 4997SOL     OW15889   4.245   1.756   1.602  0.0589 -0.6787  0.3368
 4997SOL    HW115890   4.155   1.756   1.647  0.7564 -0.0113  1.7953
 4997SOL    HW215891   4.279   1.662   1.597 -1.0133 -1.0358 -0.9094
 4998SOL     OW15892   0.924   3.820   4.235  0.3201  0.5434 -0.1645
 4998SOL    HW115893   0.867   3.738   4.243  0.8653  0.0056 -1.5616
 4998SOL    HW215894   0.986   3.826   4.314  0.6919 -0.7178 -0.3499
 4999SOL     OW15895   1.178   2.991   4.522 -0.2901 -0.0336  0.0774
 4999SOL    HW115896   1.112   3.040   4.464  1.2635  2.5283  0.2759
 4999SOL    HW215897   1.263   2.979   4.471  0.5719  0.8433  1.2454
 5000SOL     OW15898   5.499   5.277   2.865 -0.0755  0.1838 -0.5697
 5000SOL    HW115899   5.409   5.309   2.837  0.9225  2.1235 -1.8458
 5000SOL    HW215900   5.563   5.289   2.788  1.2120 -1.3913  0.2110
 5001SOL     OW15901   2.286   4.384   3.805  0.3564  0.8910 -0.1478
 5001SOL    HW115902   2.297   4.397   3.706  0.9833  0.5467 -0.1221
 5001SOL    HW215903   2.358   4.432   3.854 -0.1421  1.3309  0.1616
 5002SOL     OW15904   1.723   4.347   4.214  0.0612 -0.5957 -0.4920
 5002SOL    HW115905   1.809   4.362   4.164 -0.9944  0.2706 -2.1297
 5002SOL    HW215906   1.697   4.251   4.206 -0.3369 -0.3805 -2.0825
 5003SOL     OW15907   3.371   0.771   3.010 -0.0418  0.7593 -0.4325
 5003SOL    HW115908   3.430   0.815   3.078 -0.1648 -1.1186  0.9806
 5003SOL    HW215909   3.277   0.803   3.022  0.0328  0.8525 -0.0681
 5004SOL     OW15910   2.902   4.591   6.351 -0.4993  0.6094 -0.3861
 5004SOL    HW115911   2.974   4.608   6.285  0.7736  0.0164  0.8044
 5004SOL    HW215912   2.832   4.532   6.311  1.2648 -1.4614 -0.5851
 5005SOL     OW15913   3.534   2.544   1.698 -0.5440  0.0030  0.2170
 5005SOL    HW115914   3.582   2.472   1.749 -0.0245  0.1439 -0.0706
 5005SOL    HW215915   3.520   2.623   1.758 -0.1393  0.0802  0.2121
 5006SOL     OW15916   3.349   1.872   4.414 -0.5521  0.3188 -0.4326
 5006SOL    HW115917   3.365   1.851   4.511 -2.6804 -0.3489 -0.1599
 5006SOL    HW215918   3.300   1.958   4.407  1.3208  1.3877 -1.0896
 5007SOL     OW15919   5.942   6.461   2.622  0.1944 -0.3143  1.0506
 5007SOL    HW115920   5.879   6.524   2.667  0.0616  0.4996 -0.2244
 5007SOL    HW215921   5.968   6.498   2.533  2.5879 -0.5634  1.5815
 5008SOL     OW15922   4.932   4.558   2.039 -0.2926 -0.1367  0.3512
 5008SOL    HW115923   4.905   4.653   2.058  1.1323  0.2951  0.3357
 5008SOL    HW215924   4.963   4.515   2.123 -1.4525 -0.7943  0.4684
 5009SOL     OW15925   0.731   2.226   2.185 -0.0549 -0.2372  0.0205
 5009SOL    HW115926   0.646   2.269   2.154 -0.1464 -1.3393 -1.3525
 5009SOL    HW215927   0.715   2.179   2.272 -0.5495  0.5329  0.3462
 5010SOL     OW15928   2.187   3.009   6.554 -0.6535 -0.0069 -0.4827
 5010SOL    HW115929   2.195   3.027   6.652  0.7969 -2.3601 -0.0759
 5010SOL    HW215930   2.100   2.963   6.536 -0.8227  0.2197 -0.2509
 5011SOL     OW15931   1.352   2.655   0.532 -0.1820  0.4360 -1.0029
 5011SOL    HW115932   1.264   2.700   0.547 -0.2652  0.4188 -1.4348
 5011SOL    HW215933   1.422   2.723   0.513 -0.3458  0.3818 -1.8448
 5012SOL     OW15934   6.109   3.022   4.914  0.4929 -0.5605  0.0934
 5012SOL    HW115935   6.020   3.056   4.883  0.9272 -0.7623 -1.4770
 5012SOL    HW215936   6.157   3.094   4.963 -0.4828 -0.4218  0.8868
 5013SOL     OW15937   5.809   0.322   6.700  0.0272  0.1331 -0.0503
 5013SOL    HW115938   5.807   0.247   6.635  1.3419 -0.6332  0.7372
 5013SOL    HW215939   5.755   0.299   6.781  0.6334 -0.1041  0.3006
 5014SOL     OW15940   0.719   1.371   3.059  0.0396  0.1287 -0.3660
 5014SOL    HW115941   0.743   1.402   3.151  0.1989  0.0488 -0.3810
 5014SOL    HW215942   0.751   1.277   3.046  0.0614  0.1583 -0.5218
 5015SOL     OW15943   6.385   4.843   4.223 -0.1940 -0.2217 -1.0409
 5015SOL    HW115944   6.431   4.932   4.225  1.0734 -0.7999 -2.5949
 5015SOL    HW215945   6.406   4.796   4.137 -2.6503 -1.1099 -1.2334
 5016SOL     OW15946   6.680   2.813   5.570 -0.2242  0.3403  0.2771
 5016SOL    HW115947   6.754   2.823   5.503  0.3491  2.1708  1.1001
 5016SOL    HW215948   6.674   2.718   5.599  1.8748  0.1318  0.2120
 5017SOL     OW15949   1.013   4.031   2.261 -0.1712 -0.0353 -0.7690
 5017SOL    HW115950   1.069   3.993   2.335 -1.9760 -5.0417 -1.5816
 5017SOL    HW215951   1.063   4.025   2.175 -0.3584 -0.3920 -0.8564
 5018SOL     OW15952   2.361   0.193   6.026 -0.2657  0.1308 -0.1287
 5018SOL    HW115953   2.433   0.124   6.032 -1.9564 -1.6522  0.4645
 5018SOL    HW215954   2.292   0.165   5.959 -0.8161  1.4412 -0.1570
 5019SOL     OW15955   2.186   4.167   4.834  0.2067  0.0686 -0.0100
 5019SOL    HW115956   2.235   4.104   4.895  1.3619  1.4220  0.5303
 5019SOL    HW215957   2.186   4.258   4.875 -0.2398  0.7078 -1.3981
 5020SOL     OW15958   3.393   6.571   5.007  0.8151  0.1597 -0.3744
 5020SOL    HW115959   3.356   6.560   5.099  2.4660  2.3477  0.6427
 5020SOL    HW215960   3.320   6.603   4.946 -0.3130 -1.3832  0.1103
 5021SOL     OW15961   2.678   1.928   0.841  0.0524 -0.4327  0.2832
 5021SOL    HW115962   2.604   1.958   0.781  0.5928 -1.3906 -0.9123
 5021SOL    HW215963   2.707   1.836   0.814  1.0907 -0.4257  1.2985
 5022SOL     OW15964   0.463   3.544   0.098 -0.0382  0.1969  0.0866
 5022SOL    HW115965   0.396   3.565   0.169 -0.3355 -2.2967  0.6116
 5022SOL    HW215966   0.521   3.624   0.082 -2.2627  2.0007  0.5385
 5023SOL     OW15967   0.174   5.764   0.961 -0.2861  0.1580 -0.0757
 5023SOL    HW115968   0.077   5.766   0.939  0.0449  1.1313 -1.6438
 5023SOL    HW215969   0.217   5.687   0.915  0.1423  1.3448 -1.7835
 5024SOL     OW15970   6.263   3.268   1.867  0.4130 -0.3191  0.0244
 5024SOL    HW115971   6.240   3.174   1.843  0.1280  0.1914 -1.9059
 5024SOL    HW215972   6.354   3.290   1.832  1.7615 -0.7079  2.9967
 5025SOL     OW15973   5.835   1.090   4.041 -0.5220 -0.2888  0.0738
 5025SOL    HW115974   5.896   1.061   3.967 -2.1334  0.2743 -1.5784
 5025SOL    HW215975   5.826   1.190   4.039  0.7921 -0.0736  2.2326
 5026SOL     OW15976   4.865   0.419   3.766 -0.4532 -0.1730  0.3854
 5026SOL    HW115977   4.930   0.389   3.696 -0.2982 -0.3695  0.6100
 5026SOL    HW215978   4.805   0.343   3.791 -1.9040  0.4627 -1.0394
 5027SOL     OW15979   6.101   6.622   6.738  0.1709  0.5465  0.0440
 5027SOL    HW115980   6.181   6.679   6.756  2.1040 -2.5567  2.2791
 5027SOL    HW215981   6.024   6.654   6.793  1.0778  1.2567  0.9451
 5028SOL     OW15982   6.851   2.724   3.033  0.4162 -0.0063 -0.3149
 5028SOL    HW115983   6.788   2.667   3.087 -0.9311 -1.1035 -2.8385
 5028SOL    HW215984   6.850   2.692   2.938  3.9976  0.6873 -0.6933
 5029SOL     OW15985   0.114   3.255   2.658 -0.2647 -0.5652 -0.6184
 5029SOL    HW115986   0.208   3.232   2.633  0.1766  1.7187 -1.2964
 5029SOL    HW215987   0.052   3.184   2.623  1.0865 -1.5925 -1.0286
 5030SOL     OW15988   2.747   4.650   0.209  0.1904  0.3835  0.2684
 5030SOL    HW115989   2.654   4.647   0.244  0.0826 -0.5139 -0.0627
 5030SOL    HW215990   2.783   4.743   0.218 -0.5773  0.6437  0.7898
 5031SOL     OW15991   0.967   0.495   6.640  0.2324 -0.0180 -0.1701
 5031SOL    HW115992   0.881   0.445   6.652  0.2265  0.3151  1.3821
 5031SOL    HW215993   1.022   0.488   6.723  0.5669  1.9055 -0.1690
 5032SOL     OW15994   1.286   3.538   5.434  0.1503 -0.1374  0.4178
 5032SOL    HW115995   1.263   3.493   5.520  0.2290  0.6042  0.8396
 5032SOL    HW215996   1.356   3.608   5.450  1.6148 -1.3035 -0.5864
 5033SOL     OW15997   2.769   0.998   6.785  0.2238 -0.0101  0.0109
 5033SOL    HW115998   2.732   0.942   6.860  2.1909  1.6435  2.3420
 5033SOL    HW215999   2.697   1.012   6.716 -1.4142 -2.2679  1.1140
 5034SOL     OW16000   2.832   5.048   3.757  0.1457 -0.3042 -0.2413
 5034SOL    HW116001   2.747   5.032   3.707 -0.2499 -0.3704  0.4471
 5034SOL    HW216002   2.861   5.143   3.742 -0.6431  0.0536  0.3998
 5035SOL     OW16003   0.989   3.374   3.703 -0.0934 -0.6965  0.3770
 5035SOL    HW116004   1.010   3.436   3.779  1.4307  0.7467 -1.1200
 5035SOL    HW216005   1.017   3.281   3.727  0.8231 -0.1840  1.4124
 5036SOL     OW16006   1.600   2.684   5.447  0.6843 -0.0804  0.0484
 5036SOL    HW116007   1.548   2.625   5.509  2.5693 -1.7415  0.1505
 5036SOL    HW216008   1.562   2.678   5.355  0.9433 -1.6676  0.0153
 5037SOL     OW16009   4.190   3.777   1.528 -0.1708  0.2876 -0.3124
 5037SOL    HW116010   4.197   3.742   1.621 -1.1897  3.3455  1.0481
 5037SOL    HW216011   4.113   3.734   1.482  0.8194 -1.8472 -0.1200
 5038SOL     OW16012   3.409   4.128   4.305  0.6652  0.5241 -0.5030
 5038SOL    HW116013   3.437   4.032   4.305  2.1916  0.9330 -1.6202
 5038SOL    HW216014   3.446   4.174   4.225  0.7351  2.2662  0.4731
 5039SOL     OW16015   0.277   3.323   5.732 -0.3853 -0.4044 -0.0173
 5039SOL    HW116016   0.194   3.275   5.762 -0.0110 -1.6417 -0.8709
 5039SOL    HW216017   0.311   3.381   5.806 -0.9954 -1.2827  0.9784
 5040SOL     OW16018   0.550   0.501   3.805 -0.5230  0.4959  0.0679
 5040SOL    HW116019   0.549   0.402   3.789  1.7638  0.2154  1.1867
 5040SOL    HW216020   0.456   0.535   3.810 -1.3726 -1.5969 -0.3817
 5041SOL     OW16021   5.372   2.945   0.808 -0.0075  0.5737  0.1721
 5041SOL    HW116022   5.291   2.995   0.776 -1.0149 -1.2274 -0.2484
 5041SOL    HW216023   5.350   2.898   0.894  0.7840  0.5073  0.3468
 5042SOL     OW16024   1.344   2.178   0.279 -0.3427 -0.3683  0.7319
 5042SOL    HW116025   1.368   2.268   0.316 -0.8429 -0.4468  1.2448
 5042SOL    HW216026   1.260   2.146   0.320 -0.9563 -0.4258 -0.5164
 5043SOL     OW16027   3.790   5.702   2.923  0.0113 -0.2358  0.2559
 5043SOL    HW116028   3.718   5.763   2.955  1.0584  0.4257  1.4515
 5043SOL    HW216029   3.834   5.657   3.001  2.2743  1.0029 -0.1857
 5044SOL     OW16030   0.318   3.901   6.268 -0.2143  0.0042  0.3463
 5044SOL    HW116031   0.322   3.846   6.184  0.2954  0.5479 -0.0025
 5044SOL    HW216032   0.231   3.885   6.315  0.5068 -2.2203  1.0501
 5045SOL     OW16033   5.914   4.195   5.749 -0.5752 -0.0134 -0.2052
 5045SOL    HW116034   5.975   4.264   5.787 -0.2894 -0.3100 -0.1214
 5045SOL    HW216035   5.931   4.186   5.650 -1.6584  1.1134 -0.5291
 5046SOL     OW16036   3.337   3.930   3.739 -0.0614  0.1328 -0.3617
 5046SOL    HW116037   3.297   3.852   3.692 -0.5629  0.9135 -1.2762
 5046SOL    HW216038   3.267   3.975   3.794  0.3610 -0.3799  0.6138
 5047SOL     OW16039   6.723   4.357   1.174 -0.1153  0.5849  0.0352
 5047SOL    HW116040   6.726   4.259   1.195 -0.1273  0.6965  0.5803
 5047SOL    HW216041   6.795   4.379   1.109 -1.0387 -0.0468 -1.2566
 5048SOL     OW16042   1.488   1.129   5.364 -0.5812  0.0691  0.2725
 5048SOL    HW116043   1.388   1.121   5.367 -0.7597  1.7038 -0.2082
 5048SOL    HW216044   1.513   1.224   5.342  1.0715 -0.5323 -0.5735
 5049SOL     OW16045   3.833   1.876   0.541  0.2712 -0.1093  0.3807
 5049SOL    HW116046   3.767   1.946   0.567 -0.5824 -0.2284 -1.3469
 5049SOL    HW216047   3.899   1.863   0.615 -0.9223  0.8679  1.6546
 5050SOL     OW16048   0.908   1.912   1.782  0.5450 -0.5498 -0.0389
 5050SOL    HW116049   0.888   1.891   1.686  2.3690  0.3139 -0.6577
 5050SOL    HW216050   0.840   1.976   1.816 -0.0487 -0.7548 -0.8052
 5051SOL     OW16051   4.503   4.879   1.231 -0.3164 -0.4271  0.0111
 5051SOL    HW116052   4.517   4.847   1.324 -1.9061  1.1879  0.8597
 5051SOL    HW216053   4.511   4.978   1.228  0.5641 -0.5108 -1.7634
 5052SOL     OW16054   0.504   6.824   4.799 -0.0527  0.0789 -0.3283
 5052SOL    HW116055   0.544   6.864   4.717 -2.2428  0.6832 -1.1750
 5052SOL    HW216056   0.517   6.887   4.876  0.5956  0.2536 -0.5712
 5053SOL     OW16057   1.181   5.529   2.127  0.5968 -0.0775  0.0415
 5053SOL    HW116058   1.125   5.449   2.146 -0.2838  0.2482 -1.1013
 5053SOL    HW216059   1.278   5.503   2.127  0.2478 -1.7606 -2.9033
 5054SOL     OW16060   2.780   5.439   4.495 -0.1436 -0.0331 -0.2146
 5054SOL    HW116061   2.781   5.496   4.412  0.5558 -0.2524 -0.3629
 5054SOL    HW216062   2.829   5.354   4.477 -2.5589 -1.4333 -0.5017
 5055SOL     OW16063   5.422   6.011   0.385 -0.1610  0.0776  0.2714
 5055SOL    HW116064   5.341   5.987   0.331 -0.7370  0.6623  0.8556
 5055SOL    HW216065   5.426   6.110   0.397  0.2100 -0.0094  0.9115
 5056SOL     OW16066   5.786   5.110   5.480  0.7002  0.0537 -0.6223
 5056SOL    HW116067   5.752   5.096   5.573 -1.4928  2.4388 -0.9659
 5056SOL    HW216068   5.870   5.165   5.484  1.1588 -0.6777 -0.0227
 5057SOL     OW16069   1.493   6.713   2.065 -0.0218  0.3572  0.2950
 5057SOL    HW116070   1.425   6.729   1.994 -0.5590  0.1177  0.7497
 5057SOL    HW216071   1.577   6.678   2.023  0.2465  1.7467 -0.4109
 5058SOL     OW16072   2.629   4.321   5.725  0.1637 -0.2888  0.4347
 5058SOL    HW116073   2.692   4.263   5.776  0.0995  0.2300  1.1143
 5058SOL    HW216074   2.681   4.382   5.664  0.1758 -2.7187 -2.1912
 5059SOL     OW16075   6.771   5.748   2.206  0.0648  0.0981  0.3964
 5059SOL    HW116076   6.756   5.796   2.120 -0.3868 -1.3403 -0.3613
 5059SOL    HW216077   6.694   5.688   2.225  0.2705  0.2037  1.6935
 5060SOL     OW16078   0.989   2.064   4.636 -0.1806 -0.1186  0.7987
 5060SOL    HW116079   1.025   1.987   4.584  0.3841 -0.4921  1.7049
 5060SOL    HW216080   1.020   2.057   4.731 -1.3544  0.4275  1.2412
 5061SOL     OW16081   4.372   4.411   6.832  0.1104  0.0473  0.1947
 5061SOL    HW116082   4.440   4.368   6.771  0.4803  1.3170 -0.3305
 5061SOL    HW216083   4.416   4.485   6.882 -0.5272 -0.1380  1.0363
 5062SOL     OW16084   5.765   0.027   1.246  0.7180 -0.1445 -0.2185
 5062SOL    HW116085   5.766  -0.063   1.291 -2.3833  0.0446  0.5186
 5062SOL    HW216086   5.718   0.020   1.158 -0.2141  0.8173  0.1687
 5063SOL     OW16087   1.871   0.039   0.960  0.2754  0.2311 -0.1040
 5063SOL    HW116088   1.840   0.129   0.932 -0.1547 -0.1069 -0.7581
 5063SOL    HW216089   1.971   0.038   0.967  0.2201  1.0309  0.9422
 5064SOL     OW16090   3.084   4.372   0.682  0.8551 -0.0153 -0.2566
 5064SOL    HW116091   3.043   4.406   0.597 -0.0307 -2.6656 -0.9825
 5064SOL    HW216092   3.022   4.389   0.759 -0.3848 -1.4462 -0.8906
 5065SOL     OW16093   0.951   4.690   5.895 -0.3741  0.0475  1.1809
 5065SOL    HW116094   0.918   4.598   5.874  2.2558 -0.2807 -2.2244
 5065SOL    HW216095   1.046   4.685   5.927 -0.4968  1.5571  1.8669
 5066SOL     OW16096   5.809   6.050   0.562  0.2101 -0.0245 -0.3737
 5066SOL    HW116097   5.742   5.979   0.540  0.2965 -0.3307  0.3247
 5066SOL    HW216098   5.774   6.139   0.533 -0.5041 -0.1800 -0.0237
 5067SOL     OW16099   3.567   1.142   0.568  0.3457  0.2679  0.0638
 5067SOL    HW116100   3.644   1.109   0.513  1.5942  1.1855  1.1786
 5067SOL    HW216101   3.578   1.240   0.586 -0.9108  0.3404  0.5353
 5068SOL     OW16102   2.032   5.906   2.376  0.0006 -0.4574  0.0173
 5068SOL    HW116103   2.014   5.811   2.398 -1.9907 -0.3696 -1.0270
 5068SOL    HW216104   2.112   5.912   2.316 -0.5888 -1.6052 -0.9146
 5069SOL     OW16105   1.770   6.358   2.006  0.3049 -0.1304  0.6631
 5069SOL    HW116106   1.828   6.348   2.087 -1.0680  0.4160  1.7614
 5069SOL    HW216107   1.675   6.338   2.031 -0.5691  2.5579 -0.1290
 5070SOL     OW16108   5.309   2.324   5.022 -0.8745 -0.1136 -0.6953
 5070SOL    HW116109   5.214   2.343   4.999 -1.4340 -0.2887  1.2603
 5070SOL    HW216110   5.333   2.373   5.106  0.7125 -0.2403 -1.0437
 5071SOL     OW16111   4.673   0.977   5.810  0.4189 -0.3518  0.1305
 5071SOL    HW116112   4.747   0.983   5.878  0.7169  1.2304 -0.3027
 5071SOL    HW216113   4.685   1.048   5.741 -0.3531 -1.4093 -1.1358
 5072SOL     OW16114   6.256   5.967   0.201  0.0470  0.0131  0.2909
 5072SOL    HW116115   6.182   5.952   0.266 -0.8241 -0.0895 -0.6925
 5072SOL    HW216116   6.323   5.893   0.209 -0.9736 -0.9996 -0.1435
 5073SOL     OW16117   5.989   1.908   4.917 -0.5144 -0.0879 -0.1625
 5073SOL    HW116118   5.941   1.956   4.990  0.3431 -0.4976  0.6980
 5073SOL    HW216119   5.923   1.881   4.846 -1.5711 -0.6784  0.9965
 5074SOL     OW16120   5.053   4.895   6.017 -0.0381  0.1668  0.4773
 5074SOL    HW116121   5.097   4.980   5.986  1.0560 -0.6557 -0.2751
 5074SOL    HW216122   5.011   4.849   5.938  1.3275 -1.1142  0.4692
 5075SOL     OW16123   0.371   5.564   5.462  0.1266  0.1237 -0.0925
 5075SOL    HW116124   0.359   5.553   5.561  0.3702  1.6427  0.1332
 5075SOL    HW216125   0.386   5.660   5.441  1.8524 -0.3671 -1.4133
 5076SOL     OW16126   3.039   0.684   1.724 -0.2353  0.5529 -0.0363
 5076SOL    HW116127   3.131   0.646   1.735 -1.1597 -1.7091  0.4255
 5076SOL    HW216128   3.002   0.708   1.814 -0.7161 -0.1160 -0.0526
 5077SOL     OW16129   0.372   1.739   2.732 -0.7464 -0.4151  0.3542
 5077SOL    HW116130   0.350   1.726   2.635  0.1438 -3.1462  0.4447
 5077SOL    HW216131   0.291   1.720   2.788 -1.4113  1.6711  0.2037
 5078SOL     OW16132   6.422   0.556   3.012 -0.0424 -0.0130  0.6857
 5078SOL    HW116133   6.407   0.458   3.026  0.5503 -0.4278 -1.2674
 5078SOL    HW216134   6.515   0.572   2.979  0.0130  1.2702  1.3931
 5079SOL     OW16135   5.205   6.159   6.394  0.0836 -0.1208  0.2181
 5079SOL    HW116136   5.279   6.130   6.455  2.2262 -0.1520 -2.2068
 5079SOL    HW216137   5.204   6.259   6.388  1.2801 -0.1584 -1.1948
 5080SOL     OW16138   6.027   1.435   4.989 -0.0368 -0.2923  0.0001
 5080SOL    HW116139   6.098   1.476   4.933 -1.4075  1.3576 -0.6028
 5080SOL    HW216140   5.954   1.501   5.005 -0.4716 -1.2421  2.3933
 5081SOL     OW16141   3.661   3.545   3.695 -0.4401  0.9221  0.5045
 5081SOL    HW116142   3.740   3.580   3.745 -0.2586  1.1013  0.1004
 5081SOL    HW216143   3.661   3.583   3.602  0.1405 -0.7113 -0.1811
 5082SOL     OW16144   6.440   4.688   6.133 -0.0872  0.8996 -0.0361
 5082SOL    HW116145   6.474   4.753   6.065 -0.8390  1.3696  0.0172
 5082SOL    HW216146   6.365   4.730   6.185  0.5385  0.5939  1.1662
 5083SOL     OW16147   1.716   5.766   1.346 -0.4867 -0.0342  0.4315
 5083SOL    HW116148   1.768   5.754   1.262 -0.5550  3.1717 -0.2089
 5083SOL    HW216149   1.756   5.710   1.418  0.0895 -2.2333 -1.4785
 5084SOL     OW16150   2.291   6.437   2.207  0.2846 -0.4823  0.7673
 5084SOL    HW116151   2.270   6.531   2.180  1.3283 -0.6511 -0.7627
 5084SOL    HW216152   2.215   6.377   2.181 -0.0867 -0.1720  1.1219
 5085SOL     OW16153   0.121   3.895   5.891 -0.2775  0.2608 -0.5456
 5085SOL    HW116154   0.130   3.831   5.967 -0.1305 -0.8000 -1.4325
 5085SOL    HW216155   0.129   3.989   5.925  0.5402 -0.2142  0.6239
 5086SOL     OW16156   0.609   5.212   2.119  0.4566 -0.5723 -0.1838
 5086SOL    HW116157   0.561   5.299   2.109  0.1498 -0.8454 -1.1562
 5086SOL    HW216158   0.708   5.227   2.115  0.3956 -0.3099 -0.7093
 5087SOL     OW16159   5.847   5.686   6.279 -0.1131 -0.1657 -0.2380
 5087SOL    HW116160   5.859   5.652   6.373 -0.8933 -0.1584 -0.1303
 5087SOL    HW216161   5.759   5.733   6.272 -0.6359 -1.2428 -1.2830
 5088SOL     OW16162   6.020   6.306   6.044 -0.6942 -0.0224  0.3389
 5088SOL    HW116163   5.942   6.341   5.994 -0.8626 -0.4358  0.3078
 5088SOL    HW216164   6.070   6.382   6.086  0.2283  0.4782 -1.5635
 5089SOL     OW16165   6.023   3.606   1.224 -0.2801 -0.0870 -0.0612
 5089SOL    HW116166   6.031   3.538   1.298  1.8110  0.3092  0.1412
 5089SOL    HW216167   6.040   3.697   1.262  0.4012  0.1628 -0.9582
 5090SOL     OW16168   6.696   2.989   1.092  0.2217 -0.3456 -0.1442
 5090SOL    HW116169   6.675   3.045   1.172 -1.8091 -0.4694 -0.5376
 5090SOL    HW216170   6.698   2.893   1.117  0.2527 -0.3385 -0.1195
 5091SOL     OW16171   2.987   5.019   1.931 -0.4547 -0.1219 -0.0072
 5091SOL    HW116172   2.898   4.979   1.955  0.1524 -0.6701  1.4850
 5091SOL    HW216173   3.057   4.948   1.935  0.4574  0.8030  1.5383
 5092SOL     OW16174   3.454   4.060   0.596 -0.1036 -0.4826 -0.6735
 5092SOL    HW116175   3.385   4.005   0.644 -0.4846  0.2697 -0.3550
 5092SOL    HW216176   3.523   3.999   0.556 -1.1990 -1.2857 -1.4038
 5093SOL     OW16177   1.322   1.801   6.731 -0.1080  0.5321  0.3785
 5093SOL    HW116178   1.404   1.748   6.708 -0.0221  1.1397 -0.8218
 5093SOL    HW216179   1.241   1.754   6.696 -0.2759 -0.0157  1.4728
 5094SOL     OW16180   0.785   0.783   6.134 -0.6552  0.6476  0.2886
 5094SOL    HW116181   0.710   0.818   6.079  0.1587  3.4585  0.7939
 5094SOL    HW216182   0.849   0.733   6.075 -1.0761  1.4026 -0.8409
 5095SOL     OW16183   3.752   5.559   4.054  0.4128 -0.4339 -0.4087
 5095SOL    HW116184   3.846   5.563   4.088  1.6356  1.7451 -3.6132
 5095SOL    HW216185   3.749   5.505   3.970 -0.8098  1.0735 -1.3725
 5096SOL     OW16186   3.066   4.854   2.310 -0.6722 -0.3614  0.1919
 5096SOL    HW116187   3.147   4.848   2.368  0.6545  0.3444 -1.5212
 5096SOL    HW216188   3.033   4.948   2.309 -0.4855 -0.2998 -0.4458
 5097SOL     OW16189   2.712   1.714   6.629 -0.0978 -0.2429  0.5653
 5097SOL    HW116190   2.742   1.804   6.662 -0.9858  0.1269  0.4059
 5097SOL    HW216191   2.615   1.702   6.650 -0.4001 -0.4804 -0.8686
 5098SOL     OW16192   6.355   3.507   1.711 -0.8412  0.0078  0.1282
 5098SOL    HW116193   6.384   3.578   1.775 -0.9016 -1.6492  2.1037
 5098SOL    HW216194   6.434   3.474   1.659 -0.3703 -0.0829  0.8896
 5099SOL     OW16195   0.589   0.701   4.364  0.1896 -0.2030 -0.0269
 5099SOL    HW116196   0.656   0.644   4.413 -0.5618  0.5557  1.9898
 5099SOL    HW216197   0.566   0.658   4.277  2.5187 -1.0033 -0.3193
 5100SOL     OW16198   4.042   6.443   6.479  1.1462  0.4728 -0.3480
 5100SOL    HW116199   3.980   6.388   6.422 -0.6549  1.1290  0.8835
 5100SOL    HW216200   4.054   6.533   6.438  0.0259  0.8674  0.1343
 5101SOL     OW16201   5.297   6.757   0.619 -0.0252  0.0202  0.5506
 5101SOL    HW116202   5.234   6.832   0.600 -1.6379 -1.5446 -0.6772
 5101SOL    HW216203   5.388   6.793   0.635 -1.0679  2.3383  1.7698
 5102SOL     OW16204   2.049   5.330   6.432 -0.1742  0.4943 -0.4998
 5102SOL    HW116205   2.003   5.319   6.520 -0.8664 -1.4492 -1.0673
 5102SOL    HW216206   1.981   5.331   6.358  0.4629  1.1484 -1.0957
 5103SOL     OW16207   1.039   0.846   4.789  0.1941  0.1356  0.0513
 5103SOL    HW116208   1.060   0.906   4.712 -0.4758 -0.3497 -0.5145
 5103SOL    HW216209   1.108   0.859   4.861  0.2809  1.2951 -0.2166
 5104SOL     OW16210   0.065   6.165   1.484  0.1035  0.3866  0.4911
 5104SOL    HW116211   0.070   6.206   1.576 -1.7676  0.9193  0.3969
 5104SOL    HW216212   0.028   6.232   1.420  0.5704 -0.2685 -0.4820
 5105SOL     OW16213   0.587   1.836   6.069 -0.0739 -0.2423 -0.2114
 5105SOL    HW116214   0.572   1.743   6.103 -0.9126 -0.0805 -0.1341
 5105SOL    HW216215   0.511   1.863   6.009 -1.0319  1.2307  1.5757
 5106SOL     OW16216   2.800   6.735   0.777  0.3869  0.1190 -0.4652
 5106SOL    HW116217   2.719   6.677   0.768 -0.7897  1.4161  1.0559
 5106SOL    HW216218   2.850   6.711   0.860  0.2302  0.8487 -0.1466
 5107SOL     OW16219   0.393   0.747   5.587  0.3854 -0.6529  0.1884
 5107SOL    HW116220   0.409   0.845   5.599  1.3026 -0.6444 -0.9060
 5107SOL    HW216221   0.299   0.732   5.556 -0.1387 -0.2362  1.5181
 5108SOL     OW16222   3.689   3.234   2.604 -0.1824 -0.2471  0.6738
 5108SOL    HW116223   3.731   3.148   2.574  0.4444  0.7312 -1.4667
 5108SOL    HW216224   3.604   3.215   2.652 -0.1714 -2.0576  0.0595
 5109SOL     OW16225   5.523   0.880   1.609  0.0685 -0.2344  0.3423
 5109SOL    HW116226   5.429   0.881   1.576  0.0556 -0.4551  0.3689
 5109SOL    HW216227   5.539   0.960   1.666 -0.0443 -0.0922  0.1779
 5110SOL     OW16228   0.735   6.670   5.296 -0.3277  0.2214 -0.2582
 5110SOL    HW116229   0.812   6.665   5.359 -0.1972 -2.8253 -0.4926
 5110SOL    HW216230   0.766   6.703   5.207  0.0896  1.6483  0.3850
 5111SOL     OW16231   2.445   1.739   6.662  0.0205  0.5039 -0.2457
 5111SOL    HW116232   2.408   1.786   6.582 -2.0517  0.3173  0.5586
 5111SOL    HW216233   2.443   1.801   6.740  0.4789  0.1556  0.0440
 5112SOL     OW16234   1.176   6.417   4.149 -0.0541 -0.1097  0.2079
 5112SOL    HW116235   1.199   6.513   4.169  1.0982 -0.1598 -0.7387
 5112SOL    HW216236   1.169   6.366   4.235 -0.7810  0.8376  0.7293
 5113SOL     OW16237   1.116   6.461   6.503 -0.1258 -0.0878  0.1070
 5113SOL    HW116238   1.108   6.559   6.489  0.7620  0.2652  1.8000
 5113SOL    HW216239   1.117   6.414   6.415  0.9280  1.5327 -0.7762
 5114SOL     OW16240   2.632   3.406   0.471  0.1801  0.1833  0.4335
 5114SOL    HW116241   2.652   3.362   0.383  1.8817 -0.8223  1.2890
 5114SOL    HW216242   2.666   3.500   0.470 -1.7880  0.9491 -0.7272
 5115SOL     OW16243   0.511   2.767   5.944  0.1448 -0.3970  0.2994
 5115SOL    HW116244   0.546   2.745   6.035  1.6579  2.2424  0.4439
 5115SOL    HW216245   0.440   2.837   5.951 -0.0028 -0.4487 -0.5325
 5116SOL     OW16246   6.250   3.161   0.843  0.2797 -0.2836 -0.3433
 5116SOL    HW116247   6.245   3.139   0.745  0.1387 -0.0728 -0.3848
 5116SOL    HW216248   6.171   3.121   0.890  1.1430 -1.7166 -0.0437
 5117SOL     OW16249   0.628   5.226   4.301  0.2482 -0.0855  0.0268
 5117SOL    HW116250   0.703   5.162   4.285  0.1550 -0.1710 -0.0700
 5117SOL    HW216251   0.608   5.231   4.399  0.6393  0.2325  0.0925
 5118SOL     OW16252   3.234   0.031   1.310 -0.0293 -0.7916 -0.0525
 5118SOL    HW116253   3.185   0.104   1.262 -0.4880 -1.3757 -0.4908
 5118SOL    HW216254   3.172  -0.012   1.375  0.4278 -0.3794  0.6628
 5119SOL     OW16255   0.684   6.312   0.782 -0.4528  0.3282  0.8079
 5119SOL    HW116256   0.774   6.271   0.796 -0.5223  0.4234  1.5376
 5119SOL    HW216257   0.613   6.253   0.819 -0.5737  0.9638  1.6169
 5120SOL     OW16258   5.232   1.874   4.373  0.4960  0.0219 -0.0731
 5120SOL    HW116259   5.191   1.788   4.400  1.0780  0.0406  0.9537
 5120SOL    HW216260   5.311   1.893   4.432  0.2607  1.3416 -0.1413
 5121SOL     OW16261   1.484   4.477   4.225  0.1630  0.4332  0.0979
 5121SOL    HW116262   1.576   4.437   4.231 -0.5659 -1.0944  1.9531
 5121SOL    HW216263   1.483   4.547   4.153  2.6593  0.2216 -0.2335
 5122SOL     OW16264   2.283   6.841   1.797 -0.0376  0.1461  0.2463
 5122SOL    HW116265   2.301   6.744   1.782 -0.3940 -0.0092  0.8081
 5122SOL    HW216266   2.189   6.854   1.826 -0.5429  0.8443 -1.5356
 5123SOL     OW16267   5.998   4.812   0.672  0.5506  0.5683 -0.7419
 5123SOL    HW116268   6.015   4.831   0.575 -1.3812  2.0401 -0.8507
 5123SOL    HW216269   6.032   4.888   0.727 -0.0747  0.6398 -0.4471
 5124SOL     OW16270   3.062   4.990   0.063  0.6787  0.0503 -0.5692
 5124SOL    HW116271   3.156   4.986   0.098  0.9891  0.0306 -1.3662
 5124SOL    HW216272   3.049   4.918  -0.005 -0.0992 -0.3119 -0.0470
 5125SOL     OW16273   6.625   1.884   6.351  0.5238 -0.2625  0.1272
 5125SOL    HW116274   6.582   1.798   6.379  1.5568 -1.5024 -1.8510
 5125SOL    HW216275   6.649   1.880   6.254  0.5051  2.3461 -0.0729
 5126SOL     OW16276   3.804   3.955   4.348  0.8475 -0.4963 -0.3039
 5126SOL    HW116277   3.821   4.026   4.416 -0.9023 -0.3391  0.0162
 5126SOL    HW216278   3.794   3.998   4.258 -3.2662  0.1710  0.3007
 5127SOL     OW16279   0.368   5.224   0.459  0.3460  0.2595  0.2186
 5127SOL    HW116280   0.301   5.162   0.418 -0.8751  1.2881  0.5911
 5127SOL    HW216281   0.451   5.225   0.403 -0.4475 -0.0352 -1.0060
 5128SOL     OW16282   0.381   6.492   5.549  0.2508  0.5140  0.0776
 5128SOL    HW116283   0.344   6.399   5.551  0.9977  0.1949  2.1674
 5128SOL    HW216284   0.443   6.501   5.471  0.3451 -0.8427 -0.0411
 5129SOL     OW16285   5.803   2.974   1.983  0.5421  0.2337 -0.2286
 5129SOL    HW116286   5.735   2.902   1.968  1.6499 -0.9576  0.3230
 5129SOL    HW216287   5.768   3.060   1.947 -0.0263 -0.9483 -2.7378
 5130SOL     OW16288   7.010   0.571   4.607 -0.3490  0.7725 -0.3452
 5130SOL    HW116289   6.916   0.545   4.581 -0.3739  1.4036 -0.9238
 5130SOL    HW216290   7.073   0.499   4.576 -0.1968  2.1271 -3.6674
 5131SOL     OW16291   2.889   5.110   3.017 -0.4588 -0.3755 -0.4087
 5131SOL    HW116292   2.988   5.103   3.027 -0.3770  0.5554 -0.5396
 5131SOL    HW216293   2.852   5.019   2.999  0.1021 -1.1108  1.8431
 5132SOL     OW16294   2.462   0.613   4.754  0.3641 -0.1177  0.3386
 5132SOL    HW116295   2.494   0.534   4.702 -3.1693 -1.9511  0.5966
 5132SOL    HW216296   2.500   0.610   4.846  0.4237 -1.4321  0.2837
 5133SOL     OW16297   4.674   4.491   6.312  0.1681  0.3064 -0.6632
 5133SOL    HW116298   4.742   4.532   6.373  0.0825 -0.3169 -0.1508
 5133SOL    HW216299   4.684   4.392   6.312 -1.0836  0.1586 -0.1733
 5134SOL     OW16300   5.678   6.686   6.264 -0.2920  0.3645  0.2974
 5134SOL    HW116301   5.773   6.667   6.287 -0.2698  0.3412  0.1852
 5134SOL    HW216302   5.651   6.633   6.183 -0.7463 -0.5316  1.0182
 5135SOL     OW16303   6.766   3.408   2.342  0.0220 -0.0928 -0.0800
 5135SOL    HW116304   6.722   3.456   2.266  1.0056  0.5971 -0.2365
 5135SOL    HW216305   6.860   3.384   2.317  0.2706 -0.0996  0.8055
 5136SOL     OW16306   5.804   1.254   6.335 -0.0524 -0.3725 -0.0301
 5136SOL    HW116307   5.892   1.227   6.373  1.2707  0.4225 -2.3173
 5136SOL    HW216308   5.749   1.299   6.406  1.8107  0.0555  1.2098
 5137SOL     OW16309   5.103   1.132   4.073 -0.1127  0.4976 -0.6272
 5137SOL    HW116310   5.081   1.121   4.170  0.3309  0.6875 -0.5025
 5137SOL    HW216311   5.019   1.150   4.022 -0.2910  0.8634 -0.2106
 5138SOL     OW16312   3.293   2.937   3.240  0.2271  0.5233  0.2996
 5138SOL    HW116313   3.382   2.905   3.209 -0.1145 -0.6724  0.5268
 5138SOL    HW216314   3.280   2.911   3.336  0.4592  2.4601  0.9030
 5139SOL     OW16315   3.009   0.806   5.100  0.4218 -0.1870 -0.2781
 5139SOL    HW116316   3.051   0.895   5.120  1.5726 -0.7554 -0.0417
 5139SOL    HW216317   3.078   0.746   5.058 -0.4270 -0.8587 -0.7313
 5140SOL     OW16318   3.596   2.334   6.905  0.2673  0.1789  0.3629
 5140SOL    HW116319   3.497   2.344   6.919 -0.0390 -0.6035 -1.1416
 5140SOL    HW216320   3.619   2.357   6.811  1.3603 -0.7989  0.3761
 5141SOL     OW16321   6.319   2.338   0.085  0.3942 -0.4273  0.7506
 5141SOL    HW116322   6.259   2.362   0.009  1.4975  0.0514  0.0010
 5141SOL    HW216323   6.348   2.242   0.076 -1.7515 -1.2754  2.1823
 5142SOL     OW16324   2.002   6.897   1.834 -0.8669 -0.3024 -0.6589
 5142SOL    HW116325   1.985   6.864   1.741 -0.7856 -0.4362 -0.6275
 5142SOL    HW216326   1.979   6.994   1.840  2.2227  0.6290 -1.7273
 5143SOL     OW16327   1.533   0.626   2.920 -0.6330  0.0779  0.3605
 5143SOL    HW116328   1.507   0.713   2.962 -3.0982 -0.9453  1.1129
 5143SOL    HW216329   1.613   0.640   2.862 -1.6172  3.0898 -0.4638
 5144SOL     OW16330   0.975   4.746   5.620  0.1040  0.5740 -0.0078
 5144SOL    HW116331   0.983   4.840   5.586  0.1892  0.1733 -1.1253
 5144SOL    HW216332   0.982   4.747   5.720  3.1640  1.4879 -0.1164
 5145SOL     OW16333   3.443   4.842   5.150 -0.2827  0.4651 -0.5084
 5145SOL    HW116334   3.378   4.774   5.182 -2.4150  2.7452  0.3023
 5145SOL    HW216335   3.520   4.848   5.214  0.4236 -1.7231 -1.0768
 5146SOL     OW16336   0.546   0.957   0.197 -0.0929 -0.0230  0.5644
 5146SOL    HW116337   0.630   1.010   0.202 -0.3347  0.3873  0.3473
 5146SOL    HW216338   0.483   1.000   0.132 -0.1735 -0.7500  0.1470
 5147SOL     OW16339   4.250   2.370   3.062 -0.4784  0.0740  0.3162
 5147SOL    HW116340   4.309   2.406   3.134  0.5132 -1.5114  0.3472
 5147SOL    HW216341   4.284   2.400   2.973  0.6435 -1.1021  0.3130
 5148SOL     OW16342   1.267   6.757   6.044 -0.5493 -0.7383 -0.2312
 5148SOL    HW116343   1.248   6.821   5.969 -1.9570 -1.0764 -0.1936
 5148SOL    HW216344   1.181   6.720   6.079  0.0043 -0.0783  2.0294
 5149SOL     OW16345   5.194   5.495   4.097 -0.4095  0.1360 -0.3499
 5149SOL    HW116346   5.173   5.524   4.190 -0.2836  0.8614 -0.5393
 5149SOL    HW216347   5.288   5.462   4.093  0.1684  1.7051 -0.5520
 5150SOL     OW16348   5.651   6.318   1.500 -0.0568  0.0017 -0.2485
 5150SOL    HW116349   5.687   6.352   1.586 -2.5812  0.2184  0.8074
 5150SOL    HW216350   5.661   6.218   1.496  1.0270  0.1056 -0.1999
 5151SOL     OW16351   6.209   6.094   0.884  0.2776 -0.0016 -0.0964
 5151SOL    HW116352   6.109   6.093   0.875  0.2844  2.2650 -0.9596
 5151SOL    HW216353   6.239   6.008   0.924 -1.8753 -1.3800 -1.2559
 5152SOL     OW16354   2.404   2.827   6.487 -0.3296  0.2177 -0.1863
 5152SOL    HW116355   2.488   2.861   6.446 -0.1500 -0.4113 -0.3552
 5152SOL    HW216356   2.343   2.904   6.508 -0.4506  0.5688 -1.6766
 5153SOL     OW16357   1.104   0.521   2.308  0.0318  0.4895 -0.5625
 5153SOL    HW116358   1.195   0.560   2.323  0.1658  0.0121 -0.0893
 5153SOL    HW216359   1.101   0.479   2.217  0.8384 -0.9449  0.0373
 5154SOL     OW16360   0.406   3.052   6.840  0.0143  0.1992  0.1263
 5154SOL    HW116361   0.423   3.125   6.906 -1.5189 -0.4961  1.3746
 5154SOL    HW216362   0.444   2.966   6.875  0.7637  0.1554 -0.7627
 5155SOL     OW16363   0.698   2.124   6.870  0.3030  0.0269  1.0452
 5155SOL    HW116364   0.764   2.157   6.802 -0.9632 -0.4765 -0.5167
 5155SOL    HW216365   0.715   2.168   6.958  0.4143  2.7223 -0.2165
 5156SOL     OW16366   6.426   6.504   4.785  0.1528 -0.2558 -0.0260
 5156SOL    HW116367   6.471   6.417   4.807 -1.1961 -0.8468  0.5354
 5156SOL    HW216368   6.374   6.535   4.865 -0.8121  0.1566 -0.8041
 5157SOL     OW16369   5.091   0.372   0.828  0.6061  0.6027  0.1579
 5157SOL    HW116370   5.031   0.294   0.845  1.2540  0.2112  0.6979
 5157SOL    HW216371   5.042   0.457   0.847  0.5941  0.2600  1.7866
 5158SOL     OW16372   0.830   1.854   2.478 -0.4123  0.2461  0.7750
 5158SOL    HW116373   0.753   1.819   2.531 -0.2971  0.3962  1.0419
 5158SOL    HW216374   0.878   1.777   2.434 -0.6873  0.1505  0.6422
 5159SOL     OW16375   6.215   3.434   5.842 -0.2226  0.2658 -0.3370
 5159SOL    HW116376   6.313   3.449   5.826 -0.5489 -0.1158 -3.3186
 5159SOL    HW216377   6.174   3.520   5.872  0.9828  0.4251  0.9991
 5160SOL     OW16378   5.402   0.900   2.713  0.2316 -0.2305  0.5539
 5160SOL    HW116379   5.305   0.892   2.736  0.4664 -0.4973  1.5067
 5160SOL    HW216380   5.451   0.939   2.791  0.9056 -0.2252  0.1283
 5161SOL     OW16381   1.544   3.607   2.699  0.1306 -0.1956 -0.4634
 5161SOL    HW116382   1.593   3.530   2.659 -0.5818 -0.1201 -1.5419
 5161SOL    HW216383   1.491   3.576   2.778 -1.3450 -1.1780 -1.7757
 5162SOL     OW16384   0.989   6.140   4.267 -0.0183 -0.2911 -0.1856
 5162SOL    HW116385   1.021   6.186   4.184 -0.0056 -0.5633 -0.3331
 5162SOL    HW216386   1.018   6.044   4.265  0.3701 -0.1947  0.3392
 5163SOL     OW16387   1.918   0.563   2.332  0.2473  0.1597 -0.1585
 5163SOL    HW116388   1.945   0.530   2.423 -0.2443  0.9268  0.2736
 5163SOL    HW216389   1.875   0.653   2.340  0.6784  0.4792 -1.2105
 5164SOL     OW16390   2.250   0.700   5.718  0.1136 -0.4622 -0.4434
 5164SOL    HW116391   2.253   0.627   5.650  1.7928 -1.3349  0.5179
 5164SOL    HW216392   2.264   0.662   5.809 -1.0809  0.8190  0.3146
 5165SOL     OW16393   2.131   2.428   6.990  0.7935 -0.3332  0.4526
 5165SOL    HW116394   2.165   2.423   7.084 -1.5213 -1.0111  1.3162
 5165SOL    HW216395   2.033   2.447   6.990  1.0927  1.9749 -1.9227
 5166SOL     OW16396   1.961   5.118   6.806 -0.1487  0.6468  0.1452
 5166SOL    HW116397   1.974   5.028   6.764  4.1471  1.1946 -0.1174
 5166SOL    HW216398   1.924   5.106   6.898  2.9775 -1.8399  1.3005
 5167SOL     OW16399   5.433   3.486   5.586  0.0483  0.4333  0.3115
 5167SOL    HW116400   5.410   3.419   5.656 -0.7386  1.5158  1.1269
 5167SOL    HW216401   5.436   3.578   5.627 -0.3113  1.0751 -1.0326
 5168SOL     OW16402   5.667   1.032   3.204  0.0136 -0.0521  0.2989
 5168SOL    HW116403   5.722   1.015   3.122 -1.0862 -1.3270 -0.1970
 5168SOL    HW216404   5.632   1.126   3.201 -0.3724 -0.2171 -0.9147
 5169SOL     OW16405   5.614   6.274   4.602  0.1968 -0.0988  0.2726
 5169SOL    HW116406   5.668   6.340   4.653 -1.2480  1.1124  0.3080
 5169SOL    HW216407   5.519   6.305   4.596 -1.1116 -3.2008  2.1811
 5170SOL     OW16408   2.671   3.269   6.716 -0.1612 -0.3863 -0.7109
 5170SOL    HW116409   2.720   3.330   6.779 -0.6969 -0.3013 -0.3705
 5170SOL    HW216410   2.713   3.274   6.626 -0.5248  0.9136 -0.8348
 5171SOL     OW16411   4.230   0.022   4.675  0.0485  0.4470  0.1942
 5171SOL    HW116412   4.280   0.055   4.594 -0.3911  1.1635  0.2097
 5171SOL    HW216413   4.294   0.012   4.751  0.2945  0.6790  0.0207
 5172SOL     OW16414   5.673   4.302   5.845 -0.3099 -0.3869 -0.7476
 5172SOL    HW116415   5.727   4.241   5.787 -1.2043 -1.2177 -0.7402
 5172SOL    HW216416   5.604   4.349   5.790 -0.4867 -0.3933 -0.5370
 5173SOL     OW16417   5.288   5.797   6.083  0.3595 -0.5631  0.2210
 5173SOL    HW116418   5.278   5.894   6.105 -0.7566 -0.8619  1.0881
 5173SOL    HW216419   5.303   5.787   5.984  0.4096  0.4756  0.1075
 5174SOL     OW16420   1.622   6.524   2.848  0.5055  0.7866  0.1661
 5174SOL    HW116421   1.681   6.588   2.799 -0.0011  0.0367 -1.5101
 5174SOL    HW216422   1.659   6.431   2.839 -0.1420  0.5054  0.3661
 5175SOL     OW16423   2.143   3.910   6.684 -0.0975 -0.4507 -0.3330
 5175SOL    HW116424   2.130   3.814   6.661 -0.4881 -0.6610  0.7161
 5175SOL    HW216425   2.106   3.928   6.776  1.6813  0.2666  0.2946
 5176SOL     OW16426   0.051   4.079   6.327  0.8196 -0.5089  0.1455
 5176SOL    HW116427   0.026   4.173   6.352 -0.3587 -0.9492  0.7499
 5176SOL    HW216428  -0.032   4.030   6.298  1.4451 -1.3256 -0.2948
 5177SOL     OW16429   5.251   6.501   0.679  1.2267 -0.0264  0.1207
 5177SOL    HW116430   5.248   6.599   0.660  0.8877 -0.0487  0.0646
 5177SOL    HW216431   5.191   6.480   0.756  0.4534 -0.3511 -0.5558
 5178SOL     OW16432   6.978   4.277   2.188 -0.0617  0.0065  0.1994
 5178SOL    HW116433   6.888   4.235   2.198 -0.4360  0.6134 -0.5683
 5178SOL    HW216434   7.048   4.214   2.223 -0.5788 -1.3717 -1.1191
 5179SOL     OW16435   5.335   6.318   1.552  0.8165  0.8031 -0.3102
 5179SOL    HW116436   5.433   6.317   1.532  0.8997  1.9471 -0.0592
 5179SOL    HW216437   5.303   6.413   1.551 -0.0934  0.5098  0.5525
 5180SOL     OW16438   2.823   4.767   1.774 -0.1594  0.1328  0.0318
 5180SOL    HW116439   2.819   4.721   1.863 -1.7672 -1.7650 -0.9234
 5180SOL    HW216440   2.911   4.748   1.731  0.5712  0.9457  1.1241
 5181SOL     OW16441   7.011   1.102   6.732 -0.4902  0.5310 -0.1051
 5181SOL    HW116442   7.059   1.045   6.798 -2.1804  0.9695  1.5809
 5181SOL    HW216443   7.027   1.199   6.754 -0.8135  0.6857 -0.5397
 5182SOL     OW16444   3.356   0.169   2.377 -0.0808  0.1797 -0.5056
 5182SOL    HW116445   3.422   0.232   2.337  1.0187 -0.4649  0.2307
 5182SOL    HW216446   3.351   0.085   2.322  2.5518 -1.3469  1.3521
 5183SOL     OW16447   6.171   2.032   3.666  0.7335  0.4680 -0.2226
 5183SOL    HW116448   6.115   2.048   3.748  1.0476  1.8947 -0.2478
 5183SOL    HW216449   6.176   1.934   3.647  0.1865  0.1553  1.1336
 5184SOL     OW16450   3.051   6.760   3.325  0.1060  0.0410  0.7990
 5184SOL    HW116451   2.977   6.802   3.377  0.7308  1.7198  0.3985
 5184SOL    HW216452   3.013   6.705   3.251 -0.7946  2.2554 -0.4666
 5185SOL     OW16453   6.824   5.476   2.436  0.3390  0.0414 -0.2069
 5185SOL    HW116454   6.853   5.518   2.522  0.8983 -0.0080 -0.3662
 5185SOL    HW216455   6.887   5.502   2.363  1.5458 -2.1886 -0.0500
 5186SOL     OW16456   6.263   6.104   6.968  0.3980  0.2906  0.1072
 5186SOL    HW116457   6.245   6.048   7.049  0.7144  0.9818  0.6671
 5186SOL    HW216458   6.177   6.123   6.921  0.0821  0.7436  0.8586
 5187SOL     OW16459   0.105   5.914   5.183  0.4463  0.4381  0.3667
 5187SOL    HW116460   0.093   5.818   5.207  0.4131  0.0573 -1.0706
 5187SOL    HW216461   0.163   5.959   5.252  0.7269 -0.6863  0.8862
 5188SOL     OW16462   5.357   6.367   2.202 -0.1327  0.1515  0.0082
 5188SOL    HW116463   5.327   6.317   2.284  0.4478 -0.2122  0.0078
 5188SOL    HW216464   5.449   6.337   2.177  0.6197  1.8727  0.5407
 5189SOL     OW16465   5.626   5.914   6.325 -0.2304 -0.1332  0.3714
 5189SOL    HW116466   5.546   5.856   6.337 -0.1231 -0.5549 -0.8142
 5189SOL    HW216467   5.632   5.979   6.401 -0.9818 -0.9225  1.1261
 5190SOL     OW16468   2.375   5.125   1.435  0.0803  0.3129  0.5812
 5190SOL    HW116469   2.332   5.118   1.345 -0.5035  1.1670  0.7864
 5190SOL    HW216470   2.330   5.196   1.488 -0.2573 -0.8675  1.9449
 5191SOL     OW16471   2.443   5.819   1.785 -0.2218  0.0352 -0.1943
 5191SOL    HW116472   2.507   5.743   1.798  0.4074  0.7197  0.8884
 5191SOL    HW216473   2.411   5.820   1.691 -0.0050 -1.3895 -0.2965
 5192SOL     OW16474   1.865   4.335   3.594 -0.0374  0.3006  0.0033
 5192SOL    HW116475   1.928   4.350   3.517 -1.1968 -1.9087 -1.4841
 5192SOL    HW216476   1.918   4.326   3.679  1.4685  0.4878 -0.8704
 5193SOL     OW16477   4.889   3.912   5.036 -0.1835 -0.2526  0.1439
 5193SOL    HW116478   4.869   3.958   4.950  0.4344  1.3171  0.8161
 5193SOL    HW216479   4.828   3.833   5.046 -0.4537 -0.2972 -1.5780
 5194SOL     OW16480   5.714   0.283   0.075  0.4258 -0.6114 -0.3442
 5194SOL    HW116481   5.716   0.233   0.162 -1.9455 -2.1612 -1.0863
 5194SOL    HW216482   5.622   0.281   0.038  1.2337  0.6343 -2.5967
 5195SOL     OW16483   6.585   1.081   5.288  0.3099  0.4922  0.0898
 5195SOL    HW116484   6.618   1.028   5.210  0.2248 -2.1845  1.7316
 5195SOL    HW216485   6.485   1.083   5.287  0.2190 -1.3037  1.1115
 5196SOL     OW16486   5.598   6.621   3.539  0.0683 -0.5389  0.0500
 5196SOL    HW116487   5.599   6.707   3.488 -0.2388 -0.6926 -0.2245
 5196SOL    HW216488   5.556   6.635   3.628 -0.7218 -0.5735 -0.3125
 5197SOL     OW16489   0.928   3.000   2.994 -0.1350 -0.0977 -0.3193
 5197SOL    HW116490   0.881   3.044   2.917 -2.5427 -2.5688 -0.4309
 5197SOL    HW216491   0.874   3.013   3.077  0.7782 -0.1375  0.2828
 5198SOL     OW16492   3.941   4.933   1.220 -0.1103  0.3709 -0.2210
 5198SOL    HW116493   3.944   4.851   1.164 -0.9572  0.3086 -0.1844
 5198SOL    HW216494   3.971   4.912   1.313 -1.9766 -0.3260  0.2739
 5199SOL     OW16495   5.803   2.814   0.012 -0.1973  0.2476 -0.6000
 5199SOL    HW116496   5.898   2.786  -0.007 -0.6576 -0.7847 -1.4916
 5199SOL    HW216497   5.771   2.766   0.094  0.3161  1.2685  0.2247
 5200SOL     OW16498   0.252   2.788   6.475  0.1269 -0.3242  0.3107
 5200SOL    HW116499   0.207   2.843   6.545  1.7393 -0.4417  1.5009
 5200SOL    HW216500   0.183   2.740   6.421 -1.2929  2.0661 -0.1641
 5201SOL     OW16501   1.869   0.291   5.096  1.2076 -0.1586  0.2480
 5201SOL    HW116502   1.921   0.348   5.159 -0.3993 -0.2408  1.7286
 5201SOL    HW216503   1.875   0.329   5.004  1.3371  1.5921  0.9463
 5202SOL     OW16504   0.582   5.330   6.117 -0.0524 -0.1474  0.3668
 5202SOL    HW116505   0.578   5.420   6.160 -1.3674 -1.0928  2.4194
 5202SOL    HW216506   0.553   5.261   6.183  1.1922 -2.1355 -1.0471
 5203SOL     OW16507   1.294   5.056   0.375  0.1693 -0.1833 -0.1025
 5203SOL    HW116508   1.251   4.985   0.430  1.1426 -0.3852  0.4315
 5203SOL    HW216509   1.225   5.121   0.342 -1.0491 -2.3351 -2.1160
 5204SOL     OW16510   4.932   4.144   0.120  0.2802 -0.1352  0.6400
 5204SOL    HW116511   4.998   4.113   0.051  1.8475 -0.0718  2.0376
 5204SOL    HW216512   4.903   4.065   0.175  0.2693  0.0688  0.9254
 5205SOL     OW16513   1.493   1.079   6.745 -0.2423 -0.0291 -0.8409
 5205SOL    HW116514   1.417   1.050   6.687 -0.4171 -0.6858 -0.2895
 5205SOL    HW216515   1.539   0.999   6.783  0.7392  0.3663 -1.1851
 5206SOL     OW16516   1.022   5.620   4.707 -0.2545  0.1306 -0.3368
 5206SOL    HW116517   0.929   5.590   4.728 -0.1848 -0.8983 -1.4202
 5206SOL    HW216518   1.034   5.626   4.608 -0.0706  3.2263 -0.2500
 5207SOL     OW16519   1.245   5.435   3.254  0.2399  0.2568 -0.2365
 5207SOL    HW116520   1.300   5.519   3.255 -1.4751  1.4440  0.1173
 5207SOL    HW216521   1.172   5.444   3.186 -1.7162  0.3127  1.7470
 5208SOL     OW16522   5.391   0.978   0.102 -0.0500 -0.2491 -0.3893
 5208SOL    HW116523   5.480   0.948   0.136  0.8400 -1.0627 -3.1406
 5208SOL    HW216524   5.404   1.041   0.026 -1.8308 -0.5255 -0.9710
 5209SOL     OW16525   5.737   4.478   1.268 -0.0997 -0.0651  0.8443
 5209SOL    HW116526   5.732   4.378   1.262  0.3535  0.0024 -2.6186
 5209SOL    HW216527   5.827   4.505   1.302  0.6021 -0.8791 -0.2793
 5210SOL     OW16528   5.437   3.775   1.798  0.6636  0.0737  0.5623
 5210SOL    HW116529   5.536   3.784   1.809  0.5611  3.2835  0.0256
 5210SOL    HW216530   5.390   3.823   1.872 -0.5367 -1.7449  1.0330
 5211SOL     OW16531   2.894   3.715   3.155 -0.0762  0.7204 -0.7732
 5211SOL    HW116532   2.896   3.647   3.227  0.7338  0.9980 -0.5286
 5211SOL    HW216533   2.913   3.806   3.193  1.2000  0.7624 -1.4354
 5212SOL     OW16534   6.525   1.847   0.672  0.2223 -0.5024 -0.2437
 5212SOL    HW116535   6.607   1.809   0.631 -0.0680 -1.3631 -0.0462
 5212SOL    HW216536   6.450   1.780   0.665  0.1978 -0.7362  1.8059
 5213SOL     OW16537   3.749   1.512   6.314 -0.2547 -0.3108 -0.1149
 5213SOL    HW116538   3.695   1.580   6.263  0.0071  0.2622  0.3637
 5213SOL    HW216539   3.689   1.463   6.377 -1.6800 -4.2948 -4.0356
 5214SOL     OW16540   5.476   1.774   0.441  0.3696  0.2357 -0.6394
 5214SOL    HW116541   5.454   1.871   0.449  0.3396  0.1898 -0.1551
 5214SOL    HW216542   5.561   1.754   0.491 -0.3906 -0.2548  0.4925
 5215SOL     OW16543   5.504   4.600   1.326  0.0248 -0.1185 -0.1644
 5215SOL    HW116544   5.603   4.584   1.327 -0.1431 -1.1963  0.4541
 5215SOL    HW216545   5.461   4.538   1.260 -0.3305 -0.2809  0.2142
 5216SOL     OW16546   4.892   6.538   1.699 -0.0991 -0.1821  0.1951
 5216SOL    HW116547   4.991   6.528   1.699 -0.2066 -1.6236  1.5430
 5216SOL    HW216548   4.868   6.633   1.719  0.9907  0.0128  0.6332
 5217SOL     OW16549   2.366   4.384   4.476  0.2519  0.2858 -0.8427
 5217SOL    HW116550   2.378   4.284   4.477 -0.5261  0.1873  0.1271
 5217SOL    HW216551   2.276   4.407   4.513  0.3680  1.3447 -1.1974
 5218SOL     OW16552   1.932   6.691   5.269  0.4789 -0.7641 -0.1471
 5218SOL    HW116553   1.837   6.717   5.287  1.4713  1.7286  2.2804
 5218SOL    HW216554   1.950   6.600   5.305 -0.5043 -0.3881  1.3694
 5219SOL     OW16555   4.666   6.700   5.909 -0.7570  0.7420  0.2161
 5219SOL    HW116556   4.684   6.603   5.892 -1.5744  0.5136  0.6171
 5219SOL    HW216557   4.571   6.712   5.938 -0.3775  1.5462  1.1747
 5220SOL     OW16558   2.249   6.412   0.731 -0.0382  0.6411 -0.1473
 5220SOL    HW116559   2.284   6.493   0.684 -2.5338  2.1901  0.5043
 5220SOL    HW216560   2.155   6.394   0.702  0.9364 -3.1036 -1.5152
 5221SOL     OW16561   6.646   2.708   5.983  0.1792 -0.0068 -0.0560
 5221SOL    HW116562   6.699   2.792   5.998  0.7100 -0.4736  0.7879
 5221SOL    HW216563   6.705   2.640   5.940  0.1706 -0.4171  0.5763
 5222SOL     OW16564   1.450   0.551   1.436  0.3290 -0.0463  0.2698
 5222SOL    HW116565   1.410   0.629   1.388  0.7958 -0.9749 -1.7331
 5222SOL    HW216566   1.518   0.507   1.377  0.9809 -1.2320  1.8364
 5223SOL     OW16567   4.937   0.950   1.175  0.1601 -0.4144 -0.3828
 5223SOL    HW116568   4.909   0.898   1.256  0.0855 -0.7033 -0.5901
 5223SOL    HW216569   4.856   0.989   1.131  0.0820 -1.1998 -0.9493
 5224SOL     OW16570   4.690   1.514   3.079 -0.3370  0.0118 -0.4250
 5224SOL    HW116571   4.788   1.529   3.071 -0.2710 -0.3249 -0.2735
 5224SOL    HW216572   4.645   1.599   3.106 -0.2445  0.4978 -1.7221
 5225SOL     OW16573   6.071   6.491   4.731 -0.2186 -0.0789 -0.2169
 5225SOL    HW116574   6.137   6.477   4.658  0.2774  3.1467 -0.5365
 5225SOL    HW216575   6.103   6.445   4.814 -0.5357 -3.3680 -1.7591
 5226SOL     OW16576   1.769   0.804   2.781 -0.5512  0.1324  0.5198
 5226SOL    HW116577   1.851   0.784   2.834  1.9333  0.8333 -2.6944
 5226SOL    HW216578   1.733   0.894   2.806  1.2084  0.9241  0.3165
 5227SOL     OW16579   4.777   4.182   3.242 -0.3103 -0.1721 -0.1002
 5227SOL    HW116580   4.769   4.198   3.143  1.3678  0.3862 -0.1902
 5227SOL    HW216581   4.820   4.093   3.258  0.3636  0.1722  0.0703
 5228SOL     OW16582   4.912   6.490   1.999 -0.5220  0.3806  0.0376
 5228SOL    HW116583   4.843   6.559   2.021 -1.2174 -0.0661 -0.7007
 5228SOL    HW216584   4.913   6.473   1.901 -0.7526 -1.0461  0.2541
 5229SOL     OW16585   1.678   4.053   2.538 -0.0765 -0.0418 -0.0881
 5229SOL    HW116586   1.647   4.142   2.506 -1.1393 -1.2742 -2.7229
 5229SOL    HW216587   1.601   3.989   2.540  1.1378 -1.6018 -0.8985
 5230SOL     OW16588   2.834   5.827   0.406 -0.5405  0.1075 -0.5884
 5230SOL    HW116589   2.747   5.817   0.455 -1.0096  0.3485 -1.3609
 5230SOL    HW216590   2.829   5.907   0.346  0.6391  0.8330  0.2407
 5231SOL     OW16591   3.754   2.929   5.656  0.0895 -0.1546  0.2666
 5231SOL    HW116592   3.761   3.013   5.711  2.4509 -0.9307  1.2681
 5231SOL    HW216593   3.837   2.917   5.603  0.2186 -2.3635  0.8943
 5232SOL     OW16594   5.839   1.601   5.022 -0.0371  0.2061 -0.4521
 5232SOL    HW116595   5.775   1.524   5.022  0.1058  0.0886 -0.6091
 5232SOL    HW216596   5.799   1.677   4.971  0.7687 -0.5405 -2.2480
 5233SOL     OW16597   0.407   0.765   2.784 -0.7002  0.0163 -0.4653
 5233SOL    HW116598   0.383   0.757   2.881  1.6921 -2.6200  0.0734
 5233SOL    HW216599   0.364   0.690   2.733 -1.5981  1.1383 -1.4045
 5234SOL     OW16600   4.346   5.677   0.527 -0.2837  0.1495  0.4703
 5234SOL    HW116601   4.295   5.764   0.527  1.2958  1.1133 -0.0104
 5234SOL    HW216602   4.411   5.676   0.451 -0.3138 -1.5083  0.4289
 5235SOL     OW16603   2.101   3.747   2.893 -0.0003 -0.7191  0.4255
 5235SOL    HW116604   2.102   3.702   2.803 -0.0043  0.9031 -0.4141
 5235SOL    HW216605   2.029   3.816   2.894  0.4701 -0.2374  1.4457
 5236SOL     OW16606   5.498   3.542   1.654  0.4669  0.5707 -0.4967
 5236SOL    HW116607   5.495   3.637   1.685  0.7855  0.6048 -0.5711
 5236SOL    HW216608   5.588   3.503   1.675 -0.1768 -0.1967  0.9817
 5237SOL     OW16609   3.750   2.770   5.164  0.0668 -0.3438  0.3285
 5237SOL    HW116610   3.664   2.788   5.211  0.5718 -3.0129  2.5636
 5237SOL    HW216611   3.815   2.843   5.184 -0.6234 -0.0178  1.4808
 5238SOL     OW16612   1.271   3.226   1.569 -0.4007  0.5262  0.1236
 5238SOL    HW116613   1.263   3.227   1.469 -1.7829 -1.0763  0.1855
 5238SOL    HW216614   1.222   3.147   1.606  1.7164 -0.0433  1.9402
 5239SOL     OW16615   3.852   3.011   3.752  0.0352  1.0165  0.1772
 5239SOL    HW116616   3.795   2.933   3.778  0.3376  0.5405 -0.5643
 5239SOL    HW216617   3.942   2.979   3.724  0.5835  1.7460  1.0670
 5240SOL     OW16618   4.445   2.429   5.497 -0.2321  0.5396 -0.0342
 5240SOL    HW116619   4.532   2.386   5.519  0.1375  0.6761 -1.1351
 5240SOL    HW216620   4.370   2.377   5.537  0.3042 -0.1520  0.0806
 5241SOL     OW16621   3.761   5.051   6.000  1.0933  0.0354 -0.2694
 5241SOL    HW116622   3.690   5.114   6.032  1.1675 -0.2651  0.5126
 5241SOL    HW216623   3.776   5.065   5.902  1.3243  1.4613 -0.0580
 5242SOL     OW16624   5.211   0.689   0.007  0.4776  0.1143  0.2833
 5242SOL    HW116625   5.122   0.654  -0.023  0.7749 -0.8143  0.4596
 5242SOL    HW216626   5.277   0.677  -0.067  0.2633  1.6651 -0.1989
 5243SOL     OW16627   2.493   4.754   1.332  0.1779  0.3657  1.0853
 5243SOL    HW116628   2.557   4.678   1.331 -0.6491 -0.3515  0.4358
 5243SOL    HW216629   2.437   4.749   1.415 -1.5238 -1.2078 -0.0750
 5244SOL     OW16630   5.329   4.538   6.632  0.4023  0.2989  0.4510
 5244SOL    HW116631   5.374   4.529   6.721 -0.8405 -2.4322  0.9027
 5244SOL    HW216632   5.348   4.457   6.577 -0.8834  0.8290 -0.8230
 5245SOL     OW16633   4.033   4.771   0.354 -0.1364  0.2475  0.4167
 5245SOL    HW116634   4.072   4.727   0.273 -0.4277  0.2139  0.2963
 5245SOL    HW216635   3.957   4.830   0.327  0.1199  0.6680  0.5993
 5246SOL     OW16636   0.332   4.216   2.539  0.8787 -0.5073 -0.3713
 5246SOL    HW116637   0.350   4.312   2.561  1.5485 -0.7261  0.0745
 5246SOL    HW216638   0.401   4.183   2.474  0.1864 -0.4742 -1.1337
 5247SOL     OW16639   6.747   4.896   6.672 -0.4192 -0.3075  0.0209
 5247SOL    HW116640   6.669   4.848   6.632 -1.8495  1.5011  0.5086
 5247SOL    HW216641   6.745   4.887   6.771  1.0227 -1.7031 -0.0482
 5248SOL     OW16642   3.738   1.953   1.736 -0.5492 -0.1793 -0.3156
 5248SOL    HW116643   3.823   1.983   1.781 -1.2600  1.1031  0.2169
 5248SOL    HW216644   3.668   1.936   1.805 -0.4172 -2.4610 -0.6462
 5249SOL     OW16645   1.455   4.452   0.162 -0.0512 -0.1543 -0.3541
 5249SOL    HW116646   1.457   4.442   0.262 -1.6111  1.4857 -0.0938
 5249SOL    HW216647   1.501   4.538   0.137 -1.5572  0.5540 -0.7964
 5250SOL     OW16648   1.560   0.740   6.986 -0.2824 -0.2869 -0.1160
 5250SOL    HW116649   1.658   0.729   7.001  0.2985  1.6534 -1.9545
 5250SOL    HW216650   1.544   0.763   6.890 -2.5345 -0.4305  0.1799
 5251SOL     OW16651   1.158   0.978   1.924  0.2568  0.1123 -0.5684
 5251SOL    HW116652   1.204   1.028   1.998  0.0186  1.1959 -1.1290
 5251SOL    HW216653   1.208   0.993   1.838 -0.0941 -0.2384 -0.8348
 5252SOL     OW16654   4.490   0.040   0.607 -0.3371 -0.1356 -0.2024
 5252SOL    HW116655   4.561   0.022   0.676  0.6986 -1.8978 -1.6140
 5252SOL    HW216656   4.532   0.081   0.526 -1.1004 -0.2902 -0.6841
 5253SOL     OW16657   0.737   0.835   3.524 -0.0155 -0.6333  0.5490
 5253SOL    HW116658   0.774   0.852   3.432  1.0263  0.3244  1.1334
 5253SOL    HW216659   0.674   0.756   3.520  1.2967 -1.6707 -0.6676
 5254SOL     OW16660   5.133   1.624   4.438 -0.1161 -0.5133 -0.2126
 5254SOL    HW116661   5.037   1.654   4.436  0.1918  0.5627  0.3381
 5254SOL    HW216662   5.171   1.641   4.529  0.1069 -2.5820  0.1198
 5255SOL     OW16663   3.453   5.311   5.352  0.0212 -0.9684  0.6692
 5255SOL    HW116664   3.476   5.241   5.285  1.4247  0.3288 -0.2826
 5255SOL    HW216665   3.455   5.271   5.444  0.6034 -2.2158  0.1406
 5256SOL     OW16666   5.776   6.432   4.753  0.1241  0.0787  0.3159
 5256SOL    HW116667   5.742   6.477   4.836  0.1690  1.4204 -0.3711
 5256SOL    HW216668   5.867   6.468   4.732 -0.0127 -0.0399 -0.4794
 5257SOL     OW16669   2.913   2.702   0.864 -0.4155  0.5027  0.1765
 5257SOL    HW116670   2.955   2.614   0.882  0.5745  0.8166 -0.4894
 5257SOL    HW216671   2.833   2.714   0.923  0.0833 -0.3633  1.0575
 5258SOL     OW16672   5.657   3.283   0.240 -0.0484  0.5200  0.0559
 5258SOL    HW116673   5.667   3.193   0.197 -0.2279  0.6305 -0.2151
 5258SOL    HW216674   5.748   3.323   0.255  0.0007  0.6159 -0.5001
 5259SOL     OW16675   5.904   2.583   1.237 -0.1270  0.2288 -0.0326
 5259SOL    HW116676   5.916   2.678   1.208 -1.2981  1.2576  2.4687
 5259SOL    HW216677   5.806   2.561   1.238 -0.3000  0.5143  3.2807
 5260SOL     OW16678   5.088   3.077   0.962 -0.7490  0.2297 -0.0352
 5260SOL    HW116679   4.990   3.071   0.981 -0.9488  3.5439  0.6536
 5260SOL    HW216680   5.103   3.070   0.864 -1.6502 -0.3961 -0.1455
 5261SOL     OW16681   2.327   2.373   4.962 -0.4439 -0.2516  0.1862
 5261SOL    HW116682   2.229   2.375   4.945 -0.2508  0.2707 -0.9547
 5261SOL    HW216683   2.366   2.464   4.943  0.3192 -0.5566  0.2343
 5262SOL     OW16684   0.622   1.237   1.248  0.3244 -0.0940 -0.3092
 5262SOL    HW116685   0.635   1.172   1.173  1.6887  0.7019 -0.7911
 5262SOL    HW216686   0.681   1.212   1.324 -0.3438 -0.3399  0.1328
 5263SOL     OW16687   0.082   0.148   6.035  0.0830 -0.2497 -0.4993
 5263SOL    HW116688   0.136   0.082   5.983  1.2690 -1.0155  1.5759
 5263SOL    HW216689   0.075   0.234   5.984 -0.0927 -1.3946 -2.5277
 5264SOL     OW16690   0.732   2.066   1.114  0.0773  0.8554 -0.4496
 5264SOL    HW116691   0.740   2.138   1.183  2.3172 -2.0011  2.5938
 5264SOL    HW216692   0.820   2.053   1.069  0.2276 -1.0141  0.2941
 5265SOL     OW16693   5.127   1.402   2.401 -0.7935  0.0882 -0.1831
 5265SOL    HW116694   5.193   1.328   2.392 -0.6040  0.2819 -0.3981
 5265SOL    HW216695   5.126   1.457   2.317  0.1286  1.2228  0.5130
 5266SOL     OW16696   3.754   6.837   1.910  0.5991 -0.0074 -0.4712
 5266SOL    HW116697   3.670   6.889   1.892  1.7499  1.6830 -1.2766
 5266SOL    HW216698   3.808   6.886   1.979  0.3755 -1.7609  1.0246
 5267SOL     OW16699   5.561   3.016   5.765 -0.9802 -0.0184  0.4598
 5267SOL    HW116700   5.627   2.941   5.762 -2.7346 -1.6114 -0.9175
 5267SOL    HW216701   5.571   3.066   5.851  2.1225 -0.0112  0.2092
 5268SOL     OW16702   0.470   6.330   4.005 -0.2945  0.1406  0.1564
 5268SOL    HW116703   0.502   6.252   3.952 -1.0592 -0.2880  0.3140
 5268SOL    HW216704   0.420   6.298   4.085  1.7140  0.7547  1.7398
 5269SOL     OW16705   1.039   5.553   5.372  0.3482  0.7478 -0.0764
 5269SOL    HW116706   0.968   5.595   5.314  0.1356  1.1914  0.4946
 5269SOL    HW216707   1.108   5.510   5.314 -0.2727  0.4971 -0.6491
 5270SOL     OW16708   5.815   2.653   2.782  0.1867 -0.3410 -0.1435
 5270SOL    HW116709   5.823   2.578   2.716  0.9198 -1.2307  0.9058
 5270SOL    HW216710   5.866   2.733   2.748  2.8214 -1.6430  0.4609
 5271SOL     OW16711   4.350   4.738   6.678 -0.3964  0.3970  0.0049
 5271SOL    HW116712   4.441   4.699   6.668  0.0021  1.0776  0.8492
 5271SOL    HW216713   4.324   4.783   6.592  0.6765  1.4474  0.1998
 5272SOL     OW16714   1.289   0.788   3.633  0.3066  0.7445 -0.4178
 5272SOL    HW116715   1.319   0.826   3.546 -1.7187  0.4434 -1.3070
 5272SOL    HW216716   1.246   0.860   3.688 -0.1702  0.5466 -0.5197
 5273SOL     OW16717   0.742   1.180   3.841 -0.1090 -0.3859 -0.2701
 5273SOL    HW116718   0.707   1.145   3.928 -1.3059  0.4401 -0.3919
 5273SOL    HW216719   0.779   1.105   3.787  1.5161 -0.7894  1.3200
 5274SOL     OW16720   0.568   4.432   3.292 -0.0269 -0.9754  0.3753
 5274SOL    HW116721   0.653   4.380   3.291 -1.1942 -3.0184 -0.8756
 5274SOL    HW216722   0.559   4.484   3.206  0.5143  0.2907  1.0562
 5275SOL     OW16723   4.826   6.655   6.132 -0.1339 -0.1295 -0.4257
 5275SOL    HW116724   4.821   6.556   6.121  1.1711 -0.0010 -2.6653
 5275SOL    HW216725   4.778   6.701   6.057  0.2886  0.9239 -0.0825
 5276SOL     OW16726   6.899   1.698   1.068 -0.1034 -0.0789  0.0519
 5276SOL    HW116727   6.948   1.611   1.066 -1.2295 -0.7336  0.1180
 5276SOL    HW216728   6.930   1.756   0.992 -0.2960 -1.0835 -0.8207
 5277SOL     OW16729   6.818   2.239   2.295  0.1978  0.5255 -0.1697
 5277SOL    HW116730   6.815   2.264   2.392 -0.7631 -1.2343  0.2977
 5277SOL    HW216731   6.862   2.149   2.286 -0.0410  0.5140 -1.3257
 5278SOL     OW16732   0.766   5.750   6.306 -0.5109 -0.0179 -0.7065
 5278SOL    HW116733   0.680   5.760   6.257 -2.2526 -0.7921  1.9947
 5278SOL    HW216734   0.802   5.840   6.330 -1.0784  0.2921 -1.0023
 5279SOL     OW16735   3.530   6.513   5.898 -0.3449  0.0226 -0.2348
 5279SOL    HW116736   3.624   6.485   5.916 -0.5902 -0.8911 -0.3343
 5279SOL    HW216737   3.509   6.502   5.801 -0.1902  1.3766 -0.4384
 5280SOL     OW16738   4.489   6.872   4.640  0.6351  0.0087 -0.3937
 5280SOL    HW116739   4.452   6.780   4.628  0.9546 -0.3084  0.8910
 5280SOL    HW216740   4.475   6.925   4.557 -2.3979 -0.1949 -0.1108
 5281SOL     OW16741   3.321   1.098   4.260  0.1152 -0.4593 -0.1353
 5281SOL    HW116742   3.339   1.154   4.180  1.2140  0.4010  0.6782
 5281SOL    HW216743   3.380   1.127   4.335 -0.1051 -1.9553  0.6661
 5282SOL     OW16744   0.343   1.023   0.840 -0.4112  0.1717 -0.2078
 5282SOL    HW116745   0.258   1.022   0.786 -0.5464  1.1774 -0.0373
 5282SOL    HW216746   0.366   1.118   0.864  1.1816 -0.0219 -0.8883
 5283SOL     OW16747   0.002   0.304   2.349 -0.2229 -0.2294  0.0518
 5283SOL    HW116748   0.021   0.375   2.281  1.5123 -0.8929 -0.2251
 5283SOL    HW216749  -0.037   0.345   2.431 -0.3838  0.8701 -0.5542
 5284SOL     OW16750   5.147   2.569   1.245 -0.3100 -0.1413  0.1362
 5284SOL    HW116751   5.109   2.632   1.177  0.8572 -0.2588 -0.6403
 5284SOL    HW216752   5.086   2.566   1.324 -2.1867 -0.6809 -1.2526
 5285SOL     OW16753   1.525   1.505   3.194 -0.9236  0.1485  0.6190
 5285SOL    HW116754   1.556   1.520   3.288 -0.4958 -1.8796  0.8446
 5285SOL    HW216755   1.428   1.481   3.195 -0.5395 -1.4761  0.7314
 5286SOL     OW16756   6.075   2.921   1.964  0.5363 -0.3199  0.4537
 5286SOL    HW116757   6.128   2.957   2.041 -0.7233 -0.8374  1.5927
 5286SOL    HW216758   5.982   2.959   1.967 -0.0897 -1.7977  0.2733
 5287SOL     OW16759   0.680   4.409   2.048  0.1141 -0.3652  0.4820
 5287SOL    HW116760   0.688   4.427   1.950  1.9877 -0.7734  0.5177
 5287SOL    HW216761   0.659   4.312   2.062 -1.7668  0.0030  0.4845
 5288SOL     OW16762   5.029   2.635   3.694  0.1707 -0.0673 -0.4481
 5288SOL    HW116763   5.088   2.709   3.726  1.6139 -0.9438 -0.9716
 5288SOL    HW216764   5.069   2.594   3.612 -1.7504 -0.0003 -1.4813
 5289SOL     OW16765   2.943   5.029   6.018  0.0496  0.2528  0.0357
 5289SOL    HW116766   3.002   5.039   5.938  0.0139 -0.7043 -0.1298
 5289SOL    HW216767   2.996   5.044   6.101  0.3273  0.2623 -0.1424
 5290SOL     OW16768   6.615   2.549   5.617  0.4805 -0.1403 -0.1709
 5290SOL    HW116769   6.633   2.452   5.606 -0.4734 -0.3402 -0.0389
 5290SOL    HW216770   6.525   2.562   5.658  0.9472  0.7750  0.6088
 5291SOL     OW16771   3.631   5.118   3.299 -0.0241  0.3710  0.1391
 5291SOL    HW116772   3.667   5.206   3.268 -1.6297  0.1018 -2.8561
 5291SOL    HW216773   3.546   5.133   3.350 -1.1710  0.5831 -1.7328
 5292SOL     OW16774   0.966   3.239   0.778 -0.6637  0.1749 -0.3037
 5292SOL    HW116775   1.033   3.166   0.770  1.2941  1.8760 -0.3414
 5292SOL    HW216776   1.013   3.327   0.777 -2.9971  1.4862 -1.1395
 5293SOL     OW16777   3.231   1.339   4.629 -0.0460  0.7770 -0.2997
 5293SOL    HW116778   3.275   1.316   4.716 -1.6441  0.7993  0.5533
 5293SOL    HW216779   3.227   1.257   4.571  1.8350  0.9717 -0.7650
 5294SOL     OW16780   5.662   1.009   5.984 -0.2475 -0.0562  0.5323
 5294SOL    HW116781   5.751   1.025   5.940 -0.5673  1.2094  0.3256
 5294SOL    HW216782   5.652   1.068   6.063 -1.1348  0.2354  0.2185
 5295SOL     OW16783   2.133   0.870   3.476 -0.1371  0.4070 -0.0948
 5295SOL    HW116784   2.213   0.906   3.525 -0.8487  0.8518  0.7530
 5295SOL    HW216785   2.103   0.785   3.519 -0.5916  0.6447  0.0547
 5296SOL     OW16786   4.550   4.081   1.606  0.3180 -0.3329 -0.0361
 5296SOL    HW116787   4.464   4.109   1.648  0.6647  0.8947 -0.1220
 5296SOL    HW216788   4.540   3.989   1.567 -0.7653 -0.4392  0.4725
 5297SOL     OW16789   3.200   4.276   0.006 -0.1050 -0.4451 -0.1872
 5297SOL    HW116790   3.105   4.301   0.026 -0.1281 -1.1032  0.5753
 5297SOL    HW216791   3.244   4.349  -0.046 -0.9226  0.0237 -0.2262
 5298SOL     OW16792   3.342   1.457   6.053  0.1740 -0.1636  0.8862
 5298SOL    HW116793   3.284   1.414   5.984  1.2721 -0.5656  0.1740
 5298SOL    HW216794   3.429   1.484   6.011 -1.2231  5.0380  0.6349
 5299SOL     OW16795   3.735   2.134   6.154 -0.1438  0.0976  0.6392
 5299SOL    HW116796   3.700   2.087   6.235  0.1545 -0.4662  0.4497
 5299SOL    HW216797   3.737   2.232   6.170 -1.1726  0.0927  0.8972
 5300SOL     OW16798   2.233   4.223   0.638 -0.3052 -0.3308  1.0039
 5300SOL    HW116799   2.201   4.149   0.579  0.7302 -0.1889  0.2417
 5300SOL    HW216800   2.328   4.207   0.664  0.3960  1.3813 -0.3021
 5301SOL     OW16801   5.927   1.617   4.347 -0.1157  0.4507 -0.8031
 5301SOL    HW116802   5.829   1.635   4.346 -0.1745  0.1246 -1.8538
 5301SOL    HW216803   5.943   1.519   4.359  0.1719  0.7825  2.6017
 5302SOL     OW16804   5.159   6.832   2.394  0.2659  0.1576 -0.0470
 5302SOL    HW116805   5.210   6.748   2.375  1.4993  1.0841 -0.9993
 5302SOL    HW216806   5.208   6.910   2.354  0.3401  1.6379  2.7098
 5303SOL     OW16807   0.164   5.913   4.236  0.3261  0.7140 -0.4037
 5303SOL    HW116808   0.148   5.854   4.157 -1.4155  0.1970  0.2738
 5303SOL    HW216809   0.243   5.880   4.288  0.1559 -0.2621 -0.7422
 5304SOL     OW16810   0.686   6.313   1.077  0.6362  0.2378 -0.0293
 5304SOL    HW116811   0.730   6.224   1.066  2.1610  1.0788 -1.1342
 5304SOL    HW216812   0.651   6.344   0.989 -2.5516 -0.5140  0.8524
 5305SOL     OW16813   1.686   4.769   2.889 -0.2809 -0.5262 -0.4760
 5305SOL    HW116814   1.635   4.826   2.953  0.8833 -0.6489  0.5852
 5305SOL    HW216815   1.659   4.674   2.901 -0.9789 -0.4169 -1.0694
 5306SOL     OW16816   0.723   3.302   6.984  0.2288  0.0457  0.1177
 5306SOL    HW116817   0.750   3.236   7.053 -0.5196 -0.9793 -0.5349
 5306SOL    HW216818   0.624   3.296   6.968  0.3691  0.3144 -0.9640
 5307SOL     OW16819   0.611   1.140   2.676 -0.1803  0.0643  0.0438
 5307SOL    HW116820   0.542   1.211   2.694  0.9740  1.0816  0.6830
 5307SOL    HW216821   0.591   1.059   2.731 -0.7109  0.4596  0.4417
 5308SOL     OW16822   2.245   4.622   4.762  0.1099  0.1548 -0.0819
 5308SOL    HW116823   2.191   4.624   4.679 -1.7941 -0.3650  1.0902
 5308SOL    HW216824   2.249   4.529   4.798  0.7994  0.3905  0.4948
 5309SOL     OW16825   4.612   5.279   4.117 -0.2501 -0.2472  0.4499
 5309SOL    HW116826   4.709   5.288   4.139 -0.2225 -0.2356  0.3225
 5309SOL    HW216827   4.578   5.192   4.152  0.2487 -1.0968 -1.1302
 5310SOL     OW16828   5.212   3.078   2.145 -0.2063  0.1752 -0.0351
 5310SOL    HW116829   5.132   3.032   2.107  0.2893 -0.1220 -0.7340
 5310SOL    HW216830   5.189   3.115   2.235 -1.7090  1.7648 -1.0035
 5311SOL     OW16831   6.051   0.040   6.812  0.3120  0.0701 -0.0427
 5311SOL    HW116832   6.131   0.019   6.868  1.1745  0.5282 -1.0730
 5311SOL    HW216833   5.982   0.086   6.869  1.2622  0.7547  0.5809
 5312SOL     OW16834   6.528   6.181   5.855  0.2209 -0.4421  0.5078
 5312SOL    HW116835   6.618   6.139   5.841  0.6302 -0.4986  2.9266
 5312SOL    HW216836   6.520   6.213   5.949 -1.6465  1.2174 -0.1375
 5313SOL     OW16837   0.432   5.714   3.347  0.2600  0.4420 -0.1100
 5313SOL    HW116838   0.499   5.641   3.335  0.0224  0.1274  0.4652
 5313SOL    HW216839   0.474   5.790   3.396  0.1580  0.1854  0.3796
 5314SOL     OW16840   6.741   2.605   2.778  0.4688 -0.1221 -0.1030
 5314SOL    HW116841   6.723   2.661   2.697 -0.1546  0.3181  0.3209
 5314SOL    HW216842   6.656   2.563   2.809  0.0803  1.8916  1.8786
 5315SOL     OW16843   3.843   0.415   4.108  0.5841  0.2676  0.5635
 5315SOL    HW116844   3.828   0.477   4.186  0.1205  0.3756  0.3891
 5315SOL    HW216845   3.756   0.393   4.065  0.9011  0.8202 -0.4034
 5316SOL     OW16846   6.382   2.174   3.606  0.1351 -0.0567  0.5088
 5316SOL    HW116847   6.304   2.112   3.610  0.3818 -0.4577 -0.6278
 5316SOL    HW216848   6.351   2.268   3.614 -0.4228 -0.2368  0.4684
 5317SOL     OW16849   5.122   1.086   5.832  0.3831  0.3666  0.5019
 5317SOL    HW116850   5.044   1.039   5.791 -0.5217 -0.1382  2.6472
 5317SOL    HW216851   5.179   1.019   5.880  0.8899  1.0404  0.8489
 5318SOL     OW16852   1.119   3.889   4.469  0.0202 -0.2855  0.0400
 5318SOL    HW116853   1.176   3.902   4.550  1.8447 -2.1666 -0.8560
 5318SOL    HW216854   1.065   3.805   4.480 -0.1342 -0.2586 -0.4788
 5319SOL     OW16855   2.535   5.996   2.196  0.2547 -0.3552 -0.7488
 5319SOL    HW116856   2.538   6.089   2.234  2.1704 -0.6277 -0.1131
 5319SOL    HW216857   2.608   5.941   2.237 -0.8209 -2.1535 -1.1366
 5320SOL     OW16858   4.030   6.375   0.448 -0.5378 -0.0471 -0.7384
 5320SOL    HW116859   4.002   6.300   0.387 -0.9460 -0.7347  0.2666
 5320SOL    HW216860   3.949   6.419   0.486 -0.3536 -1.7336  1.8164
 5321SOL     OW16861   1.288   4.142   5.412  0.5174 -0.1872 -0.1693
 5321SOL    HW116862   1.216   4.191   5.364  0.3166 -1.1895 -0.9253
 5321SOL    HW216863   1.344   4.091   5.346  0.8127 -0.8459  0.5644
 5322SOL     OW16864   0.224   6.554   0.202  0.4953  0.0742 -0.3752
 5322SOL    HW116865   0.295   6.602   0.253  0.4625  0.3005 -0.5397
 5322SOL    HW216866   0.166   6.620   0.155  0.4753 -0.1265 -0.6374
 5323SOL     OW16867   2.183   1.659   6.135 -0.0184 -0.2591  0.0030
 5323SOL    HW116868   2.151   1.589   6.071  0.8215  1.2558 -2.2381
 5323SOL    HW216869   2.259   1.623   6.188  1.5096 -0.6453 -2.2835
 5324SOL     OW16870   0.957   0.278   0.529  0.5903  0.3612 -0.0576
 5324SOL    HW116871   1.013   0.350   0.487 -0.0495  1.3084  0.6503
 5324SOL    HW216872   0.915   0.314   0.612 -2.9588  0.4636 -1.7492
 5325SOL     OW16873   3.143   2.153   4.850  0.2045 -0.4321 -0.0906
 5325SOL    HW116874   3.176   2.223   4.914  2.4120 -1.0724 -0.4319
 5325SOL    HW216875   3.162   2.181   4.756 -0.5647 -0.6895 -0.3309
 5326SOL     OW16876   6.932   5.560   1.093  0.2135  0.2033  0.1592
 5326SOL    HW116877   6.908   5.540   0.998  1.0469 -0.1650  0.0146
 5326SOL    HW216878   6.959   5.656   1.101  1.9732 -0.1985 -0.3912
 5327SOL     OW16879   6.517   5.036   3.880 -0.0439  0.4091 -0.2746
 5327SOL    HW116880   6.520   5.054   3.978  2.2978 -1.9509  0.2200
 5327SOL    HW216881   6.426   5.058   3.844 -0.9686  1.3113  2.3882
 5328SOL     OW16882   2.997   4.701   1.221  0.9390 -0.4416  0.1295
 5328SOL    HW116883   3.021   4.772   1.287  1.0638  1.1127 -1.5006
 5328SOL    HW216884   2.926   4.735   1.160  0.2750 -2.1144 -0.0836
 5329SOL     OW16885   5.823   0.476   1.047  0.1012 -0.1462 -0.4384
 5329SOL    HW116886   5.820   0.453   0.950 -0.8684 -0.2675 -0.3849
 5329SOL    HW216887   5.892   0.420   1.092  1.4122  0.7533 -1.2679
 5330SOL     OW16888   4.020   2.125   1.518  0.1940 -0.3824 -0.2941
 5330SOL    HW116889   4.075   2.150   1.438 -0.5922 -1.5351 -1.2438
 5330SOL    HW216890   3.930   2.094   1.488 -0.3529 -0.2329  1.1057
 5331SOL     OW16891   5.749   1.243   5.525 -0.2047  0.7734  0.5059
 5331SOL    HW116892   5.731   1.339   5.506 -1.2242  0.7346  1.1560
 5331SOL    HW216893   5.697   1.215   5.607  1.2741  0.0622  1.2381
 5332SOL     OW16894   0.700   5.783   3.704 -0.0530 -0.5479 -0.1598
 5332SOL    HW116895   0.713   5.881   3.692  1.9607 -0.8733 -1.1219
 5332SOL    HW216896   0.607   5.759   3.678 -0.1512  0.9212 -1.3240
 5333SOL     OW16897   1.500   0.010   4.514 -0.2674  0.1789 -0.2438
 5333SOL    HW116898   1.521   0.105   4.537 -1.1360  0.3634 -0.1875
 5333SOL    HW216899   1.403  -0.008   4.527 -0.1657 -0.6506 -0.5053
 5334SOL     OW16900   2.111   0.191   4.410 -0.0044 -0.4692 -0.3206
 5334SOL    HW116901   2.026   0.140   4.427  0.2631 -0.6790  0.4188
 5334SOL    HW216902   2.098   0.287   4.435 -0.2055 -0.3694 -0.7879
 5335SOL     OW16903   6.253   7.014   5.507  0.0933  0.4021  0.2300
 5335SOL    HW116904   6.275   7.108   5.481  2.2059  0.2434  1.2137
 5335SOL    HW216905   6.337   6.966   5.531 -0.9374 -1.7915 -0.3286
 5336SOL     OW16906   0.558   5.194   3.170 -0.0868  0.5360 -0.1709
 5336SOL    HW116907   0.532   5.242   3.254  1.4992  0.2108  0.5509
 5336SOL    HW216908   0.476   5.158   3.125 -1.1418  2.3644  0.2029
 5337SOL     OW16909   4.773   4.347   1.087 -0.0205 -0.8229  0.0862
 5337SOL    HW116910   4.744   4.441   1.074 -1.1430 -1.3033 -1.2311
 5337SOL    HW216911   4.815   4.336   1.177  0.8516  1.0803 -0.0537
 5338SOL     OW16912   6.299   1.511   5.957  0.1211  0.4929  0.0968
 5338SOL    HW116913   6.286   1.595   5.905  3.2576  0.6298 -0.6402
 5338SOL    HW216914   6.252   1.435   5.911 -0.7182  1.3726 -0.5311
 5339SOL     OW16915   5.189   0.733   5.363  0.0441  0.7870 -0.2506
 5339SOL    HW116916   5.206   0.808   5.299  0.8233  0.5002 -0.3898
 5339SOL    HW216917   5.125   0.668   5.322 -1.8223  2.0921  0.4464
 5340SOL     OW16918   4.881   1.980   6.240 -0.1095 -0.3937 -0.3036
 5340SOL    HW116919   4.965   1.961   6.291 -0.7720 -0.3104  0.8597
 5340SOL    HW216920   4.802   1.953   6.296 -0.9633  2.0080 -0.2462
 5341SOL     OW16921   5.227   0.365   5.835 -0.0596  0.3526 -0.2662
 5341SOL    HW116922   5.197   0.270   5.841  1.7739 -0.2265  0.5026
 5341SOL    HW216923   5.147   0.426   5.835 -1.2304 -1.0857  1.3741
 5342SOL     OW16924   4.963   6.559   5.424  0.2106 -0.6846 -0.1030
 5342SOL    HW116925   4.902   6.543   5.501 -0.6886 -0.0544 -0.6598
 5342SOL    HW216926   4.931   6.507   5.345  0.1597 -0.0402 -0.5135
 5343SOL     OW16927   3.717   4.086   3.706 -0.1154 -0.2525 -0.4258
 5343SOL    HW116928   3.766   4.099   3.619 -0.0043 -1.4492 -0.5682
 5343SOL    HW216929   3.783   4.080   3.781 -0.2326  1.1681 -0.1896
 5344SOL     OW16930   1.935   0.683   3.940 -0.3945 -0.2437 -0.1053
 5344SOL    HW116931   1.843   0.652   3.918 -1.7201  2.1574  1.6714
 5344SOL    HW216932   1.931   0.768   3.992  2.8141 -0.4832  0.7701
 5345SOL     OW16933   4.676   0.840   3.692  0.2728  0.3807  0.5933
 5345SOL    HW116934   4.764   0.850   3.646  0.6868  0.2650  1.3377
 5345SOL    HW216935   4.688   0.858   3.790 -0.0712 -1.7673  1.0931
 5346SOL     OW16936   2.222   5.684   3.424  0.5642 -0.3281 -0.2038
 5346SOL    HW116937   2.167   5.751   3.376  0.3268 -0.2945  0.1126
 5346SOL    HW216938   2.289   5.644   3.361  1.2025  0.7258 -0.2182
 5347SOL     OW16939   6.463   0.656   2.497  0.2114  0.2750 -0.2491
 5347SOL    HW116940   6.474   0.596   2.418  1.2195 -0.2782  0.2948
 5347SOL    HW216941   6.405   0.611   2.565  0.3142  0.2570 -0.1739
 5348SOL     OW16942   6.601   0.012   0.431 -0.2701  0.2245 -0.5346
 5348SOL    HW116943   6.608   0.105   0.393 -1.5385  0.4507 -0.2675
 5348SOL    HW216944   6.687  -0.013   0.474  0.4457  0.8570 -1.5459
 5349SOL     OW16945   5.620   6.365   0.896  0.3003  0.2675  0.4045
 5349SOL    HW116946   5.584   6.351   0.804 -0.4345  1.1037  0.5435
 5349SOL    HW216947   5.544   6.375   0.960  0.7899  0.6977  0.9331
 5350SOL     OW16948   1.755   2.315   5.801  0.5808 -0.0187 -0.2403
 5350SOL    HW116949   1.831   2.275   5.749  0.3682  1.9076 -2.2003
 5350SOL    HW216950   1.757   2.414   5.790  0.5970  0.5450  3.7250
 5351SOL     OW16951   5.841   0.418   2.505  0.5041  0.3955  0.6233
 5351SOL    HW116952   5.909   0.371   2.449 -0.1935 -0.4974  0.5016
 5351SOL    HW216953   5.884   0.450   2.589  1.3276  0.8544  0.0451
 5352SOL     OW16954   1.491   4.724   4.079  0.4535  0.1123 -0.1104
 5352SOL    HW116955   1.573   4.722   4.022  1.1834  0.6531  0.8859
 5352SOL    HW216956   1.413   4.692   4.026  1.3467 -0.6530 -1.0081
 5353SOL     OW16957   6.997   6.581   4.134  0.1813 -0.0585 -0.0990
 5353SOL    HW116958   7.059   6.542   4.202 -0.1121  1.8006  1.3326
 5353SOL    HW216959   7.025   6.552   4.043  0.6563 -2.5590  0.7490
 5354SOL     OW16960   6.309   3.662   2.040 -0.0510  0.1367 -0.1972
 5354SOL    HW116961   6.229   3.628   1.990 -0.4031  1.0703 -0.2818
 5354SOL    HW216962   6.314   3.617   2.129 -0.5942 -0.0141 -0.2415
 5355SOL     OW16963   4.513   2.542   4.499  0.0904 -0.0630 -0.3172
 5355SOL    HW116964   4.568   2.541   4.416  0.3177 -0.3212 -0.1683
 5355SOL    HW216965   4.492   2.636   4.525  0.4898  0.0381 -0.3570
 5356SOL     OW16966   4.801   3.362   0.850 -0.3666 -0.3725  0.0343
 5356SOL    HW116967   4.900   3.373   0.834 -0.5465  0.2140 -0.7166
 5356SOL    HW216968   4.782   3.371   0.947  0.3488 -0.6914  0.2121
 5357SOL     OW16969   5.423   6.253   6.849  0.7610  0.3393 -0.4010
 5357SOL    HW116970   5.523   6.258   6.857  0.7955 -2.2279  2.3699
 5357SOL    HW216971   5.383   6.245   6.940 -1.9272  0.2054 -1.5192
 5358SOL     OW16972   4.580   2.221   5.918  0.9785  0.4250  0.5673
 5358SOL    HW116973   4.654   2.288   5.929  0.1090  1.7472 -1.0593
 5358SOL    HW216974   4.618   2.129   5.914  2.3881  0.9550  1.1477
 5359SOL     OW16975   3.471   6.764   5.999 -0.0069  0.2239  0.5615
 5359SOL    HW116976   3.482   6.669   5.970  0.7695  0.0660  1.3136
 5359SOL    HW216977   3.539   6.821   5.952  2.2565 -0.2650  3.0104
 5360SOL     OW16978   3.111   6.335   5.849  0.1940  0.5054  0.4484
 5360SOL    HW116979   3.169   6.307   5.926  1.6870  0.4538 -0.6657
 5360SOL    HW216980   3.141   6.424   5.815  0.2765  0.0179 -0.7836
 5361SOL     OW16981   1.501   0.454   6.308  0.1925 -0.2420  0.2963
 5361SOL    HW116982   1.561   0.386   6.267  1.4184  0.7999  0.2915
 5361SOL    HW216983   1.411   0.413   6.326  0.0827 -1.1504 -1.9874
 5362SOL     OW16984   5.922   4.604   0.831  0.6606 -0.2815 -0.6990
 5362SOL    HW116985   5.920   4.685   0.773  1.3349  1.7363  1.8971
 5362SOL    HW216986   5.847   4.608   0.897  1.7051 -0.8504  0.5808
 5363SOL     OW16987   2.272   5.082   0.016  0.7287 -0.6885  0.7219
 5363SOL    HW116988   2.347   5.070  -0.050 -0.3734  0.8829 -0.9227
 5363SOL    HW216989   2.207   5.148  -0.020 -0.3244 -0.3145  3.1201
 5364SOL     OW16990   0.535   0.095   0.475  0.3244  0.0494 -0.1536
 5364SOL    HW116991   0.480   0.024   0.430  0.6723 -0.3425  0.0232
 5364SOL    HW216992   0.624   0.101   0.430  0.7047 -0.4026  0.5137
 5365SOL     OW16993   5.014   1.776   4.875 -0.0828  0.9123  0.0155
 5365SOL    HW116994   4.992   1.823   4.790  0.8263 -0.1125 -0.8152
 5365SOL    HW216995   5.019   1.677   4.858  0.2834  0.7067  1.2224
 5366SOL     OW16996   1.947   5.034   6.149 -0.1863  0.4252 -0.4228
 5366SOL    HW116997   1.890   4.952   6.162 -0.7498  0.9384  0.3916
 5366SOL    HW216998   2.031   5.025   6.202 -1.1123  1.1844  1.2624
 5367SOL     OW16999   1.111   6.863   1.174  1.0638 -0.2720  0.1435
 5367SOL    HW117000   1.026   6.811   1.172  0.2449  0.9409  1.7766
 5367SOL    HW217001   1.094   6.955   1.209  2.2895  1.5087 -3.4128
 5368SOL     OW17002   0.664   1.832   1.335  0.5103 -0.2011 -0.0262
 5368SOL    HW117003   0.738   1.867   1.277  0.5592 -0.7799 -0.3150
 5368SOL    HW217004   0.697   1.753   1.387 -0.5642 -2.0073 -1.9529
 5369SOL     OW17005   2.108   5.622   4.237  0.0649  0.0014 -0.1713
 5369SOL    HW117006   2.053   5.658   4.311 -0.7972 -0.6886 -0.4639
 5369SOL    HW217007   2.164   5.696   4.198 -0.6911  0.7267  0.0880
 5370SOL     OW17008   1.637   3.876   0.852 -0.0611 -0.2692  0.4459
 5370SOL    HW117009   1.638   3.955   0.791  1.3863  0.6260  1.5614
 5370SOL    HW217010   1.662   3.905   0.945 -1.7179 -1.6626  1.3951
 5371SOL     OW17011   1.598   4.313   6.196  0.4410  0.8791 -0.0015
 5371SOL    HW117012   1.609   4.345   6.102  1.1871 -1.0272 -0.6224
 5371SOL    HW217013   1.622   4.387   6.260  0.7366  1.9490 -1.3033
 5372SOL     OW17014   4.663   5.568   1.469  0.0762 -0.2730 -0.1603
 5372SOL    HW117015   4.678   5.470   1.463 -1.6656 -0.6420  0.7102
 5372SOL    HW217016   4.595   5.596   1.401  0.4909  0.3113 -0.3406
 5373SOL     OW17017   4.272   4.627   2.422 -0.1682  0.3930 -0.3700
 5373SOL    HW117018   4.228   4.656   2.337 -0.0751  2.0087  0.1009
 5373SOL    HW217019   4.201   4.601   2.488 -0.4260  2.2064  0.1103
 5374SOL     OW17020   3.292   1.513   0.130  0.3409  0.1586 -0.5353
 5374SOL    HW117021   3.375   1.506   0.185 -1.7705  0.0376  2.9140
 5374SOL    HW217022   3.240   1.593   0.158 -1.9578 -1.2178 -0.5951
 5375SOL     OW17023   1.984   4.461   4.178  0.2566  0.7319 -1.0931
 5375SOL    HW117024   2.079   4.447   4.204 -0.0487  2.1682  0.9564
 5375SOL    HW217025   1.962   4.558   4.180 -1.4687  0.3665 -0.7504
 5376SOL     OW17026   1.840   4.294   1.077 -0.1659 -0.9584  0.4448
 5376SOL    HW117027   1.762   4.315   1.017  0.0663 -2.4110 -0.4051
 5376SOL    HW217028   1.921   4.276   1.022  0.9126  0.8572  1.3293
 5377SOL     OW17029   0.784   6.692   5.870 -0.2141 -0.0739  0.3887
 5377SOL    HW117030   0.719   6.686   5.945 -2.1030 -2.3866 -1.2957
 5377SOL    HW217031   0.735   6.705   5.784  1.8771  2.4055 -0.5787
 5378SOL     OW17032   0.154   1.770   0.055  0.1862 -0.2822  0.2050
 5378SOL    HW117033   0.194   1.802   0.141  0.7274 -0.8409  0.1675
 5378SOL    HW217034   0.211   1.799  -0.021  0.8925 -1.6242  0.1937
 5379SOL     OW17035   0.025   5.767   1.681 -0.1518  0.0134 -0.1720
 5379SOL    HW117036   0.036   5.848   1.623 -2.4574  0.9716  0.6542
 5379SOL    HW217037  -0.014   5.693   1.627  0.3331 -0.0053 -0.5050
 5380SOL     OW17038   2.350   5.493   3.945  0.3114  0.0058  0.1183
 5380SOL    HW117039   2.300   5.543   3.873  0.2024  0.3301  0.4161
 5380SOL    HW217040   2.432   5.544   3.969  0.2926 -0.0499  0.2983
 5381SOL     OW17041   5.561   4.576   1.610  0.3425  0.0474 -0.1761
 5381SOL    HW117042   5.542   4.648   1.543 -1.9992 -0.1781  0.1808
 5381SOL    HW217043   5.637   4.521   1.577  0.7332  1.3121 -1.5381
 5382SOL     OW17044   1.065   1.527   2.643  0.3532 -0.0038 -0.2109
 5382SOL    HW117045   1.022   1.548   2.555  1.0473  2.4282 -0.0486
 5382SOL    HW217046   1.055   1.605   2.705  1.7485 -0.8203  1.1269
 5383SOL     OW17047   2.916   2.159   6.540 -0.2302 -0.4136 -0.5553
 5383SOL    HW117048   2.918   2.110   6.453 -0.7288  0.4627 -1.0693
 5383SOL    HW217049   2.856   2.238   6.533  1.7755  1.2269 -0.2506
 5384SOL     OW17050   3.209   5.372   3.462  0.2074 -0.5684 -0.0116
 5384SOL    HW117051   3.273   5.300   3.487  0.3018 -0.1646  0.9649
 5384SOL    HW217052   3.199   5.436   3.538  1.2758  1.2953 -1.3559
 5385SOL     OW17053   3.251   2.975   4.097 -0.0359 -0.1247 -0.2147
 5385SOL    HW117054   3.210   2.967   4.007 -1.5160  0.5263  0.3681
 5385SOL    HW217055   3.288   3.067   4.109  1.0665 -0.5166 -0.5067
 5386SOL     OW17056   5.709   0.652   6.795 -0.2701  0.3725 -0.4373
 5386SOL    HW117057   5.783   0.632   6.859 -0.3691  1.2009 -0.0460
 5386SOL    HW217058   5.708   0.584   6.722  0.5975  0.1019 -0.2060
 5387SOL     OW17059   2.152   4.226   1.652 -0.0047 -0.2258 -0.2909
 5387SOL    HW117060   2.125   4.132   1.672  0.8952 -0.5041 -0.3592
 5387SOL    HW217061   2.222   4.226   1.581  0.1502  0.4863 -0.1400
 5388SOL     OW17062   6.178   6.195   3.272  0.3232  0.2996 -0.1911
 5388SOL    HW117063   6.103   6.143   3.314 -0.2577  0.0668 -1.4794
 5388SOL    HW217064   6.265   6.165   3.311  0.1882 -2.8262 -1.9790
 5389SOL     OW17065   6.064   1.645   2.179 -0.3835 -0.2965 -0.0300
 5389SOL    HW117066   6.122   1.587   2.236 -0.9261  0.0078  0.8468
 5389SOL    HW217067   6.095   1.740   2.186 -0.2282 -0.3036 -0.5412
 5390SOL     OW17068   1.089   3.075   6.624 -0.1647  0.1350  0.0753
 5390SOL    HW117069   1.144   3.109   6.548 -0.9932 -0.2163 -0.7032
 5390SOL    HW217070   0.992   3.096   6.608 -0.3681 -0.0787  0.9565
 5391SOL     OW17071   2.254   2.974   0.374  0.1076  0.1563  0.0295
 5391SOL    HW117072   2.274   2.888   0.328 -1.0446 -0.2148  0.1775
 5391SOL    HW217073   2.239   2.956   0.472 -0.7081  0.4344 -0.0417
 5392SOL     OW17074   5.542   3.381   1.378  0.2591 -1.3651  0.1275
 5392SOL    HW117075   5.448   3.349   1.373 -0.4529  0.5237  0.5796
 5392SOL    HW217076   5.577   3.397   1.285 -0.9612  0.7783 -0.0345
 5393SOL     OW17077   0.141   6.136   6.812 -0.3714  0.0997 -0.7417
 5393SOL    HW117078   0.133   6.168   6.907  0.9342  0.0528 -0.5947
 5393SOL    HW217079   0.055   6.094   6.784 -1.0164  0.7663  0.1770
 5394SOL     OW17080   2.143   4.627   6.771  0.5890  0.2696 -0.2406
 5394SOL    HW117081   2.169   4.532   6.751  0.7251  0.1389  0.5306
 5394SOL    HW217082   2.194   4.659   6.850  0.2332  0.8554 -0.2452
 5395SOL     OW17083   3.543   1.742   5.382 -0.5152 -0.0594  0.3978
 5395SOL    HW117084   3.619   1.798   5.348  1.0765 -2.1828  0.2860
 5395SOL    HW217085   3.514   1.679   5.310 -3.4540  1.6518 -0.0841
 5396SOL     OW17086   6.881   1.709   1.771 -0.1819 -0.3741  0.2740
 5396SOL    HW117087   6.976   1.679   1.760  0.0551  1.0625 -2.2485
 5396SOL    HW217088   6.859   1.778   1.702 -3.1246 -0.7726  0.6736
 5397SOL     OW17089   1.405   3.689   2.399  0.0697 -0.3367  0.1444
 5397SOL    HW117090   1.423   3.762   2.464 -1.7251  0.8225 -0.5850
 5397SOL    HW217091   1.446   3.711   2.310  0.2776 -0.6453  0.1617
 5398SOL     OW17092   3.638   1.753   0.847  0.2851  0.4268 -0.1637
 5398SOL    HW117093   3.694   1.818   0.898  1.4437 -0.0385 -0.8226
 5398SOL    HW217094   3.643   1.663   0.891  0.2617  0.3226 -0.3755
 5399SOL     OW17095   0.953   5.822   1.722 -0.3231 -0.0226  0.4840
 5399SOL    HW117096   0.861   5.800   1.754  0.8037 -2.0339  2.6515
 5399SOL    HW217097   1.003   5.869   1.795  0.6455  0.2126 -0.3155
 5400SOL     OW17098   2.478   3.076   0.823 -0.0964  0.0275  0.1127
 5400SOL    HW117099   2.417   3.081   0.903 -0.2229  0.4958 -0.0108
 5400SOL    HW217100   2.494   3.168   0.788  2.5305  0.1914  1.5296
 5401SOL     OW17101   0.041   2.600   0.289  0.1989  0.0242 -1.3106
 5401SOL    HW117102  -0.059   2.599   0.297  0.3364  0.9469  1.4424
 5401SOL    HW217103   0.067   2.570   0.197 -2.6079  0.4547 -2.3467
 5402SOL     OW17104   1.162   6.867   1.616 -0.0585  0.4820 -0.3251
 5402SOL    HW117105   1.121   6.785   1.655  0.4920  0.7824  0.9466
 5402SOL    HW217106   1.114   6.892   1.532 -1.4721 -0.0329  0.2969
 5403SOL     OW17107   1.280   2.698   6.175 -0.2518 -0.1716 -0.1974
 5403SOL    HW117108   1.282   2.781   6.119  1.5270  0.2883  0.4833
 5403SOL    HW217109   1.374   2.671   6.198 -0.8817 -1.1169  1.4385
 5404SOL     OW17110   1.785   3.745   4.420 -0.0106  0.3251  0.2225
 5404SOL    HW117111   1.721   3.733   4.496  0.9294 -0.4384  0.9235
 5404SOL    HW217112   1.770   3.834   4.378 -2.3346 -0.2867 -0.4238
 5405SOL     OW17113   5.346   6.501   4.293  0.4533  0.3075 -0.5502
 5405SOL    HW117114   5.423   6.445   4.325 -0.0495 -0.6655 -1.0086
 5405SOL    HW217115   5.375   6.596   4.285  1.4239  0.0618 -0.0913
 5406SOL     OW17116   2.346   0.045   5.550 -0.0323 -0.1436 -0.1629
 5406SOL    HW117117   2.280  -0.004   5.493 -0.1431  0.2576 -0.3759
 5406SOL    HW217118   2.358   0.138   5.516  0.1419 -0.0032  0.2741
 5407SOL     OW17119   3.328   3.602   0.851 -0.0794 -0.0370  0.3487
 5407SOL    HW117120   3.251   3.628   0.910 -0.2373 -1.9675  1.0457
 5407SOL    HW217121   3.294   3.580   0.759 -0.3397 -0.6776  0.5956
 5408SOL     OW17122   1.525   1.486   0.487  0.3142  0.4566 -0.5386
 5408SOL    HW117123   1.528   1.585   0.499 -1.6214  0.7331 -1.9540
 5408SOL    HW217124   1.449   1.461   0.427 -0.0641 -2.0011  0.8038
 5409SOL     OW17125   3.256   4.864   2.101 -0.1193  0.0829 -0.0606
 5409SOL    HW117126   3.347   4.860   2.143  0.1353 -1.0795 -0.6704
 5409SOL    HW217127   3.186   4.861   2.173  0.2873  1.9226  0.4772
 5410SOL     OW17128   3.389   2.077   0.540  0.0701 -0.4736 -0.4738
 5410SOL    HW117129   3.476   2.062   0.587  0.1324  1.6926  0.2183
 5410SOL    HW217130   3.394   2.162   0.487 -1.8503  0.0893  0.1770
 5411SOL     OW17131   6.320   5.833   6.259  0.1553  0.2149 -0.3548
 5411SOL    HW117132   6.391   5.765   6.282  0.7695  1.7370  2.8759
 5411SOL    HW217133   6.260   5.845   6.338  0.6334  4.0325 -0.4291
 5412SOL     OW17134   5.023   2.329   0.465 -0.1345  0.2920 -0.1444
 5412SOL    HW117135   5.002   2.340   0.562 -2.1984  0.7625 -0.5980
 5412SOL    HW217136   5.033   2.231   0.444 -0.4480  0.1393  0.3949
 5413SOL     OW17137   0.664   6.953   3.536 -0.0471 -0.0568  0.0637
 5413SOL    HW117138   0.746   6.916   3.493 -1.1625 -0.0446 -2.2455
 5413SOL    HW217139   0.592   6.883   3.535  0.0047 -0.1965  2.3857
 5414SOL     OW17140   4.626   0.731   4.909  0.0745 -0.1562 -0.5686
 5414SOL    HW117141   4.593   0.787   4.833  0.3919  0.8798  0.0374
 5414SOL    HW217142   4.710   0.684   4.882 -0.2440 -0.4175 -1.1154
 5415SOL     OW17143   0.715   4.632   1.770 -0.0678  0.3546 -0.5007
 5415SOL    HW117144   0.763   4.656   1.855  0.4634  1.0216 -0.9798
 5415SOL    HW217145   0.749   4.688   1.695 -0.6295 -0.1331 -1.1389
 5416SOL     OW17146   3.591   6.576   4.273  0.2802 -0.3593 -0.2916
 5416SOL    HW117147   3.629   6.485   4.292 -2.2618 -1.9477 -2.2340
 5416SOL    HW217148   3.664   6.644   4.280  2.0920 -2.3404  2.2267
 5417SOL     OW17149   2.424   1.426   5.863  0.0183  0.0615 -0.0708
 5417SOL    HW117150   2.507   1.412   5.918  1.2747  1.3611 -1.5348
 5417SOL    HW217151   2.399   1.522   5.865 -0.4250 -0.0216 -1.0388
 5418SOL     OW17152   2.687   0.292   3.124 -0.2619  0.1602 -0.2407
 5418SOL    HW117153   2.763   0.290   3.059  0.0857 -0.3859  0.1742
 5418SOL    HW217154   2.651   0.200   3.137  1.3206 -0.2161  2.2117
 5419SOL     OW17155   2.033   4.110   6.554  0.4470 -0.2598 -1.0243
 5419SOL    HW117156   2.074   4.193   6.592  1.2039 -0.0985 -2.1502
 5419SOL    HW217157   2.062   4.031   6.608 -0.4089  0.2045  0.1542
 5420SOL     OW17158   6.620   6.611   1.989 -0.1351 -0.7335 -0.4611
 5420SOL    HW117159   6.648   6.670   2.064  0.8778 -1.4144 -0.2828
 5420SOL    HW217160   6.596   6.521   2.024 -1.6864 -0.4520 -0.7298
 5421SOL     OW17161   1.128   2.914   2.031  0.0614 -0.0679  0.2621
 5421SOL    HW117162   1.123   2.881   2.126 -1.0773  0.1110  0.2747
 5421SOL    HW217163   1.049   2.881   1.980 -0.3868  1.5004 -0.1012
 5422SOL     OW17164   1.827   5.630   1.541 -0.2329 -0.0525 -0.1679
 5422SOL    HW117165   1.876   5.555   1.586 -0.3233  0.7274  1.2994
 5422SOL    HW217166   1.843   5.715   1.592 -1.1615  0.6777 -1.0560
 5423SOL     OW17167   5.433   1.876   6.687 -0.5669 -0.9699  0.8092
 5423SOL    HW117168   5.349   1.913   6.647 -0.9289 -2.5782  0.0259
 5423SOL    HW217169   5.512   1.911   6.636 -0.8863 -1.0867  0.2265
 5424SOL     OW17170   6.098   2.488   5.629  0.2585 -0.0593  0.6131
 5424SOL    HW117171   6.062   2.579   5.611 -0.0506 -0.3314 -0.1971
 5424SOL    HW217172   6.141   2.452   5.546 -3.2386 -2.2863 -0.4891
 5425SOL     OW17173   4.373   1.193   5.941  0.2533 -0.0594 -0.6484
 5425SOL    HW117174   4.428   1.269   5.904 -0.4261 -0.1214 -1.8439
 5425SOL    HW217175   4.390   1.111   5.886  1.0267 -0.8093  0.6684
 5426SOL     OW17176   1.465   0.570   4.456  0.1318 -0.4935 -0.0609
 5426SOL    HW117177   1.469   0.595   4.359  0.5718 -0.5740 -0.0670
 5426SOL    HW217178   1.379   0.522   4.474  0.3642 -1.1299 -0.5785
 5427SOL     OW17179   4.836   6.562   0.518  0.6303 -0.1068  0.0811
 5427SOL    HW117180   4.809   6.573   0.614  0.6350  1.5421 -0.0772
 5427SOL    HW217181   4.762   6.517   0.468 -0.2607  0.9037  0.4457
 5428SOL     OW17182   2.529   0.562   5.011 -0.1825 -0.0712  0.2681
 5428SOL    HW117183   2.489   0.475   5.041 -1.5682  0.4930  0.1296
 5428SOL    HW217184   2.467   0.637   5.035  0.7156  0.8265 -0.1498
 5429SOL     OW17185   0.577   2.446   0.406 -0.5921 -0.2519 -0.4243
 5429SOL    HW117186   0.658   2.403   0.365  0.3816 -0.1929  1.3274
 5429SOL    HW217187   0.495   2.416   0.357 -0.0059 -4.1836  0.6030
 5430SOL     OW17188   2.263   2.691   0.366  0.2356  0.0389  0.1958
 5430SOL    HW117189   2.234   2.677   0.461  2.1255 -3.0683  0.4750
 5430SOL    HW217190   2.362   2.704   0.363  0.3499 -0.8748 -1.3806
 5431SOL     OW17191   4.216   5.233   5.572 -0.1359  0.1476 -0.3014
 5431SOL    HW117192   4.127   5.235   5.617  0.2569 -0.2997  0.5178
 5431SOL    HW217193   4.267   5.316   5.595  0.5129 -0.5966  1.0424
 5432SOL     OW17194   4.378   6.628   0.536  0.5558  0.1828 -0.0005
 5432SOL    HW117195   4.335   6.639   0.625  1.4939 -1.1170  0.6465
 5432SOL    HW217196   4.465   6.580   0.546  0.3588 -0.6265 -1.6828
 5433SOL     OW17197   1.658   1.484   4.394  0.1375 -0.2150 -0.4120
 5433SOL    HW117198   1.725   1.439   4.452 -0.3873 -2.2170 -1.2674
 5433SOL    HW217199   1.573   1.432   4.395 -0.7678  1.2201 -0.8374
 5434SOL     OW17200   3.228   0.988   6.358 -0.6351  0.0008  0.0623
 5434SOL    HW117201   3.298   1.005   6.288  0.0595  0.1787  0.7817
 5434SOL    HW217202   3.138   0.986   6.315 -0.2149  0.0214 -0.8475
 5435SOL     OW17203   2.379   0.426   1.275  0.5292  0.0651 -0.6512
 5435SOL    HW117204   2.302   0.490   1.271  1.9718  1.9318 -0.2096
 5435SOL    HW217205   2.345   0.333   1.287 -1.6174  0.9280  0.4183
 5436SOL     OW17206   4.276   4.729   1.286 -0.1765 -0.4177 -0.2022
 5436SOL    HW117207   4.357   4.785   1.270  1.0927 -1.8663  0.9053
 5436SOL    HW217208   4.215   4.776   1.349 -0.0331  0.5244 -0.7526
 5437SOL     OW17209   2.546   3.810   1.029  0.0991 -0.0532  0.0779
 5437SOL    HW117210   2.565   3.739   1.097  1.4055  0.6170  0.4578
 5437SOL    HW217211   2.520   3.895   1.075 -1.9749 -0.3958 -0.3937
 5438SOL     OW17212   5.880   3.149   6.916 -0.4027 -0.0995  0.3654
 5438SOL    HW117213   5.786   3.117   6.923 -0.2706 -0.1011  2.6099
 5438SOL    HW217214   5.943   3.074   6.939  0.0359  0.6958  1.8172
 5439SOL     OW17215   6.615   1.513   1.305  0.2880 -0.9979  0.5878
 5439SOL    HW117216   6.643   1.485   1.397 -0.8290 -1.5825  0.7680
 5439SOL    HW217217   6.623   1.434   1.243  0.9302 -0.6357  0.1977
 5440SOL     OW17218   2.367   0.588   0.924  0.0501 -0.3411  0.1143
 5440SOL    HW117219   2.370   0.638   0.838  1.5918 -4.0200 -2.2355
 5440SOL    HW217220   2.315   0.503   0.911  1.6746 -1.7828  2.3301
 5441SOL     OW17221   3.124   1.933   2.552 -0.1043 -0.4230 -0.1712
 5441SOL    HW117222   3.053   1.968   2.491  0.1643 -0.4046 -0.4793
 5441SOL    HW217223   3.169   2.010   2.599 -0.2963 -0.4356  0.0332
 5442SOL     OW17224   5.538   6.493   3.142 -0.2185  0.3059 -0.4011
 5442SOL    HW117225   5.447   6.533   3.152  0.1933  1.3231 -0.6615
 5442SOL    HW217226   5.552   6.425   3.215 -1.1420  0.2058 -0.3051
 5443SOL     OW17227   4.593   6.218   4.539  0.7112 -0.1570  0.0842
 5443SOL    HW117228   4.569   6.272   4.458  1.9652  0.3102 -0.0028
 5443SOL    HW217229   4.667   6.155   4.516  3.1010  1.9232  1.4615
 5444SOL     OW17230   1.552   0.153   2.911  0.4723  0.0065 -0.0290
 5444SOL    HW117231   1.583   0.179   3.002  0.6581  0.2588 -0.1627
 5444SOL    HW217232   1.551   0.233   2.852  0.7785 -0.2325 -0.3672
 5445SOL     OW17233   5.290   4.436   0.254 -0.1923 -0.7663 -0.0723
 5445SOL    HW117234   5.374   4.392   0.222  0.0702 -0.5963  0.3795
 5445SOL    HW217235   5.256   4.497   0.183 -0.1370 -1.1091 -0.4011
 5446SOL     OW17236   6.519   3.548   0.291 -0.3047 -0.1763 -0.2607
 5446SOL    HW117237   6.488   3.551   0.196 -1.7720  0.2838  0.2099
 5446SOL    HW217238   6.453   3.594   0.350 -0.2706 -1.9167  1.2323
 5447SOL     OW17239   2.103   4.027   6.922 -0.5739  0.1735  0.0364
 5447SOL    HW117240   2.092   4.126   6.914 -0.9677  0.0635 -0.9123
 5447SOL    HW217241   2.021   3.988   6.966 -0.4282  0.2573  0.3898
 5448SOL     OW17242   4.672   2.444   5.026 -0.1763  0.0817  0.5775
 5448SOL    HW117243   4.615   2.523   5.045  1.1532  1.6335 -1.4155
 5448SOL    HW217244   4.690   2.439   4.928  1.9334 -1.1485  0.9645
 5449SOL     OW17245   1.660   5.385   1.865  0.3326  0.8315  0.0224
 5449SOL    HW117246   1.723   5.405   1.940  0.1355 -0.9957  0.7289
 5449SOL    HW217247   1.649   5.286   1.856  0.6244  0.9699 -2.6797
 5450SOL     OW17248   0.135   0.146   0.443  0.4877 -0.0541 -0.5006
 5450SOL    HW117249   0.117   0.239   0.473 -1.8292 -0.8430  0.8677
 5450SOL    HW217250   0.195   0.101   0.510  1.8355  0.4937 -1.3066
 5451SOL     OW17251   2.060   5.946   3.664 -0.5665  0.3505 -0.3395
 5451SOL    HW117252   2.151   5.988   3.661  0.0017 -0.8072 -3.8627
 5451SOL    HW217253   2.057   5.879   3.738  1.2856  0.7471  0.1409
 5452SOL     OW17254   2.107   3.087   6.820  0.1835  0.1914 -0.3740
 5452SOL    HW117255   2.142   3.179   6.837 -0.2045 -0.0003  1.7213
 5452SOL    HW217256   2.007   3.089   6.817  0.2146  0.1876 -2.8188
 5453SOL     OW17257   4.281   4.155   6.936 -0.2051 -0.5070 -0.5626
 5453SOL    HW117258   4.303   4.113   6.848 -1.8853  0.0402 -1.2770
 5453SOL    HW217259   4.293   4.254   6.930 -2.3276 -0.2178 -0.8757
 5454SOL     OW17260   6.487   4.966   6.134 -0.0432 -0.0689 -0.5221
 5454SOL    HW117261   6.566   4.972   6.195  0.3894 -1.2059 -0.9453
 5454SOL    HW217262   6.413   5.024   6.169  0.2528 -0.5556  0.9978
 5455SOL     OW17263   5.682   4.604   5.869 -0.3393  0.5357 -0.3811
 5455SOL    HW117264   5.659   4.692   5.912  1.0671  0.0846  1.4523
 5455SOL    HW217265   5.765   4.615   5.814 -0.4729  0.4745 -0.5937
 5456SOL     OW17266   2.550   0.198   1.983 -0.0370 -0.9647 -0.3650
 5456SOL    HW117267   2.542   0.147   2.068 -0.7637 -0.0737  0.1116
 5456SOL    HW217268   2.489   0.158   1.914  1.5075 -2.5036 -0.9152
 5457SOL     OW17269   4.843   2.118   0.191 -0.0551 -0.1370 -0.3910
 5457SOL    HW117270   4.765   2.058   0.211  1.1162 -2.3216 -1.9002
 5457SOL    HW217271   4.915   2.101   0.258  1.3138 -2.5761 -2.2932
 5458SOL     OW17272   2.344   2.582   1.814  0.6951  0.0813  0.1211
 5458SOL    HW117273   2.359   2.484   1.821  2.1282  0.2500 -0.3000
 5458SOL    HW217274   2.264   2.600   1.757  1.6043 -0.8151 -1.5038
 5459SOL     OW17275   2.815   3.824   5.530  0.1038 -0.4779  0.0457
 5459SOL    HW117276   2.799   3.727   5.549 -1.7261 -0.4490 -1.0273
 5459SOL    HW217277   2.778   3.846   5.440  2.3066  0.8140 -0.6225
 5460SOL     OW17278   3.639   1.984   1.326  0.1151  0.0709  0.3414
 5460SOL    HW117279   3.732   2.020   1.329  0.4893 -0.7989 -0.5370
 5460SOL    HW217280   3.632   1.906   1.387 -0.3219  0.7451  1.1737
 5461SOL     OW17281   4.461   6.866   3.892  0.2684  0.0649  0.1010
 5461SOL    HW117282   4.550   6.830   3.867  1.5865  0.7327  3.3577
 5461SOL    HW217283   4.427   6.924   3.818  1.7588 -1.4252 -1.8557
 5462SOL     OW17284   2.159   2.045   2.306  0.2866  0.0936 -0.0797
 5462SOL    HW117285   2.114   2.095   2.233 -1.2086  2.0815  2.0554
 5462SOL    HW217286   2.236   1.993   2.269 -0.1620  1.3097 -2.9406
 5463SOL     OW17287   5.807   3.784   6.495  0.4448 -0.5291  0.0702
 5463SOL    HW117288   5.804   3.884   6.493 -1.6372 -0.5438 -2.1843
 5463SOL    HW217289   5.870   3.750   6.425 -1.2566 -0.7376 -1.4378
 5464SOL     OW17290   3.651   6.633   2.894 -0.3158  0.1773 -0.5924
 5464SOL    HW117291   3.597   6.649   2.977 -1.2385 -0.8990 -0.9476
 5464SOL    HW217292   3.594   6.652   2.814 -0.7445 -2.3929 -1.0005
 5465SOL     OW17293   3.306   6.630   6.920  0.1809  0.3456 -0.1455
 5465SOL    HW117294   3.214   6.669   6.926 -0.4290 -1.1584  0.9073
 5465SOL    HW217295   3.366   6.678   6.984 -0.5511 -0.3827  1.1255
 5466SOL     OW17296   3.946   5.457   4.635 -0.2888 -0.9637 -0.3044
 5466SOL    HW117297   3.907   5.542   4.670 -0.5383 -0.5619 -1.4991
 5466SOL    HW217298   3.877   5.408   4.581  0.5936 -0.6481 -1.7631
 5467SOL     OW17299   5.861   2.169   4.214 -0.0864 -0.3332  0.3425
 5467SOL    HW117300   5.891   2.159   4.308 -3.4446 -0.2760  1.5350
 5467SOL    HW217301   5.850   2.079   4.172  4.0022 -0.3951 -1.0990
 5468SOL     OW17302   4.161   1.933   5.044  0.0510  0.0476  0.2287
 5468SOL    HW117303   4.141   1.876   5.123  0.0842 -0.3533 -0.0517
 5468SOL    HW217304   4.126   2.026   5.060 -1.7408 -0.5337 -0.1039
 5469SOL     OW17305   3.680   4.836   6.745 -0.0387  0.4948  0.1401
 5469SOL    HW117306   3.776   4.816   6.763  0.6545  0.8421 -2.7402
 5469SOL    HW217307   3.647   4.903   6.812  2.0520  1.2075  0.5258
 5470SOL     OW17308   1.281   6.222   3.982  0.4804  0.0336 -0.3248
 5470SOL    HW117309   1.260   6.302   4.038 -0.7679 -0.4463 -0.0521
 5470SOL    HW217310   1.325   6.250   3.897 -2.0414  1.3070 -1.3304
 5471SOL     OW17311   0.012   4.667   0.491  0.2361 -0.3273  0.8875
 5471SOL    HW117312   0.099   4.708   0.519  0.7951 -1.1395  0.3656
 5471SOL    HW217313   0.013   4.569   0.511 -0.1075 -0.5582 -0.1697
 5472SOL     OW17314   4.578   5.128   6.313  0.1865 -0.0492 -0.2425
 5472SOL    HW117315   4.547   5.089   6.226  1.8594  1.3998 -1.5474
 5472SOL    HW217316   4.659   5.078   6.345  0.2317  0.1223 -0.0887
 5473SOL     OW17317   0.196   4.324   3.923  0.4036 -0.0805  0.2453
 5473SOL    HW117318   0.101   4.291   3.920 -0.4162  2.1048  0.1186
 5473SOL    HW217319   0.225   4.333   4.018 -0.4291  1.5450  0.3784
 5474SOL     OW17320   1.414   4.833   4.833 -0.4432 -0.0490 -0.3638
 5474SOL    HW117321   1.505   4.803   4.863  0.4457  1.3117 -1.5355
 5474SOL    HW217322   1.346   4.807   4.901  0.7162 -1.6392  0.2682
 5475SOL     OW17323   2.747   1.918   1.891  0.4210  0.5627 -0.4059
 5475SOL    HW117324   2.662   1.866   1.880 -0.3633  1.8088 -0.4690
 5475SOL    HW217325   2.825   1.855   1.895 -0.6272 -0.7185  1.1392
 5476SOL     OW17326   2.630   1.504   6.474 -0.8737 -0.4097  0.0739
 5476SOL    HW117327   2.717   1.456   6.459 -0.5823  0.8470 -2.9253
 5476SOL    HW217328   2.639   1.566   6.552  0.3151 -1.5845  0.9160
 5477SOL     OW17329   2.457   2.593   3.294  0.0656  0.0937  0.2985
 5477SOL    HW117330   2.364   2.568   3.320 -0.1234 -1.4318 -1.5580
 5477SOL    HW217331   2.522   2.554   3.359 -0.4721 -1.5074 -0.0829
 5478SOL     OW17332   4.292   3.787   6.688  0.3988  0.3168 -0.6557
 5478SOL    HW117333   4.298   3.887   6.691  0.3693  0.3086 -0.3270
 5478SOL    HW217334   4.260   3.758   6.597  0.4856  0.6015 -0.7764
 5479SOL     OW17335   2.478   5.003   3.994  0.0137 -0.1847 -0.6492
 5479SOL    HW117336   2.422   4.998   4.076 -0.1323 -3.5632 -0.8156
 5479SOL    HW217337   2.445   5.077   3.935 -2.9544 -0.7302  0.1762
 5480SOL     OW17338   1.896   2.805   4.757  0.7203  0.0253 -0.3430
 5480SOL    HW117339   1.923   2.762   4.671 -1.3360 -0.0094 -1.0303
 5480SOL    HW217340   1.867   2.899   4.741 -1.8126 -0.6458 -0.1496
 5481SOL     OW17341   5.796   6.074   4.776 -0.3938  0.6008  0.0778
 5481SOL    HW117342   5.786   6.124   4.862  0.8693  0.8641  0.0991
 5481SOL    HW217343   5.741   6.118   4.705 -0.2177  1.3232  0.3793
 5482SOL     OW17344   1.626   3.616   3.056 -0.0517 -0.1592  0.5005
 5482SOL    HW117345   1.684   3.646   2.980 -0.8837 -0.5247 -0.2872
 5482SOL    HW217346   1.639   3.678   3.134  0.6438  0.3465 -0.0068
 5483SOL     OW17347   6.017   3.504   5.404  0.1330  0.0005 -0.3119
 5483SOL    HW117348   5.936   3.453   5.434 -0.0184 -0.2871 -1.1893
 5483SOL    HW217349   6.081   3.513   5.481  0.0564 -1.3026 -0.0786
 5484SOL     OW17350   5.488   3.743   4.645 -0.3957 -0.3260 -0.2064
 5484SOL    HW117351   5.393   3.715   4.634 -0.7048  0.5650  0.0759
 5484SOL    HW217352   5.498   3.838   4.616  0.3898 -0.3764 -0.1315
 5485SOL     OW17353   2.014   6.896   4.504  0.0118  0.4954 -0.0726
 5485SOL    HW117354   2.010   6.890   4.404  1.4682  0.9862 -0.1830
 5485SOL    HW217355   2.108   6.913   4.533 -0.7232  2.8102  1.2333
 5486SOL     OW17356   3.024   5.351   4.925  0.3888 -0.0270  0.2057
 5486SOL    HW117357   3.054   5.262   4.959  1.7013  0.1582 -0.3902
 5486SOL    HW217358   2.924   5.355   4.923  0.2356 -2.4919 -2.2933
 5487SOL     OW17359   4.786   0.691   5.460  0.3851 -0.0048  0.7178
 5487SOL    HW117360   4.831   0.615   5.412  0.9134  1.1525 -0.6759
 5487SOL    HW217361   4.687   0.683   5.448  0.2626 -1.5627  2.2944
 5488SOL     OW17362   5.672   1.035   2.026  0.3951 -0.3888 -0.5492
 5488SOL    HW117363   5.769   1.008   2.022  0.5643 -0.2444  1.5063
 5488SOL    HW217364   5.659   1.098   2.103 -1.3861 -0.6144 -0.6452
 5489SOL     OW17365   6.624   3.944   1.848  1.1229 -0.0172  0.2578
 5489SOL    HW117366   6.564   4.010   1.803  0.7354  2.0044  3.3890
 5489SOL    HW217367   6.693   3.912   1.783  0.0222  1.8359 -1.9889
 5490SOL     OW17368   2.735   5.750   2.233 -0.3719  0.0432  0.2621
 5490SOL    HW117369   2.684   5.675   2.191 -1.2463  0.7305  0.0653
 5490SOL    HW217370   2.833   5.731   2.226 -0.5641 -0.9152 -0.0856
 5491SOL     OW17371   5.506   2.717   0.719  0.3375  0.0204 -0.4925
 5491SOL    HW117372   5.475   2.671   0.636  2.5234 -0.7110 -0.9894
 5491SOL    HW217373   5.438   2.784   0.748 -1.2767 -0.9453 -1.8491
 5492SOL     OW17374   5.891   1.560   6.347 -0.6121  0.3344  0.7477
 5492SOL    HW117375   5.947   1.515   6.417 -1.4691 -0.7736  0.7472
 5492SOL    HW217376   5.950   1.617   6.290  0.4360 -0.3560  1.0974
 5493SOL     OW17377   2.515   1.820   1.819  0.5028 -0.1286 -0.5696
 5493SOL    HW117378   2.545   1.839   1.726  2.0268 -0.9483 -0.2714
 5493SOL    HW217379   2.435   1.876   1.840  0.8053  0.8849 -1.9757
 5494SOL     OW17380   6.832   4.582   3.785  0.2517  0.7754  0.7651
 5494SOL    HW117381   6.926   4.566   3.753  0.1141  0.1625  0.6652
 5494SOL    HW217382   6.799   4.669   3.748 -0.0427 -0.0916 -1.1249
 5495SOL     OW17383   5.339   6.581   1.569  0.0307  0.0309 -0.2183
 5495SOL    HW117384   5.291   6.657   1.524  0.5122  0.4547 -0.0225
 5495SOL    HW217385   5.435   6.581   1.541 -0.2837 -1.4608 -1.4498
 5496SOL     OW17386   5.563   1.003   4.043 -0.8776  1.0765  0.2875
 5496SOL    HW117387   5.658   1.011   4.075 -0.8426 -2.6986  1.5390
 5496SOL    HW217388   5.561   1.009   3.943  0.3316  3.2530  0.3350
 5497SOL     OW17389   0.821   1.161   6.703  0.3659  0.3614  0.1559
 5497SOL    HW117390   0.735   1.110   6.706  0.0471  0.9264  1.1959
 5497SOL    HW217391   0.898   1.098   6.713 -0.0217  0.0602  1.5423
 5498SOL     OW17392   1.143   5.484   1.353 -0.0693 -0.4144  0.0172
 5498SOL    HW117393   1.073   5.415   1.332 -1.0826  0.6127 -0.0633
 5498SOL    HW217394   1.124   5.524   1.443  0.4823 -0.1802  0.0344
 5499SOL     OW17395   1.032   1.385   6.991 -0.4535 -0.6435  0.1852
 5499SOL    HW117396   0.977   1.305   7.017 -0.0213 -1.2896 -0.8336
 5499SOL    HW217397   1.040   1.446   7.070 -0.9741 -1.4950  0.9242
 5500SOL     OW17398   3.400   5.794   1.164 -0.1692 -0.2676  0.0277
 5500SOL    HW117399   3.430   5.715   1.111  0.3089  0.8233 -1.3957
 5500SOL    HW217400   3.336   5.764   1.235  0.0685 -1.9265 -0.4131
 5501SOL     OW17401   4.107   1.749   6.830  0.7430 -0.0192  0.1196
 5501SOL    HW117402   4.148   1.674   6.881  1.8279  1.1505  1.0258
 5501SOL    HW217403   4.178   1.814   6.802 -0.1091  0.4629 -1.0268
 5502SOL     OW17404   3.891   2.279   1.264  0.4329  0.0424 -0.0083
 5502SOL    HW117405   3.826   2.321   1.327 -1.2586 -0.6271 -1.2262
 5502SOL    HW217406   3.925   2.348   1.200 -0.0904  0.1365 -0.1848
 5503SOL     OW17407   5.812   2.227   6.960  0.0192  0.0039 -0.5219
 5503SOL    HW117408   5.832   2.131   6.941  1.0180 -0.0376  0.5881
 5503SOL    HW217409   5.768   2.268   6.881 -0.2787 -1.3244 -1.0776
 5504SOL     OW17410   4.661   0.721   6.921 -0.0359  0.3451 -0.5493
 5504SOL    HW117411   4.661   0.647   6.853 -1.1474  0.3572 -0.5688
 5504SOL    HW217412   4.569   0.760   6.928  0.0692  0.3488  0.9709
 5505SOL     OW17413   2.983   6.242   2.871 -0.3040  0.5179 -0.2231
 5505SOL    HW117414   2.938   6.153   2.869  0.7745 -0.0550  0.2173
 5505SOL    HW217415   2.915   6.314   2.859 -1.2764 -0.3362  0.0544
 5506SOL     OW17416   0.988   5.570   6.108  0.1343  0.2187  0.1164
 5506SOL    HW117417   0.977   5.475   6.079  1.7264 -0.1282  0.5932
 5506SOL    HW217418   0.908   5.598   6.161 -0.8766 -0.4702 -0.9854
 5507SOL     OW17419   0.240   0.748   0.976  0.4537  0.2540 -0.0339
 5507SOL    HW117420   0.308   0.811   1.014  2.4411 -0.7533 -1.7113
 5507SOL    HW217421   0.167   0.734   1.043  1.1083  2.5209  1.2709
 5508SOL     OW17422   0.010   2.095   0.269 -0.1991 -0.0491  0.1569
 5508SOL    HW117423  -0.073   2.060   0.312 -1.7726  0.8733 -1.9609
 5508SOL    HW217424  -0.014   2.152   0.191  2.3175  3.0793  1.4194
 5509SOL     OW17425   4.699   5.345   6.237 -0.0392 -0.0077  0.3783
 5509SOL    HW117426   4.632   5.279   6.272 -0.8810  0.5848 -0.1042
 5509SOL    HW217427   4.692   5.431   6.288  1.3875 -0.4104  1.3361
 5510SOL     OW17428   4.995   6.355   6.582 -0.4762  0.1860 -0.0550
 5510SOL    HW117429   5.078   6.345   6.637 -1.3706 -2.0001  1.0411
 5510SOL    HW217430   4.921   6.387   6.641 -0.4851  1.9952 -0.9958
 5511SOL     OW17431   6.654   2.895   6.476  0.6124  0.2719  0.1019
 5511SOL    HW117432   6.661   2.945   6.562 -0.6959 -0.4687  0.6687
 5511SOL    HW217433   6.621   2.957   6.405 -1.9154  0.0843  1.0063
 5512SOL     OW17434   2.110   1.404   2.082 -0.2402  0.7340  0.1639
 5512SOL    HW117435   2.140   1.345   2.156  0.0263  0.0441 -0.4796
 5512SOL    HW217436   2.144   1.497   2.097  0.4582  0.4300  0.5064
 5513SOL     OW17437   4.230   2.912   0.995 -0.2289 -0.1489  0.0066
 5513SOL    HW117438   4.264   2.981   0.932  1.0753 -0.4121  0.3961
 5513SOL    HW217439   4.189   2.957   1.075  0.5843  0.1726  0.2436
 5514SOL     OW17440   3.329   0.834   1.481  0.1075 -0.6573 -0.3976
 5514SOL    HW117441   3.366   0.880   1.562 -0.8225  3.0942 -1.8575
 5514SOL    HW217442   3.293   0.745   1.506  0.4835  0.0490  3.1574
 5515SOL     OW17443   4.899   5.843   1.768 -0.6175  0.3107 -0.2272
 5515SOL    HW117444   4.934   5.767   1.822 -2.3720  0.1122  0.6912
 5515SOL    HW217445   4.923   5.929   1.813 -0.9918  0.1891  0.2163
 5516SOL     OW17446   0.798   1.044   0.231 -0.3604 -0.1105  0.2175
 5516SOL    HW117447   0.811   1.129   0.283  0.2489 -0.2973  0.3779
 5516SOL    HW217448   0.816   0.966   0.291 -1.4038 -0.3705  0.2069
 5517SOL     OW17449   1.789   2.017   4.283 -0.1289  0.1215  0.2221
 5517SOL    HW117450   1.814   2.093   4.223 -0.8861  0.0799 -0.1602
 5517SOL    HW217451   1.860   1.946   4.278  0.9940  1.1324  1.2082
 5518SOL     OW17452   5.320   4.870   0.940 -0.1323 -0.0462  0.1768
 5518SOL    HW117453   5.325   4.965   0.907  2.2432 -0.1619 -0.0162
 5518SOL    HW217454   5.342   4.868   1.037  2.0669 -0.5422 -0.2738
 5519SOL     OW17455   3.921   1.696   3.281 -0.0396  0.3817 -0.6150
 5519SOL    HW117456   3.889   1.601   3.287 -0.6824  0.6573  2.0612
 5519SOL    HW217457   3.874   1.742   3.206 -1.0637 -0.9493 -0.8392
 5520SOL     OW17458   5.928   0.418   2.774  0.0386 -0.3860  0.0128
 5520SOL    HW117459   5.938   0.319   2.782  0.5438 -0.3130  0.3111
 5520SOL    HW217460   5.883   0.454   2.856 -2.7367 -0.6971 -1.2610
 5521SOL     OW17461   3.925   5.474   2.062  0.4415 -0.0397 -0.0816
 5521SOL    HW117462   3.853   5.500   1.996  0.3332 -0.7556 -0.2481
 5521SOL    HW217463   3.884   5.425   2.138  0.6285  0.4149  0.3171
 5522SOL     OW17464   6.000   6.369   0.756  0.5132  0.5602 -0.8691
 5522SOL    HW117465   5.920   6.401   0.705 -0.1133 -1.5171 -1.2925
 5522SOL    HW217466   6.019   6.432   0.831 -2.5983  0.2487  0.3136
 5523SOL     OW17467   0.681   2.278   1.702  0.1815  0.5963  0.0995
 5523SOL    HW117468   0.724   2.368   1.708  0.8809  0.2970 -0.2780
 5523SOL    HW217469   0.584   2.289   1.683  1.0188  1.3422 -5.3660
 5524SOL     OW17470   0.286   1.074   2.491  0.3716 -0.4982  0.6486
 5524SOL    HW117471   0.320   1.115   2.576 -1.6786 -0.9661  1.7540
 5524SOL    HW217472   0.358   1.015   2.453  1.7514  0.6099  1.4044
 5525SOL     OW17473   5.699   7.012   1.648 -0.0514 -0.3397  0.5950
 5525SOL    HW117474   5.772   6.954   1.684 -0.8147 -1.5380  0.2654
 5525SOL    HW217475   5.617   6.957   1.632 -0.6530  0.7404 -0.1914
 5526SOL     OW17476   5.190   6.171   3.865 -0.3111 -0.2146 -0.2882
 5526SOL    HW117477   5.181   6.249   3.927 -0.4816 -0.0101 -0.5610
 5526SOL    HW217478   5.109   6.166   3.807  0.5497  0.6325 -1.6481
 5527SOL     OW17479   4.029   2.226   2.978  0.3389  0.3783  0.1537
 5527SOL    HW117480   3.994   2.179   3.059  1.4080 -0.8659 -0.0643
 5527SOL    HW217481   4.092   2.299   3.006 -0.2023  0.7265  0.4654
 5528SOL     OW17482   1.870   1.267   6.326  0.7749 -0.5923 -0.1318
 5528SOL    HW117483   1.940   1.248   6.258  0.0007 -0.1458 -1.0818
 5528SOL    HW217484   1.784   1.224   6.298 -0.3525  2.0421 -1.0508
 5529SOL     OW17485   3.674   0.663   3.151  0.2835  0.4181  0.8965
 5529SOL    HW117486   3.746   0.705   3.096  0.3012  0.7796  1.1943
 5529SOL    HW217487   3.713   0.591   3.208  0.2444 -0.0456  0.3484
 5530SOL     OW17488   0.094   1.849   2.509  0.2753 -0.5423  0.0482
 5530SOL    HW117489   0.192   1.833   2.517  0.5305 -0.3356 -2.0370
 5530SOL    HW217490   0.055   1.784   2.443 -0.4925  1.0140 -1.0793
 5531SOL     OW17491   1.128   3.718   1.501  0.2415 -0.1848 -0.3589
 5531SOL    HW117492   1.183   3.783   1.447 -0.5648  0.9467  0.1319
 5531SOL    HW217493   1.181   3.635   1.517  1.4984  0.5374 -0.6073
 5532SOL     OW17494   2.144   3.439   1.057  0.4701  0.0112 -0.1120
 5532SOL    HW117495   2.191   3.485   1.133  0.0233  1.7738 -0.8522
 5532SOL    HW217496   2.046   3.453   1.065  0.4122  0.1225 -0.9481
 5533SOL     OW17497   2.198   1.031   1.627  0.4373  0.0699  0.2632
 5533SOL    HW117498   2.200   1.058   1.724 -3.5155 -0.8500  0.8056
 5533SOL    HW217499   2.173   1.111   1.572  1.0281  0.2196  0.2071
 5534SOL     OW17500   6.965   5.247   5.949 -0.0574 -0.1840 -0.6646
 5534SOL    HW117501   6.954   5.210   5.857  0.3029 -0.6723 -0.5161
 5534SOL    HW217502   6.935   5.179   6.016 -0.4959  0.2361 -0.4224
 5535SOL     OW17503   0.999   0.237   3.486  0.0243 -0.1185  0.0250
 5535SOL    HW117504   0.961   0.225   3.577  0.2636 -0.7840  0.0442
 5535SOL    HW217505   1.093   0.272   3.493  0.9113 -2.3242  0.1587
 5536SOL     OW17506   4.488   6.472   4.956  0.1834  0.1426 -0.2406
 5536SOL    HW117507   4.545   6.531   4.899  1.0095 -1.7292 -1.4714
 5536SOL    HW217508   4.513   6.483   5.052 -0.1818  2.2562 -0.3574
 5537SOL     OW17509   2.309   2.445   5.576  0.7559 -0.0400 -0.1444
 5537SOL    HW117510   2.304   2.536   5.619  2.5374  1.3114 -2.5340
 5537SOL    HW217511   2.350   2.380   5.639  2.2533  1.5810  0.6342
 5538SOL     OW17512   4.853   5.351   5.581  0.4611  0.1095 -0.5186
 5538SOL    HW117513   4.873   5.436   5.629  0.1908  0.0683 -0.3321
 5538SOL    HW217514   4.916   5.340   5.504  1.1854 -0.0431  0.0893
 5539SOL     OW17515   2.661   2.547   0.567 -0.7585  0.3858 -0.4231
 5539SOL    HW117516   2.575   2.541   0.618 -0.2020  2.3718  0.8910
 5539SOL    HW217517   2.736   2.513   0.624 -0.3003  1.4158 -0.3896
 5540SOL     OW17518   5.217   0.053   1.846  0.2173 -0.0517  0.2706
 5540SOL    HW117519   5.224   0.041   1.747  1.4470 -0.2574  0.3731
 5540SOL    HW217520   5.209  -0.036   1.890  1.0079 -0.0369  0.4489
 5541SOL     OW17521   5.848   1.246   6.639 -0.6081  0.2151 -0.0149
 5541SOL    HW117522   5.892   1.161   6.670  2.9953  1.8927 -0.0863
 5541SOL    HW217523   5.814   1.297   6.717 -1.4688 -0.5882  0.1491
 5542SOL     OW17524   5.418   5.522   0.375 -0.5839 -0.5088  0.4157
 5542SOL    HW117525   5.494   5.468   0.339 -1.4089 -1.1263 -0.4674
 5542SOL    HW217526   5.422   5.525   0.474 -0.3335 -1.9304  0.4628
 5543SOL     OW17527   0.330   2.431   5.362 -0.0742  0.3310  0.1038
 5543SOL    HW117528   0.418   2.421   5.317 -0.6871  1.1780 -1.3465
 5543SOL    HW217529   0.335   2.507   5.427  0.3041  0.2704  0.1498
 5544SOL     OW17530   5.107   1.211   1.506 -0.0815  0.1003  0.6668
 5544SOL    HW117531   5.089   1.116   1.531 -0.6684  0.6268  2.3363
 5544SOL    HW217532   5.200   1.235   1.533 -0.1896  0.2203  0.9311
 5545SOL     OW17533   3.194   1.857   1.015 -0.4885  0.0773  0.1997
 5545SOL    HW117534   3.269   1.904   1.062  0.1372  0.2122 -0.9045
 5545SOL    HW217535   3.135   1.813   1.083  0.6562 -0.1366  1.0903
 5546SOL     OW17536   3.905   5.625   6.524 -0.2827  0.0668 -0.8375
 5546SOL    HW117537   3.883   5.696   6.591 -1.9777 -1.3939  0.2454
 5546SOL    HW217538   3.821   5.586   6.487  0.6042 -0.9871 -1.8253
 5547SOL     OW17539   3.359   5.765   4.941 -0.0556 -0.3989  0.1389
 5547SOL    HW117540   3.351   5.864   4.954  0.9715 -0.5907  2.8401
 5547SOL    HW217541   3.270   5.721   4.954 -0.1356  0.0090  1.0288
 5548SOL     OW17542   6.796   3.558   6.421  0.1873 -0.3536 -0.1280
 5548SOL    HW117543   6.742   3.510   6.491 -1.5426 -0.8679 -1.7346
 5548SOL    HW217544   6.775   3.520   6.331  1.3229  1.2067 -1.0895
 5549SOL     OW17545   3.098   3.093   0.668  0.1256 -0.3322  0.1072
 5549SOL    HW117546   3.139   3.127   0.752 -1.9091  1.9201  0.3267
 5549SOL    HW217547   3.072   3.171   0.610 -1.7572 -1.6610 -0.9545
 5550SOL     OW17548   3.604   1.532   2.497  0.2987 -0.4393 -0.0857
 5550SOL    HW117549   3.628   1.467   2.425 -1.7359 -1.2432 -0.1013
 5550SOL    HW217550   3.585   1.481   2.581 -0.9000  0.1687  0.0176
 5551SOL     OW17551   0.297   0.586   2.604 -0.2310 -0.3585 -0.1003
 5551SOL    HW117552   0.338   0.496   2.617 -0.7046 -0.7236 -1.0810
 5551SOL    HW217553   0.300   0.612   2.508 -1.3365  0.0638 -0.0462
 5552SOL     OW17554   2.230   3.097   3.568 -0.5358  0.6873 -0.4214
 5552SOL    HW117555   2.283   3.015   3.548 -0.4674  0.5675  0.2243
 5552SOL    HW217556   2.261   3.172   3.510 -0.7686  0.1958 -1.1948
 5553SOL     OW17557   2.127   5.364   6.905  0.0900  0.1377  0.9507
 5553SOL    HW117558   2.052   5.298   6.905 -1.2304  1.4480  3.5819
 5553SOL    HW217559   2.204   5.328   6.852 -2.0856 -1.5733 -1.3181
 5554SOL     OW17560   3.973   1.454   4.461 -0.4430 -0.3965  0.3412
 5554SOL    HW117561   4.039   1.490   4.527  0.2741 -2.0773  0.5871
 5554SOL    HW217562   3.885   1.441   4.505 -0.7448  1.0847  0.2244
 5555SOL     OW17563   0.402   5.360   2.400  0.0202 -0.1877  0.1064
 5555SOL    HW117564   0.383   5.346   2.302  0.5564 -1.3158  0.1459
 5555SOL    HW217565   0.340   5.303   2.454  0.4785 -0.4380  0.3756
 5556SOL     OW17566   6.930   0.862   4.938  0.0288  0.0994 -0.0643
 5556SOL    HW117567   6.935   0.957   4.908  1.0307 -0.3326 -1.3786
 5556SOL    HW217568   6.998   0.808   4.888  0.9832 -0.9186  2.1813
 5557SOL     OW17569   1.702   1.252   1.734  0.6057 -0.5050 -0.5248
 5557SOL    HW117570   1.779   1.293   1.783  0.2818  0.5853 -0.8868
 5557SOL    HW217571   1.641   1.325   1.703 -0.8047 -1.3767  0.1293
 5558SOL     OW17572   5.060   2.889   5.081 -0.8061  0.0099  0.1746
 5558SOL    HW117573   5.118   2.839   5.146 -0.2109  1.2668  0.6447
 5558SOL    HW217574   4.972   2.909   5.124 -1.6290 -1.8722 -0.5276
 5559SOL     OW17575   3.397   1.901   3.341  0.0622 -0.1160  0.1103
 5559SOL    HW117576   3.404   1.900   3.441  1.3318  0.9500  0.0554
 5559SOL    HW217577   3.383   1.995   3.309 -0.1825 -0.4248 -0.7292
 5560SOL     OW17578   0.854   5.907   6.040  0.1001 -0.4790 -0.0096
 5560SOL    HW117579   0.922   5.882   6.108 -0.1834  1.2863  0.9825
 5560SOL    HW217580   0.893   5.973   5.975 -0.5786  0.4051  0.4545
 5561SOL     OW17581   2.164   3.245   3.093 -0.1299  0.3358 -0.2077
 5561SOL    HW117582   2.163   3.273   3.189  0.5966 -0.7205  0.1199
 5561SOL    HW217583   2.144   3.325   3.035 -1.4344  0.8134  0.8419
 5562SOL     OW17584   1.723   2.539   6.396  0.4877 -0.0823 -0.2149
 5562SOL    HW117585   1.821   2.518   6.401  0.3446 -0.7351 -0.0222
 5562SOL    HW217586   1.710   2.638   6.385  1.2160 -0.1189 -1.6545
 5563SOL     OW17587   3.707   3.462   2.869 -0.3091  0.1014  0.5466
 5563SOL    HW117588   3.684   3.559   2.861 -0.6888  0.1367  1.8219
 5563SOL    HW217589   3.643   3.408   2.816 -0.5371  0.5084  0.4001
 5564SOL     OW17590   6.311   2.652   3.041 -0.0326 -0.4669 -0.5040
 5564SOL    HW117591   6.233   2.714   3.038 -1.2014 -1.9154 -1.8963
 5564SOL    HW217592   6.292   2.572   2.984  1.5969 -1.9006  0.8434
 5565SOL     OW17593   3.545   2.733   6.307  0.3862 -0.1969 -0.0519
 5565SOL    HW117594   3.508   2.678   6.382 -0.2430  0.4039  0.0944
 5565SOL    HW217595   3.585   2.673   6.238  2.2760 -0.7303  1.4031
 5566SOL     OW17596   1.959   3.846   0.992  0.5117 -0.6487  0.8123
 5566SOL    HW117597   1.906   3.919   1.036  0.1624 -0.2835 -0.1900
 5566SOL    HW217598   1.927   3.757   1.026  0.6705 -0.3629  1.7465
 5567SOL     OW17599   2.959   5.329   2.285 -0.1239 -0.6694  0.3557
 5567SOL    HW117600   2.870   5.285   2.275 -0.0202 -0.8994  0.4390
 5567SOL    HW217601   3.027   5.277   2.235 -0.3454  0.4806 -1.2320
 5568SOL     OW17602   4.379   1.402   0.834 -0.0621 -0.1455  0.3584
 5568SOL    HW117603   4.298   1.348   0.853  0.5722 -1.0427  0.5833
 5568SOL    HW217604   4.354   1.483   0.781 -0.9892 -0.8250 -0.2703
 5569SOL     OW17605   4.739   2.784   6.415  0.5584 -0.4988 -0.0343
 5569SOL    HW117606   4.827   2.774   6.461  0.7968 -1.2792 -0.6375
 5569SOL    HW217607   4.753   2.790   6.316  0.0527  1.0789 -0.0373
 5570SOL     OW17608   5.969   2.742   3.678  0.2014  0.1270  0.2632
 5570SOL    HW117609   5.965   2.677   3.602 -0.3865 -0.2701  0.6220
 5570SOL    HW217610   6.055   2.793   3.674  0.3527 -0.1692 -0.4343
 5571SOL     OW17611   0.494   4.648   5.092 -0.1409 -0.5223 -0.5549
 5571SOL    HW117612   0.398   4.674   5.100 -0.4095 -1.4190 -0.7772
 5571SOL    HW217613   0.525   4.659   4.998  0.8787  2.7146  0.0159
 5572SOL     OW17614   5.673   1.499   5.918  0.2851  0.1178 -0.0687
 5572SOL    HW117615   5.752   1.499   5.979  1.1760 -0.9283 -1.1715
 5572SOL    HW217616   5.674   1.415   5.863 -0.6784  0.8729 -1.2712
 5573SOL     OW17617   0.178   4.018   6.620  0.1153 -0.4139 -0.2138
 5573SOL    HW117618   0.259   4.076   6.634 -0.6949  0.5759  0.4251
 5573SOL    HW217619   0.150   4.024   6.524  0.1707  0.0651 -0.2018
 5574SOL     OW17620   1.666   6.734   5.146 -1.1603 -0.5741  0.6250
 5574SOL    HW117621   1.626   6.666   5.085 -0.4845 -1.6823  1.3919
 5574SOL    HW217622   1.736   6.786   5.096 -1.4383 -0.6570  0.1357
 5575SOL     OW17623   1.354   0.126   1.409  0.1124  0.0377 -0.1003
 5575SOL    HW117624   1.311   0.170   1.330 -0.1693  0.0605  0.0630
 5575SOL    HW217625   1.312   0.036   1.425  0.4594 -0.1512 -0.2331
 5576SOL     OW17626   6.500   6.424   5.678 -0.1920  0.3294  0.5598
 5576SOL    HW117627   6.404   6.429   5.649  0.0076 -2.4806 -0.9698
 5576SOL    HW217628   6.514   6.340   5.731  1.0583  1.7403  2.5827
 5577SOL     OW17629   3.132   3.363   5.315 -0.5174  0.1041 -0.2597
 5577SOL    HW117630   3.074   3.328   5.242 -0.2754 -0.3120 -0.2544
 5577SOL    HW217631   3.075   3.388   5.393 -0.6205 -1.1835  0.0977
 5578SOL     OW17632   3.069   1.643   5.845 -0.7693 -0.5767  0.6258
 5578SOL    HW117633   3.123   1.714   5.890 -0.9249 -0.3898  0.5185
 5578SOL    HW217634   3.128   1.564   5.825  0.2888  0.8290 -2.3573
 5579SOL     OW17635   5.003   4.515   2.491  0.0163  0.3485 -0.0254
 5579SOL    HW117636   4.965   4.603   2.464 -2.4502 -0.4223  0.6735
 5579SOL    HW217637   5.076   4.529   2.558 -0.3787  1.8560  0.1270
 5580SOL     OW17638   3.870   0.882   1.709  0.9866  0.0891  0.1111
 5580SOL    HW117639   3.918   0.813   1.763  0.9315 -0.5655 -0.6668
 5580SOL    HW217640   3.788   0.843   1.669  0.6620  0.7579  0.1029
 5581SOL     OW17641   3.770   5.591   6.883  0.0642 -0.2327  0.6498
 5581SOL    HW117642   3.678   5.551   6.888 -0.7860  1.2984 -1.3028
 5581SOL    HW217643   3.764   5.689   6.902  1.2857 -0.0941  0.3504
 5582SOL     OW17644   3.455   3.640   3.067 -0.5132 -0.1138 -0.2004
 5582SOL    HW117645   3.528   3.597   3.120  0.5594  0.4782 -1.1595
 5582SOL    HW217646   3.368   3.598   3.091 -0.1265  0.3235  2.2400
 5583SOL     OW17647   5.009   1.167   6.763 -0.2293 -0.1289  0.6286
 5583SOL    HW117648   4.970   1.103   6.696  4.2205 -1.9658 -0.5399
 5583SOL    HW217649   5.058   1.116   6.834  0.6230  1.9588  1.6199
 5584SOL     OW17650   0.038   4.525   3.658  0.3959  0.3717  0.1669
 5584SOL    HW117651   0.034   4.455   3.587 -0.5554 -0.3993  0.9511
 5584SOL    HW217652   0.107   4.499   3.726 -1.0132 -0.6589  1.2786
 5585SOL     OW17653   3.283   0.517   4.071  0.1803 -0.3779 -0.0943
 5585SOL    HW117654   3.254   0.613   4.069  0.9052 -0.1435  0.2315
 5585SOL    HW217655   3.259   0.474   3.984  0.4450  0.2846 -0.5069
 5586SOL     OW17656   3.606   0.550   6.420 -0.0233 -0.0840 -0.0173
 5586SOL    HW117657   3.675   0.613   6.387  0.0841 -0.5309 -0.6733
 5586SOL    HW217658   3.644   0.492   6.492  0.3093 -0.3870 -0.4378
 5587SOL     OW17659   3.807   6.540   2.327  0.6189  0.0931  0.4015
 5587SOL    HW117660   3.872   6.572   2.258  3.0740  0.4182  2.7090
 5587SOL    HW217661   3.788   6.443   2.312  1.3464  0.0838 -0.5427
 5588SOL     OW17662   5.395   0.063   4.620  0.1042  0.0752  0.6744
 5588SOL    HW117663   5.332   0.005   4.568  1.7374  1.2346 -2.9247
 5588SOL    HW217664   5.346   0.143   4.654 -0.7600  0.1330 -0.6100
 5589SOL     OW17665   2.703   4.951   6.852 -0.4781 -0.5914  0.0477
 5589SOL    HW117666   2.774   5.004   6.805  1.0192 -1.8023  0.8700
 5589SOL    HW217667   2.723   4.853   6.844 -2.3429 -1.0033 -0.1034
 5590SOL     OW17668   6.522   6.028   3.766 -0.3771 -0.3343  0.2090
 5590SOL    HW117669   6.522   6.110   3.823 -0.6490 -0.6987  0.7383
 5590SOL    HW217670   6.436   6.023   3.715 -0.4851 -0.4451  0.4017
 5591SOL     OW17671   5.749   1.113   0.052 -0.2895  0.1182 -0.2654
 5591SOL    HW117672   5.741   1.037  -0.012  2.4948  1.1644 -2.0483
 5591SOL    HW217673   5.780   1.079   0.141 -0.6414 -0.9761 -0.5513
 5592SOL     OW17674   1.759   4.020   3.062  0.3745  0.5527 -0.6755
 5592SOL    HW117675   1.773   4.030   3.161  2.2882  0.2600 -0.8913
 5592SOL    HW217676   1.813   4.088   3.014 -1.6498  1.6504 -1.5267
 5593SOL     OW17677   4.527   5.410   4.813 -0.1687  0.2356 -0.1242
 5593SOL    HW117678   4.508   5.349   4.735  3.2793 -0.0916 -0.8848
 5593SOL    HW217679   4.512   5.361   4.898 -0.5707 -0.5881 -0.6548
 5594SOL     OW17680   1.016   0.477   6.366 -0.0759 -0.3746 -0.6617
 5594SOL    HW117681   1.085   0.549   6.360  0.8258 -1.2698 -1.2424
 5594SOL    HW217682   0.991   0.464   6.462  3.0835 -2.3082  0.0426
 5595SOL     OW17683   1.033   1.017   0.508  0.0912 -0.2694 -0.6047
 5595SOL    HW117684   1.021   1.114   0.487 -0.9242 -0.1196  0.5624
 5595SOL    HW217685   0.961   0.964   0.462 -0.1529 -0.3151 -0.1694
 5596SOL     OW17686   5.786   3.497   3.901 -0.0377 -0.1935  0.3681
 5596SOL    HW117687   5.860   3.459   3.845 -1.6514 -0.6013 -1.6109
 5596SOL    HW217688   5.810   3.488   3.997  1.8775 -1.5650 -0.1550
 5597SOL     OW17689   1.188   2.432   6.964  0.3043 -0.1497 -0.3127
 5597SOL    HW117690   1.257   2.505   6.971 -0.1115  0.1912  0.3570
 5597SOL    HW217691   1.109   2.465   6.912  0.2652 -0.2410 -0.3113
 5598SOL     OW17692   0.993   2.006   4.135 -0.6346  0.6262 -0.3754
 5598SOL    HW117693   1.047   1.935   4.179  2.2210  1.6072 -2.0415
 5598SOL    HW217694   0.974   1.980   4.040 -3.1006  0.3694  0.1154
 5599SOL     OW17695   4.772   4.118   3.584 -0.0379  0.1723  1.0926
 5599SOL    HW117696   4.751   4.214   3.566  0.9110  0.5382  1.9103
 5599SOL    HW217697   4.760   4.099   3.681  0.5963 -0.3248  1.0765
 5600SOL     OW17698   1.563   2.290   2.933 -0.5481 -0.0808 -0.0762
 5600SOL    HW117699   1.483   2.231   2.944 -1.1432  0.0772 -2.8099
 5600SOL    HW217700   1.567   2.323   2.839  0.5635  3.1338  0.9693
 5601SOL     OW17701   0.446   5.063   5.378  0.2591  0.0137  0.1737
 5601SOL    HW117702   0.365   5.086   5.432  0.3000  1.2524 -0.2662
 5601SOL    HW217703   0.487   4.979   5.414 -0.2542  0.2919  1.4656
 5602SOL     OW17704   6.822   0.167   2.578  0.1742  0.2873  0.2159
 5602SOL    HW117705   6.914   0.138   2.605  0.6969 -0.4934 -2.1655
 5602SOL    HW217706   6.818   0.267   2.575  1.4924  0.3357 -1.2177
 5603SOL     OW17707   3.329   1.798   5.542 -0.0552 -0.1419 -0.0259
 5603SOL    HW117708   3.261   1.850   5.490 -0.6807 -0.1590  0.7544
 5603SOL    HW217709   3.400   1.766   5.480  0.1765  1.3534 -0.5896
 5604SOL     OW17710   2.674   6.017   5.007 -0.4458  0.3728 -0.1246
 5604SOL    HW117711   2.729   6.095   4.975 -0.3517  0.5494  0.4598
 5604SOL    HW217712   2.725   5.932   4.993 -0.7176  0.3631 -1.1570
 5605SOL     OW17713   3.036   5.142   3.468  0.4460  0.0045 -0.4107
 5605SOL    HW117714   3.061   5.207   3.540 -0.7650 -0.6083  0.5991
 5605SOL    HW217715   3.101   5.066   3.469  0.1671 -0.2364  0.3777
 5606SOL     OW17716   5.806   3.034   6.446 -0.1790 -0.0263 -0.0956
 5606SOL    HW117717   5.851   2.948   6.423 -1.7234 -0.5044 -1.5461
 5606SOL    HW217718   5.863   3.110   6.417 -0.4017 -0.6139 -2.2673
 5607SOL     OW17719   6.310   1.661   4.257 -0.6149  0.2937 -0.4931
 5607SOL    HW117720   6.333   1.564   4.256  1.7222  0.7357  1.0934
 5607SOL    HW217721   6.252   1.681   4.336 -2.2895  0.0042 -1.6126
 5608SOL     OW17722   2.511   0.944   4.731  0.6400  0.0059  0.0984
 5608SOL    HW117723   2.510   1.032   4.683 -0.5018  0.2697  0.5551
 5608SOL    HW217724   2.417   0.918   4.753  0.8600 -1.9097 -1.0305
 5609SOL     OW17725   5.746   2.462   4.261 -0.1118 -0.2190 -0.2587
 5609SOL    HW117726   5.812   2.387   4.263 -1.8581 -1.8174  0.3272
 5609SOL    HW217727   5.736   2.495   4.167  0.0808 -1.2741 -0.6648
 5610SOL     OW17728   6.442   5.527   6.802 -0.3421  0.1390  0.1454
 5610SOL    HW117729   6.481   5.587   6.732 -0.1500  0.0375  0.1675
 5610SOL    HW217730   6.475   5.555   6.892  1.0361 -1.0101  0.0235
 5611SOL     OW17731   5.781   4.695   2.727  0.0613  0.1811  0.1197
 5611SOL    HW117732   5.762   4.781   2.775 -1.3053 -0.5838  1.0021
 5611SOL    HW217733   5.869   4.702   2.681 -0.4069  2.3829 -0.5859
 5612SOL     OW17734   3.977   1.890   6.264  0.0891 -0.3463  0.2141
 5612SOL    HW117735   3.954   1.950   6.340  0.3237 -0.4979  0.4058
 5612SOL    HW217736   4.065   1.847   6.281  0.9332  0.8647 -0.9057
 5613SOL     OW17737   6.981   1.157   5.036  0.4972  0.1659 -0.6712
 5613SOL    HW117738   7.069   1.198   5.061  0.2698  1.2504 -1.5579
 5613SOL    HW217739   6.916   1.170   5.111  1.0111 -0.4524 -0.0994
 5614SOL     OW17740   6.957   6.266   3.339  0.1384  0.2736 -0.0306
 5614SOL    HW117741   6.922   6.264   3.433  0.9284 -1.1474  0.2598
 5614SOL    HW217742   6.928   6.184   3.290  0.3316  0.6604 -0.8139
 5615SOL     OW17743   0.823   2.924   4.349 -0.7905 -0.2653  0.5011
 5615SOL    HW117744   0.739   2.894   4.393  0.1796 -1.7491  1.4434
 5615SOL    HW217745   0.859   3.004   4.396 -0.6338 -0.8457  1.3968
 5616SOL     OW17746   1.592   5.694   2.319 -0.9642  0.1693 -0.2401
 5616SOL    HW117747   1.501   5.654   2.318 -1.7382  1.8690 -0.8946
 5616SOL    HW217748   1.591   5.780   2.370  0.3611  0.0150  0.0802
 5617SOL     OW17749   2.163   6.253   5.603 -0.2631  0.1752  0.9132
 5617SOL    HW117750   2.189   6.282   5.511 -3.0102  0.4193  0.1083
 5617SOL    HW217751   2.232   6.283   5.669  1.6390  0.2235 -1.0091
 5618SOL     OW17752   3.042   0.171   1.870 -0.4316 -0.0085  0.2665
 5618SOL    HW117753   3.061   0.237   1.797 -0.4795  0.7381  0.9220
 5618SOL    HW217754   2.950   0.134   1.859 -0.6700  0.5646  0.2947
 5619SOL     OW17755   4.088   3.338   2.484  0.4432 -0.2925  0.2478
 5619SOL    HW117756   4.062   3.290   2.567  0.3383  0.6944  0.7997
 5619SOL    HW217757   4.146   3.416   2.507  0.4396 -0.0274 -0.6015
 5620SOL     OW17758   3.491   4.933   4.291 -0.4425 -0.5462 -0.8109
 5620SOL    HW117759   3.395   4.908   4.287 -0.0535 -2.1039 -1.1628
 5620SOL    HW217760   3.536   4.883   4.366  0.3318 -0.8098 -1.4342
 5621SOL     OW17761   1.719   2.544   6.785 -0.4834 -0.0517 -0.4758
 5621SOL    HW117762   1.727   2.635   6.745  2.2658  0.4356  0.9626
 5621SOL    HW217763   1.795   2.487   6.754 -0.7345 -1.0409  0.6467
 5622SOL     OW17764   4.546   5.317   5.997 -0.7720  0.6729  0.1542
 5622SOL    HW117765   4.572   5.362   5.912  0.5751  2.0339  1.2346
 5622SOL    HW217766   4.624   5.316   6.060 -2.1157  1.0540  1.9281
 5623SOL     OW17767   5.144   3.901   2.482 -0.0556 -0.3903  0.4396
 5623SOL    HW117768   5.225   3.861   2.524  1.0547  0.7572 -0.5285
 5623SOL    HW217769   5.124   3.988   2.528  0.8893  0.6431 -1.0375
 5624SOL     OW17770   4.760   4.109   3.894  0.0607  0.2064  0.0190
 5624SOL    HW117771   4.704   4.166   3.954  1.4454  0.0189  1.5660
 5624SOL    HW217772   4.853   4.145   3.891 -0.0491  0.4366 -2.3894
 5625SOL     OW17773   4.178   5.212   6.517  0.2402  0.4402  0.0460
 5625SOL    HW117774   4.157   5.200   6.419 -0.0385  0.3155  0.1192
 5625SOL    HW217775   4.119   5.152   6.571  1.2072 -0.3754  0.2236
 5626SOL     OW17776   1.490   6.000   0.527 -0.5547  0.1421 -0.0688
 5626SOL    HW117777   1.449   6.090   0.511  0.7167  0.8165  0.3144
 5626SOL    HW217778   1.588   6.011   0.543 -0.2237 -1.4050 -0.8664
 5627SOL     OW17779   1.246   5.591   0.174  0.1795  0.4017 -0.4770
 5627SOL    HW117780   1.184   5.648   0.120 -0.5367  0.0028 -0.0985
 5627SOL    HW217781   1.204   5.572   0.263 -0.6054 -2.4957 -1.3425
 5628SOL     OW17782   1.032   3.007   1.324  0.2341  0.2764 -0.2659
 5628SOL    HW117783   0.964   2.993   1.252  2.3351 -1.4726 -2.0709
 5628SOL    HW217784   1.095   3.079   1.296 -0.0302  0.8958  0.7184
 5629SOL     OW17785   6.772   4.641   4.334  0.5076  0.0648 -0.1642
 5629SOL    HW117786   6.755   4.550   4.371 -0.2692 -0.4383 -1.6952
 5629SOL    HW217787   6.717   4.655   4.252 -0.3632  2.4023  0.7386
 5630SOL     OW17788   1.181   3.184   2.025  0.5848  0.3813  0.2239
 5630SOL    HW117789   1.094   3.213   1.984  0.8021  1.6344  0.6325
 5630SOL    HW217790   1.172   3.090   2.058  0.5588 -0.9490 -3.1612
 5631SOL     OW17791   2.873   1.913   6.708 -0.1446 -0.3076  0.7722
 5631SOL    HW117792   2.962   1.911   6.661  0.4831  0.4339  1.8790
 5631SOL    HW217793   2.834   2.005   6.699 -1.3649 -0.9240 -0.6716
 5632SOL     OW17794   4.614   5.880   0.762  0.1616 -0.3624  0.3816
 5632SOL    HW117795   4.620   5.840   0.853 -1.6446  0.4854  0.9015
 5632SOL    HW217796   4.644   5.812   0.694  1.2070 -1.1146  1.5528
 5633SOL     OW17797   1.967   6.057   5.893  0.5099  0.3302 -0.6894
 5633SOL    HW117798   1.964   5.958   5.890 -1.8784  0.3109  0.3624
 5633SOL    HW217799   1.932   6.095   5.807 -0.5417  0.2185 -0.3257
 5634SOL     OW17800   3.014   1.366   2.005  0.4116  0.1213  0.3177
 5634SOL    HW117801   3.030   1.302   2.081 -2.2797 -0.0089  0.8794
 5634SOL    HW217802   2.985   1.455   2.042  0.9514  0.6627 -0.5334
 5635SOL     OW17803   4.262   0.659   2.622 -0.5463 -0.6985  0.6306
 5635SOL    HW117804   4.250   0.755   2.647  1.0775 -0.2353 -0.2080
 5635SOL    HW217805   4.343   0.623   2.668 -1.2658 -1.7506  1.1117
 5636SOL     OW17806   0.008   1.855   6.079 -0.3997 -0.2137  0.0280
 5636SOL    HW117807   0.052   1.773   6.040  1.0066 -0.4856  1.9976
 5636SOL    HW217808   0.060   1.936   6.052 -0.4112 -0.2323 -0.0488
 5637SOL     OW17809   5.402   1.098   6.262 -0.2229  0.0228 -0.5154
 5637SOL    HW117810   5.440   1.010   6.236 -0.5106 -0.6172  1.1358
 5637SOL    HW217811   5.453   1.171   6.217 -0.1232 -0.9630 -2.0839
 5638SOL     OW17812   6.076   5.929   0.412 -0.4313 -0.0665 -0.2965
 5638SOL    HW117813   5.989   5.884   0.429 -0.3719  0.1156  0.5443
 5638SOL    HW217814   6.066   6.028   0.426 -0.2582  0.0365 -0.8782
 5639SOL     OW17815   0.142   0.290   0.786 -0.0220 -0.2281 -0.4892
 5639SOL    HW117816   0.191   0.281   0.699  0.2131  0.0629 -0.3919
 5639SOL    HW217817   0.180   0.368   0.837 -0.8764  0.2742 -0.6008
 5640SOL     OW17818   4.773   6.876   2.789 -0.0144 -0.2059  0.1871
 5640SOL    HW117819   4.678   6.869   2.820  0.3832 -0.3471  1.4243
 5640SOL    HW217820   4.815   6.786   2.789  0.2253 -0.0966 -0.0396
 5641SOL     OW17821   6.666   3.020   3.016 -0.7900  0.3261  0.2196
 5641SOL    HW117822   6.598   2.965   2.968  0.3004  1.0734 -2.3579
 5641SOL    HW217823   6.726   2.961   3.070 -0.7469 -0.8351 -1.0518
 5642SOL     OW17824   2.029   3.457   6.951 -0.0235  0.1636  0.0629
 5642SOL    HW117825   1.944   3.420   6.989  0.2244 -0.8196 -0.3278
 5642SOL    HW217826   2.107   3.406   6.987  0.2926  0.0166 -0.8183
 5643SOL     OW17827   5.668   1.808   6.044 -0.1813  0.1398  0.0033
 5643SOL    HW117828   5.639   1.714   6.060 -1.2605  0.4079 -0.3134
 5643SOL    HW217829   5.713   1.843   6.126 -0.8154 -0.2712  0.5327
 5644SOL     OW17830   2.148   6.236   3.392  0.3903 -0.2624  0.6727
 5644SOL    HW117831   2.087   6.299   3.441  1.6174  1.0509  0.5499
 5644SOL    HW217832   2.179   6.279   3.307  0.3172 -1.5148 -0.0055
 5645SOL     OW17833   5.452   6.305   2.515  0.6032  0.3592  0.1169
 5645SOL    HW117834   5.520   6.363   2.469  2.1211 -0.0269  1.7700
 5645SOL    HW217835   5.455   6.213   2.477 -0.0081  0.6923 -0.7669
 5646SOL     OW17836   0.612   6.895   2.895  0.6428 -0.3255  0.1224
 5646SOL    HW117837   0.657   6.981   2.919 -0.8658  0.5006  0.0910
 5646SOL    HW217838   0.681   6.830   2.864  1.8472  0.7834  0.3563
 5647SOL     OW17839   6.624   4.835   0.169  0.5065  0.1862  0.2870
 5647SOL    HW117840   6.640   4.797   0.078  0.7639  2.3776 -0.6546
 5647SOL    HW217841   6.592   4.763   0.230 -0.9149 -1.1078 -1.8428
 5648SOL     OW17842   3.975   6.823   5.500 -0.1675 -0.3915 -0.4781
 5648SOL    HW117843   4.055   6.847   5.445 -0.0835  0.1727 -0.1150
 5648SOL    HW217844   3.992   6.845   5.596  0.5371 -3.4007  0.1930
 5649SOL     OW17845   1.134   0.649   4.411 -0.2294  0.4563 -0.6756
 5649SOL    HW117846   1.166   0.560   4.378 -0.3695  0.2481 -0.2509
 5649SOL    HW217847   1.093   0.639   4.502 -0.7807  0.8575 -0.8731
 5650SOL     OW17848   0.147   3.594   5.643 -0.1468 -0.6355  0.6217
 5650SOL    HW117849   0.052   3.598   5.674 -0.5610  2.3659 -0.6113
 5650SOL    HW217850   0.202   3.543   5.709 -2.4933 -2.0108  1.6259
 5651SOL     OW17851   0.053   6.697   2.206  0.2586 -0.2101  0.1688
 5651SOL    HW117852   0.023   6.698   2.111 -1.0862  0.0257  0.5879
 5651SOL    HW217853  -0.026   6.688   2.267  0.8316  2.2350  1.3847
 5652SOL     OW17854   0.786   3.078   0.229  0.1145 -0.1147 -0.5895
 5652SOL    HW117855   0.846   3.067   0.308  0.0613 -1.7024 -0.7305
 5652SOL    HW217856   0.734   3.163   0.238 -0.1159 -0.3992  1.2389
 5653SOL     OW17857   4.372   6.620   0.912  0.2869 -0.1208 -0.2001
 5653SOL    HW117858   4.306   6.689   0.882 -0.6826 -0.9187  0.0747
 5653SOL    HW217859   4.339   6.577   0.996  0.9386 -0.8571 -0.3159
 5654SOL     OW17860   0.646   4.987   5.902 -0.1427  0.5929 -0.1820
 5654SOL    HW117861   0.735   5.030   5.914  0.2931 -0.2450 -0.3300
 5654SOL    HW217862   0.582   5.053   5.861  0.3708  1.2285  0.0280
 5655SOL     OW17863   1.572   2.877   3.608  0.5911  0.4492  0.2971
 5655SOL    HW117864   1.544   2.850   3.516  0.9369  1.4873 -0.1328
 5655SOL    HW217865   1.609   2.970   3.605 -0.7431  1.0530  1.7476
 5656SOL     OW17866   3.095   5.636   4.904 -0.8127  0.3062 -0.1788
 5656SOL    HW117867   3.093   5.536   4.902  1.5433  0.1902  0.5113
 5656SOL    HW217868   3.051   5.672   4.822 -1.9330 -1.2678 -0.3111
 5657SOL     OW17869   3.965   5.136   0.666  0.7505 -0.0119 -0.1190
 5657SOL    HW117870   3.875   5.112   0.701  0.6377  0.4456 -0.0883
 5657SOL    HW217871   4.026   5.156   0.743  0.7884 -0.0097 -0.1495
 5658SOL     OW17872   5.040   5.863   4.926 -0.2422  0.0341 -1.2290
 5658SOL    HW117873   5.013   5.879   4.831 -1.6321  0.2681 -0.8224
 5658SOL    HW217874   5.021   5.945   4.980 -0.6031 -0.5040 -0.5245
 5659SOL     OW17875   4.009   3.155   3.119 -0.4979  0.1081 -0.2787
 5659SOL    HW117876   4.053   3.224   3.061 -0.0795 -0.8525 -1.1275
 5659SOL    HW217877   4.008   3.188   3.214  0.1048  1.0792 -0.5878
 5660SOL     OW17878   0.211   6.662   0.580 -0.7005 -0.2403 -0.7886
 5660SOL    HW117879   0.272   6.628   0.651 -2.9529 -0.9927  0.8978
 5660SOL    HW217880   0.182   6.586   0.522  0.5737  0.2606 -2.1800
 5661SOL     OW17881   0.342   1.054   5.469 -0.4110 -0.2339 -0.5312
 5661SOL    HW117882   0.436   1.069   5.439 -0.5550 -0.0831 -0.9165
 5661SOL    HW217883   0.280   1.065   5.391 -0.9860  2.1479  0.1800
 5662SOL     OW17884   0.955   6.082   5.857 -0.6059  0.0683  0.3303
 5662SOL    HW117885   1.051   6.089   5.883 -0.3089 -0.8004 -0.4637
 5662SOL    HW217886   0.940   5.996   5.807 -1.7296  0.3328  0.1768
 5663SOL     OW17887   3.581   4.561   0.431  0.2531 -0.0350 -0.4988
 5663SOL    HW117888   3.662   4.614   0.453  1.1252 -0.8530 -1.5957
 5663SOL    HW217889   3.512   4.573   0.503  1.6043  0.1259  0.8210
 5664SOL     OW17890   0.137   6.008   3.371 -0.4379 -0.1374 -0.4044
 5664SOL    HW117891   0.156   6.073   3.444 -1.7861 -0.0166 -0.1409
 5664SOL    HW217892   0.104   5.922   3.410 -2.2297  0.2961 -0.8825
 5665SOL     OW17893   0.401   0.735   6.173 -0.1786 -0.0991  0.8870
 5665SOL    HW117894   0.475   0.745   6.108 -1.1203  0.9172 -0.0583
 5665SOL    HW217895   0.418   0.792   6.253 -0.5816  1.2144  0.0606
 5666SOL     OW17896   0.401   4.604   0.216 -0.1952 -0.0350 -0.4729
 5666SOL    HW117897   0.462   4.552   0.155  0.6904  1.9114 -1.3649
 5666SOL    HW217898   0.309   4.605   0.178  0.2288  0.6900 -1.5513
 5667SOL     OW17899   0.663   5.990   2.537  0.3975 -0.0171  0.6292
 5667SOL    HW117900   0.751   5.960   2.499  0.6405 -1.1277  1.9952
 5667SOL    HW217901   0.659   6.090   2.536  2.0245  0.0866  1.2720
 5668SOL     OW17902   5.111   3.032   6.773 -0.0852 -0.2307 -0.1011
 5668SOL    HW117903   5.117   3.082   6.687 -2.5866  1.3331  0.5309
 5668SOL    HW217904   5.153   3.086   6.846 -0.8471 -0.0269  0.1990
 5669SOL     OW17905   1.828   2.420   5.359  0.0499 -0.0904 -0.1924
 5669SOL    HW117906   1.863   2.405   5.266 -0.0437  1.2510 -0.4597
 5669SOL    HW217907   1.737   2.381   5.367  0.4219 -1.0231 -0.3804
 5670SOL     OW17908   0.228   4.661   2.873 -0.1529 -0.2276  0.0784
 5670SOL    HW117909   0.152   4.726   2.879  0.2221  0.2918 -0.6754
 5670SOL    HW217910   0.294   4.692   2.805  0.7913 -0.6289  0.7764
 5671SOL     OW17911   1.942   1.478   6.867 -0.6128 -0.1550 -0.1408
 5671SOL    HW117912   1.869   1.481   6.935 -0.3244  1.7590  0.1380
 5671SOL    HW217913   1.922   1.543   6.794 -0.2755 -1.2547 -1.2429
 5672SOL     OW17914   6.275   2.418   4.469  0.0433 -0.0030  0.1707
 5672SOL    HW117915   6.224   2.491   4.424  2.3393  0.6159 -1.6392
 5672SOL    HW217916   6.359   2.455   4.508  0.6402 -1.4629  0.3388
 5673SOL     OW17917   6.947   6.412   6.863  0.0924 -0.1712  0.4241
 5673SOL    HW117918   6.917   6.348   6.792  1.2298  1.0463 -1.2668
 5673SOL    HW217919   6.870   6.468   6.893 -0.0635  0.6776 -1.4090
 5674SOL     OW17920   0.521   2.656   1.723  0.7053 -0.4061 -0.4614
 5674SOL    HW117921   0.556   2.730   1.665 -0.0789  0.2414 -0.1290
 5674SOL    HW217922   0.598   2.601   1.756  1.3385  0.4266 -0.4987
 5675SOL     OW17923   2.700   0.212   6.685  0.1170 -0.1866 -0.2750
 5675SOL    HW117924   2.631   0.263   6.634 -1.4475 -0.6312  1.3154
 5675SOL    HW217925   2.790   0.251   6.667 -0.7569  1.6298 -0.9039
 5676SOL     OW17926   4.275   0.963   0.402  0.0979 -0.1874  0.0140
 5676SOL    HW117927   4.331   1.031   0.450 -2.3243  1.0938  1.1659
 5676SOL    HW217928   4.247   0.998   0.313 -1.4975  0.5702  0.7794
 5677SOL     OW17929   0.487   3.323   4.866  0.1775 -0.0125  0.5431
 5677SOL    HW117930   0.584   3.344   4.875  0.2917 -0.9366  1.6449
 5677SOL    HW217931   0.464   3.242   4.921 -0.9613 -0.5923 -0.6984
 5678SOL     OW17932   0.763   5.462   4.237 -0.2857 -0.2906 -0.0450
 5678SOL    HW117933   0.748   5.518   4.156  0.7562 -0.4289 -0.3513
 5678SOL    HW217934   0.699   5.386   4.238 -0.1776 -0.3975 -0.8404
 5679SOL     OW17935   0.880   5.288   4.695 -0.1510 -0.4720  0.2559
 5679SOL    HW117936   0.862   5.359   4.763 -1.2911  1.3235 -1.8041
 5679SOL    HW217937   0.796   5.267   4.645  0.5622 -2.0346 -0.3469
 5680SOL     OW17938   2.022   6.219   5.176  0.3597 -0.0667  0.1373
 5680SOL    HW117939   1.948   6.151   5.177 -0.6951  1.0410  0.6401
 5680SOL    HW217940   1.984   6.309   5.152  1.7620  0.3249 -0.7641
 5681SOL     OW17941   0.815   3.020   1.509  0.0045  0.1854 -0.4281
 5681SOL    HW117942   0.865   3.030   1.423  0.5482  1.2594 -0.0141
 5681SOL    HW217943   0.798   3.110   1.548  0.4983 -0.3114  1.0024
 5682SOL     OW17944   6.795   4.014   3.710  0.1799  0.2825  0.2645
 5682SOL    HW117945   6.786   4.111   3.731 -1.9517  0.3701 -0.8232
 5682SOL    HW217946   6.712   3.965   3.737  1.2852 -1.3097  0.9657
 5683SOL     OW17947   3.618   3.739   5.079  0.3013  0.0723  0.1609
 5683SOL    HW117948   3.681   3.712   5.151  1.9642 -1.2942 -1.6872
 5683SOL    HW217949   3.668   3.791   5.009 -0.6831 -0.7298 -1.1750
 5684SOL     OW17950   2.677   3.894   1.676  0.0544 -0.0277 -0.6172
 5684SOL    HW117951   2.602   3.827   1.673 -0.8094  0.9396 -1.7107
 5684SOL    HW217952   2.747   3.863   1.740 -1.8297 -0.3999  1.3868
 5685SOL     OW17953   2.482   5.473   2.948 -0.7407 -0.4608  0.0568
 5685SOL    HW117954   2.407   5.407   2.962 -1.2376 -0.3518 -1.8640
 5685SOL    HW217955   2.522   5.458   2.858 -0.1335  1.1619  0.0415
 5686SOL     OW17956   3.276   5.218   6.170 -0.3321  0.2551  0.1929
 5686SOL    HW117957   3.235   5.128   6.178 -0.6597  0.2273 -1.4678
 5686SOL    HW217958   3.361   5.212   6.118 -0.2833  0.8877  0.1890
 5687SOL     OW17959   4.039   5.923   4.546  0.0590 -0.4164 -0.2252
 5687SOL    HW117960   4.071   5.966   4.630 -1.1485  2.6616 -1.2050
 5687SOL    HW217961   4.085   5.965   4.467 -1.3905 -0.7148 -1.2766
 5688SOL     OW17962   5.264   0.974   1.769  0.3557  0.1514 -0.4742
 5688SOL    HW117963   5.225   0.920   1.694  0.7527 -1.3558  0.3413
 5688SOL    HW217964   5.279   1.068   1.740  0.0431 -0.2875 -2.1192
 5689SOL     OW17965   4.565   3.102   6.701  0.1113 -0.6028 -0.2499
 5689SOL    HW117966   4.659   3.085   6.732 -0.0205 -0.4376  0.2493
 5689SOL    HW217967   4.509   3.130   6.779 -0.1364  0.2005 -0.7020
 5690SOL     OW17968   3.953   0.765   0.204 -0.1940  0.5189  0.4353
 5690SOL    HW117969   4.011   0.700   0.156  1.7852  1.0186  2.0420
 5690SOL    HW217970   3.900   0.818   0.137 -0.4652 -1.4161 -0.9596
 5691SOL     OW17971   1.841   5.603   3.976  0.3582  0.6661 -0.2153
 5691SOL    HW117972   1.863   5.507   3.960 -0.8184  0.5902 -1.5828
 5691SOL    HW217973   1.797   5.613   4.066 -0.6828 -0.2850 -0.6056
 5692SOL     OW17974   5.814   4.872   4.959 -0.2979 -0.0343 -0.3230
 5692SOL    HW117975   5.809   4.921   5.047 -1.4759 -0.1870 -0.2864
 5692SOL    HW217976   5.862   4.929   4.893  0.5045  0.1344  0.3798
 5693SOL     OW17977   4.760   2.789   2.064 -0.5279 -0.1803  0.5270
 5693SOL    HW117978   4.730   2.882   2.042  0.5156 -0.2624 -1.5023
 5693SOL    HW217979   4.703   2.723   2.015  0.1695 -0.4967  0.1158
 5694SOL     OW17980   2.399   6.709   3.985 -0.1978 -0.8670 -0.0462
 5694SOL    HW117981   2.458   6.649   3.931  0.7733  0.9849 -1.1384
 5694SOL    HW217982   2.430   6.804   3.976 -0.8104 -0.3168  2.7501
 5695SOL     OW17983   0.437   4.377   3.591  0.0705  0.2741 -0.1795
 5695SOL    HW117984   0.472   4.381   3.498 -0.1626  0.6421 -0.2544
 5695SOL    HW217985   0.499   4.324   3.648  0.2502  0.1095 -0.5284
 5696SOL     OW17986   3.384   5.282   0.700  0.5534 -0.3579 -0.4136
 5696SOL    HW117987   3.440   5.210   0.658  1.5078  0.1724 -0.0729
 5696SOL    HW217988   3.307   5.240   0.749 -0.2386 -1.0153 -2.1548
 5697SOL     OW17989   5.253   3.598   6.383  0.3733  0.7254  0.5223
 5697SOL    HW117990   5.216   3.689   6.403  1.0160  1.1638 -0.2041
 5697SOL    HW217991   5.348   3.593   6.416  0.9039  0.9139 -0.9068
 5698SOL     OW17992   2.073   2.759   2.817  0.2026 -0.1585  0.1556
 5698SOL    HW117993   2.152   2.817   2.838  0.6601 -0.5301 -0.5158
 5698SOL    HW217994   2.097   2.693   2.746 -1.1542  0.7547 -1.2478
 5699SOL     OW17995   5.285   2.776   4.762  0.7394 -0.1866  0.1653
 5699SOL    HW117996   5.304   2.867   4.799 -1.9832  0.5181  0.0043
 5699SOL    HW217997   5.192   2.773   4.726 -0.1439 -3.7413  2.3168
 5700SOL     OW17998   0.744   6.231   2.894  0.1179 -0.7169  0.2643
 5700SOL    HW117999   0.683   6.157   2.864  1.0205 -1.2750 -0.2198
 5700SOL    HW218000   0.689   6.311   2.918 -0.7649 -0.9809 -0.8080
 5701SOL     OW18001   5.047   6.009   0.789 -0.1731  0.5694 -0.1968
 5701SOL    HW118002   5.145   6.030   0.788  0.1175 -0.6891 -0.0801
 5701SOL    HW218003   5.025   5.957   0.871 -1.0174  1.1646 -0.0416
 5702SOL     OW18004   3.306   0.531   0.300  0.1343  0.2018 -0.1034
 5702SOL    HW118005   3.271   0.497   0.213  0.2616 -2.8848  0.8982
 5702SOL    HW218006   3.385   0.476   0.328  0.2443  1.2539  1.8439
 5703SOL     OW18007   3.958   4.733   1.027 -0.3052 -0.3530 -0.1118
 5703SOL    HW118008   4.024   4.731   0.952 -1.2534 -0.2063 -0.9636
 5703SOL    HW218009   3.870   4.768   0.994 -0.8724 -0.7205  0.9604
 5704SOL     OW18010   4.188   5.373   3.550 -0.0590 -0.3655 -0.5794
 5704SOL    HW118011   4.174   5.335   3.459  1.0689 -1.6124 -0.2648
 5704SOL    HW218012   4.183   5.300   3.618 -1.5047  0.6272  0.4687
 5705SOL     OW18013   4.950   2.378   2.547 -0.1367  0.3520  0.4094
 5705SOL    HW118014   5.004   2.347   2.625  1.3823  1.5559 -0.1219
 5705SOL    HW218015   4.974   2.324   2.466  0.6314  1.1691  0.0738
 5706SOL     OW18016   2.912   1.051   0.185 -0.0739 -0.4262  0.1783
 5706SOL    HW118017   2.896   1.017   0.277 -0.3529 -0.3987  0.1398
 5706SOL    HW218018   2.944   0.975   0.127 -0.4211 -0.5660  0.1643
 5707SOL     OW18019   3.866   2.227   5.813  0.2065 -0.7899 -0.3986
 5707SOL    HW118020   3.869   2.127   5.819 -0.0419 -0.8252 -0.8021
 5707SOL    HW218021   3.838   2.254   5.721 -1.3657 -0.3880  0.1573
 5708SOL     OW18022   5.947   6.880   1.742  0.2658 -0.5031 -0.0015
 5708SOL    HW118023   6.016   6.807   1.734  1.6733  0.7460  0.3163
 5708SOL    HW218024   5.961   6.946   1.669  0.4209  0.5796  0.9876
 5709SOL     OW18025   0.833   6.667   2.043 -0.0075  0.2566  0.2328
 5709SOL    HW118026   0.831   6.723   1.960  1.2140  0.5466  0.3799
 5709SOL    HW218027   0.904   6.701   2.105 -2.0888  1.2201  2.2496
 5710SOL     OW18028   2.583   3.979   6.192  0.0233  0.1684  0.0120
 5710SOL    HW118029   2.569   4.027   6.279  0.8159  1.9125 -0.7663
 5710SOL    HW218030   2.672   3.934   6.192  0.6101  1.2785 -0.3392
 5711SOL     OW18031   5.000   1.460   3.507 -0.4808 -0.3937  0.1063
 5711SOL    HW118032   4.949   1.518   3.571  1.1554  1.9947 -0.6062
 5711SOL    HW218033   4.986   1.364   3.531 -1.6174  0.3250  2.7214
 5712SOL     OW18034   6.302   6.912   5.246  1.2518 -0.2921  0.1140
 5712SOL    HW118035   6.349   6.920   5.334 -0.2225  1.8723  0.7834
 5712SOL    HW218036   6.267   7.002   5.218 -2.2789 -1.6367 -0.3870
 5713SOL     OW18037   0.462   1.906   3.387  0.6557  0.1883  0.4901
 5713SOL    HW118038   0.450   1.810   3.411 -1.6040  0.0546 -0.8940
 5713SOL    HW218039   0.374   1.947   3.365  1.6119  2.4998  0.6536
 5714SOL     OW18040   0.423   0.320   6.013 -0.8096  0.5178 -0.4016
 5714SOL    HW118041   0.390   0.247   5.952  0.7384  0.3942 -1.1422
 5714SOL    HW218042   0.410   0.409   5.969 -1.9472  0.6445  0.1574
 5715SOL     OW18043   2.429   5.936   2.705  0.0361  0.3090  0.3184
 5715SOL    HW118044   2.394   5.902   2.617 -0.6525  0.4987  0.5113
 5715SOL    HW218045   2.529   5.932   2.705  0.0168 -0.3949 -0.1887
 5716SOL     OW18046   2.030   4.277   3.772 -0.3482 -0.0721 -0.2464
 5716SOL    HW118047   2.118   4.325   3.766 -0.7408  0.4758 -2.8911
 5716SOL    HW218048   2.047   4.182   3.798  0.8571  0.4124  0.8664
 5717SOL     OW18049   2.217   3.952   1.033 -0.0161 -0.3986  0.0727
 5717SOL    HW118050   2.141   3.890   1.015 -1.8936  2.1132 -1.4371
 5717SOL    HW218051   2.204   3.995   1.122 -1.4427  1.2754 -0.8670
 5718SOL     OW18052   3.227   4.906   4.285  0.2117  0.4876 -0.4509
 5718SOL    HW118053   3.180   4.915   4.372  0.2389 -0.3712 -0.3371
 5718SOL    HW218054   3.175   4.845   4.225  1.4619 -1.0253 -0.0839
 5719SOL     OW18055   2.839   0.591   0.174 -0.1260  0.3601  0.0161
 5719SOL    HW118056   2.869   0.675   0.128  0.9987 -0.3122 -0.5170
 5719SOL    HW218057   2.778   0.615   0.249 -2.0103  1.4962 -1.7609
 5720SOL     OW18058   1.365   5.346   4.959 -0.0359  0.2939  0.0951
 5720SOL    HW118059   1.386   5.260   5.006  0.8129 -1.2209 -2.8054
 5720SOL    HW218060   1.450   5.394   4.938  0.0448 -0.8902 -2.8899
 5721SOL     OW18061   6.850   3.889   0.663  0.1937  0.8028 -0.0854
 5721SOL    HW118062   6.923   3.940   0.617 -0.5807  1.0342 -1.0849
 5721SOL    HW218063   6.865   3.791   0.653  1.6217  0.7747  1.7344
 5722SOL     OW18064   5.458   2.172   3.468  0.0003 -0.4591 -0.2593
 5722SOL    HW118065   5.486   2.261   3.432 -1.9839  0.1123 -0.5025
 5722SOL    HW218066   5.496   2.160   3.560  0.7517  0.3836 -0.4399
 5723SOL     OW18067   0.016   4.541   2.107 -0.6791  0.0258  0.2839
 5723SOL    HW118068   0.010   4.455   2.157  1.3182 -1.1267 -1.2985
 5723SOL    HW218069   0.080   4.602   2.153 -0.4142 -0.2279  0.2600
 5724SOL     OW18070   3.583   0.169   5.686 -0.5822 -0.1242 -0.0559
 5724SOL    HW118071   3.557   0.251   5.634 -1.3917 -0.2550  0.1204
 5724SOL    HW218072   3.506   0.105   5.688 -0.3231 -0.4273  0.7045
 5725SOL     OW18073   5.306   4.949   6.826 -0.4654 -0.0779 -0.3139
 5725SOL    HW118074   5.240   4.992   6.887  0.8044  1.1344  0.2528
 5725SOL    HW218075   5.348   5.018   6.767  2.0752 -0.3408  1.0522
 5726SOL     OW18076   3.905   3.151   4.550  0.1477 -0.8595  0.2039
 5726SOL    HW118077   3.995   3.147   4.594  0.0652  0.5425  0.5521
 5726SOL    HW218078   3.849   3.075   4.581  0.9124 -1.2348  0.6855
 5727SOL     OW18079   0.691   3.364   3.652 -0.3919 -0.3323  0.4755
 5727SOL    HW118080   0.648   3.392   3.565 -1.2295 -0.0493  0.9663
 5727SOL    HW218081   0.790   3.362   3.641 -0.5411 -2.7595 -1.2421
 5728SOL     OW18082   4.997   5.379   5.352 -0.0279 -0.6113 -0.6503
 5728SOL    HW118083   5.084   5.413   5.386 -0.4120  1.5171 -1.6043
 5728SOL    HW218084   4.962   5.441   5.282 -3.7355  0.3531  1.7664
 5729SOL     OW18085   1.498   2.169   3.613 -0.5660 -0.0014 -0.7209
 5729SOL    HW118086   1.569   2.109   3.651 -0.1139  1.1244  0.2870
 5729SOL    HW218087   1.445   2.208   3.688 -1.6846 -0.1330 -1.4276
 5730SOL     OW18088   2.351   4.846   0.536 -0.2749 -0.1990  0.3282
 5730SOL    HW118089   2.309   4.836   0.626  1.3632 -0.9044  1.0584
 5730SOL    HW218090   2.368   4.756   0.497 -1.1160  0.0999 -0.7898
 5731SOL     OW18091   4.171   0.688   3.807 -0.3231  0.7970  0.6263
 5731SOL    HW118092   4.246   0.663   3.747 -1.5595  0.0055 -0.6650
 5731SOL    HW218093   4.158   0.617   3.876 -0.6465  0.3287  0.0896
 5732SOL     OW18094   6.494   3.364   3.254 -0.1514 -0.3633 -0.7226
 5732SOL    HW118095   6.417   3.426   3.238  1.3196  1.7721 -0.0391
 5732SOL    HW218096   6.531   3.334   3.167 -1.0016 -0.4299 -1.0713
 5733SOL     OW18097   1.720   6.790   0.762 -0.2116 -0.2388 -0.7716
 5733SOL    HW118098   1.686   6.705   0.722 -0.5847  0.0873 -1.1597
 5733SOL    HW218099   1.743   6.775   0.858 -1.2953 -0.5167 -0.5378
 5734SOL     OW18100   3.077   6.894   5.996 -0.1293  0.3736 -0.0116
 5734SOL    HW118101   2.995   6.835   5.992  0.2338 -0.0504 -1.9141
 5734SOL    HW218102   3.049   6.990   5.990 -0.5344  0.2748  0.2171
 5735SOL     OW18103   4.934   0.142   0.780 -0.2216  0.5080  0.0652
 5735SOL    HW118104   4.961   0.048   0.797  0.4423  0.3008 -1.8766
 5735SOL    HW218105   4.869   0.171   0.850  0.1883 -1.0940  1.1756
 5736SOL     OW18106   4.769   2.368   6.035  0.0631 -0.4404 -0.0646
 5736SOL    HW118107   4.829   2.324   5.968  0.4605  0.4521 -0.3016
 5736SOL    HW218108   4.820   2.389   6.118  0.0291  0.1265 -0.1852
 5737SOL     OW18109   4.135   4.503   1.584  0.6369  0.0262  0.3156
 5737SOL    HW118110   4.157   4.488   1.487  1.3182  0.6392  0.3657
 5737SOL    HW218111   4.157   4.421   1.636  0.1874 -0.3384 -0.0629
 5738SOL     OW18112   4.630   0.544   0.115  0.2837  0.5391  0.0205
 5738SOL    HW118113   4.560   0.581   0.177 -0.0701  0.9846 -0.6367
 5738SOL    HW218114   4.646   0.608   0.040 -0.7888 -0.8608 -1.4944
 5739SOL     OW18115   2.197   1.112   5.133  0.5228  0.1893  0.3643
 5739SOL    HW118116   2.161   1.160   5.053  0.9349  0.9694  0.6283
 5739SOL    HW218117   2.296   1.109   5.128  0.4778 -1.6279 -0.1793
 5740SOL     OW18118   4.956   2.345   1.588  0.1447  0.0775 -0.0925
 5740SOL    HW118119   5.041   2.292   1.593  0.3980  0.4924 -0.0082
 5740SOL    HW218120   4.878   2.283   1.601  0.3526 -0.5575 -1.5614
 5741SOL     OW18121   6.752   4.906   3.812  0.1678  0.4781 -0.6010
 5741SOL    HW118122   6.804   4.882   3.895 -0.2062 -1.6960 -0.9355
 5741SOL    HW218123   6.681   4.972   3.836  1.3073  1.3942  0.4067
 5742SOL     OW18124   5.434   0.661   4.695 -0.0226  0.1152  0.2343
 5742SOL    HW118125   5.461   0.593   4.627 -1.5386  0.4321 -0.7278
 5742SOL    HW218126   5.508   0.727   4.707  1.2556 -1.3600  0.7802
 5743SOL     OW18127   2.102   4.065   1.273  0.4983 -0.1735 -0.0607
 5743SOL    HW118128   2.011   4.056   1.312  0.5082 -1.1989 -0.2558
 5743SOL    HW218129   2.171   4.046   1.343  0.5692  0.2742 -0.0003
 5744SOL     OW18130   5.373   6.631   3.331  0.0514  0.1437  0.2876
 5744SOL    HW118131   5.421   6.701   3.383  2.7178 -2.4696  1.6494
 5744SOL    HW218132   5.310   6.581   3.390  0.8037 -0.8444  0.2897
 5745SOL     OW18133   1.389   1.112   3.036 -0.3668  0.8389 -0.6223
 5745SOL    HW118134   1.460   1.182   3.037  1.5948 -1.0623 -0.5644
 5745SOL    HW218135   1.381   1.075   2.943  1.4664 -1.5218  0.0564
 5746SOL     OW18136   3.768   0.306   2.983  0.6213 -0.1606  0.4443
 5746SOL    HW118137   3.740   0.346   2.895 -0.0884 -0.7709  0.3820
 5746SOL    HW218138   3.799   0.212   2.968  0.5814 -0.2349  0.8297
 5747SOL     OW18139   1.780   0.563   0.908  0.2417  0.1415 -0.4244
 5747SOL    HW118140   1.855   0.609   0.861  0.0348  1.6159  0.6350
 5747SOL    HW218141   1.794   0.464   0.903  0.9153  0.2923 -2.3877
 5748SOL     OW18142   6.552   6.849   6.748  0.2804  0.2167  0.0061
 5748SOL    HW118143   6.581   6.906   6.671  2.4313 -0.7394  0.0362
 5748SOL    HW218144   6.610   6.869   6.827  0.0211 -0.8789  0.4853
 5749SOL     OW18145   3.664   5.648   5.922 -0.3775 -0.8063  0.0209
 5749SOL    HW118146   3.640   5.731   5.873  3.0624  0.0739 -0.4547
 5749SOL    HW218147   3.583   5.591   5.934 -2.4585  1.6656 -1.3955
 5750SOL     OW18148   1.411   2.445   4.220  0.0726 -0.2111  0.2460
 5750SOL    HW118149   1.312   2.453   4.207  0.3589 -0.0376 -2.5647
 5750SOL    HW218150   1.436   2.349   4.222 -0.0676 -0.2537  0.0394
 5751SOL     OW18151   1.295   4.920   3.470 -0.1791 -0.2062  0.2594
 5751SOL    HW118152   1.223   4.872   3.420 -1.3908  0.5093  1.2410
 5751SOL    HW218153   1.299   5.015   3.438 -1.9897  0.6860  2.4247
 5752SOL     OW18154   3.958   0.718   0.681 -1.4243  0.0126  0.2619
 5752SOL    HW118155   4.042   0.759   0.717 -0.4228 -1.7187 -0.0156
 5752SOL    HW218156   3.938   0.758   0.591 -0.3057 -0.3028 -0.1348
 5753SOL     OW18157   2.698   4.781   5.620  0.0756  0.1621 -0.2472
 5753SOL    HW118158   2.621   4.776   5.557 -0.0754  1.8638 -0.2314
 5753SOL    HW218159   2.768   4.843   5.583  0.0278  1.1129  1.1800
 5754SOL     OW18160   0.092   4.003   1.182 -0.0984 -0.0718  0.1874
 5754SOL    HW118161   0.186   4.023   1.154  0.1077 -0.4527  0.6103
 5754SOL    HW218162   0.056   4.082   1.232  0.3230 -0.2905  0.8495
 5755SOL     OW18163   0.615   2.748   1.299  0.0783 -0.0812  0.3491
 5755SOL    HW118164   0.581   2.789   1.384 -0.5774 -1.5675  0.8305
 5755SOL    HW218165   0.540   2.743   1.233  0.4094  0.3914 -0.0721
 5756SOL     OW18166   5.485   0.066   2.655  0.5504 -0.1066 -0.1953
 5756SOL    HW118167   5.414   0.007   2.692 -0.0258  1.1061  0.7338
 5756SOL    HW218168   5.466   0.087   2.559 -0.7247  0.7074  0.2104
 5757SOL     OW18169   5.723   1.941   4.635 -0.4863  0.0934 -0.2396
 5757SOL    HW118170   5.775   2.019   4.601 -1.6137  0.9659 -0.0322
 5757SOL    HW218171   5.644   1.926   4.576 -0.5447 -0.5836  0.0026
 5758SOL     OW18172   5.762   6.640   2.727  0.2161  0.0761 -0.0044
 5758SOL    HW118173   5.734   6.628   2.823  1.3997 -2.3301  0.1092
 5758SOL    HW218174   5.751   6.736   2.701 -0.1886  0.7865  2.5191
 5759SOL     OW18175   5.233   1.614   2.586 -0.1642  0.1400 -0.2149
 5759SOL    HW118176   5.202   1.565   2.504 -3.0974  1.3020  0.0876
 5759SOL    HW218177   5.300   1.683   2.560  0.4819 -0.8508 -1.2974
 5760SOL     OW18178   1.398   3.768   0.731  0.3625  0.0478 -0.1686
 5760SOL    HW118179   1.496   3.779   0.716  0.2387  1.3479 -0.1480
 5760SOL    HW218180   1.371   3.820   0.812 -0.6666  1.3721 -1.3111
 5761SOL     OW18181   6.504   6.781   5.079 -0.0855 -0.5468 -0.0457
 5761SOL    HW118182   6.442   6.710   5.044 -1.1818  1.2044 -1.8753
 5761SOL    HW218183   6.454   6.839   5.143 -0.0154  0.1940 -0.6562
 5762SOL     OW18184   6.561   5.511   0.075 -0.2903 -0.3721  0.1424
 5762SOL    HW118185   6.474   5.519   0.125 -0.8899 -1.8500 -0.6271
 5762SOL    HW218186   6.579   5.415   0.054  0.5824  0.1022 -1.3908
 5763SOL     OW18187   6.145   0.462   6.956 -0.2047 -0.4626  0.2201
 5763SOL    HW118188   6.239   0.437   6.932 -0.5996 -1.0205 -0.8055
 5763SOL    HW218189   6.101   0.385   7.002 -0.3661 -0.4361  0.1099
 5764SOL     OW18190   5.049   4.848   4.966 -0.0094 -0.0973 -0.4622
 5764SOL    HW118191   5.114   4.864   5.040  1.6174 -1.6215 -1.4718
 5764SOL    HW218192   4.959   4.830   5.004  0.0364  2.3032  0.9741
 5765SOL     OW18193   5.514   5.102   3.079  0.2604 -0.1568 -0.1971
 5765SOL    HW118194   5.417   5.084   3.064  0.2205  1.1749 -1.7847
 5765SOL    HW218195   5.547   5.169   3.012  2.2925 -0.5971  0.2848
 5766SOL     OW18196   7.017   1.844   5.145  0.0901  0.3699 -0.2806
 5766SOL    HW118197   7.012   1.926   5.088  1.5266 -0.8917 -2.3690
 5766SOL    HW218198   7.087   1.857   5.216 -0.2465  1.2108 -0.0848
 5767SOL     OW18199   5.231   6.422   6.329  0.1721  0.2078  0.1813
 5767SOL    HW118200   5.305   6.482   6.362 -0.8954  1.5264  0.2723
 5767SOL    HW218201   5.231   6.421   6.229 -1.0713  2.0955  0.1067
 5768SOL     OW18202   7.003   1.664   5.470  0.3463  0.0268  0.6164
 5768SOL    HW118203   7.075   1.719   5.427 -0.3574  0.5408  0.0686
 5768SOL    HW218204   6.915   1.709   5.458  0.1747  0.5758  3.2533
 5769SOL     OW18205   2.195   3.943   5.967 -0.0511 -0.1374 -0.6949
 5769SOL    HW118206   2.247   4.023   5.995 -0.1182 -0.4790  0.4592
 5769SOL    HW218207   2.097   3.965   5.965 -0.0699 -0.1926 -0.3718
 5770SOL     OW18208   0.183   4.062   3.053  0.2978 -0.0498 -0.0451
 5770SOL    HW118209   0.196   4.159   3.031 -0.0834 -0.3782 -1.8279
 5770SOL    HW218210   0.085   4.040   3.046  0.2583 -0.3699  1.2762
 5771SOL     OW18211   3.164   6.181   2.365 -0.2628  0.0786 -0.4364
 5771SOL    HW118212   3.078   6.219   2.397 -1.3617 -1.3159 -1.5943
 5771SOL    HW218213   3.148   6.091   2.324  2.0712 -1.2657  1.3590
 5772SOL     OW18214   2.977   0.651   3.721  0.2852 -0.1540 -0.2588
 5772SOL    HW118215   2.882   0.667   3.694 -0.0639 -2.5450 -0.7285
 5772SOL    HW218216   2.982   0.564   3.770  2.1111  0.4114  0.6068
 5773SOL     OW18217   4.029   1.520   1.391 -0.1902  0.3133  0.2155
 5773SOL    HW118218   4.094   1.463   1.341 -1.7993 -0.9005 -0.6130
 5773SOL    HW218219   4.078   1.588   1.445  1.7051 -0.0007 -1.0238
 5774SOL     OW18220   1.414   4.421   2.887  0.1272  0.1681 -0.2820
 5774SOL    HW118221   1.366   4.334   2.878 -0.3946  0.4076  0.1451
 5774SOL    HW218222   1.375   4.474   2.963  0.0636  1.0076 -0.8769
 5775SOL     OW18223   6.232   4.834   0.389 -0.0182  0.9447 -0.3105
 5775SOL    HW118224   6.314   4.885   0.364 -0.7320  1.6221 -1.3604
 5775SOL    HW218225   6.257   4.754   0.444  1.2702  1.4845 -0.0860
 5776SOL     OW18226   3.095   0.089   2.483 -0.4567  0.3471  0.1370
 5776SOL    HW118227   3.131   0.171   2.439  0.9144 -0.0315  0.4805
 5776SOL    HW218228   3.059   0.027   2.414  0.0435  0.5271 -0.2941
 5777SOL     OW18229   2.754   6.237   0.839 -0.4118  0.1330 -0.3380
 5777SOL    HW118230   2.849   6.241   0.870 -0.6774  0.7890  0.4323
 5777SOL    HW218231   2.696   6.199   0.912 -0.9552  1.1200 -0.2295
 5778SOL     OW18232   1.898   3.887   0.004 -0.4228  0.2216 -0.2598
 5778SOL    HW118233   1.812   3.907  -0.043 -0.4694  0.1901 -0.1870
 5778SOL    HW218234   1.884   3.812   0.069 -0.0653 -0.6302 -1.1224
 5779SOL     OW18235   4.138   0.782   5.138 -0.5298  0.3488  0.1030
 5779SOL    HW118236   4.191   0.791   5.054  0.5569  0.6796  0.8185
 5779SOL    HW218237   4.071   0.857   5.144 -0.7385  0.2201 -0.5441
 5780SOL     OW18238   4.267   4.889   4.779 -0.8748  0.2433  0.2315
 5780SOL    HW118239   4.205   4.963   4.806 -1.8894 -0.5367  0.0730
 5780SOL    HW218240   4.313   4.852   4.859 -0.6650  0.7703  0.3587
 5781SOL     OW18241   0.549   6.819   5.411 -0.0806  0.2512  0.3746
 5781SOL    HW118242   0.572   6.916   5.403 -1.5561  0.4823 -2.1459
 5781SOL    HW218243   0.613   6.764   5.357  0.3527 -0.1518  1.2656
 5782SOL     OW18244   0.439   6.016   6.093 -0.3777  0.3715  0.5255
 5782SOL    HW118245   0.437   5.968   6.005 -4.0664  1.2410 -0.0565
 5782SOL    HW218246   0.504   6.092   6.088  1.6118 -1.2752 -0.3452
 5783SOL     OW18247   0.943   0.995   1.081 -0.0182 -0.2033  0.3065
 5783SOL    HW118248   0.941   0.901   1.047  3.0194 -0.5119  0.6814
 5783SOL    HW218249   0.851   1.033   1.077 -1.2449 -2.9337 -0.4904
 5784SOL     OW18250   6.535   5.285   6.510 -0.0172 -0.1629 -0.7027
 5784SOL    HW118251   6.628   5.251   6.520  0.1006  0.2719 -0.2694
 5784SOL    HW218252   6.503   5.319   6.598 -1.3772 -2.2894 -0.2984
 5785SOL     OW18253   6.181   0.615   5.651 -0.5153 -0.6292 -0.2348
 5785SOL    HW118254   6.272   0.617   5.694 -0.2267  1.2053 -0.8345
 5785SOL    HW218255   6.135   0.529   5.674  1.2928 -1.5300  0.2247
 5786SOL     OW18256   6.711   5.913   1.997 -1.0245 -0.3289  0.5068
 5786SOL    HW118257   6.710   5.988   2.064  1.6902  0.5978 -0.3328
 5786SOL    HW218258   6.738   5.949   1.908  1.2011 -2.3619  0.2465
 5787SOL     OW18259   1.468   3.835   1.161 -0.2916  0.1446  0.4422
 5787SOL    HW118260   1.532   3.884   1.103 -3.6330  4.2961 -0.2546
 5787SOL    HW218261   1.497   3.841   1.256  0.2395  2.2701  0.2012
 5788SOL     OW18262   3.232   0.801   4.696 -0.5777  0.0169  0.0761
 5788SOL    HW118263   3.144   0.779   4.738 -1.8314  0.6499 -2.0819
 5788SOL    HW218264   3.229   0.780   4.598  0.6366  2.8089 -0.6681
 5789SOL     OW18265   2.229   4.901   5.840 -0.0886  0.4212  0.3311
 5789SOL    HW118266   2.229   4.816   5.787 -1.2754  1.3941 -1.3593
 5789SOL    HW218267   2.287   4.891   5.921  0.0958 -1.8465 -0.0208
 5790SOL     OW18268   2.083   3.019   4.439 -0.3192  0.5407 -0.3076
 5790SOL    HW118269   2.151   3.019   4.366  0.8068  0.5131  0.7130
 5790SOL    HW218270   2.009   3.082   4.415  0.0605  0.5907 -1.4232
 5791SOL     OW18271   1.956   0.390   1.736 -0.2032 -0.0532 -0.3083
 5791SOL    HW118272   2.005   0.476   1.722  3.3244 -1.8934 -0.2085
 5791SOL    HW218273   1.943   0.345   1.648  0.2160 -0.5704 -0.1051
 5792SOL     OW18274   0.789   2.109   1.510 -0.6825  0.1517  0.6517
 5792SOL    HW118275   0.766   2.182   1.574  0.0317  0.3555  0.6785
 5792SOL    HW218276   0.711   2.047   1.500 -0.1801 -1.0374  3.2467
 5793SOL     OW18277   6.352   0.375   3.706  0.3391 -0.4528 -0.0164
 5793SOL    HW118278   6.407   0.296   3.734 -0.0004 -0.5134  0.4860
 5793SOL    HW218279   6.317   0.422   3.787  1.0721  0.5986 -0.2892
 5794SOL     OW18280   4.075   3.881   6.886  0.4863 -0.1794  0.6787
 5794SOL    HW118281   4.053   3.975   6.858  0.1676 -0.4062  0.1584
 5794SOL    HW218282   4.136   3.840   6.819 -0.7510 -0.9256 -0.0295
 5795SOL     OW18283   5.368   5.556   5.342  0.6310 -0.2327 -0.1237
 5795SOL    HW118284   5.335   5.476   5.293  1.5159 -0.8786  0.3152
 5795SOL    HW218285   5.383   5.533   5.439  2.3671  0.0026 -0.3014
 5796SOL     OW18286   4.425   0.281   0.328  0.0337 -0.0284 -0.5532
 5796SOL    HW118287   4.513   0.234   0.323  0.3644  0.4638  0.3209
 5796SOL    HW218288   4.384   0.286   0.237  0.2943 -1.4066 -0.7667
 5797SOL     OW18289   2.937   1.645   6.446  0.5023 -0.0041  0.1546
 5797SOL    HW118290   2.983   1.728   6.478  0.6447 -0.0046 -0.0486
 5797SOL    HW218291   2.867   1.618   6.512 -0.6563  1.1830 -0.5411
 5798SOL     OW18292   6.952   4.593   5.785  0.7091  0.5699 -0.2136
 5798SOL    HW118293   6.894   4.512   5.787 -0.7146  1.4909  3.1822
 5798SOL    HW218294   6.918   4.657   5.716 -1.8957  0.6993  1.0638
 5799SOL     OW18295   5.645   0.636   4.252 -0.3263  0.0058  0.3029
 5799SOL    HW118296   5.715   0.707   4.247  0.2455 -0.5693 -0.0676
 5799SOL    HW218297   5.556   0.675   4.229  0.1183  0.4279 -0.7543
 5800SOL     OW18298   5.833   5.531   0.777 -0.6368  0.2129  0.2349
 5800SOL    HW118299   5.789   5.562   0.693  0.1926  0.0327 -0.2874
 5800SOL    HW218300   5.915   5.586   0.793  2.4004 -3.0834 -2.1198
 5801SOL     OW18301   2.138   3.312   3.360  0.4784  0.1778 -0.1432
 5801SOL    HW118302   2.179   3.392   3.402  0.6467  0.3957 -0.7106
 5801SOL    HW218303   2.038   3.323   3.355  0.2128 -0.7540  2.0883
 5802SOL     OW18304   0.485   3.825   4.773 -0.0090  0.4720  0.1611
 5802SOL    HW118305   0.461   3.730   4.794  2.6150 -0.5188 -0.9508
 5802SOL    HW218306   0.478   3.839   4.674  3.6277  0.0768 -0.2830
 5803SOL     OW18307   1.705   4.955   6.599 -0.5136  0.0416 -0.4361
 5803SOL    HW118308   1.673   5.050   6.596  0.3286  0.3119 -1.1972
 5803SOL    HW218309   1.794   4.952   6.646 -0.9101 -0.4931  0.3067
 5804SOL     OW18310   6.397   4.251   4.084  0.3150 -0.4727  0.0693
 5804SOL    HW118311   6.484   4.300   4.078  0.2136 -0.4222 -1.3120
 5804SOL    HW218312   6.415   4.157   4.113  0.8445 -0.4786 -0.2571
 5805SOL     OW18313   5.662   4.162   6.119 -0.3191  0.0063  0.2077
 5805SOL    HW118314   5.601   4.225   6.166 -0.9416 -1.2591  1.1685
 5805SOL    HW218315   5.697   4.204   6.036  1.5257  2.7181  2.1730
 5806SOL     OW18316   0.137   6.373   0.018 -0.1468  0.0875 -0.3159
 5806SOL    HW118317   0.185   6.438   0.077  1.5072 -1.3325  0.0178
 5806SOL    HW218318   0.071   6.421  -0.039  1.8456  2.2343 -0.9814
 5807SOL     OW18319   0.721   3.079   2.452  0.4559  0.3697 -0.1221
 5807SOL    HW118320   0.699   3.160   2.396 -1.7560  0.1506  0.3566
 5807SOL    HW218321   0.663   3.003   2.424  3.2622 -1.4751 -1.3167
 5808SOL     OW18322   0.278   3.412   3.118  0.6632 -0.1219 -0.3374
 5808SOL    HW118323   0.200   3.354   3.095 -0.7418  1.9370 -1.0414
 5808SOL    HW218324   0.254   3.470   3.196  2.2623 -0.8293  0.7556
 5809SOL     OW18325   5.795   3.064   4.260  0.1111  0.2419  0.4258
 5809SOL    HW118326   5.732   2.987   4.269 -1.2143  1.1689 -0.5254
 5809SOL    HW218327   5.773   3.134   4.328 -0.0952  0.6927 -0.0905
 5810SOL     OW18328   2.629   2.404   2.447 -0.1571 -0.2204 -0.3093
 5810SOL    HW118329   2.554   2.338   2.458 -0.6540  0.3998  0.0724
 5810SOL    HW218330   2.712   2.367   2.488 -0.3468 -0.7556 -0.3999
 5811SOL     OW18331   4.338   2.024   4.141  0.2986 -0.0634 -0.3867
 5811SOL    HW118332   4.293   1.944   4.099  0.2619 -0.3574  0.2096
 5811SOL    HW218333   4.437   2.015   4.130  0.2422  0.5686 -1.6731
 5812SOL     OW18334   2.879   0.929   3.942  0.1438  0.1952 -0.1748
 5812SOL    HW118335   2.836   0.842   3.967 -0.5939  0.0823 -1.7434
 5812SOL    HW218336   2.972   0.913   3.911  0.6053  0.1899  1.1333
 5813SOL     OW18337   0.267   6.047   5.359  0.5212  0.0634 -0.0562
 5813SOL    HW118338   0.319   6.074   5.278 -1.6221 -0.7647 -1.8015
 5813SOL    HW218339   0.247   6.128   5.414 -0.3145  1.1021 -1.8203
 5814SOL     OW18340   0.115   5.931   2.115  0.3077 -0.7681  0.2301
 5814SOL    HW118341   0.054   5.882   2.178 -1.1729  0.3118 -0.2857
 5814SOL    HW218342   0.061   5.997   2.062  1.4490 -1.7448 -2.3015
 5815SOL     OW18343   2.795   0.173   1.352 -0.3657 -0.4658  0.6432
 5815SOL    HW118344   2.727   0.243   1.374  2.0993  1.3400  3.1573
 5815SOL    HW218345   2.839   0.196   1.265 -2.3168 -1.2482 -0.6293
 5816SOL     OW18346   4.429   1.044   1.142 -0.6139  0.3745  0.0779
 5816SOL    HW118347   4.330   1.038   1.132 -0.6310  1.1919 -0.3318
 5816SOL    HW218348   4.452   1.124   1.196 -0.1694  0.2418  0.0864
 5817SOL     OW18349   5.162   3.134   6.525  0.2553  0.1560  0.2281
 5817SOL    HW118350   5.202   3.217   6.486  0.0868 -0.2434 -0.8406
 5817SOL    HW218351   5.081   3.108   6.472  0.4508 -0.8252  0.3784
 5818SOL     OW18352   6.922   2.074   4.244  0.0556  0.3781 -0.1400
 5818SOL    HW118353   6.845   2.021   4.210  0.4285 -0.3084  0.0623
 5818SOL    HW218354   6.963   2.026   4.322  1.3215  0.2038 -0.8859
 5819SOL     OW18355   6.065   5.954   1.904 -0.2241  0.2823 -0.1202
 5819SOL    HW118356   6.159   5.970   1.874  0.3327  3.0337  2.6309
 5819SOL    HW218357   6.052   5.856   1.920  1.7930 -0.2882 -1.5569
 5820SOL     OW18358   6.088   5.785   2.659 -0.1288 -0.1978 -0.2150
 5820SOL    HW118359   6.156   5.856   2.679 -0.9830  0.9779 -1.3258
 5820SOL    HW218360   6.129   5.714   2.602  0.0921  0.7155 -1.2325
 5821SOL     OW18361   1.770   2.038   2.244 -0.0492  0.6041  0.0991
 5821SOL    HW118362   1.744   1.943   2.258  1.9096 -0.4818 -2.7280
 5821SOL    HW218363   1.866   2.043   2.217 -0.1190  3.4064  0.0887
 5822SOL     OW18364   2.261   0.873   2.756 -0.3307  0.2032 -0.6376
 5822SOL    HW118365   2.330   0.812   2.792 -0.8748 -1.0758 -1.6685
 5822SOL    HW218366   2.187   0.819   2.714 -2.2618  1.4759  0.9174
 5823SOL     OW18367   0.649   1.795   3.172 -0.1405 -0.6197  0.4740
 5823SOL    HW118368   0.618   1.722   3.111 -0.5321 -1.8301  2.0358
 5823SOL    HW218369   0.570   1.837   3.217 -0.0693  1.9669 -1.6111
 5824SOL     OW18370   6.612   1.192   4.479  0.1070 -0.4415 -0.6587
 5824SOL    HW118371   6.607   1.233   4.388 -1.7438 -0.3225 -0.5484
 5824SOL    HW218372   6.704   1.202   4.516 -0.1265  3.4789 -0.7065
 5825SOL     OW18373   2.397   1.772   1.278 -0.4256 -0.6203 -0.2451
 5825SOL    HW118374   2.491   1.740   1.280 -0.0241  0.5035  1.4714
 5825SOL    HW218375   2.393   1.860   1.231 -0.2233  0.3072  1.3874
 5826SOL     OW18376   6.388   0.800   4.588 -0.1346 -0.0425  0.9467
 5826SOL    HW118377   6.473   0.841   4.554 -0.2362  0.9253  1.8045
 5826SOL    HW218378   6.398   0.701   4.592  0.0177 -0.1723 -1.4613
 5827SOL     OW18379   1.120   4.773   3.327  0.6073 -0.0332  0.0610
 5827SOL    HW118380   1.133   4.790   3.229 -0.5075 -1.9299 -0.4736
 5827SOL    HW218381   1.022   4.780   3.349  0.3506 -2.9680  0.2542
 5828SOL     OW18382   6.144   3.226   2.254 -0.2275 -0.2530 -0.1710
 5828SOL    HW118383   6.195   3.149   2.215 -0.4168 -0.4237 -0.0850
 5828SOL    HW218384   6.064   3.246   2.197 -0.3367 -0.3056 -0.0365
 5829SOL     OW18385   1.419   6.604   1.690 -0.7198 -0.4596  0.4722
 5829SOL    HW118386   1.400   6.520   1.740 -0.2589 -2.2284 -2.1557
 5829SOL    HW218387   1.440   6.583   1.595 -0.4721  2.6487 -0.2776
 5830SOL     OW18388   2.018   2.626   0.183  0.6053  0.3153 -0.0704
 5830SOL    HW118389   2.069   2.644   0.267 -0.6622 -0.3717  0.8823
 5830SOL    HW218390   2.001   2.528   0.175  1.8758  0.2066 -1.8526
 5831SOL     OW18391   4.190   5.782   3.722 -0.1182  0.2258 -0.1403
 5831SOL    HW118392   4.256   5.756   3.793 -0.6000  1.6077  0.8623
 5831SOL    HW218393   4.225   5.859   3.670 -0.7957  0.7904  0.2166
 5832SOL     OW18394   4.579   4.045   5.773  0.0432  0.2884 -0.2381
 5832SOL    HW118395   4.518   3.994   5.834  1.8932 -0.4961  1.0270
 5832SOL    HW218396   4.634   3.980   5.720 -0.2567  0.9860 -1.4312
 5833SOL     OW18397   3.095   2.797   5.398  0.4936  0.1789  0.1353
 5833SOL    HW118398   3.160   2.861   5.441 -1.3368  0.4511  2.7801
 5833SOL    HW218399   3.052   2.841   5.320  1.3394  1.1134  0.1765
 5834SOL     OW18400   4.243   0.774   6.515  0.5116  0.0864 -0.2228
 5834SOL    HW118401   4.243   0.836   6.593  2.3252 -1.5202  1.1497
 5834SOL    HW218402   4.229   0.680   6.546 -1.9362 -0.3160 -2.2169
 5835SOL     OW18403   5.766   3.088   3.441  0.1767 -0.7503  0.4960
 5835SOL    HW118404   5.864   3.102   3.431 -0.0749  0.2662 -0.6574
 5835SOL    HW218405   5.745   3.068   3.537  1.3615  0.1793  0.9610
 5836SOL     OW18406   4.924   6.143   1.804  0.5210  0.3891 -0.8731
 5836SOL    HW118407   4.989   6.192   1.863 -0.6647  1.4235 -0.3606
 5836SOL    HW218408   4.960   6.137   1.712  1.7611  0.0871 -0.3852
 5837SOL     OW18409   2.767   5.165   6.436 -0.0714  0.0279  0.5395
 5837SOL    HW118410   2.694   5.230   6.455  0.7985  1.4352 -0.7146
 5837SOL    HW218411   2.730   5.072   6.436 -2.0629  0.7529 -0.9549
 5838SOL     OW18412   0.117   0.057   4.346  0.0768  0.8380  0.4754
 5838SOL    HW118413   0.056  -0.005   4.296  1.6058 -1.5493  1.4011
 5838SOL    HW218414   0.192   0.085   4.286  0.0349  0.7900  0.3999
 5839SOL     OW18415   6.614   2.617   3.199  0.9023 -0.1076 -0.2139
 5839SOL    HW118416   6.626   2.530   3.246  0.3661  0.2265  0.5771
 5839SOL    HW218417   6.536   2.611   3.137  1.2877 -0.3939 -0.6732
 5840SOL     OW18418   4.226   4.946   5.629 -0.1659  0.0690 -0.0636
 5840SOL    HW118419   4.325   4.939   5.617 -0.1097  1.4587 -0.4979
 5840SOL    HW218420   4.193   5.033   5.594 -1.4952 -0.1855  0.4651
 5841SOL     OW18421   1.150   3.435   4.258 -0.0474 -0.1798 -0.4673
 5841SOL    HW118422   1.170   3.337   4.254 -0.5474 -0.3956  1.6000
 5841SOL    HW218423   1.052   3.448   4.275  0.3175  0.6050  1.1940
 5842SOL     OW18424   2.879   2.965   6.821  0.0894  0.1802  0.0490
 5842SOL    HW118425   2.801   2.904   6.805 -0.0373  0.8621 -2.3323
 5842SOL    HW218426   2.940   2.924   6.888 -1.4625 -1.1568  0.7139
 5843SOL     OW18427   0.988   2.608   1.356  0.2165 -0.1602 -0.1024
 5843SOL    HW118428   1.057   2.654   1.411 -0.0901  0.8843 -0.5653
 5843SOL    HW218429   0.966   2.664   1.276 -0.9156 -0.6335 -0.1431
 5844SOL     OW18430   3.115   6.063   6.615 -0.3999 -0.3885 -0.0824
 5844SOL    HW118431   3.157   5.972   6.623 -0.6378 -0.9328 -3.4239
 5844SOL    HW218432   3.168   6.129   6.669  2.7261 -1.6853 -1.3036
 5845SOL     OW18433   0.820   0.852   4.123 -0.0088 -0.2324  0.1138
 5845SOL    HW118434   0.859   0.807   4.043  0.6734 -0.9321  0.8317
 5845SOL    HW218435   0.802   0.784   4.194 -1.9444  0.1572  0.0540
 5846SOL     OW18436   6.914   0.792   6.464 -0.4607  0.1024 -0.4205
 5846SOL    HW118437   6.894   0.852   6.541  1.4810  1.7668 -1.1051
 5846SOL    HW218438   6.909   0.697   6.493 -1.4761  0.6412  1.2787
 5847SOL     OW18439   1.389   2.962   2.385 -0.3052  0.0901 -0.0888
 5847SOL    HW118440   1.448   3.042   2.373 -0.8467  0.3880 -0.8496
 5847SOL    HW218441   1.298   2.992   2.411 -0.3973 -0.3075  0.0463
 5848SOL     OW18442   0.283   4.360   4.170 -0.7279  0.1019  0.0437
 5848SOL    HW118443   0.278   4.306   4.254 -1.6030 -1.6865 -1.1077
 5848SOL    HW218444   0.276   4.457   4.193 -1.2427 -0.3477  2.0047
 5849SOL     OW18445   1.331   0.732   4.773 -0.1198 -0.1633  0.0337
 5849SOL    HW118446   1.409   0.723   4.711 -0.1760  0.5819 -0.1593
 5849SOL    HW218447   1.325   0.827   4.805 -1.2555 -0.0812 -0.3738
 5850SOL     OW18448   6.664   4.724   2.211  0.6661  0.3080 -0.1122
 5850SOL    HW118449   6.697   4.636   2.245 -0.4535 -0.2006 -0.3068
 5850SOL    HW218450   6.738   4.790   2.213  1.1745 -0.2632  1.3601
 5851SOL     OW18451   3.933   2.461   1.067  0.0805 -0.0714  0.2690
 5851SOL    HW118452   3.941   2.411   0.980 -0.4581 -0.9438  0.7007
 5851SOL    HW218453   4.009   2.525   1.076  1.3276 -1.4750  0.1006
 5852SOL     OW18454   4.721   4.655   2.767 -0.5195  0.4315 -0.1476
 5852SOL    HW118455   4.643   4.692   2.716  0.7497  1.2164 -1.6103
 5852SOL    HW218456   4.753   4.571   2.723  0.0709  0.6545 -0.1555
 5853SOL     OW18457   3.514   6.047   4.508 -0.3684 -0.4654  0.2021
 5853SOL    HW118458   3.497   6.078   4.415 -2.6733 -2.7402 -0.2377
 5853SOL    HW218459   3.579   5.971   4.507 -0.5112 -0.5926  0.4573
 5854SOL     OW18460   6.371   2.531   5.771  0.0159  0.6680  0.5152
 5854SOL    HW118461   6.356   2.456   5.835 -1.6989 -0.4481 -1.0955
 5854SOL    HW218462   6.293   2.538   5.709  1.8354  1.3039 -1.8529
 5855SOL     OW18463   0.842   0.779   4.456  0.6537 -0.1768 -0.1678
 5855SOL    HW118464   0.882   0.868   4.431  0.3162 -0.0661 -0.3248
 5855SOL    HW218465   0.743   0.784   4.447  0.6776 -0.7838 -0.8710
 5856SOL     OW18466   1.313   4.536   3.864 -0.1735  0.1468 -0.2233
 5856SOL    HW118467   1.248   4.460   3.870 -0.2482  0.2333  0.0407
 5856SOL    HW218468   1.403   4.505   3.895 -0.0525 -0.0106 -0.7121
 5857SOL     OW18469   5.778   1.896   6.312 -0.0648 -0.2707  0.0592
 5857SOL    HW118470   5.859   1.926   6.362  0.6480  0.9022 -1.7236
 5857SOL    HW218471   5.719   1.974   6.294 -1.1342 -0.9547  0.4488
 5858SOL     OW18472   4.162   1.283   2.754 -0.1031 -0.0115  0.5132
 5858SOL    HW118473   4.226   1.228   2.701  0.7159  0.2453  1.2097
 5858SOL    HW218474   4.211   1.329   2.829 -1.1210  0.0993  1.1352
 5859SOL     OW18475   5.639   0.234   0.846  0.3723  0.1946  0.0334
 5859SOL    HW118476   5.693   0.317   0.839  0.5707  0.0854  0.2454
 5859SOL    HW218477   5.543   0.257   0.862  0.1830  0.4140 -1.2593
 5860SOL     OW18478   6.098   2.893   1.688 -0.0940  0.1994 -0.0778
 5860SOL    HW118479   6.075   2.885   1.785 -0.6800  0.5478 -0.1885
 5860SOL    HW218480   6.184   2.943   1.678 -0.3871  0.7755  0.2329
 5861SOL     OW18481   6.347   3.967   5.179 -0.3216 -0.1399 -0.0737
 5861SOL    HW118482   6.269   3.915   5.215  0.1942 -1.1413 -0.3670
 5861SOL    HW218483   6.357   3.946   5.081  0.4260 -0.1555  0.0060
 5862SOL     OW18484   3.927   5.756   2.325  0.1499  0.2822 -0.5183
 5862SOL    HW118485   3.877   5.732   2.241  0.4018 -0.5194 -0.4498
 5862SOL    HW218486   3.887   5.838   2.365 -1.0541 -0.2713 -0.5278
 5863SOL     OW18487   1.290   0.373   0.738 -0.1496 -0.0016 -0.0733
 5863SOL    HW118488   1.325   0.434   0.810  1.5005 -0.0049 -0.8317
 5863SOL    HW218489   1.256   0.429   0.662 -0.7755 -0.0166  0.1883
 5864SOL     OW18490   4.824   4.923   6.464 -0.1630  0.2946 -0.5562
 5864SOL    HW118491   4.902   4.860   6.459 -1.0571 -0.7154 -2.9967
 5864SOL    HW218492   4.845   4.996   6.529  3.1879  0.5558 -1.7283
 5865SOL     OW18493   5.457   1.604   1.929  0.0391  0.4690  0.5600
 5865SOL    HW118494   5.525   1.532   1.920 -0.4389  0.1237 -0.5500
 5865SOL    HW218495   5.483   1.682   1.872 -1.6751 -0.6527 -1.9864
 5866SOL     OW18496   5.011   0.366   0.055  0.5072  0.5061 -0.0363
 5866SOL    HW118497   5.002   0.453   0.007  1.3998  0.7056  0.1575
 5866SOL    HW218498   4.972   0.293  -0.001 -0.9125  1.1105  0.1022
 5867SOL     OW18499   4.905   3.621   2.723 -0.1639 -0.2284 -0.0761
 5867SOL    HW118500   4.883   3.717   2.739  0.1809  0.0934 -1.4879
 5867SOL    HW218501   5.005   3.610   2.717 -0.1200 -0.8968  1.3301
 5868SOL     OW18502   2.560   6.737   5.063  0.5250 -0.4081  0.1102
 5868SOL    HW118503   2.657   6.738   5.087  0.3712 -0.9167  0.7799
 5868SOL    HW218504   2.524   6.830   5.066  1.0452 -0.1932 -0.3564
 5869SOL     OW18505   2.681   4.736   2.462 -0.2897 -0.1842  0.0970
 5869SOL    HW118506   2.720   4.731   2.370 -2.9601 -2.5111 -1.0555
 5869SOL    HW218507   2.721   4.813   2.511  1.5969  0.8497 -2.8153
 5870SOL     OW18508   4.735   3.666   5.851  0.2306 -0.6660  0.5103
 5870SOL    HW118509   4.812   3.718   5.888 -0.2990 -0.7880  1.8196
 5870SOL    HW218510   4.665   3.655   5.921 -1.6466  0.6709 -1.0589
 5871SOL     OW18511   1.478   3.457   0.747  0.2496  0.2612 -0.0861
 5871SOL    HW118512   1.525   3.400   0.680  2.2985  2.2304 -0.4497
 5871SOL    HW218513   1.444   3.539   0.703 -0.0489  0.7097  0.9473
 5872SOL     OW18514   3.242   5.736   5.301  0.0332  0.1800  0.6759
 5872SOL    HW118515   3.207   5.793   5.227 -0.0337  0.9728  1.2938
 5872SOL    HW218516   3.178   5.739   5.378 -0.0501 -0.8844  0.6519
 5873SOL     OW18517   3.169   3.728   4.696 -0.0842 -0.0491  0.0272
 5873SOL    HW118518   3.104   3.788   4.743 -1.0021 -0.9249 -0.0761
 5873SOL    HW218519   3.181   3.644   4.750 -0.7034 -0.8147 -0.9797
 5874SOL     OW18520   1.217   4.334   0.465 -0.4897 -0.0575  0.1335
 5874SOL    HW118521   1.317   4.326   0.461 -0.4367  0.6512 -0.1760
 5874SOL    HW218522   1.184   4.375   0.380 -1.1304 -1.0087 -0.0932
 5875SOL     OW18523   3.519   2.915   0.131 -0.1302 -0.3723 -0.2074
 5875SOL    HW118524   3.593   2.848   0.139 -1.6249 -2.3801 -2.1741
 5875SOL    HW218525   3.540   2.978   0.056  1.4575  1.7880  1.8781
 5876SOL     OW18526   5.107   3.468   0.397  0.1097 -0.6616  0.0800
 5876SOL    HW118527   5.187   3.527   0.401 -0.6637  0.4812 -0.6211
 5876SOL    HW218528   5.043   3.503   0.329 -1.2600 -1.1920  1.0497
 5877SOL     OW18529   1.664   5.442   4.960 -0.9202 -0.4454 -0.0045
 5877SOL    HW118530   1.641   5.471   4.867  0.3776 -0.5762 -0.3936
 5877SOL    HW218531   1.763   5.430   4.967 -0.8987  0.4954  1.6765
 5878SOL     OW18532   5.833   4.045   2.062 -0.2265  0.1729  0.8959
 5878SOL    HW118533   5.895   4.117   2.089  1.1996 -1.1741  1.3549
 5878SOL    HW218534   5.751   4.046   2.120  0.4566  0.4943  1.8605
 5879SOL     OW18535   2.862   3.134   5.411  0.4816  0.0026  0.0461
 5879SOL    HW118536   2.801   3.205   5.377 -0.5761 -0.8243  0.1532
 5879SOL    HW218537   2.809   3.064   5.458  1.3518 -1.4979 -1.1167
 5880SOL     OW18538   6.184   1.308   5.847 -0.4815  0.1655 -0.6642
 5880SOL    HW118539   6.264   1.284   5.791 -0.9063  0.1254 -1.2557
 5880SOL    HW218540   6.103   1.313   5.790 -1.0609 -0.5824  0.0694
 5881SOL     OW18541   0.313   5.870   1.482 -0.2504  0.2479 -0.5602
 5881SOL    HW118542   0.332   5.772   1.470  1.1781  0.5087 -0.6839
 5881SOL    HW218543   0.215   5.887   1.470 -0.4862 -1.1296 -0.7736
 5882SOL     OW18544   2.640   6.221   6.495  0.4863 -0.0324 -0.0934
 5882SOL    HW118545   2.714   6.160   6.522  0.4818 -0.4460 -1.0107
 5882SOL    HW218546   2.606   6.269   6.576  1.3577 -0.2738  0.4222
 5883SOL     OW18547   0.687   5.761   0.596 -0.6310 -0.2384  0.3692
 5883SOL    HW118548   0.737   5.802   0.672 -0.3513 -0.6799  0.4277
 5883SOL    HW218549   0.745   5.692   0.552 -1.5479 -1.5342  1.1132
 5884SOL     OW18550   6.785   2.199   3.925 -0.3886  0.3431 -0.0827
 5884SOL    HW118551   6.780   2.263   4.001 -0.1272  0.2319  0.0262
 5884SOL    HW218552   6.877   2.198   3.887 -0.7516  1.1096 -1.0167
 5885SOL     OW18553   6.410   4.619   5.521 -0.6720  0.2347 -0.1392
 5885SOL    HW118554   6.343   4.692   5.507 -1.2534 -0.3736 -0.6024
 5885SOL    HW218555   6.456   4.600   5.434 -1.7781 -1.1401 -0.4624
 5886SOL     OW18556   2.315   4.510   3.553  0.3918  0.6356 -0.3130
 5886SOL    HW118557   2.373   4.591   3.559 -0.5718  1.3980 -1.0208
 5886SOL    HW218558   2.311   4.479   3.458  0.6804 -0.1847 -0.0601
 5887SOL     OW18559   0.990   2.666   0.983  0.5184 -0.1216 -0.2609
 5887SOL    HW118560   1.033   2.595   0.927  0.5711  0.0234 -0.4033
 5887SOL    HW218561   0.900   2.633   1.014  0.8345 -0.5227  0.2460
 5888SOL     OW18562   3.089   0.346   1.663  0.0634  0.3862  0.7616
 5888SOL    HW118563   3.148   0.305   1.594 -0.9613  0.5716 -0.2609
 5888SOL    HW218564   3.105   0.445   1.666 -0.2208  0.4458  0.4382
 5889SOL     OW18565   5.731   6.732   1.828 -0.2005  0.4908  0.3437
 5889SOL    HW118566   5.660   6.768   1.888 -0.2997  1.0361 -0.0882
 5889SOL    HW218567   5.808   6.796   1.823 -0.2362  0.5047 -0.1753
 5890SOL     OW18568   1.592   6.334   1.608  0.6491  0.0511  0.3948
 5890SOL    HW118569   1.659   6.408   1.606 -1.6745  2.3583  1.8441
 5890SOL    HW218570   1.635   6.251   1.645  2.9197  1.0812  0.2441
 5891SOL     OW18571   1.668   3.722   1.562  0.4626  0.2454  0.0640
 5891SOL    HW118572   1.660   3.623   1.556 -0.3812  0.3380 -0.4128
 5891SOL    HW218573   1.765   3.747   1.569  0.6112 -0.7674  3.1909
 5892SOL     OW18574   6.937   3.695   2.200 -0.1277  0.2768 -0.1730
 5892SOL    HW118575   7.000   3.759   2.244  1.0038 -1.0332  0.2218
 5892SOL    HW218576   6.906   3.628   2.267 -1.8737  0.8026 -0.4024
 5893SOL     OW18577   0.997   0.148   0.992  0.2826 -0.2593 -0.1955
 5893SOL    HW118578   1.079   0.176   0.942 -1.0106  1.4811 -1.4876
 5893SOL    HW218579   0.965   0.059   0.959  0.9194 -0.3390 -0.6007
 5894SOL     OW18580   3.133   6.098   6.070 -0.2755 -0.7979  0.3413
 5894SOL    HW118581   3.113   6.080   6.166 -0.5762 -0.6916  0.2996
 5894SOL    HW218582   3.205   6.166   6.062 -0.4714 -0.5703  0.4923
 5895SOL     OW18583   6.094   3.546   5.145  0.4197  0.2430  0.0703
 5895SOL    HW118584   6.179   3.593   5.169 -0.4098  2.1082 -0.4739
 5895SOL    HW218585   6.048   3.516   5.228  1.0600  0.1906  0.4144
 5896SOL     OW18586   5.191   2.916   2.607  0.2726 -0.6326  0.2884
 5896SOL    HW118587   5.167   3.012   2.622  1.0581 -0.4781  0.5834
 5896SOL    HW218588   5.272   2.910   2.549 -0.2622 -1.1489 -0.4435
 5897SOL     OW18589   4.812   4.250   0.331  0.1190  0.0593  0.0447
 5897SOL    HW118590   4.787   4.344   0.306 -0.3743 -0.0322  0.1926
 5897SOL    HW218591   4.852   4.204   0.252  2.0226  0.9465  0.4087
 5898SOL     OW18592   0.731   0.983   4.786 -0.0029  0.2268 -0.5257
 5898SOL    HW118593   0.762   0.889   4.802 -0.9492  0.1762  1.3195
 5898SOL    HW218594   0.647   0.981   4.731  0.2652  0.0325 -0.9321
 5899SOL     OW18595   1.575   6.324   5.721 -0.5306  0.2240  0.2499
 5899SOL    HW118596   1.476   6.337   5.732 -0.5254 -0.1076  0.7035
 5899SOL    HW218597   1.601   6.236   5.759 -0.0718  0.2632  0.0314
 5900SOL     OW18598   4.503   6.022   2.934 -0.1501  0.0864 -0.3270
 5900SOL    HW118599   4.568   6.022   3.010  1.1904  0.1711 -1.4442
 5900SOL    HW218600   4.544   6.068   2.855 -1.9164  0.9719 -0.7893
 5901SOL     OW18601   0.369   0.103   5.164  0.1749 -0.2929 -0.5266
 5901SOL    HW118602   0.400   0.074   5.254  0.7120 -0.6398 -0.8210
 5901SOL    HW218603   0.274   0.074   5.151 -0.3155  0.8511  0.4075
 5902SOL     OW18604   3.924   4.543   6.686 -0.3874 -0.1874  0.1132
 5902SOL    HW118605   3.922   4.571   6.591 -0.6167  0.5214  0.3210
 5902SOL    HW218606   3.955   4.619   6.743 -0.6891 -0.4568  0.6489
 5903SOL     OW18607   6.049   2.557   4.697  0.3086  0.0621  0.0505
 5903SOL    HW118608   6.079   2.462   4.692  1.5174  0.3555  1.2929
 5903SOL    HW218609   6.006   2.575   4.785 -2.0312  0.1199 -1.0261
 5904SOL     OW18610   6.418   4.582   2.379 -0.2689 -0.4008  0.2441
 5904SOL    HW118611   6.462   4.628   2.302 -0.6575 -0.8005 -0.2268
 5904SOL    HW218612   6.382   4.494   2.349 -2.0849  0.2489  0.4029
 5905SOL     OW18613   4.177   1.853   4.747 -0.2157 -0.6170  0.1822
 5905SOL    HW118614   4.144   1.868   4.840 -1.1395  1.7652 -0.4658
 5905SOL    HW218615   4.232   1.932   4.718 -1.1616 -0.6127 -1.7862
 5906SOL     OW18616   6.305   1.144   6.090 -0.0757 -0.8111  0.2688
 5906SOL    HW118617   6.285   1.078   6.018  3.4397 -1.3654 -0.3904
 5906SOL    HW218618   6.356   1.221   6.051 -0.1665  0.0429  1.7838
 5907SOL     OW18619   1.473   3.998   5.555 -0.4543 -0.0352 -0.6125
 5907SOL    HW118620   1.397   4.045   5.509 -1.4508 -1.2115 -0.2355
 5907SOL    HW218621   1.446   3.977   5.649  1.1583  1.3991  0.2090
 5908SOL     OW18622   4.981   4.587   0.450 -0.3734  0.5108  0.0774
 5908SOL    HW118623   4.886   4.587   0.418 -0.2921  1.1966 -0.1708
 5908SOL    HW218624   5.007   4.494   0.475 -1.4664  0.4680  1.2014
 5909SOL     OW18625   5.128   4.725   3.500  0.2086  0.2599 -0.0102
 5909SOL    HW118626   5.146   4.737   3.597 -0.8005 -0.6472  0.3079
 5909SOL    HW218627   5.173   4.643   3.467 -0.2064  0.0599 -0.0876
 5910SOL     OW18628   1.600   4.294   1.366 -0.0202 -0.0369 -0.1937
 5910SOL    HW118629   1.589   4.249   1.277  0.3200  2.1531 -1.4229
 5910SOL    HW218630   1.610   4.393   1.352  0.6577  0.3030  2.2610
 5911SOL     OW18631   5.407   5.156   6.671 -0.3326  0.0839  0.0305
 5911SOL    HW118632   5.389   5.227   6.603 -1.5554 -0.2115  0.0328
 5911SOL    HW218633   5.464   5.194   6.744 -0.7057  0.9734 -0.1256
 5912SOL     OW18634   5.511   4.354   0.121 -0.2716  0.1305 -0.0890
 5912SOL    HW118635   5.510   4.387   0.027  1.4471  1.5735  0.3439
 5912SOL    HW218636   5.605   4.344   0.153 -0.7693 -2.3119  0.8647
 5913SOL     OW18637   6.906   2.314   0.074 -0.4076 -0.2243  0.6548
 5913SOL    HW118638   6.977   2.370   0.033 -0.9532  1.5742  2.0281
 5913SOL    HW218639   6.856   2.266   0.003  1.9679 -1.3452 -0.3603
 5914SOL     OW18640   3.591   5.016   6.937  0.6930  0.1744  0.3017
 5914SOL    HW118641   3.590   4.959   7.019  1.7406  0.0319  0.2246
 5914SOL    HW218642   3.518   5.085   6.944  1.0410  0.4458  1.5467
 5915SOL     OW18643   5.396   2.562   3.528 -0.3272  0.1133  0.0565
 5915SOL    HW118644   5.401   2.527   3.622  0.6945  0.8908  0.3111
 5915SOL    HW218645   5.444   2.499   3.467  0.3418  0.3688  0.3053
 5916SOL     OW18646   3.847   6.908   6.208  0.2516  0.0292 -0.7246
 5916SOL    HW118647   3.910   6.832   6.191  1.0559  0.6511 -0.5964
 5916SOL    HW218648   3.777   6.879   6.273  1.3937 -0.1905  0.4522
 5917SOL     OW18649   3.433   2.915   2.229 -0.0611 -0.3057  0.2281
 5917SOL    HW118650   3.334   2.908   2.232 -0.5265  2.5468 -2.7231
 5917SOL    HW218651   3.461   3.005   2.262  1.3393 -0.2973 -0.9105
 5918SOL     OW18652   1.931   3.415   4.669 -0.0163 -0.0379  0.6649
 5918SOL    HW118653   1.911   3.506   4.703 -1.3343  0.0262 -0.2152
 5918SOL    HW218654   1.852   3.379   4.620  1.6847 -0.0912 -2.3638
 5919SOL     OW18655   0.982   2.288   0.483  0.3972  0.2690  0.3570
 5919SOL    HW118656   1.068   2.238   0.471  1.9263  2.4903  1.3414
 5919SOL    HW218657   0.935   2.254   0.565  1.3054  0.3061  0.9056
 5920SOL     OW18658   2.415   4.970   0.290 -0.8431 -0.1022  0.0180
 5920SOL    HW118659   2.363   5.056   0.285 -1.2141 -0.2644  0.8518
 5920SOL    HW218660   2.400   4.928   0.379 -0.6016 -1.0006 -0.3590
 5921SOL     OW18661   4.223   5.491   4.894  0.2181  0.4328  0.2639
 5921SOL    HW118662   4.249   5.558   4.825  3.8251  0.2487  1.2470
 5921SOL    HW218663   4.211   5.402   4.850 -0.4579  0.8762 -0.4851
 5922SOL     OW18664   5.956   4.565   1.406  0.2320 -0.0792 -0.0351
 5922SOL    HW118665   6.017   4.608   1.340 -1.2118  0.0632 -1.3289
 5922SOL    HW218666   5.988   4.583   1.498  0.9216  1.8567 -0.6136
 5923SOL     OW18667   3.592   6.242   3.826  0.4839 -0.0706 -0.6504
 5923SOL    HW118668   3.561   6.153   3.860  1.4923 -0.4413 -0.6557
 5923SOL    HW218669   3.533   6.272   3.751  0.9163 -1.3925 -1.5617
 5924SOL     OW18670   4.510   1.405   3.276 -0.6201 -0.4180  0.1385
 5924SOL    HW118671   4.485   1.312   3.250 -1.5538  0.3394 -1.9507
 5924SOL    HW218672   4.588   1.436   3.221  1.6438 -0.8980  2.8687
 5925SOL     OW18673   5.036   6.835   1.565 -0.4008 -0.2605  0.2365
 5925SOL    HW118674   5.126   6.867   1.595 -0.8100  0.3512  0.8376
 5925SOL    HW218675   4.981   6.811   1.645 -1.3955  1.0791 -0.0209
 5926SOL     OW18676   5.282   0.019   2.293 -0.2468  0.0470  0.3168
 5926SOL    HW118677   5.359   0.074   2.260  1.0203 -0.6890  1.9225
 5926SOL    HW218678   5.206   0.080   2.316 -0.0024  0.8327 -0.8475
 5927SOL     OW18679   2.706   6.269   2.084  0.5828 -1.0685 -0.3411
 5927SOL    HW118680   2.634   6.269   2.154 -0.4783 -1.6763 -1.4027
 5927SOL    HW218681   2.735   6.175   2.065  0.5348 -0.9480 -1.0457
 5928SOL     OW18682   6.383   5.642   1.245 -0.0964  0.4080  0.3253
 5928SOL    HW118683   6.435   5.600   1.320 -1.2337  1.0696  1.5299
 5928SOL    HW218684   6.352   5.570   1.183  1.5462 -0.0713  0.0123
 5929SOL     OW18685   0.563   0.348   5.298 -0.2961  0.8572  0.2621
 5929SOL    HW118686   0.620   0.269   5.274 -1.2944 -0.5465  2.2191
 5929SOL    HW218687   0.494   0.362   5.228  0.4271  0.5619 -0.5295
 5930SOL     OW18688   5.622   1.543   4.715  0.6429 -0.1070 -0.6074
 5930SOL    HW118689   5.551   1.560   4.783  2.5856  1.3087  1.2211
 5930SOL    HW218690   5.626   1.446   4.694 -0.0291 -0.6017  1.3496
 5931SOL     OW18691   5.093   6.445   0.929  0.0755 -0.5336 -0.1506
 5931SOL    HW118692   5.041   6.480   1.007 -0.6789 -0.3364 -0.7324
 5931SOL    HW218693   5.031   6.408   0.860  0.7589 -1.1474 -0.4564
 5932SOL     OW18694   2.251   4.394   6.722 -0.0745 -0.5267  0.3710
 5932SOL    HW118695   2.287   4.420   6.632 -2.1231  0.6027 -0.1684
 5932SOL    HW218696   2.328   4.375   6.783  1.4823  1.6706 -0.7323
 5933SOL     OW18697   6.282   4.443   4.278 -0.1540  0.1607  0.1556
 5933SOL    HW118698   6.329   4.389   4.209  0.4431  0.8527  0.0022
 5933SOL    HW218699   6.246   4.383   4.349 -1.2249 -0.6182 -0.9987
 5934SOL     OW18700   3.371   2.713   1.890  0.0898  0.2311  0.3883
 5934SOL    HW118701   3.292   2.674   1.843  0.6059 -1.4742  0.8529
 5934SOL    HW218702   3.346   2.736   1.983  0.0688 -0.0702  0.4584
 5935SOL     OW18703   3.432   4.170   2.183 -0.6928 -0.2161  0.0993
 5935SOL    HW118704   3.437   4.266   2.155  0.0913 -0.3942 -0.4025
 5935SOL    HW218705   3.442   4.163   2.282  0.0159  0.1680  0.0574
 5936SOL     OW18706   5.960   5.752   6.625 -0.7507 -0.0830  0.1639
 5936SOL    HW118707   5.864   5.727   6.637 -0.1751 -2.9767 -0.5896
 5936SOL    HW218708   6.018   5.693   6.682  0.6480  0.9694 -0.0993
 5937SOL     OW18709   0.685   3.173   0.617 -0.1403 -0.0132 -0.0131
 5937SOL    HW118710   0.732   3.088   0.640 -0.5295  0.0976  1.2429
 5937SOL    HW218711   0.593   3.151   0.583 -1.1714 -0.0736  2.5661
 5938SOL     OW18712   2.207   4.399   2.258  0.0359  0.1220 -0.4266
 5938SOL    HW118713   2.176   4.355   2.343  1.5990  0.2352  0.2317
 5938SOL    HW218714   2.162   4.355   2.180 -1.3565 -0.0506  0.4229
 5939SOL     OW18715   2.785   0.478   3.372 -0.0423  0.1243  0.9443
 5939SOL    HW118716   2.731   0.403   3.410 -0.9592  0.3105  0.0639
 5939SOL    HW218717   2.848   0.443   3.304 -0.7511  0.1769  0.2420
 5940SOL     OW18718   3.017   6.569   3.107  0.1402  0.7789 -0.2656
 5940SOL    HW118719   3.083   6.495   3.122  2.3158  2.4186 -1.2624
 5940SOL    HW218720   2.950   6.542   3.038 -0.6354 -1.1241  1.1560
 5941SOL     OW18721   6.820   4.593   1.308 -0.5814  0.1867  0.3084
 5941SOL    HW118722   6.790   4.607   1.403  0.1816 -3.1017  1.1769
 5941SOL    HW218723   6.775   4.511   1.271  0.7074  0.2282 -1.4569
 5942SOL     OW18724   0.772   2.252   0.301 -0.1032 -0.2939 -0.3417
 5942SOL    HW118725   0.852   2.261   0.360  0.0399  0.0155 -0.5855
 5942SOL    HW218726   0.795   2.279   0.208 -0.5810  0.1236 -0.3415
 5943SOL     OW18727   6.942   6.470   0.312 -0.7043 -0.6300 -0.1427
 5943SOL    HW118728   6.902   6.420   0.235  0.4003 -1.7830 -0.0014
 5943SOL    HW218729   7.024   6.517   0.282  0.1726 -1.7157  0.4578
 5944SOL     OW18730   4.248   1.659   5.092 -0.4686 -0.2742  0.0107
 5944SOL    HW118731   4.243   1.747   5.044 -0.5844  0.5387  1.4650
 5944SOL    HW218732   4.155   1.626   5.110 -0.4461 -1.2292 -1.4034
 5945SOL     OW18733   5.554   6.079   5.385  0.3254 -0.3928 -0.6933
 5945SOL    HW118734   5.495   6.158   5.367  2.2904  1.4024  0.2822
 5945SOL    HW218735   5.572   6.031   5.299 -1.8147 -0.5259 -1.1360
 5946SOL     OW18736   3.871   3.342   5.020  0.1179 -0.4734  0.0600
 5946SOL    HW118737   3.921   3.341   4.934  0.2147  0.3033  0.1005
 5946SOL    HW218738   3.795   3.276   5.015 -2.2442  2.1419 -2.0701
 5947SOL     OW18739   4.662   2.424   2.248 -0.4286  0.0224  0.2288
 5947SOL    HW118740   4.675   2.517   2.282  1.1332  0.2091 -0.7783
 5947SOL    HW218741   4.578   2.420   2.193 -0.5007  0.8423  0.2720
 5948SOL     OW18742   4.145   5.020   3.536  0.1811  0.3373  0.0023
 5948SOL    HW118743   4.083   4.946   3.510 -0.6056  0.4894  1.3326
 5948SOL    HW218744   4.238   4.998   3.507 -0.3873 -0.1549 -1.5452
 5949SOL     OW18745   3.695   5.314   1.698  0.0687 -0.4596 -0.0162
 5949SOL    HW118746   3.704   5.413   1.708  0.0572 -0.4429 -0.1749
 5949SOL    HW218747   3.599   5.289   1.711  0.3915 -0.7253  2.4439
 5950SOL     OW18748   6.487   3.223   3.909  0.1593 -0.6916 -0.0017
 5950SOL    HW118749   6.556   3.288   3.876  0.8428 -0.7445  1.2612
 5950SOL    HW218750   6.426   3.199   3.833 -0.1324  1.4262 -0.5169
 5951SOL     OW18751   3.225   6.185   2.010  0.2638 -0.0457 -0.2849
 5951SOL    HW118752   3.215   6.087   1.993 -0.7859  0.1025 -0.5988
 5951SOL    HW218753   3.174   6.236   1.940  1.0038  0.7338 -0.2747
 5952SOL     OW18754   1.279   0.882   6.674  0.2494 -0.0330  0.2668
 5952SOL    HW118755   1.246   0.944   6.744  1.2785  0.8680 -0.0236
 5952SOL    HW218756   1.210   0.812   6.656 -0.8412  0.8980  0.7459
 5953SOL     OW18757   0.140   2.209   5.446  0.5522 -0.5033  0.0990
 5953SOL    HW118758   0.163   2.305   5.461  0.0713 -0.4903  0.8277
 5953SOL    HW218759   0.045   2.202   5.413  0.4516 -0.7483  0.4317
 5954SOL     OW18760   0.720   0.350   6.664 -0.6526  0.6908  0.1897
 5954SOL    HW118761   0.671   0.436   6.651  0.5159  1.2827 -0.4530
 5954SOL    HW218762   0.685   0.282   6.600 -1.1469  0.8735  0.2617
 5955SOL     OW18763   4.319   1.243   1.613 -0.1169  1.0603 -0.3075
 5955SOL    HW118764   4.412   1.206   1.604 -0.6937 -0.7005  0.5136
 5955SOL    HW218765   4.292   1.243   1.709 -1.6380 -0.2696 -0.6942
 5956SOL     OW18766   0.578   2.322   6.717  0.4634  0.3772 -0.2505
 5956SOL    HW118767   0.620   2.250   6.771  2.9454  1.0418 -1.1474
 5956SOL    HW218768   0.510   2.370   6.772 -0.6622 -2.0576  0.6189
 5957SOL     OW18769   5.153   0.320   5.523  0.5593 -0.2200 -0.7331
 5957SOL    HW118770   5.193   0.229   5.512  0.0872 -0.3205 -1.6945
 5957SOL    HW218771   5.220   0.389   5.495  0.4202 -0.3476 -1.4143
 5958SOL     OW18772   6.460   0.732   1.438  0.0059 -0.1770  0.4074
 5958SOL    HW118773   6.443   0.811   1.496  1.0565  0.7593 -0.5101
 5958SOL    HW218774   6.419   0.747   1.348  0.0874 -0.7451  0.2688
 5959SOL     OW18775   1.896   1.524   0.312  0.2953  0.6150  0.2233
 5959SOL    HW118776   1.902   1.447   0.374 -2.0053 -0.1960 -0.4449
 5959SOL    HW218777   1.967   1.518   0.242  0.7254 -0.3760  0.7433
 5960SOL     OW18778   5.485   6.849   4.779 -0.7202  0.1772 -0.3224
 5960SOL    HW118779   5.555   6.802   4.725  0.8485  1.6904  0.2967
 5960SOL    HW218780   5.442   6.920   4.724 -1.3253 -0.3198 -0.5014
 5961SOL     OW18781   1.375   1.922   5.344  0.1758  0.0018 -0.2593
 5961SOL    HW118782   1.365   1.891   5.439  0.2839  1.1464  0.1400
 5961SOL    HW218783   1.316   1.867   5.285  1.3186 -1.8321  0.2144
 5962SOL     OW18784   5.177   4.971   3.300 -0.1777 -0.2209 -0.0326
 5962SOL    HW118785   5.143   4.923   3.381  0.9694 -0.6344  0.2216
 5962SOL    HW218786   5.147   4.923   3.218 -0.5319 -0.3495  0.1703
 5963SOL     OW18787   3.710   3.528   2.240  0.0601  1.0070 -0.1582
 5963SOL    HW118788   3.613   3.504   2.236  0.1530  0.3000  1.3913
 5963SOL    HW218789   3.745   3.537   2.147 -1.3189  0.6115 -0.7489
 5964SOL     OW18790   0.584   4.276   5.998  0.3286  0.8933 -0.0859
 5964SOL    HW118791   0.564   4.221   5.917 -2.9497 -1.3278  2.0072
 5964SOL    HW218792   0.557   4.371   5.981 -0.2577  0.4766 -1.6091
 5965SOL     OW18793   4.079   1.640   4.247  0.5381 -0.0503  0.1491
 5965SOL    HW118794   4.076   1.648   4.347  0.7444 -1.1599  0.2554
 5965SOL    HW218795   3.997   1.682   4.208  0.8994  1.2314  0.7091
 5966SOL     OW18796   1.752   6.837   6.999  0.2814 -0.1532  0.0274
 5966SOL    HW118797   1.797   6.779   6.931 -0.7607 -0.7868 -0.1458
 5966SOL    HW218798   1.770   6.800   7.090 -1.8649 -1.9212 -0.1649
 5967SOL     OW18799   5.423   6.977   0.015 -0.0707  0.1433 -0.1422
 5967SOL    HW118800   5.332   6.950   0.045 -0.8181  0.4154 -1.9778
 5967SOL    HW218801   5.460   7.048   0.076 -0.7201 -0.5608  1.0896
 5968SOL     OW18802   6.222   2.298   5.032 -0.0588  0.5128 -0.0286
 5968SOL    HW118803   6.154   2.287   5.104 -0.2624 -0.0369 -0.2977
 5968SOL    HW218804   6.202   2.381   4.980 -0.5666  0.3195 -0.1482
 5969SOL     OW18805   0.237   2.667   3.171  0.0844  0.4046 -0.1800
 5969SOL    HW118806   0.199   2.583   3.131  0.9562  0.2494 -0.7112
 5969SOL    HW218807   0.163   2.733   3.184 -0.5119 -0.2077 -0.3644
 5970SOL     OW18808   1.974   3.049   3.398 -0.2089  0.0398  0.5040
 5970SOL    HW118809   1.978   3.037   3.497 -0.3837  0.6430  0.5853
 5970SOL    HW218810   1.953   3.144   3.376  0.8003  0.1271 -0.1299
 5971SOL     OW18811   3.453   6.791   2.411 -0.1313  0.0682 -0.2931
 5971SOL    HW118812   3.548   6.822   2.405  0.2794 -1.1364 -0.3512
 5971SOL    HW218813   3.446   6.697   2.377 -1.3985  0.2241 -0.5220
 5972SOL     OW18814   5.297   5.359   2.621  0.0266 -0.3803 -0.0713
 5972SOL    HW118815   5.377   5.404   2.581 -0.9034  0.2530 -1.3105
 5972SOL    HW218816   5.309   5.260   2.617  0.1030 -0.3340 -1.7157
 5973SOL     OW18817   0.131   4.909   3.239  0.1582 -0.5118 -0.0002
 5973SOL    HW118818   0.220   4.876   3.209 -1.3230 -3.3342 -1.6775
 5973SOL    HW218819   0.089   4.963   3.166 -0.1208 -0.4369  0.2131
 5974SOL     OW18820   1.053   2.632   6.795  0.0291  0.2389  0.0425
 5974SOL    HW118821   1.125   2.639   6.726 -1.7908  1.2145 -1.8559
 5974SOL    HW218822   1.066   2.703   6.864 -0.1190  1.6396 -1.3152
 5975SOL     OW18823   0.456   3.601   6.336  0.6619  0.2442  0.0549
 5975SOL    HW118824   0.508   3.686   6.336  1.0971 -0.0184 -0.4208
 5975SOL    HW218825   0.519   3.523   6.346  0.3582 -0.0683 -0.4191
 5976SOL     OW18826   3.103   3.168   4.963 -0.1247  0.4673  0.6346
 5976SOL    HW118827   3.201   3.187   4.970  0.0016 -0.6279  2.9436
 5976SOL    HW218828   3.052   3.252   4.974  0.5531  0.8377  1.0620
 5977SOL     OW18829   1.321   3.093   3.925  0.0220 -0.4939 -0.0415
 5977SOL    HW118830   1.233   3.131   3.898  0.6586  0.0749 -1.4052
 5977SOL    HW218831   1.328   2.998   3.894 -0.7554 -1.1262  1.5777
 5978SOL     OW18832   4.584   4.755   3.119 -0.5346  0.6169 -0.2041
 5978SOL    HW118833   4.575   4.784   3.023 -0.2330  3.5312  0.5586
 5978SOL    HW218834   4.502   4.705   3.147 -1.3845  1.2301 -1.4991
 5979SOL     OW18835   6.478   6.793   0.452 -0.4391  0.0168  0.2688
 5979SOL    HW118836   6.525   6.730   0.390 -0.9578 -0.3733  0.2664
 5979SOL    HW218837   6.494   6.887   0.423 -1.3109 -0.1803 -0.9271
 5980SOL     OW18838   5.480   5.224   6.147 -0.0592 -0.6827 -0.0280
 5980SOL    HW118839   5.402   5.166   6.173 -2.7602  2.1563 -1.1284
 5980SOL    HW218840   5.489   5.225   6.048  0.0285  0.5762 -0.0244
 5981SOL     OW18841   5.083   0.937   2.407  0.3611  0.2475  0.2440
 5981SOL    HW118842   5.085   0.894   2.317 -0.9384  0.5819  0.0227
 5981SOL    HW218843   5.135   1.023   2.404  0.0775  0.4072 -0.2788
 5982SOL     OW18844   6.342   0.429   5.886 -0.0795 -0.2369  0.2371
 5982SOL    HW118845   6.394   0.345   5.904  0.2126 -0.0375  0.3249
 5982SOL    HW218846   6.396   0.490   5.827 -0.3268 -0.1482  0.1018
 5983SOL     OW18847   0.268   2.175   4.686  0.2103 -0.1247 -0.1662
 5983SOL    HW118848   0.260   2.086   4.732  0.9087  1.1711  2.7315
 5983SOL    HW218849   0.183   2.195   4.638  0.5466 -2.9485 -2.2138
 5984SOL     OW18850   6.708   5.235   5.051 -0.2368 -0.2198 -0.0338
 5984SOL    HW118851   6.684   5.301   4.979 -1.3551  0.6684  1.1132
 5984SOL    HW218852   6.626   5.187   5.082  0.0859 -0.0172  1.1839
 5985SOL     OW18853   2.658   1.126   3.482  0.0416 -0.2415  0.0993
 5985SOL    HW118854   2.576   1.184   3.484 -0.0282 -0.3738  1.4475
 5985SOL    HW218855   2.736   1.180   3.449  0.1753  0.9132  2.1696
 5986SOL     OW18856   3.480   4.114   2.460  0.4929 -0.0567 -0.2418
 5986SOL    HW118857   3.487   4.123   2.560  0.9642 -1.3075 -0.1457
 5986SOL    HW218858   3.481   4.018   2.435 -2.1098  0.0950 -1.3048
 5987SOL     OW18859   5.304   6.673   6.174  0.0545 -0.2242  0.0541
 5987SOL    HW118860   5.373   6.604   6.151 -0.9809 -1.0332 -0.7184
 5987SOL    HW218861   5.349   6.753   6.212  1.7954  0.5721 -3.3244
 5988SOL     OW18862   3.681   1.508   4.853 -0.4043  0.2816  0.3602
 5988SOL    HW118863   3.622   1.587   4.839  0.3575  0.7979 -0.0369
 5988SOL    HW218864   3.728   1.486   4.768 -1.3294 -1.2164  0.2055
 5989SOL     OW18865   3.870   5.822   5.070 -0.3478 -0.0938 -0.2502
 5989SOL    HW118866   3.803   5.796   5.139  1.0142 -2.3545  0.3423
 5989SOL    HW218867   3.872   5.921   5.061 -1.2648  0.2358  2.2722
 5990SOL     OW18868   2.565   3.056   1.691 -0.1722  0.3777  0.1120
 5990SOL    HW118869   2.642   3.044   1.628  0.4876  0.6681  0.8490
 5990SOL    HW218870   2.536   2.966   1.726  1.5662  0.4219  1.8487
 5991SOL     OW18871   2.285   5.278   2.945  0.1519 -0.2734 -0.3535
 5991SOL    HW118872   2.302   5.263   2.847 -1.0632 -3.8355 -0.1501
 5991SOL    HW218873   2.354   5.228   2.998 -0.0588  0.4346  0.6036
 5992SOL     OW18874   4.562   0.896   4.694  0.1415 -0.1323  0.5710
 5992SOL    HW118875   4.477   0.870   4.648 -0.3684  0.3735  1.2019
 5992SOL    HW218876   4.569   0.996   4.697  1.0253 -0.1622  0.0651
 5993SOL     OW18877   3.493   5.639   5.313  0.2253 -0.8100 -0.1093
 5993SOL    HW118878   3.479   5.540   5.311 -1.5357 -0.7371  2.8133
 5993SOL    HW218879   3.404   5.685   5.314  1.0182  0.8360 -1.1621
 5994SOL     OW18880   6.188   3.778   0.759 -0.2980 -0.1910 -0.2614
 5994SOL    HW118881   6.119   3.722   0.804  0.5809 -0.6570  0.5556
 5994SOL    HW218882   6.180   3.768   0.660 -1.4879 -0.1109 -0.1886
 5995SOL     OW18883   1.521   3.210   2.891 -0.0535 -0.9393 -0.4018
 5995SOL    HW118884   1.452   3.277   2.918  2.0289  0.1068  2.9524
 5995SOL    HW218885   1.514   3.129   2.949  2.6471  0.0346  1.4726
 5996SOL     OW18886   1.537   6.527   3.978 -1.0582 -0.1304 -0.2365
 5996SOL    HW118887   1.611   6.575   3.930 -1.4166  1.1071  0.3903
 5996SOL    HW218888   1.576   6.452   4.032 -0.5028 -0.6997 -1.3982
 5997SOL     OW18889   1.334   5.921   2.602 -0.4405 -0.0832  0.1244
 5997SOL    HW118890   1.288   5.982   2.667 -2.1493  0.5810 -1.6267
 5997SOL    HW218891   1.346   5.831   2.644 -3.2123 -0.2373  0.7676
 5998SOL     OW18892   6.224   2.090   2.906 -0.1851  0.2068  0.6210
 5998SOL    HW118893   6.320   2.064   2.902  0.1422  1.4007  0.5188
 5998SOL    HW218894   6.176   2.054   2.826 -0.1190 -1.4367  1.2636
 5999SOL     OW18895   5.905   2.352   3.553 -0.0676  0.5028  0.2669
 5999SOL    HW118896   5.928   2.254   3.553 -0.5547  0.3650 -0.8956
 5999SOL    HW218897   5.843   2.372   3.629 -1.5523 -0.5151 -0.6259
 6000SOL     OW18898   4.458   5.206   2.520  0.3118  0.2424  0.1256
 6000SOL    HW118899   4.375   5.163   2.485  0.7076 -1.8132  1.5415
 6000SOL    HW218900   4.498   5.264   2.449 -1.4610  0.0555 -1.0983
 6001SOL     OW18901   3.805   1.452   6.751 -0.1348  0.0444  0.1902
 6001SOL    HW118902   3.732   1.391   6.784  0.8435 -1.3344 -0.0899
 6001SOL    HW218903   3.772   1.546   6.751 -2.7041 -0.7185 -2.0275
 6002SOL     OW18904   1.755   1.757   1.303 -0.4005 -0.1708  0.4606
 6002SOL    HW118905   1.785   1.820   1.374  1.2863 -1.6785  1.1523
 6002SOL    HW218906   1.722   1.672   1.344 -2.1399  0.0055 -0.4722
 6003SOL     OW18907   4.466   4.505   4.530  0.1269 -0.3028 -0.2991
 6003SOL    HW118908   4.490   4.517   4.626 -0.1918 -2.2013  0.0678
 6003SOL    HW218909   4.388   4.562   4.507 -0.6768 -0.8433  0.9660
 6004SOL     OW18910   6.533   2.475   2.288 -0.2019  0.1985  0.1497
 6004SOL    HW118911   6.507   2.392   2.238  0.0841  0.0495  0.2461
 6004SOL    HW218912   6.602   2.525   2.236  1.5540 -0.9537  1.2623
 6005SOL     OW18913   3.085   0.432   0.939  0.0627 -0.0582 -0.2402
 6005SOL    HW118914   3.098   0.441   0.840 -2.0507  3.3232 -0.3782
 6005SOL    HW218915   2.995   0.392   0.957 -0.4484  1.2808  0.2590
 6006SOL     OW18916   2.858   5.143   6.754 -0.5295 -0.6222 -0.1609
 6006SOL    HW118917   2.832   5.221   6.697  2.1239  1.4760  1.2905
 6006SOL    HW218918   2.947   5.108   6.725  0.5487  0.0366  2.1124
 6007SOL     OW18919   5.744   2.439   4.544 -0.1154  0.4912 -0.2224
 6007SOL    HW118920   5.784   2.525   4.576 -2.9153  2.5483 -1.7362
 6007SOL    HW218921   5.730   2.443   4.445 -1.4327 -1.1971 -0.1623
 6008SOL     OW18922   3.484   3.818   6.576  0.1701  0.7582  0.8000
 6008SOL    HW118923   3.507   3.723   6.595 -0.3893  0.3609 -0.4020
 6008SOL    HW218924   3.475   3.868   6.663  1.1629 -0.0920  1.4251
 6009SOL     OW18925   2.555   2.148   4.498  0.3695  0.2312 -0.3885
 6009SOL    HW118926   2.490   2.128   4.571 -0.9852  1.0370 -1.3262
 6009SOL    HW218927   2.637   2.091   4.509  0.4107  0.6745  1.9971
 6010SOL     OW18928   1.629   4.185   3.277 -0.9767  0.1680  0.5380
 6010SOL    HW118929   1.729   4.193   3.285 -0.7350 -1.2332 -0.6595
 6010SOL    HW218930   1.589   4.275   3.262  0.3371  0.5064 -1.1412
 6011SOL     OW18931   0.212   6.240   4.159  0.4117 -0.5048 -0.0928
 6011SOL    HW118932   0.158   6.202   4.084 -0.3376  0.6373 -0.1653
 6011SOL    HW218933   0.152   6.294   4.218  0.8037 -2.0713  1.8520
 6012SOL     OW18934   6.194   3.429   6.848 -0.1463  0.4645  0.3627
 6012SOL    HW118935   6.152   3.444   6.938  0.1411  0.5290  0.4882
 6012SOL    HW218936   6.201   3.331   6.830 -1.6718  0.4491 -0.2902
 6013SOL     OW18937   6.985   0.652   3.187  0.2490 -0.6174  0.3545
 6013SOL    HW118938   7.031   0.735   3.156  0.2089 -0.3302  1.0475
 6013SOL    HW218939   7.021   0.626   3.277 -1.6638  0.2309  1.4324
 6014SOL     OW18940   5.974   2.575   0.208  0.3984  0.6702  0.5735
 6014SOL    HW118941   5.895   2.518   0.182  1.3294 -0.5798  0.3858
 6014SOL    HW218942   5.985   2.573   0.307  0.1933  0.8598  0.6018
 6015SOL     OW18943   5.563   2.067   4.206  0.2446 -0.1620  0.3569
 6015SOL    HW118944   5.524   2.081   4.115  0.0473 -1.9027  0.1344
 6015SOL    HW218945   5.658   2.097   4.207  0.8811 -1.9175 -1.0546
 6016SOL     OW18946   3.126   6.352   5.178  0.2317 -0.7067  1.1651
 6016SOL    HW118947   3.203   6.300   5.140 -1.2596 -2.2209  0.0427
 6016SOL    HW218948   3.143   6.450   5.166  1.5954 -1.0305  0.1542
 6017SOL     OW18949   2.455   6.118   2.486  0.1749 -0.2110 -0.2459
 6017SOL    HW118950   2.357   6.131   2.502  0.4896  0.7566  1.0599
 6017SOL    HW218951   2.500   6.097   2.573  1.3031  0.6262 -0.6102
 6018SOL     OW18952   2.560   5.056   1.919  0.1099  0.2495 -0.1581
 6018SOL    HW118953   2.574   5.154   1.931 -2.0575  0.8329 -1.7411
 6018SOL    HW218954   2.488   5.024   1.980  0.8633 -0.4104  0.4116
 6019SOL     OW18955   4.951   5.820   3.656 -0.0713  0.1526 -0.6912
 6019SOL    HW118956   4.894   5.776   3.588  2.1907  0.6231 -3.0667
 6019SOL    HW218957   4.992   5.751   3.716 -1.3518 -0.3558 -0.3837
 6020SOL     OW18958   1.775   0.140   2.064  0.0136 -0.0592 -0.0687
 6020SOL    HW118959   1.786   0.139   2.164  0.3447 -1.4238 -0.0892
 6020SOL    HW218960   1.717   0.063   2.037  0.3028  0.0280 -0.9584
 6021SOL     OW18961   4.966   1.501   3.054  0.5531  1.2285 -0.4915
 6021SOL    HW118962   4.984   1.541   2.964  2.4154  1.2906 -0.1249
 6021SOL    HW218963   5.013   1.554   3.124  0.5028  0.2136  0.3316
 6022SOL     OW18964   3.681   2.035   4.527  0.3019  0.6980  0.2203
 6022SOL    HW118965   3.585   2.045   4.553 -0.3020  0.5762 -1.7750
 6022SOL    HW218966   3.738   2.091   4.587 -0.9973  0.7859  1.4297
 6023SOL     OW18967   1.095   1.026   4.563 -0.4755 -0.1314  0.1996
 6023SOL    HW118968   1.014   1.012   4.505 -0.2030  3.4682 -1.3103
 6023SOL    HW218969   1.176   0.992   4.515 -0.5858  0.2942 -0.2946
 6024SOL     OW18970   6.580   3.403   2.779 -0.2825 -0.1104  0.8230
 6024SOL    HW118971   6.572   3.503   2.779  0.0381 -0.0763  0.1026
 6024SOL    HW218972   6.656   3.376   2.720 -0.2221 -0.7748  1.1957
 6025SOL     OW18973   5.898   2.596   3.188 -0.0163 -0.2256  0.3890
 6025SOL    HW118974   5.811   2.641   3.205  1.1697  2.3029  0.2345
 6025SOL    HW218975   5.938   2.632   3.104  1.4361 -0.9077  0.7586
 6026SOL     OW18976   0.705   4.008   3.939 -0.0947 -0.4563 -0.2285
 6026SOL    HW118977   0.769   4.054   4.001 -0.0735  0.2578 -0.7698
 6026SOL    HW218978   0.640   4.074   3.902 -0.8941 -1.0995 -0.0176
 6027SOL     OW18979   1.616   1.762   6.630 -0.2046 -0.2066 -0.9146
 6027SOL    HW118980   1.568   1.806   6.554 -0.4911  0.0377 -0.5911
 6027SOL    HW218981   1.713   1.784   6.625 -0.4924  1.3915 -0.1371
 6028SOL     OW18982   1.413   4.737   5.654  0.4757 -0.3128  0.4069
 6028SOL    HW118983   1.499   4.707   5.613  0.8291  2.6341 -1.3511
 6028SOL    HW218984   1.336   4.696   5.604  0.9255  0.7377 -1.2428
 6029SOL     OW18985   6.647   4.527   0.937 -0.0518 -0.4804  0.2998
 6029SOL    HW118986   6.590   4.445   0.938  0.0622 -0.6202 -1.6036
 6029SOL    HW218987   6.590   4.608   0.951 -0.3719 -0.7734  0.7043
 6030SOL     OW18988   0.493   1.980   1.614 -0.1959  0.5551  0.2517
 6030SOL    HW118989   0.470   2.073   1.643 -0.1960  0.3201  1.0214
 6030SOL    HW218990   0.438   1.955   1.535 -1.5176  0.5398  1.1556
 6031SOL     OW18991   0.829   6.370   4.300  0.4080 -0.2549 -0.1890
 6031SOL    HW118992   0.887   6.290   4.313  0.3747 -0.3573 -0.6535
 6031SOL    HW218993   0.822   6.391   4.202  0.2543  0.1940 -0.0861
 6032SOL     OW18994   5.990   2.075   3.472 -0.2025  0.2168  0.0274
 6032SOL    HW118995   6.015   2.149   3.410  2.6300 -0.8578 -0.2749
 6032SOL    HW218996   6.071   2.045   3.523 -1.5324 -1.7826  1.1210
 6033SOL     OW18997   6.335   0.692   5.030  0.1382 -0.8645  0.4365
 6033SOL    HW118998   6.400   0.692   5.105  0.4410 -1.3264  0.1809
 6033SOL    HW218999   6.259   0.754   5.051  0.3045 -0.8608  1.0429
 6034SOL     OW19000   1.504   3.649   5.914 -0.5735  0.3297  0.2223
 6034SOL    HW119001   1.570   3.592   5.962 -0.8520 -1.2762 -1.2011
 6034SOL    HW219002   1.414   3.604   5.915 -1.2793  1.6844  0.7006
 6035SOL     OW19003   0.644   0.320   4.067 -0.3918  0.0634  0.8707
 6035SOL    HW119004   0.605   0.307   4.158  0.8416  0.2363  1.4534
 6035SOL    HW219005   0.578   0.292   3.997 -1.1301 -0.6585  1.8353
 6036SOL     OW19006   0.004   2.102   5.073 -0.2033  0.7596  0.0950
 6036SOL    HW119007   0.085   2.140   5.028  1.4176  0.3270  2.4345
 6036SOL    HW219008  -0.022   2.161   5.149 -0.9269 -0.0907  0.5193
 6037SOL     OW19009   0.636   6.216   4.420  0.6000 -0.4686  0.6433
 6037SOL    HW119010   0.699   6.282   4.377  0.2580  0.7735  1.9704
 6037SOL    HW219011   0.564   6.192   4.354  1.3846 -0.4390 -0.2526
 6038SOL     OW19012   4.650   0.172   5.580 -0.4379  0.1115  0.1070
 6038SOL    HW119013   4.738   0.211   5.608  0.2630 -0.6632 -0.9459
 6038SOL    HW219014   4.591   0.244   5.543  0.9381  0.1928 -2.0657
 6039SOL     OW19015   3.248   3.515   2.697  0.1191 -0.0417  0.1282
 6039SOL    HW119016   3.175   3.448   2.712  0.0994 -0.0241  0.1101
 6039SOL    HW219017   3.235   3.560   2.609  1.4036 -1.6280 -0.9236
 6040SOL     OW19018   0.344   1.882   6.259 -0.3084  0.5739  0.6158
 6040SOL    HW119019   0.284   1.916   6.331 -0.4820  0.9558  0.2914
 6040SOL    HW219020   0.395   1.958   6.219  0.1657  0.2953  0.6776
 6041SOL     OW19021   1.579   2.827   0.481 -0.1822  0.8481  0.1985
 6041SOL    HW119022   1.641   2.905   0.477 -0.7902  1.3994  1.2051
 6041SOL    HW219023   1.529   2.821   0.394 -0.0107  1.4717  0.0469
 6042SOL     OW19024   0.541   5.561   2.492 -0.2836  0.2401  0.0825
 6042SOL    HW119025   0.463   5.597   2.545 -0.0323  0.1028  0.5500
 6042SOL    HW219026   0.513   5.479   2.443 -0.7839  0.8881 -0.7590
 6043SOL     OW19027   0.196   4.761   4.827  0.3763 -0.7230  0.0250
 6043SOL    HW119028   0.222   4.677   4.780 -1.0971 -0.1608 -1.9414
 6043SOL    HW219029   0.186   4.835   4.760  1.1827  0.9395  1.6345
 6044SOL     OW19030   6.402   5.853   2.073  0.5070 -0.1941  0.1025
 6044SOL    HW119031   6.411   5.949   2.101  0.3715 -0.1481 -0.0084
 6044SOL    HW219032   6.491   5.816   2.048  0.4229  0.2015 -0.8266
 6045SOL     OW19033   0.387   4.724   2.669 -0.1874 -0.2220 -0.2823
 6045SOL    HW119034   0.349   4.783   2.598  1.6180  0.7110 -0.5221
 6045SOL    HW219035   0.473   4.763   2.703  1.0090 -2.5987 -0.3501
 6046SOL     OW19036   3.274   1.339   2.248  0.2671 -0.3365  0.6546
 6046SOL    HW119037   3.311   1.304   2.334 -0.8366 -0.5101  1.0831
 6046SOL    HW219038   3.196   1.282   2.220  0.7601 -0.4364 -0.6016
 6047SOL     OW19039   0.553   6.479   5.274  0.4153  0.1416  0.1867
 6047SOL    HW119040   0.576   6.413   5.345 -0.8142  2.5052  3.0231
 6047SOL    HW219041   0.620   6.554   5.276  1.2987 -0.4752 -2.3760
 6048SOL     OW19042   5.180   5.438   5.585 -0.2346 -0.4912 -0.1541
 6048SOL    HW119043   5.119   5.505   5.627  0.4421  0.0704 -0.0449
 6048SOL    HW219044   5.268   5.440   5.633 -0.9104 -3.0715  1.3786
 6049SOL     OW19045   5.414   5.122   0.144  0.3658  0.0021  0.1210
 6049SOL    HW119046   5.486   5.145   0.209  2.2043 -0.1226 -1.7725
 6049SOL    HW219047   5.328   5.163   0.175  0.8942 -0.9002  3.1180
 6050SOL     OW19048   5.987   5.327   5.521 -0.2077 -0.1502 -0.5081
 6050SOL    HW119049   5.933   5.399   5.478 -0.2243 -0.2985 -0.7385
 6050SOL    HW219050   6.082   5.356   5.531 -0.2269 -0.0747 -0.5492
 6051SOL     OW19051   1.303   2.288   1.965  0.2921  0.3855  0.0026
 6051SOL    HW119052   1.366   2.225   2.009 -0.4760 -0.2881  0.1717
 6051SOL    HW219053   1.300   2.374   2.017 -0.0088 -0.1089  0.8361
 6052SOL     OW19054   6.512   2.485   0.177 -0.3478 -0.3933  0.4794
 6052SOL    HW119055   6.434   2.425   0.157  0.3059 -0.8514 -0.8148
 6052SOL    HW219056   6.585   2.469   0.110  0.7466  0.2484  1.4670
 6053SOL     OW19057   2.590   1.081   6.602  0.5826 -0.3639 -0.0378
 6053SOL    HW119058   2.565   1.058   6.508  1.0919  1.0405 -0.5375
 6053SOL    HW219059   2.560   1.174   6.623  0.4897 -0.6497  1.1941
 6054SOL     OW19060   2.858   3.492   6.793  0.3462  0.1207 -0.0010
 6054SOL    HW119061   2.827   3.484   6.888  0.0828  1.0984  0.0078
 6054SOL    HW219062   2.876   3.588   6.772 -2.9560  0.4563 -1.9663
 6055SOL     OW19063   5.807   5.806   4.802  0.2085  0.4623  0.8179
 6055SOL    HW119064   5.779   5.762   4.716  1.4419  0.9910  0.1149
 6055SOL    HW219065   5.785   5.903   4.799  2.8204  1.1235 -0.1819
 6056SOL     OW19066   3.735   2.708   5.803  0.5778 -0.1526  0.3058
 6056SOL    HW119067   3.751   2.791   5.749  0.1586 -0.3459 -0.1204
 6056SOL    HW219068   3.724   2.630   5.742  0.2600 -0.3993  0.6715
 6057SOL     OW19069   6.196   0.824   4.235  0.1137 -0.3378  0.5586
 6057SOL    HW119070   6.270   0.886   4.210  1.6472 -2.3200 -0.0792
 6057SOL    HW219071   6.134   0.815   4.157 -0.0731  0.2913  0.6242
 6058SOL     OW19072   4.810   2.811   3.684 -0.2032  0.1564 -0.0220
 6058SOL    HW119073   4.832   2.878   3.614  0.5964  1.5832  1.5226
 6058SOL    HW219074   4.891   2.755   3.703 -0.8747 -1.3309 -1.3268
 6059SOL     OW19075   0.955   4.411   5.983 -0.0520 -0.4241 -0.6137
 6059SOL    HW119076   1.017   4.461   6.044 -2.2524 -0.4000  1.7411
 6059SOL    HW219077   0.927   4.326   6.026 -1.4704 -0.5680 -1.7314
 6060SOL     OW19078   3.042   5.938   5.818 -0.5192 -0.6258 -0.1629
 6060SOL    HW119079   3.046   5.991   5.903 -0.1310 -1.2539  0.2168
 6060SOL    HW219080   3.123   5.880   5.811 -1.0095 -1.2882 -0.4912
 6061SOL     OW19081   3.135   1.652   0.408  0.1574 -0.5930 -0.3089
 6061SOL    HW119082   3.078   1.657   0.327 -0.0080 -1.0548 -0.2203
 6061SOL    HW219083   3.093   1.706   0.482  0.7918  0.6308 -0.8110
 6062SOL     OW19084   3.256   0.309   3.873  0.2114  0.0107  0.1132
 6062SOL    HW119085   3.279   0.240   3.942  0.3656  0.8182  0.8924
 6062SOL    HW219086   3.260   0.268   3.782 -1.8903 -1.6186  0.6506
 6063SOL     OW19087   4.720   0.816   0.577  0.0243 -0.1964 -0.3491
 6063SOL    HW119088   4.767   0.738   0.534 -2.7747 -1.8078 -0.6983
 6063SOL    HW219089   4.764   0.901   0.548  1.6513 -1.5134 -1.9690
 6064SOL     OW19090   1.037   5.912   3.147  0.2964 -0.1252  0.2122
 6064SOL    HW119091   1.107   5.947   3.084  0.7019  1.0242  1.2526
 6064SOL    HW219092   0.951   5.902   3.099  0.8606 -0.3105 -0.7880
 6065SOL     OW19093   1.264   5.904   0.151 -0.1952  0.1006  0.7513
 6065SOL    HW119094   1.202   5.943   0.219 -0.9275  0.9941 -0.3880
 6065SOL    HW219095   1.214   5.840   0.094 -0.5761  2.0675 -1.2542
 6066SOL     OW19096   3.733   2.065   6.874  0.1060  0.4243  0.1958
 6066SOL    HW119097   3.680   2.136   6.921 -0.1258 -0.0516  0.6640
 6066SOL    HW219098   3.684   1.978   6.879  0.5009  0.1755 -0.1671
 6067SOL     OW19099   5.139   2.387   6.772  0.3495 -0.6420  0.6564
 6067SOL    HW119100   5.069   2.326   6.809 -0.2291 -0.5008 -0.1675
 6067SOL    HW219101   5.188   2.432   6.847 -0.4089 -0.7815  1.2430
 6068SOL     OW19102   4.081   3.688   4.426 -0.4903 -0.1687  0.3669
 6068SOL    HW119103   4.021   3.608   4.427  0.9305 -1.3837 -2.1220
 6068SOL    HW219104   4.167   3.664   4.381  2.1666  1.3512  4.1410
 6069SOL     OW19105   0.266   3.318   4.000  0.1753  0.0989 -0.7702
 6069SOL    HW119106   0.305   3.261   3.929 -0.3711 -0.6112 -0.5132
 6069SOL    HW219107   0.197   3.266   4.050 -0.2320  0.9404 -0.4403
 6070SOL     OW19108   2.880   2.407   0.655  0.0641 -0.3143  0.1408
 6070SOL    HW119109   2.954   2.423   0.721  1.6842  1.2014 -1.8946
 6070SOL    HW219110   2.816   2.340   0.692  1.6815 -0.6324  2.5950
 6071SOL     OW19111   6.702   0.433   4.252  0.1202  0.3010 -0.2213
 6071SOL    HW119112   6.602   0.432   4.264  0.3152 -0.5653  1.7431
 6071SOL    HW219113   6.726   0.494   4.176 -1.9145  0.2407 -0.9810
 6072SOL     OW19114   6.500   2.348   1.689 -0.4656 -0.4096 -0.0263
 6072SOL    HW119115   6.422   2.393   1.646  0.8065  1.4031 -0.5521
 6072SOL    HW219116   6.508   2.379   1.784  1.3865  1.9791 -0.8466
 6073SOL     OW19117   6.845   2.361   2.549 -0.2875  0.3229  0.0351
 6073SOL    HW119118   6.747   2.381   2.553 -0.1800  0.9048 -0.2549
 6073SOL    HW219119   6.894   2.436   2.505 -0.0128 -0.9655 -2.0004
 6074SOL     OW19120   0.532   0.292   5.566  0.0972  0.2185 -0.1750
 6074SOL    HW119121   0.538   0.355   5.644  0.7197  1.3416 -1.0941
 6074SOL    HW219122   0.571   0.336   5.485 -1.7047 -0.4191 -1.4367
 6075SOL     OW19123   6.843   4.559   6.901 -0.0650  0.5690 -0.3249
 6075SOL    HW119124   6.892   4.604   6.826  0.5965  1.0021  0.3507
 6075SOL    HW219125   6.779   4.493   6.863 -1.7679  2.7192 -1.4136
 6076SOL     OW19126   2.373   6.810   4.415  0.0715 -0.4651  0.8031
 6076SOL    HW119127   2.373   6.900   4.372  1.3261  0.0817  1.8980
 6076SOL    HW219128   2.392   6.740   4.345 -0.1340  0.1851  0.0855
 6077SOL     OW19129   6.301   5.282   1.585 -0.2615  0.5138  0.2796
 6077SOL    HW119130   6.401   5.272   1.577 -0.1686  0.0268  1.7942
 6077SOL    HW219131   6.269   5.229   1.663 -1.7745  0.3732 -0.4118
 6078SOL     OW19132   2.234   5.604   3.688 -0.1895  0.2623  0.2441
 6078SOL    HW119133   2.177   5.665   3.742 -1.0547 -0.6489  0.3925
 6078SOL    HW219134   2.218   5.621   3.591 -0.4190  0.2793  0.2842
 6079SOL     OW19135   3.484   0.339   0.447 -0.3571 -0.1746  0.1365
 6079SOL    HW119136   3.551   0.280   0.401  1.3209  1.3826  0.4787
 6079SOL    HW219137   3.517   0.363   0.538  0.9893  4.1966 -1.2173
 6080SOL     OW19138   6.919   1.976   2.254  0.1201  0.0424 -0.2100
 6080SOL    HW119139   6.952   1.884   2.273 -0.6318 -0.3243 -0.6148
 6080SOL    HW219140   6.992   2.030   2.212  0.8092 -0.1116  0.7377
 6081SOL     OW19141   0.859   5.218   3.445  0.5387 -0.3983  0.3151
 6081SOL    HW119142   0.943   5.182   3.486  1.2070  0.5712 -0.1835
 6081SOL    HW219143   0.792   5.144   3.437  0.5599 -0.7493  2.6642
 6082SOL     OW19144   3.368   0.861   5.135  0.0582 -0.1877 -0.0521
 6082SOL    HW119145   3.331   0.771   5.159 -1.2804  0.4524  0.4090
 6082SOL    HW219146   3.332   0.930   5.199 -0.7907  1.0295 -1.7664
 6083SOL     OW19147   2.633   5.614   1.761  0.5595 -0.4555  0.1408
 6083SOL    HW119148   2.718   5.612   1.710  0.4749 -0.0040 -0.0247
 6083SOL    HW219149   2.573   5.540   1.730 -0.3949  1.1078 -1.9985
 6084SOL     OW19150   1.041   3.901   6.466  0.3946 -0.5535  0.4103
 6084SOL    HW119151   0.954   3.907   6.515  0.6375  1.9751  0.6586
 6084SOL    HW219152   1.059   3.988   6.419  1.0515 -2.2427 -2.7346
 6085SOL     OW19153   6.220   4.269   0.749  0.4106 -0.1269  0.3892
 6085SOL    HW119154   6.132   4.316   0.757  0.7980  0.4186  1.8782
 6085SOL    HW219155   6.205   4.171   0.747 -0.2991 -0.0122 -0.7848
 6086SOL     OW19156   0.868   2.177   2.718  0.1554 -0.4709 -0.6807
 6086SOL    HW119157   0.868   2.089   2.766  0.7594  0.2273  0.6465
 6086SOL    HW219158   0.904   2.163   2.625  0.9503 -1.5093 -0.2484
 6087SOL     OW19159   5.794   6.668   6.830  0.3206  0.0183  0.2261
 6087SOL    HW119160   5.766   6.662   6.734 -0.4442 -1.0105  0.4974
 6087SOL    HW219161   5.721   6.712   6.883  0.7879  0.6859  0.3264
 6088SOL     OW19162   1.140   0.053   4.019  0.0810  0.0362 -0.6257
 6088SOL    HW119163   1.206   0.098   3.959 -0.0304 -0.8106 -1.4022
 6088SOL    HW219164   1.058   0.111   4.027 -0.2418 -0.1855 -1.9658
 6089SOL     OW19165   6.962   4.415   6.666  0.6581 -0.1316  0.1117
 6089SOL    HW119166   6.944   4.513   6.661  1.3603 -0.0489 -2.1736
 6089SOL    HW219167   6.888   4.365   6.621  1.0009 -0.5192 -0.0374
 6090SOL     OW19168   0.533   5.909   4.870 -0.0573  0.2686  0.4516
 6090SOL    HW119169   0.602   5.981   4.869 -1.4093  1.6367 -1.0910
 6090SOL    HW219170   0.539   5.856   4.785 -1.1072  0.6514  0.1233
 6091SOL     OW19171   3.025   1.210   2.279  0.1582 -0.0919 -0.0790
 6091SOL    HW119172   3.031   1.272   2.357 -0.5150 -0.7854  0.5466
 6091SOL    HW219173   2.929   1.188   2.261  0.4187 -1.6643  0.3037
 6092SOL     OW19174   1.223   1.456   2.899 -0.1293 -0.0362 -0.6072
 6092SOL    HW119175   1.288   1.389   2.932 -0.4127 -0.0902 -0.1521
 6092SOL    HW219176   1.130   1.419   2.906 -0.3947  0.8002  0.6856
 6093SOL     OW19177   1.491   3.774   2.158  0.5751 -0.3444 -0.2282
 6093SOL    HW119178   1.481   3.858   2.103 -4.1486  0.3978  1.3199
 6093SOL    HW219179   1.518   3.699   2.098  2.3345  1.6585 -2.1642
 6094SOL     OW19180   2.163   1.696   0.705  0.7337  1.0444  0.0337
 6094SOL    HW119181   2.144   1.756   0.628  1.2638  0.9718 -0.1612
 6094SOL    HW219182   2.096   1.712   0.778  1.0867  2.1374  0.1351
 6095SOL     OW19183   6.956   5.008   3.429 -0.4998 -0.0297  0.0109
 6095SOL    HW119184   6.867   5.048   3.407 -0.3822 -0.6244 -1.7564
 6095SOL    HW219185   7.005   4.988   3.344 -0.1556 -3.0263  0.8023
 6096SOL     OW19186   6.013   2.039   3.881 -0.3390  0.5004  0.1365
 6096SOL    HW119187   6.037   2.095   3.960  3.0511  0.1912 -0.5095
 6096SOL    HW219188   6.041   1.944   3.897 -0.5324  0.2185 -1.0474
 6097SOL     OW19189   3.659   4.466   1.224  0.4063 -0.0045  0.7648
 6097SOL    HW119190   3.758   4.458   1.212  0.4420 -2.0138  2.0145
 6097SOL    HW219191   3.630   4.411   1.302 -1.4710  2.1210  1.6740
 6098SOL     OW19192   1.858   3.421   5.902 -0.2307  0.1724 -0.4007
 6098SOL    HW119193   1.922   3.477   5.953 -1.9456  1.2016  0.7401
 6098SOL    HW219194   1.860   3.327   5.938  1.4726 -0.1391 -1.2222
 6099SOL     OW19195   5.760   5.028   5.191  0.0597 -0.0958 -0.2807
 6099SOL    HW119196   5.756   5.046   5.290  0.2070 -0.3158 -0.2336
 6099SOL    HW219197   5.698   5.090   5.144  1.3262  1.2883 -0.2228
 6100SOL     OW19198   6.377   4.409   6.593 -0.0223 -0.1007 -0.1712
 6100SOL    HW119199   6.427   4.324   6.607 -0.9145 -0.9609 -1.8999
 6100SOL    HW219200   6.359   4.422   6.496 -0.6942  1.6232  0.1403
 6101SOL     OW19201   6.880   2.202   4.832 -0.1413  0.4597  0.3668
 6101SOL    HW119202   6.795   2.252   4.843  0.4285  1.5966 -0.1962
 6101SOL    HW219203   6.907   2.162   4.920 -0.8241  0.7888  0.7304
 6102SOL     OW19204   3.957   0.166   4.092  0.2447  0.9287  0.2432
 6102SOL    HW119205   3.910   0.255   4.095  0.4857  1.0316  1.9271
 6102SOL    HW219206   4.039   0.174   4.034 -1.0477  1.0943 -1.6597
 6103SOL     OW19207   5.509   0.646   6.247  0.6425 -0.0776  0.6853
 6103SOL    HW119208   5.421   0.612   6.279  1.2490 -0.5360  1.9604
 6103SOL    HW219209   5.517   0.633   6.148 -0.0170 -1.6700  0.8179
 6104SOL     OW19210   1.414   3.074   0.129  0.3099 -0.2651  0.3277
 6104SOL    HW119211   1.330   3.095   0.080 -0.0429 -1.8470  0.2058
 6104SOL    HW219212   1.406   2.985   0.173  1.4880  0.0926  1.3237
 6105SOL     OW19213   3.173   4.939   3.246 -0.4179 -0.4179  0.1115
 6105SOL    HW119214   3.260   4.927   3.199 -1.0177  0.0977 -1.1900
 6105SOL    HW219215   3.183   4.915   3.343  0.5365 -2.7598 -0.5045
 6106SOL     OW19216   3.984   6.857   4.079  0.3837 -0.4720  0.1156
 6106SOL    HW119217   4.022   6.779   4.129 -0.3882 -0.3531  0.9168
 6106SOL    HW219218   3.887   6.840   4.062 -0.4066  1.2667  2.3337
 6107SOL     OW19219   2.793   5.635   6.499  0.7398 -0.3709  0.2517
 6107SOL    HW119220   2.819   5.539   6.502  1.0801 -0.2929 -0.1139
 6107SOL    HW219221   2.826   5.676   6.414 -0.4873 -0.2420 -0.1948
 6108SOL     OW19222   5.392   2.600   3.970  0.1439  0.4304 -0.4427
 6108SOL    HW119223   5.307   2.548   3.982  0.6485  0.1277  2.3406
 6108SOL    HW219224   5.387   2.686   4.021  0.9713  1.1127 -1.4688
 6109SOL     OW19225   6.694   3.386   1.031 -0.1223  0.0676  0.1485
 6109SOL    HW119226   6.749   3.306   1.052 -0.3029 -0.0918  0.0241
 6109SOL    HW219227   6.633   3.365   0.954 -2.4878 -0.7553  2.0920
 6110SOL     OW19228   3.344   1.263   4.028 -0.0523 -0.2084  0.4882
 6110SOL    HW119229   3.285   1.204   3.972 -2.5180  1.3762  1.2341
 6110SOL    HW219230   3.309   1.356   4.025  3.1971  1.1065  0.0628
 6111SOL     OW19231   0.791   5.201   5.132 -0.1798  0.4224  0.4090
 6111SOL    HW119232   0.882   5.218   5.168 -0.2988 -0.7151  1.3075
 6111SOL    HW219233   0.736   5.285   5.138 -0.1889  0.3001  2.9084
 6112SOL     OW19234   0.445   1.436   3.983 -0.1593 -0.0368 -0.1174
 6112SOL    HW119235   0.439   1.349   4.031  0.1299 -0.0641 -0.1315
 6112SOL    HW219236   0.536   1.475   3.995 -0.5069  0.6102  0.4849
 6113SOL     OW19237   1.898   6.477   5.426  0.4001 -0.5257 -0.4175
 6113SOL    HW119238   1.817   6.425   5.454  0.3534 -0.2192  0.0255
 6113SOL    HW219239   1.980   6.437   5.469  0.1896  0.7140  1.2480
 6114SOL     OW19240   5.415   0.183   0.608 -0.0470 -0.1373 -0.0076
 6114SOL    HW119241   5.495   0.192   0.667 -0.6674  1.4187  0.6652
 6114SOL    HW219242   5.374   0.273   0.593 -0.4331 -0.6061 -2.1222
 6115SOL     OW19243   6.845   5.123   2.393  0.7631 -0.5189 -0.6392
 6115SOL    HW119244   6.876   5.101   2.485 -0.6053  0.4789  0.1010
 6115SOL    HW219245   6.912   5.183   2.349  1.7689 -1.5639 -0.5914
 6116SOL     OW19246   4.213   2.086   1.283  0.3386  0.4196 -0.0345
 6116SOL    HW119247   4.188   2.009   1.224 -1.7393  1.2795 -0.3715
 6116SOL    HW219248   4.269   2.053   1.359 -1.1131 -1.5962  0.2570
 6117SOL     OW19249   5.469   6.372   3.547 -0.1565 -0.4707  0.0248
 6117SOL    HW119250   5.442   6.363   3.643  0.6023 -0.6853  0.2257
 6117SOL    HW219251   5.503   6.465   3.531  0.7227 -0.7512  0.2314
 6118SOL     OW19252   6.090   6.566   3.531  0.3342 -0.3084  0.1514
 6118SOL    HW119253   6.005   6.523   3.560 -0.8115  0.2367 -2.1799
 6118SOL    HW219254   6.106   6.547   3.434  1.4198  1.8496 -0.1704
 6119SOL     OW19255   6.615   6.684   4.619 -0.2459 -0.3224  0.6901
 6119SOL    HW119256   6.581   6.661   4.711 -0.2451 -2.1833  0.2627
 6119SOL    HW219257   6.713   6.668   4.616 -0.2076 -0.0309  0.4254
 6120SOL     OW19258   0.921   2.436   2.170  0.2880  0.2576  0.1110
 6120SOL    HW119259   0.987   2.429   2.245  0.3720  1.1148  0.1273
 6120SOL    HW219260   0.853   2.364   2.180  0.0289  0.6316  1.2894
 6121SOL     OW19261   4.851   2.982   4.880  0.6332 -0.5794 -0.1034
 6121SOL    HW119262   4.838   2.989   4.979 -0.5111 -2.2727 -0.0955
 6121SOL    HW219263   4.896   3.065   4.847  1.1809 -0.0404  1.8405
 6122SOL     OW19264   5.102   0.097   0.395 -0.2616 -0.6306 -0.2078
 6122SOL    HW119265   5.118   0.040   0.475 -0.2595  1.3101  1.2429
 6122SOL    HW219266   5.045   0.176   0.420 -0.1746  0.0990 -2.0968
 6123SOL     OW19267   6.387   6.215   4.071  0.1091 -0.0731 -0.2841
 6123SOL    HW119268   6.443   6.274   4.012  0.9028  0.1593  0.6804
 6123SOL    HW219269   6.440   6.135   4.098  0.6149  0.9380  1.9570
 6124SOL     OW19270   3.281   0.508   0.046 -0.3146 -0.2913 -0.4857
 6124SOL    HW119271   3.233   0.545  -0.034  0.5222 -1.8062 -1.7330
 6124SOL    HW219272   3.377   0.535   0.043 -0.3947  0.1524  0.3713
 6125SOL     OW19273   0.272   4.596   1.342  0.4955  0.7423  0.2905
 6125SOL    HW119274   0.212   4.629   1.269  0.6533 -1.5046 -0.9341
 6125SOL    HW219275   0.252   4.500   1.361  2.7365  0.3141  0.8304
 6126SOL     OW19276   0.250   6.691   2.864  0.5919  0.1687 -0.4385
 6126SOL    HW119277   0.253   6.601   2.822 -0.9277 -0.2958  0.3513
 6126SOL    HW219278   0.162   6.703   2.911  1.3930  1.4401  0.8376
 6127SOL     OW19279   0.824   5.630   3.331 -0.0461  0.1867  0.5545
 6127SOL    HW119280   0.922   5.636   3.349 -0.5654  0.5181  3.8240
 6127SOL    HW219281   0.783   5.721   3.343 -0.7748  0.0795 -0.9311
 6128SOL     OW19282   4.952   2.242   6.894 -0.3596 -0.3506  0.4437
 6128SOL    HW119283   4.913   2.279   6.979 -0.1838  0.1554  0.3093
 6128SOL    HW219284   4.883   2.246   6.821  0.4947  2.4595 -0.3360
 6129SOL     OW19285   6.255   5.275   2.051  0.3189  0.3081  0.0188
 6129SOL    HW119286   6.346   5.315   2.063  0.2157  0.2097  1.2564
 6129SOL    HW219287   6.263   5.175   2.044  0.4043  0.3835 -1.1349
 6130SOL     OW19288   6.352   3.025   1.695 -0.6057 -0.4080  0.8461
 6130SOL    HW119289   6.405   2.982   1.768 -0.4156  0.3053  1.1341
 6130SOL    HW219290   6.408   3.031   1.613  0.5190  2.1215  1.6944
 6131SOL     OW19291   0.382   0.915   4.639 -0.0794  0.0194  0.4174
 6131SOL    HW119292   0.311   0.985   4.636  0.4337  0.6722  2.3235
 6131SOL    HW219293   0.462   0.947   4.588 -0.4833  0.0556 -0.2051
 6132SOL     OW19294   5.319   2.381   0.366  0.0927  0.0829  0.2751
 6132SOL    HW119295   5.224   2.366   0.395  0.0682  1.3639  0.9187
 6132SOL    HW219296   5.361   2.450   0.424  0.8387  0.9233 -1.2174
 6133SOL     OW19297   2.521   4.620   2.222  0.4359  0.1682 -0.1732
 6133SOL    HW119298   2.529   4.592   2.126  1.4988 -0.8381  0.1790
 6133SOL    HW219299   2.613   4.637   2.260  0.0000  1.0469  0.5334
 6134SOL     OW19300   3.494   3.050   6.079 -0.4301  0.1098  0.3024
 6134SOL    HW119301   3.488   3.044   5.980 -0.3127 -0.1586  0.3123
 6134SOL    HW219302   3.435   3.124   6.111  0.0525  0.6485 -0.0239
 6135SOL     OW19303   5.213   0.776   3.957 -0.0337  0.7208  0.6403
 6135SOL    HW119304   5.197   0.682   3.927  0.2174  0.4985  1.1942
 6135SOL    HW219305   5.223   0.835   3.877 -0.0880  0.2567  0.2879
 6136SOL     OW19306   6.288   1.978   1.445 -0.0892 -0.0843  0.3911
 6136SOL    HW119307   6.214   2.041   1.470 -0.7609 -0.9296  0.5874
 6136SOL    HW219308   6.314   1.924   1.525  1.1474  0.5796  0.4716
 6137SOL     OW19309   2.943   6.363   4.575  0.1879 -0.3076 -0.5486
 6137SOL    HW119310   3.001   6.421   4.518  0.3888  0.8972  0.8384
 6137SOL    HW219311   2.893   6.299   4.517  0.6141  0.6670 -2.0375
 6138SOL     OW19312   5.090   5.320   3.149  0.6647 -0.7899 -0.6075
 6138SOL    HW119313   5.141   5.314   3.234  1.7433  3.2614 -0.7555
 6138SOL    HW219314   5.001   5.276   3.160  2.0896 -3.4384  1.3590
 6139SOL     OW19315   1.097   4.220   4.959 -0.8245 -0.2865 -0.7694
 6139SOL    HW119316   1.172   4.157   4.976 -0.4685  0.2931 -0.1481
 6139SOL    HW219317   1.093   4.241   4.861 -0.8920 -1.1911 -0.9671
 6140SOL     OW19318   0.592   0.360   1.311 -0.1233 -0.4561 -0.0177
 6140SOL    HW119319   0.680   0.403   1.329 -0.1087 -0.2445 -0.5527
 6140SOL    HW219320   0.581   0.347   1.212  0.2086 -2.4160  0.1692
 6141SOL     OW19321   5.731   4.310   5.365  0.0940  0.0451  0.1590
 6141SOL    HW119322   5.756   4.223   5.406 -0.3520  0.3270  1.0638
 6141SOL    HW219323   5.813   4.358   5.333  0.2244 -1.4095 -1.8799
 6142SOL     OW19324   1.652   4.336   2.438 -0.0684  0.3065 -0.4386
 6142SOL    HW119325   1.659   4.373   2.530  2.5497  0.3090 -0.5556
 6142SOL    HW219326   1.698   4.397   2.373 -1.6747  0.2001 -1.7395
 6143SOL     OW19327   6.968   4.799   4.628 -0.7425 -0.2974 -0.5201
 6143SOL    HW119328   6.956   4.749   4.542 -0.1879  0.0576 -0.8164
 6143SOL    HW219329   7.043   4.864   4.617 -2.5673  1.8669 -0.7120
 6144SOL     OW19330   0.114   6.595   3.850 -0.3407  0.3546  0.0059
 6144SOL    HW119331   0.091   6.681   3.803  0.1368  0.0220 -0.8447
 6144SOL    HW219332   0.101   6.518   3.788  1.4872  0.0061  0.0006
 6145SOL     OW19333   5.922   4.151   3.597  0.2181 -0.0738 -0.2973
 6145SOL    HW119334   5.862   4.090   3.647  0.1003  0.1209 -0.2000
 6145SOL    HW219335   5.868   4.220   3.548  0.3817  0.4912  0.2984
 6146SOL     OW19336   4.958   2.079   2.267  0.0817 -0.8162 -0.3595
 6146SOL    HW119337   5.016   2.005   2.300  1.0145  0.1261  0.1893
 6146SOL    HW219338   5.015   2.158   2.244 -0.5694 -1.1237 -3.5571
 6147SOL     OW19339   0.799   1.857   3.403  0.5505  0.2407  0.0804
 6147SOL    HW119340   0.745   1.818   3.329  0.4964 -2.9444  1.6476
 6147SOL    HW219341   0.743   1.925   3.451 -1.0338 -0.8152 -0.1676
 6148SOL     OW19342   0.108   6.486   4.887  0.2540 -0.0499 -0.1448
 6148SOL    HW119343   0.171   6.444   4.821  0.9540  1.8043 -0.7332
 6148SOL    HW219344   0.018   6.443   4.880  1.0703 -1.8110 -0.2753
 6149SOL     OW19345   3.377   6.327   6.570  0.0793 -0.5789 -0.3531
 6149SOL    HW119346   3.332   6.266   6.634  1.8619 -1.1654  0.4186
 6149SOL    HW219347   3.334   6.417   6.573 -0.5267 -0.8956  0.8899
 6150SOL     OW19348   3.885   4.988   6.417  0.7548  0.1241  0.5033
 6150SOL    HW119349   3.897   5.010   6.513  0.3060 -1.6684  0.9991
 6150SOL    HW219350   3.798   5.026   6.385  0.0593 -0.7635  1.2935
 6151SOL     OW19351   6.464   6.992   4.292  0.1366  0.5773  0.1819
 6151SOL    HW119352   6.468   7.018   4.195 -1.4475  0.3832  0.0424
 6151SOL    HW219353   6.410   7.059   4.342 -0.9703 -0.5250  0.4948
 6152SOL     OW19354   0.353   3.666   6.702 -0.0976 -0.1220 -0.3223
 6152SOL    HW119355   0.281   3.647   6.768  1.2668 -1.3856  0.8818
 6152SOL    HW219356   0.313   3.686   6.613 -1.9495  0.7987  0.6716
 6153SOL     OW19357   2.912   4.454   0.495  0.3378  0.5302  0.3281
 6153SOL    HW119358   2.929   4.443   0.397  1.4059  1.9592  0.3325
 6153SOL    HW219359   2.824   4.413   0.518  0.0783  0.1635 -1.2150
 6154SOL     OW19360   4.854   4.152   2.824  0.3155 -0.4170  0.3539
 6154SOL    HW119361   4.876   4.196   2.737 -1.0904 -0.4645 -0.0398
 6154SOL    HW219362   4.785   4.206   2.873  1.3259 -0.2027  1.6262
 6155SOL     OW19363   1.080   3.780   4.009 -0.4098  0.3881  0.6745
 6155SOL    HW119364   1.019   3.805   4.084 -1.3460  2.5516 -0.6944
 6155SOL    HW219365   1.127   3.862   3.976  0.3625 -0.5866 -0.7521
 6156SOL     OW19366   6.653   0.314   3.761 -0.5886 -0.1733 -0.5684
 6156SOL    HW119367   6.747   0.313   3.727 -0.2459 -0.1155  0.3456
 6156SOL    HW219368   6.595   0.261   3.699 -0.2602  1.0535 -1.9661
 6157SOL     OW19369   6.928   4.094   2.966  0.2922  0.1977  0.7068
 6157SOL    HW119370   6.972   4.143   2.891 -0.4824  1.5627  1.1066
 6157SOL    HW219371   6.844   4.051   2.932  0.2016  0.3995  0.6701
 6158SOL     OW19372   4.327   0.553   6.759  0.1782  0.0609  0.3844
 6158SOL    HW119373   4.424   0.530   6.750  0.6163  2.0153 -0.5317
 6158SOL    HW219374   4.279   0.527   6.675 -0.1413 -1.0541  0.9015
 6159SOL     OW19375   3.261   4.341   0.993 -0.3272  0.8055  0.4036
 6159SOL    HW119376   3.256   4.356   0.894  0.8425  0.6158  0.2982
 6159SOL    HW219377   3.236   4.246   1.014 -2.0008  1.2211  0.4659
 6160SOL     OW19378   5.720   3.844   3.408  0.1681  0.8524  0.4373
 6160SOL    HW119379   5.775   3.871   3.329 -2.2088  0.0266 -1.6189
 6160SOL    HW219380   5.711   3.922   3.470  2.2035  1.4810  0.0289
 6161SOL     OW19381   6.908   0.097   6.468 -0.5555  0.2437 -0.1902
 6161SOL    HW119382   6.951   0.041   6.397 -0.5719 -1.2939  0.9646
 6161SOL    HW219383   6.961   0.090   6.552  0.5388  3.5525 -0.4825
 6162SOL     OW19384   6.352   4.460   3.062 -0.8161  0.2795 -0.5478
 6162SOL    HW119385   6.386   4.542   3.106  2.4023 -0.4595 -1.4080
 6162SOL    HW219386   6.363   4.468   2.963 -4.0044  0.2431 -1.0025
 6163SOL     OW19387   5.536   4.003   2.140  0.0590 -0.4087 -0.5898
 6163SOL    HW119388   5.525   3.976   2.044  0.5493  1.8485 -1.3333
 6163SOL    HW219389   5.462   3.963   2.195 -2.3707  1.1380 -2.5458
 6164SOL     OW19390   2.731   3.171   0.981  0.8597 -0.4868 -0.1641
 6164SOL    HW119391   2.726   3.266   0.951  0.3922 -0.3015  0.4664
 6164SOL    HW219392   2.665   3.116   0.928  0.0030 -0.1529  0.5261
 6165SOL     OW19393   5.734   0.383   0.469  0.1854 -0.3926  0.3253
 6165SOL    HW119394   5.762   0.288   0.481 -0.8980 -1.1713 -2.4219
 6165SOL    HW219395   5.638   0.386   0.440  0.2385  1.5466  0.2148
 6166SOL     OW19396   1.707   2.824   6.366 -0.3309 -0.4223  0.0695
 6166SOL    HW119397   1.799   2.844   6.400 -0.6621  0.1192  0.6743
 6166SOL    HW219398   1.642   2.891   6.403 -0.6707  0.4154 -1.9169
 6167SOL     OW19399   6.798   4.840   3.562 -0.2171 -0.4582  0.2843
 6167SOL    HW119400   6.859   4.907   3.519  0.0666 -0.3246  0.8808
 6167SOL    HW219401   6.791   4.860   3.660  0.7749 -1.9512  0.6950
 6168SOL     OW19402   0.420   2.904   1.844  0.1211 -0.1503  0.0594
 6168SOL    HW119403   0.445   2.807   1.833 -0.2329 -0.4324  1.4887
 6168SOL    HW219404   0.501   2.961   1.835  0.0660 -0.3660 -2.7038
 6169SOL     OW19405   1.183   2.994   3.640 -0.4147  0.2352 -0.2810
 6169SOL    HW119406   1.268   2.965   3.684  0.0219  0.1327 -1.1629
 6169SOL    HW219407   1.141   3.067   3.693 -1.2331 -1.5762  1.6746
 6170SOL     OW19408   0.995   2.460   3.796 -0.3413  0.4833  0.0633
 6170SOL    HW119409   0.992   2.386   3.864 -0.3198  0.3915 -0.0354
 6170SOL    HW219410   1.065   2.439   3.728 -0.8908  0.2076 -0.4151
 6171SOL     OW19411   6.527   0.049   5.745  0.5130  0.5958  0.7408
 6171SOL    HW119412   6.496   0.008   5.831  0.6186 -0.5888  0.2270
 6171SOL    HW219413   6.499  -0.009   5.668 -1.7468  2.8494 -0.2708
 6172SOL     OW19414   1.870   4.440   3.922 -0.0191 -0.3500 -0.4668
 6172SOL    HW119415   1.903   4.370   3.859  0.7095 -0.9731  0.5839
 6172SOL    HW219416   1.928   4.442   4.003 -1.2205  0.1138  0.4086
 6173SOL     OW19417   6.666   5.277   3.811 -0.1807  0.4951  0.8297
 6173SOL    HW119418   6.660   5.310   3.717 -3.0663 -0.3412  0.6334
 6173SOL    HW219419   6.617   5.190   3.819  2.9408 -1.2956  2.4245
 6174SOL     OW19420   0.273   3.157   6.626 -0.0090 -0.0893 -0.1571
 6174SOL    HW119421   0.284   3.110   6.714  1.5212  0.4618 -0.0253
 6174SOL    HW219422   0.306   3.251   6.634 -0.3011  0.1138 -1.1990
 6175SOL     OW19423   4.238   1.762   6.080  0.0971 -0.0453 -0.1999
 6175SOL    HW119424   4.314   1.742   6.019 -0.2900  0.0448 -0.7236
 6175SOL    HW219425   4.173   1.824   6.034 -0.3435 -0.2054  0.1919
 6176SOL     OW19426   4.931   5.188   6.252  0.3233  0.4891  0.0639
 6176SOL    HW119427   4.932   5.098   6.208  0.4860 -0.5397  2.0662
 6176SOL    HW219428   4.842   5.231   6.237 -1.1983 -1.6526  2.1180
 6177SOL     OW19429   0.796   1.245   0.436  0.1176  0.1218 -0.4427
 6177SOL    HW119430   0.820   1.342   0.444  2.0536 -0.3356 -0.1743
 6177SOL    HW219431   0.697   1.235   0.435 -0.1181  2.1418 -1.0605
 6178SOL     OW19432   3.700   4.497   1.677 -1.0745 -0.2036 -0.1343
 6178SOL    HW119433   3.701   4.401   1.706  1.3040  0.4585  2.4543
 6178SOL    HW219434   3.646   4.551   1.742  0.2631  0.6118  0.3489
 6179SOL     OW19435   5.841   2.554   4.897 -0.1553 -0.2212  0.1077
 6179SOL    HW119436   5.837   2.485   4.969 -1.1867  0.8195  1.1056
 6179SOL    HW219437   5.748   2.579   4.870  0.1878 -1.2922 -2.3323
 6180SOL     OW19438   2.836   5.208   5.181  0.5041 -0.9383 -0.1817
 6180SOL    HW119439   2.760   5.143   5.181 -1.7316  1.5030 -0.8583
 6180SOL    HW219440   2.819   5.279   5.112  1.4383  1.8349  2.2415
 6181SOL     OW19441   6.744   0.073   0.741 -0.0878  0.1665  0.3030
 6181SOL    HW119442   6.761   0.169   0.718  0.4887 -0.1430 -0.6173
 6181SOL    HW219443   6.787   0.052   0.829  1.5293  0.2412 -0.4410
 6182SOL     OW19444   3.385   3.066   1.105  0.0736  0.6221  0.5746
 6182SOL    HW119445   3.392   2.969   1.080 -2.0915  0.4218  0.5176
 6182SOL    HW219446   3.473   3.111   1.092  0.7031 -0.9680 -1.0253
 6183SOL     OW19447   6.784   6.982   5.767  0.9082  0.2502 -0.4348
 6183SOL    HW119448   6.775   6.883   5.761  0.7323  0.2133  0.3361
 6183SOL    HW219449   6.693   7.023   5.771  0.9868  0.3980 -0.1478
 6184SOL     OW19450   0.988   1.337   5.194  0.0097 -0.5654 -0.4079
 6184SOL    HW119451   0.951   1.365   5.105  0.5974  0.2657 -0.4023
 6184SOL    HW219452   0.915   1.340   5.263 -0.1539  0.0709 -0.6014
 6185SOL     OW19453   3.131   3.916   5.237  0.2481  0.2833 -0.1025
 6185SOL    HW119454   3.205   3.865   5.193 -0.8033 -0.8556 -0.5920
 6185SOL    HW219455   3.043   3.887   5.200 -0.4221  2.2606 -0.1792
 6186SOL     OW19456   6.090   2.248   2.269 -1.0980 -0.1631 -0.4751
 6186SOL    HW119457   6.002   2.247   2.316 -1.3207  1.9262 -0.7588
 6186SOL    HW219458   6.075   2.239   2.170 -0.8029 -2.0513 -0.3814
 6187SOL     OW19459   4.019   0.040   4.845  0.0862 -0.1742 -0.1449
 6187SOL    HW119460   4.063   0.068   4.930  0.0437 -0.0043 -0.1798
 6187SOL    HW219461   4.089   0.008   4.780 -0.0588 -2.9423  0.9225
 6188SOL     OW19462   0.789   0.438   5.485 -0.0121 -0.1473  0.1433
 6188SOL    HW119463   0.821   0.512   5.545  0.1813 -0.6606  0.6867
 6188SOL    HW219464   0.723   0.474   5.420  0.2105  0.5403  0.2901
 6189SOL     OW19465   6.594   5.287   1.614  0.1729 -0.3895 -0.4993
 6189SOL    HW119466   6.653   5.277   1.534 -0.1455  1.3853 -1.0153
 6189SOL    HW219467   6.560   5.381   1.618 -0.5277 -0.6820  1.2474
 6190SOL     OW19468   0.998   2.055   4.918 -0.4119  0.2475 -0.1374
 6190SOL    HW119469   1.078   2.051   4.977 -0.0969  2.8812 -0.2860
 6190SOL    HW219470   0.928   2.113   4.960 -1.4108 -0.2966 -0.9866
 6191SOL     OW19471   3.028   4.815   0.785 -0.0433  0.3690  0.0951
 6191SOL    HW119472   3.122   4.791   0.808  0.3162  1.0676 -0.6149
 6191SOL    HW219473   2.995   4.755   0.712  0.1462  0.6813 -0.2482
 6192SOL     OW19474   2.659   0.348   0.791 -0.4806  0.4355  0.4130
 6192SOL    HW119475   2.699   0.359   0.700 -0.9599 -1.3798 -0.0462
 6192SOL    HW219476   2.637   0.439   0.828 -0.0867  1.2240 -1.1692
 6193SOL     OW19477   5.354   5.697   5.808  0.8202 -0.0347 -0.5527
 6193SOL    HW119478   5.417   5.620   5.815  0.3058 -0.5790 -1.6878
 6193SOL    HW219479   5.402   5.775   5.766  0.9727 -0.1738 -0.6388
 6194SOL     OW19480   5.694   6.036   6.064 -0.4836 -0.6261  0.3100
 6194SOL    HW119481   5.768   6.101   6.051 -0.7797 -0.3154  0.1618
 6194SOL    HW219482   5.708   5.985   6.149 -0.7976  0.3543  0.9585
 6195SOL     OW19483   4.876   4.397   6.952 -0.5915  0.2965  0.2699
 6195SOL    HW119484   4.885   4.337   7.032  1.0243 -0.2438 -0.2843
 6195SOL    HW219485   4.965   4.436   6.929 -0.8146 -0.2603 -1.7847
 6196SOL     OW19486   5.210   2.842   3.719  0.0697 -0.0967  0.0221
 6196SOL    HW119487   5.178   2.928   3.759  0.8854  0.8257 -1.2483
 6196SOL    HW219488   5.302   2.822   3.751  0.0071 -0.3367  0.0578
 6197SOL     OW19489   0.443   4.360   1.123  0.3410  0.1519  0.4227
 6197SOL    HW119490   0.442   4.440   1.063 -2.7725  0.9627  1.3480
 6197SOL    HW219491   0.439   4.390   1.218 -1.1065 -1.0731  0.7818
 6198SOL     OW19492   5.585   1.243   6.146  0.1469 -0.1128  0.0110
 6198SOL    HW119493   5.553   1.338   6.144  0.0147 -0.1603 -1.7793
 6198SOL    HW219494   5.658   1.234   6.214 -0.5466  1.0145  0.9459
 6199SOL     OW19495   2.627   0.809   5.778 -0.2811  0.2591 -0.0780
 6199SOL    HW119496   2.717   0.850   5.764 -0.9564  1.7636 -0.1642
 6199SOL    HW219497   2.593   0.833   5.869 -0.3266 -0.8760  0.2284
 6200SOL     OW19498   6.420   6.189   0.280  0.2701 -0.0399 -0.1006
 6200SOL    HW119499   6.343   6.246   0.309 -0.3038  2.0840 -4.8467
 6200SOL    HW219500   6.386   6.108   0.232  1.0815 -0.7583  0.4983
 6201SOL     OW19501   0.837   5.147   1.553  0.3354  0.0750  0.4888
 6201SOL    HW119502   0.894   5.072   1.521  0.9034  1.0633 -0.8950
 6201SOL    HW219503   0.773   5.175   1.481 -1.0405 -0.1558  1.5637
 6202SOL     OW19504   5.338   6.865   2.728 -0.0280 -0.3763  0.4659
 6202SOL    HW119505   5.248   6.829   2.702  0.0583  0.0146 -0.4355
 6202SOL    HW219506   5.351   6.855   2.826 -0.6936 -1.2504  0.4797
 6203SOL     OW19507   5.747   5.690   1.333  0.0323 -0.5329 -0.6662
 6203SOL    HW119508   5.836   5.734   1.337 -0.0013 -0.4002 -1.2645
 6203SOL    HW219509   5.723   5.672   1.237 -0.0605 -1.6375 -0.4467
 6204SOL     OW19510   1.292   6.380   0.160 -0.2877  0.1059  0.3295
 6204SOL    HW119511   1.296   6.280   0.150  2.7506  0.0617  0.8727
 6204SOL    HW219512   1.338   6.423   0.083 -1.2840  1.1170  0.2727
 6205SOL     OW19513   4.959   4.717   4.166 -0.1351  0.0920 -0.3988
 6205SOL    HW119514   4.986   4.672   4.081 -0.8030 -2.7622  0.7781
 6205SOL    HW219515   5.029   4.704   4.236 -2.0460 -3.0036  1.1850
 6206SOL     OW19516   6.495   2.480   2.775  0.6076  0.4141 -0.1445
 6206SOL    HW119517   6.420   2.431   2.819  0.9040  0.3160  0.2570
 6206SOL    HW219518   6.505   2.448   2.681  0.4808  0.0582 -0.0393
 6207SOL     OW19519   6.855   5.774   4.035 -0.2508  0.2058 -0.0391
 6207SOL    HW119520   6.885   5.699   4.094  0.4066  0.0468 -0.5617
 6207SOL    HW219521   6.828   5.738   3.946 -0.3934  0.5363 -0.1321
 6208SOL     OW19522   5.326   5.198   5.491 -0.4122  0.3689  0.2464
 6208SOL    HW119523   5.343   5.102   5.467  1.0230  0.3727  1.1288
 6208SOL    HW219524   5.234   5.207   5.530 -0.5569 -0.6548  0.1654
 6209SOL     OW19525   3.374   2.609   1.460 -0.4340 -0.6304  0.0024
 6209SOL    HW119526   3.321   2.536   1.416 -0.2362  0.0274 -1.3618
 6209SOL    HW219527   3.447   2.569   1.514  0.5345 -1.4446 -1.8297
 6210SOL     OW19528   5.413   0.937   4.977 -0.2269  0.3394 -0.9925
 6210SOL    HW119529   5.377   0.962   4.887 -0.9906 -1.3658 -1.2052
 6210SOL    HW219530   5.426   0.838   4.981  0.1124  0.4243  0.6680
 6211SOL     OW19531   5.207   4.153   5.206 -0.4174  0.3142  0.0418
 6211SOL    HW119532   5.216   4.140   5.107  0.8719  0.4271  0.1297
 6211SOL    HW219533   5.287   4.116   5.251 -0.9212  0.4222  1.0453
 6212SOL     OW19534   4.037   4.754   5.168  0.3091 -0.1935 -0.0150
 6212SOL    HW119535   3.967   4.820   5.142 -1.8520 -2.4437 -0.3286
 6212SOL    HW219536   4.076   4.780   5.256 -1.2980  0.8830  0.4255
 6213SOL     OW19537   3.952   6.795   1.356  0.3894  0.0087 -0.4214
 6213SOL    HW119538   3.915   6.828   1.443 -1.2431 -3.4944  0.3995
 6213SOL    HW219539   3.897   6.829   1.281 -0.1098  0.5641  0.1857
 6214SOL     OW19540   6.329   4.934   6.395 -0.2928 -0.5682 -0.0679
 6214SOL    HW119541   6.291   5.027   6.394 -0.7514 -0.6316 -4.0364
 6214SOL    HW219542   6.255   4.868   6.388  0.1744 -1.0870 -0.1815
 6215SOL     OW19543   4.711   2.780   5.347  0.4265  0.4393  0.0918
 6215SOL    HW119544   4.741   2.685   5.335  1.3992  0.8432 -0.7807
 6215SOL    HW219545   4.618   2.790   5.310  0.8700  0.1380 -1.1697
 6216SOL     OW19546   3.707   1.066   5.250  0.2520  0.0246  0.6386
 6216SOL    HW119547   3.806   1.070   5.237  0.1194  1.1040 -0.1429
 6216SOL    HW219548   3.672   1.157   5.269 -0.9237  0.1251 -1.6627
 6217SOL     OW19549   0.836   4.680   1.997  0.2063 -0.7034 -0.2121
 6217SOL    HW119550   0.821   4.678   2.095  1.7925 -0.3564  0.0712
 6217SOL    HW219551   0.848   4.775   1.967  3.6503 -0.9538 -0.0126
 6218SOL     OW19552   4.805   5.969   0.990 -0.5741 -0.3349 -0.2453
 6218SOL    HW119553   4.724   6.015   1.026  1.4196  1.5914  2.0408
 6218SOL    HW219554   4.792   5.870   0.998 -2.5108 -0.0784  0.4810
 6219SOL     OW19555   2.442   1.971   5.572  0.1774  0.3327 -0.2453
 6219SOL    HW119556   2.525   1.921   5.597 -0.2720 -0.6845 -0.7663
 6219SOL    HW219557   2.382   1.979   5.652 -2.2381 -4.7514 -1.1473
 6220SOL     OW19558   5.572   5.628   1.106 -0.6171  0.0699 -0.0051
 6220SOL    HW119559   5.631   5.698   1.066 -0.2956  0.1571  0.6186
 6220SOL    HW219560   5.477   5.662   1.109 -0.5674  0.2374 -0.2701
 6221SOL     OW19561   5.682   5.378   0.569 -0.4313 -0.1124 -0.4120
 6221SOL    HW119562   5.754   5.308   0.573  0.3826  0.7338  0.0041
 6221SOL    HW219563   5.620   5.367   0.647  1.1889  1.1787  1.1440
 6222SOL     OW19564   6.184   0.572   2.219  0.7504  0.0151  0.2848
 6222SOL    HW119565   6.099   0.618   2.245 -0.6129 -2.5418  0.6778
 6222SOL    HW219566   6.260   0.609   2.271 -0.1289  2.2044  0.0964
 6223SOL     OW19567   0.970   6.524   3.485  0.1199 -0.7728  0.6623
 6223SOL    HW119568   0.913   6.569   3.554 -0.5853 -0.3872 -0.1449
 6223SOL    HW219569   1.020   6.449   3.527  0.6778  0.2254  1.8663
 6224SOL     OW19570   4.833   0.043   0.554 -0.0605 -0.6027  0.8249
 6224SOL    HW119571   4.863   0.099   0.632 -1.9653  0.8912  0.5655
 6224SOL    HW219572   4.901  -0.027   0.536  4.1895  3.3891 -0.7158
 6225SOL     OW19573   5.831   6.375   5.870 -0.1225 -0.3398  0.1866
 6225SOL    HW119574   5.823   6.285   5.829  0.2215 -0.2172 -0.1566
 6225SOL    HW219575   5.748   6.428   5.850 -0.2067 -0.4826  0.1536
 6226SOL     OW19576   0.446   0.369   2.680  0.2393 -0.0622  0.0351
 6226SOL    HW119577   0.421   0.306   2.753 -0.5219  0.0355 -0.1264
 6226SOL    HW219578   0.518   0.328   2.623 -1.2883 -1.4701 -0.9775
 6227SOL     OW19579   2.367   6.806   5.341  0.6794  0.0224  0.1425
 6227SOL    HW119580   2.350   6.768   5.432 -0.8561  0.2534 -0.0328
 6227SOL    HW219581   2.280   6.829   5.297  1.4094  0.1318 -1.3004
 6228SOL     OW19582   1.003   2.087   2.489 -0.8076  1.0078 -0.0633
 6228SOL    HW119583   1.084   2.036   2.520 -0.9126  0.4071 -0.7478
 6228SOL    HW219584   0.940   2.024   2.443 -0.8969  1.7788 -1.0169
 6229SOL     OW19585   1.404   2.810   0.256  0.4928 -0.1348  0.2621
 6229SOL    HW119586   1.343   2.747   0.304 -0.1835  0.2315 -0.1008
 6229SOL    HW219587   1.470   2.758   0.202 -0.0171 -0.5326  0.0171
 6230SOL     OW19588   5.783   1.262   1.383 -0.4189  0.2521 -0.0685
 6230SOL    HW119589   5.807   1.272   1.287 -1.9985  1.0538 -0.4012
 6230SOL    HW219590   5.806   1.346   1.433 -0.4631  0.1770  0.0811
 6231SOL     OW19591   3.309   4.738   0.856  0.4045  0.3933 -0.5554
 6231SOL    HW119592   3.274   4.693   0.939 -1.8134 -0.2331 -1.7634
 6231SOL    HW219593   3.406   4.718   0.847  0.4715 -0.3970  1.3260
 6232SOL     OW19594   5.532   6.499   0.050 -0.9115 -0.6223  0.3338
 6232SOL    HW119595   5.452   6.439   0.049 -0.7481 -0.8609 -1.3997
 6232SOL    HW219596   5.514   6.579  -0.008 -1.8663  2.1140  4.0479
 6233SOL     OW19597   6.263   5.004   2.041  0.1334  0.0187 -0.1908
 6233SOL    HW119598   6.348   4.983   2.089 -0.4722 -0.7544  0.5652
 6233SOL    HW219599   6.193   4.938   2.066 -0.1891 -0.4633 -2.2321
 6234SOL     OW19600   4.328   5.351   4.411  0.0897  0.5071  0.1365
 6234SOL    HW119601   4.428   5.342   4.408  0.0819  0.6528 -2.2916
 6234SOL    HW219602   4.287   5.260   4.423  0.4967  0.3842  0.6184
 6235SOL     OW19603   1.805   0.668   3.514  0.3516 -0.1540  0.6258
 6235SOL    HW119604   1.748   0.741   3.551  0.4061  0.4789 -0.4873
 6235SOL    HW219605   1.895   0.671   3.558  0.2101  0.1636  0.8975
 6236SOL     OW19606   6.745   4.157   1.623 -0.1159 -0.0616  0.4196
 6236SOL    HW119607   6.758   4.059   1.640  1.7353  0.0416 -0.2307
 6236SOL    HW219608   6.653   4.184   1.653 -1.9066 -2.6293 -2.2748
 6237SOL     OW19609   2.959   1.655   2.346  0.0769 -0.8436  0.3609
 6237SOL    HW119610   3.041   1.708   2.324  0.3523 -1.3119  0.2588
 6237SOL    HW219611   2.985   1.569   2.388 -0.2904 -1.6973 -1.1066
 6238SOL     OW19612   4.148   1.111   3.189  0.0627  0.0641  0.0312
 6238SOL    HW119613   4.135   1.140   3.283 -0.0586 -1.9885  0.6989
 6238SOL    HW219614   4.068   1.137   3.135 -1.7032 -2.0485  1.4221
 6239SOL     OW19615   5.151   6.572   3.816 -0.2819  0.7834 -0.4203
 6239SOL    HW119616   5.136   6.565   3.717  1.0038 -0.2270 -0.5750
 6239SOL    HW219617   5.088   6.510   3.863 -2.5431  2.9737 -0.3897
 6240SOL     OW19618   2.909   3.605   3.715 -0.3484 -0.1143 -0.3930
 6240SOL    HW119619   2.901   3.525   3.774 -0.1620  0.0119 -0.1979
 6240SOL    HW219620   2.908   3.688   3.770 -1.0559  0.0443 -0.6322
 6241SOL     OW19621   5.897   6.850   3.487  0.3311  0.5298 -0.1502
 6241SOL    HW119622   5.853   6.832   3.399  0.5524  0.7768 -0.3144
 6241SOL    HW219623   5.965   6.778   3.505 -0.6012 -0.2269  0.4229
 6242SOL     OW19624   1.812   6.061   2.397 -0.1893 -0.0272 -0.2411
 6242SOL    HW119625   1.878   5.999   2.356 -0.1988 -0.6201  0.6216
 6242SOL    HW219626   1.734   6.009   2.432 -0.2041  0.4573  0.4724
 6243SOL     OW19627   3.092   1.865   6.144 -0.5796  0.1939 -0.3492
 6243SOL    HW119628   3.138   1.786   6.184 -0.4257  0.2266 -0.4613
 6243SOL    HW219629   3.130   1.884   6.054 -0.5015  0.4953 -0.2551
 6244SOL     OW19630   4.873   3.015   3.508  0.4276  0.0130  0.5363
 6244SOL    HW119631   4.872   3.033   3.410  3.6826  0.6791  0.4934
 6244SOL    HW219632   4.884   3.101   3.558  0.0128 -0.4322  1.4277
 6245SOL     OW19633   1.910   0.969   4.897  0.0005 -0.0084  0.1629
 6245SOL    HW119634   1.863   1.052   4.927  0.5128 -0.0497  1.1166
 6245SOL    HW219635   1.918   0.969   4.797  0.4680  1.3540  0.1847
 6246SOL     OW19636   6.092   1.269   4.141  0.1940 -0.1458 -0.4405
 6246SOL    HW119637   6.029   1.230   4.207  1.6330  0.3447  1.2850
 6246SOL    HW219638   6.044   1.338   4.086 -0.7534  0.3268  0.9212
 6247SOL     OW19639   5.423   6.767   3.016  0.1414 -1.0228 -0.5703
 6247SOL    HW119640   5.389   6.674   3.032 -1.5519 -0.9387 -3.0554
 6247SOL    HW219641   5.511   6.762   2.968  0.4733 -1.3129  0.0528
 6248SOL     OW19642   4.189   3.119   5.722  0.2236 -0.5538 -0.2634
 6248SOL    HW119643   4.254   3.100   5.795  0.3878 -0.2187 -0.3214
 6248SOL    HW219644   4.239   3.136   5.636 -0.0089 -2.6440 -0.8629
 6249SOL     OW19645   6.455   2.709   1.695  0.5514  0.3024  0.0691
 6249SOL    HW119646   6.378   2.646   1.688  1.1106 -0.4216  0.3654
 6249SOL    HW219647   6.480   2.741   1.603 -1.3469  2.1109  0.0960
 6250SOL     OW19648   6.194   0.103   6.574  0.0266 -0.0687  0.7266
 6250SOL    HW119649   6.150   0.040   6.638  0.3226 -0.1032  0.9018
 6250SOL    HW219650   6.139   0.186   6.566 -1.4424 -1.1388 -1.0646
 6251SOL     OW19651   6.715   0.996   4.760  0.1514  0.5698 -0.0293
 6251SOL    HW119652   6.658   0.961   4.685  0.0438 -0.1930  0.4008
 6251SOL    HW219653   6.762   1.079   4.729 -0.3201  0.5788 -0.7594
 6252SOL     OW19654   3.236   5.690   0.867 -0.3946 -0.7979 -0.7466
 6252SOL    HW119655   3.188   5.621   0.812  1.6264 -1.1306 -2.1931
 6252SOL    HW219656   3.322   5.652   0.901  1.5885  1.3919 -2.9656
 6253SOL     OW19657   2.750   5.826   4.544  0.3478 -0.5898 -0.1621
 6253SOL    HW119658   2.821   5.847   4.611  0.7509  0.5731 -0.9244
 6253SOL    HW219659   2.790   5.824   4.452 -0.8552  1.8301 -0.8142
 6254SOL     OW19660   1.514   6.895   1.129  0.2944  0.0162 -0.2466
 6254SOL    HW119661   1.432   6.919   1.077 -0.9215  0.0631  1.5696
 6254SOL    HW219662   1.559   6.816   1.087 -0.7193 -0.0410 -1.2641
 6255SOL     OW19663   2.070   2.199   6.364  0.0280 -0.3716  0.6365
 6255SOL    HW119664   2.032   2.160   6.448  0.8944 -1.3877  0.5763
 6255SOL    HW219665   2.161   2.161   6.348 -0.0793 -0.1013 -0.7091
 6256SOL     OW19666   4.872   5.407   0.911 -0.3294 -0.3366 -0.3015
 6256SOL    HW119667   4.867   5.498   0.870  0.5416 -0.3589 -0.4955
 6256SOL    HW219668   4.780   5.370   0.922 -0.6513  0.2064 -1.0426
 6257SOL     OW19669   3.406   4.685   1.442  0.0485  0.2127 -0.3784
 6257SOL    HW119670   3.475   4.751   1.412 -1.2878  1.8288 -0.0471
 6257SOL    HW219671   3.403   4.608   1.377  1.8726  0.2672 -0.5822
 6258SOL     OW19672   3.674   6.846   5.827  0.2864 -0.9017 -0.8857
 6258SOL    HW119673   3.674   6.863   5.729 -0.8421 -0.5874 -0.8533
 6258SOL    HW219674   3.749   6.784   5.851  1.5315  0.2593 -1.7057
 6259SOL     OW19675   3.559   0.204   3.604 -0.1258  0.4380 -0.5562
 6259SOL    HW119676   3.632   0.137   3.596 -1.1497 -0.7593 -0.1152
 6259SOL    HW219677   3.593   0.285   3.652  1.2063  0.3914 -1.3696
 6260SOL     OW19678   2.766   1.609   0.406  0.2595 -0.5763  0.3156
 6260SOL    HW119679   2.799   1.607   0.311  2.2820  0.5974  0.9169
 6260SOL    HW219680   2.769   1.517   0.444  1.1453 -0.7966 -0.2435
 6261SOL     OW19681   3.564   1.421   0.609 -0.1882 -0.5408  0.0598
 6261SOL    HW119682   3.500   1.441   0.682  1.5054 -1.0180  1.7598
 6261SOL    HW219683   3.610   1.505   0.580  0.7823 -0.6558  1.1954
 6262SOL     OW19684   0.430   2.036   2.251 -0.3036 -0.1031 -0.7016
 6262SOL    HW119685   0.450   1.969   2.179 -0.8835  0.3459 -1.2869
 6262SOL    HW219686   0.513   2.052   2.305  0.1089 -0.5302 -1.1990
 6263SOL     OW19687   6.717   6.506   5.513 -0.2555 -0.0013  0.5345
 6263SOL    HW119688   6.795   6.444   5.525 -1.7125 -2.0330  0.0044
 6263SOL    HW219689   6.641   6.474   5.569 -1.5034  0.5344 -0.8188
 6264SOL     OW19690   4.931   1.009   2.044 -0.2112 -1.0416 -0.2838
 6264SOL    HW119691   4.894   1.089   2.092 -1.4487 -0.8015 -1.5858
 6264SOL    HW219692   5.031   1.013   2.044 -0.2342 -0.0696  0.6044
 6265SOL     OW19693   4.163   0.111   5.463 -0.0455  0.0621 -0.0382
 6265SOL    HW119694   4.069   0.087   5.440 -0.1639  0.1493  0.3459
 6265SOL    HW219695   4.223   0.084   5.388 -0.5475  1.2912 -0.9142
 6266SOL     OW19696   1.362   6.359   1.780  0.1098  0.0023 -0.0901
 6266SOL    HW119697   1.292   6.292   1.759 -0.8198  1.0138 -0.3326
 6266SOL    HW219698   1.440   6.346   1.718 -0.8760  0.3614 -1.4666
 6267SOL     OW19699   1.362   0.491   5.556 -0.2650 -0.5923  0.3950
 6267SOL    HW119700   1.410   0.550   5.621 -0.2854 -0.6461  0.4590
 6267SOL    HW219701   1.296   0.435   5.605 -2.9501  1.9444 -0.0674
 6268SOL     OW19702   2.883   2.062   0.032 -0.8714 -0.5308  0.7340
 6268SOL    HW119703   2.893   2.122   0.111 -2.8166 -3.2717  3.2755
 6268SOL    HW219704   2.961   2.075  -0.030  0.1757  2.5165  2.4613
 6269SOL     OW19705   0.386   5.018   0.239 -0.6074 -0.0246 -0.1594
 6269SOL    HW119706   0.377   4.953   0.314 -1.5567 -1.0096 -1.0905
 6269SOL    HW219707   0.473   5.067   0.247  0.3950 -1.7970  0.2715
 6270SOL     OW19708   1.976   5.560   2.420  0.5935  0.1820 -0.2008
 6270SOL    HW119709   1.967   5.591   2.325  0.2764 -0.9142 -0.5420
 6270SOL    HW219710   1.915   5.483   2.436  1.1775 -0.1133  0.6864
 6271SOL     OW19711   6.324   2.623   6.707 -0.4339 -0.1989 -0.4417
 6271SOL    HW119712   6.236   2.619   6.660 -0.6803  0.9788 -0.1165
 6271SOL    HW219713   6.309   2.645   6.803  0.2854  1.4932 -0.6978
 6272SOL     OW19714   6.619   1.546   0.282  0.1089 -0.0636  0.0463
 6272SOL    HW119715   6.552   1.587   0.220 -2.1755 -1.5488  1.3877
 6272SOL    HW219716   6.707   1.538   0.235 -0.8173  1.2456 -2.0687
 6273SOL     OW19717   1.544   6.293   1.078 -0.0698 -0.2414 -0.1472
 6273SOL    HW119718   1.452   6.288   1.118 -0.9640  0.3734 -2.0363
 6273SOL    HW219719   1.563   6.208   1.029  0.8382 -0.8102  1.1530
 6274SOL     OW19720   3.305   6.312   4.417 -0.7842  0.2686 -0.2415
 6274SOL    HW119721   3.230   6.363   4.375  0.3816  0.7504 -1.8119
 6274SOL    HW219722   3.363   6.272   4.346 -0.3562 -1.3511  0.9392
 6275SOL     OW19723   2.898   6.450   6.661  0.5678  0.5246 -0.4283
 6275SOL    HW119724   2.830   6.505   6.711 -0.4564  1.9348 -3.1596
 6275SOL    HW219725   2.859   6.360   6.641  1.0095 -0.0789  1.2489
 6276SOL     OW19726   1.312   5.857   0.653  0.3014 -0.7051 -0.8006
 6276SOL    HW119727   1.252   5.846   0.574  0.3286  2.2710 -1.3460
 6276SOL    HW219728   1.388   5.917   0.629 -0.5392  1.6434  1.8112
 6277SOL     OW19729   5.929   3.366   1.335 -1.0335 -0.5770  0.1447
 6277SOL    HW119730   5.960   3.305   1.263 -0.2111 -1.6095  1.3392
 6277SOL    HW219731   5.907   3.314   1.417 -2.1663  0.5482  0.5982
 6278SOL     OW19732   3.979   4.968   6.154 -0.1745  0.2966 -0.5179
 6278SOL    HW119733   3.957   4.985   6.250  2.9610  4.5582 -0.2556
 6278SOL    HW219734   3.913   5.015   6.096  0.6849  1.9333 -0.2110
 6279SOL     OW19735   2.052   0.742   2.580  0.0015  0.2344  0.3004
 6279SOL    HW119736   1.983   0.693   2.634  0.2915  1.1508  1.5684
 6279SOL    HW219737   2.101   0.678   2.521 -0.2422 -0.8352  1.2303
 6280SOL     OW19738   3.204   2.875   6.475 -0.2459  0.5312  0.0505
 6280SOL    HW119739   3.184   2.808   6.404  0.4192  0.3569  0.0194
 6280SOL    HW219740   3.282   2.931   6.447 -0.6766  1.1948  0.1594
 6281SOL     OW19741   6.213   5.898   6.657 -0.0985  0.2483 -0.8088
 6281SOL    HW119742   6.198   5.853   6.568 -1.5201  0.4891 -0.7234
 6281SOL    HW219743   6.244   5.831   6.724  2.4186  0.3215 -1.7935
 6282SOL     OW19744   0.746   3.040   6.797  0.5849 -0.2990  0.6627
 6282SOL    HW119745   0.809   3.055   6.873  0.0688  0.4714  0.9452
 6282SOL    HW219746   0.671   2.980   6.827  0.4026 -0.0276  0.7476
 6283SOL     OW19747   2.492   0.211   4.335 -0.2704  0.0037  0.1676
 6283SOL    HW119748   2.503   0.166   4.424 -2.1110 -1.7177 -0.4053
 6283SOL    HW219749   2.412   0.174   4.289  0.4460  1.1033 -2.0934
 6284SOL     OW19750   2.051   3.660   5.222  0.5551  0.0632 -0.0520
 6284SOL    HW119751   2.024   3.577   5.173 -2.2456  0.6999  0.2076
 6284SOL    HW219752   2.068   3.734   5.156 -1.6481  0.4850 -0.2530
 6285SOL     OW19753   2.286   4.231   4.062  0.0411  0.3754  0.1824
 6285SOL    HW119754   2.266   4.293   3.986  1.2742  1.6812  0.8636
 6285SOL    HW219755   2.362   4.171   4.037 -1.0272 -0.7775 -0.4064
 6286SOL     OW19756   1.340   4.586   1.529  0.4651 -0.0492  1.1855
 6286SOL    HW119757   1.438   4.570   1.541  1.3297  1.9719 -1.8946
 6286SOL    HW219758   1.312   4.556   1.438 -0.9168  2.5561  0.6485
 6287SOL     OW19759   4.628   6.407   6.188 -0.2109 -0.1561 -0.0490
 6287SOL    HW119760   4.541   6.390   6.234  0.1399 -0.7188  0.4238
 6287SOL    HW219761   4.679   6.477   6.237 -0.4535  0.2723 -0.4041
 6288SOL     OW19762   2.424   2.425   6.880 -0.7622  0.7003  0.6049
 6288SOL    HW119763   2.328   2.429   6.908 -0.5334  0.1643  1.5059
 6288SOL    HW219764   2.470   2.509   6.907 -1.0696  1.1660 -0.2542
 6289SOL     OW19765   1.743   5.034   1.502 -0.0572 -0.0439  0.0357
 6289SOL    HW119766   1.818   5.057   1.563 -0.9175  0.5119  0.9162
 6289SOL    HW219767   1.672   5.105   1.508  0.1288  0.3941 -2.1362
 6290SOL     OW19768   5.358   5.676   1.780  0.7779 -0.1739  0.0135
 6290SOL    HW119769   5.404   5.591   1.804  1.1921 -0.0343 -0.2614
 6290SOL    HW219770   5.368   5.692   1.681 -0.2639 -0.3790 -0.1284
 6291SOL     OW19771   3.161   4.017   2.397  0.0356  0.3143  0.3979
 6291SOL    HW119772   3.211   4.086   2.449  0.4724  0.2301  0.0985
 6291SOL    HW219773   3.084   3.982   2.451 -0.9600  1.9213  0.0838
 6292SOL     OW19774   0.725   4.295   5.070  0.4210 -0.6625  0.0652
 6292SOL    HW119775   0.696   4.332   5.158 -0.2040  0.3050 -0.5216
 6292SOL    HW219776   0.813   4.334   5.044 -0.0590  0.1618 -0.3761
 6293SOL     OW19777   1.941   3.352   6.598 -0.1628  0.3441  0.1017
 6293SOL    HW119778   1.914   3.300   6.679  0.2635 -0.3670 -0.2082
 6293SOL    HW219779   1.884   3.434   6.591  0.5718  1.0460  1.7707
 6294SOL     OW19780   2.136   1.257   2.327 -0.3115 -0.1397  0.1050
 6294SOL    HW119781   2.135   1.273   2.426 -1.2627 -0.2632  0.1251
 6294SOL    HW219782   2.042   1.255   2.293 -0.0096 -0.6025 -0.7237
 6295SOL     OW19783   3.828   3.298   0.120 -0.2569  0.1152  0.0502
 6295SOL    HW119784   3.850   3.239   0.042 -0.0433 -0.7856  0.7894
 6295SOL    HW219785   3.804   3.242   0.199 -1.7606  1.0311  0.2841
 6296SOL     OW19786   1.608   2.282   6.791 -0.2195 -0.6162 -0.5065
 6296SOL    HW119787   1.656   2.221   6.854 -0.7959 -1.2821 -0.7081
 6296SOL    HW219788   1.645   2.375   6.801 -0.2146 -0.7273  0.7178
 6297SOL     OW19789   5.366   0.738   5.601  0.4752  0.0755  0.1836
 6297SOL    HW119790   5.293   0.743   5.533  1.3852 -1.5466 -0.9645
 6297SOL    HW219791   5.444   0.792   5.571  1.1280 -1.1628 -0.4357
 6298SOL     OW19792   0.043   0.033   0.784 -0.8754  0.2081  0.4301
 6298SOL    HW119793   0.068   0.130   0.790 -3.4157  1.1759 -2.3359
 6298SOL    HW219794   0.095  -0.010   0.710 -1.7456  0.2257 -0.2039
 6299SOL     OW19795   2.675   2.332   3.676  0.3705  0.7349 -0.7330
 6299SOL    HW119796   2.750   2.290   3.624  0.2724  0.5650 -0.7396
 6299SOL    HW219797   2.666   2.285   3.764  0.4962  0.9824 -0.5889
 6300SOL     OW19798   4.327   0.383   6.158  0.2356 -0.3811 -0.0611
 6300SOL    HW119799   4.388   0.370   6.079 -0.7138  0.5044 -0.9843
 6300SOL    HW219800   4.378   0.370   6.242  1.3673 -1.0406 -0.8210
 6301SOL     OW19801   4.860   5.993   1.298  0.3156  0.0553  0.7384
 6301SOL    HW119802   4.788   5.998   1.229  1.3615  1.1913 -0.3205
 6301SOL    HW219803   4.834   5.926   1.369  0.2047 -2.9490 -1.9056
 6302SOL     OW19804   2.889   4.355   0.936 -0.7609  0.0543 -0.4054
 6302SOL    HW119805   2.849   4.265   0.918  1.3209 -0.8713 -0.7474
 6302SOL    HW219806   2.919   4.360   1.032 -0.3702  0.1734 -0.5322
 6303SOL     OW19807   1.554   6.336   4.362  0.0924  0.3028 -0.1807
 6303SOL    HW119808   1.586   6.255   4.411 -0.3766  0.2644  0.0625
 6303SOL    HW219809   1.583   6.330   4.267  2.4521  1.1419  0.4047
 6304SOL     OW19810   3.966   0.793   3.167 -0.5332  0.0386 -0.0843
 6304SOL    HW119811   3.926   0.874   3.124  0.2896  0.5751  0.1352
 6304SOL    HW219812   4.048   0.764   3.117 -2.7264 -2.8608 -2.3365
 6305SOL     OW19813   0.156   5.210   4.591 -0.1412  0.4752  0.2613
 6305SOL    HW119814   0.214   5.279   4.547  1.7925 -1.1905  0.0030
 6305SOL    HW219815   0.118   5.247   4.676  0.2968  2.0500 -0.1938
 6306SOL     OW19816   0.098   4.404   5.219  0.2284  0.2362 -0.2813
 6306SOL    HW119817   0.015   4.403   5.164  1.0496 -0.3205 -1.5556
 6306SOL    HW219818   0.075   4.423   5.314 -1.2319  1.1950 -0.7976
 6307SOL     OW19819   2.871   3.489   2.579  0.1740 -0.0146 -0.1531
 6307SOL    HW119820   2.894   3.529   2.490 -1.2953  1.5345  0.1059
 6307SOL    HW219821   2.827   3.558   2.636 -0.2380 -1.3857  1.2668
 6308SOL     OW19822   5.986   1.642   5.861 -0.0508  0.2134 -0.1121
 6308SOL    HW119823   6.008   1.587   5.941  0.6602  1.4260  0.5667
 6308SOL    HW219824   5.887   1.640   5.845 -0.4213  1.1575  1.7536
 6309SOL     OW19825   1.266   0.696   5.276 -0.4101 -0.6346  0.0147
 6309SOL    HW119826   1.338   0.743   5.326 -1.6053  0.4483  0.7675
 6309SOL    HW219827   1.258   0.735   5.184 -1.1132  0.3927  0.4921
 6310SOL     OW19828   1.965   0.713   2.954 -0.3041  0.2296 -0.3134
 6310SOL    HW119829   1.975   0.751   3.046  1.1847  2.6726 -1.3635
 6310SOL    HW219830   2.026   0.634   2.944  0.5307  0.7508  0.4448
 6311SOL     OW19831   5.927   6.973   6.047 -0.9725 -0.6134  0.2262
 6311SOL    HW119832   5.987   6.894   6.056  1.5228  1.2636  1.4022
 6311SOL    HW219833   5.981   7.057   6.057 -3.4839  1.2740 -0.9837
 6312SOL     OW19834   2.820   5.135   0.055  0.6579  0.0990  0.1412
 6312SOL    HW119835   2.911   5.095   0.064  0.2531 -0.5516  1.6429
 6312SOL    HW219836   2.781   5.112  -0.034  1.9988  0.4869 -0.5578
 6313SOL     OW19837   5.436   4.136   4.358  0.0908 -0.3981  0.6547
 6313SOL    HW119838   5.507   4.153   4.290  0.8561  0.0952  1.5374
 6313SOL    HW219839   5.376   4.062   4.327  0.0150  0.2513 -0.8317
 6314SOL     OW19840   2.644   6.773   0.205 -0.3826 -0.2834  0.0068
 6314SOL    HW119841   2.680   6.733   0.289  2.5689  0.4215 -0.8097
 6314SOL    HW219842   2.639   6.873   0.216 -1.7138 -0.3310 -0.0679
 6315SOL     OW19843   1.411   1.928   2.786 -0.4637 -0.0973 -0.3895
 6315SOL    HW119844   1.405   2.005   2.850 -0.6395 -0.4000 -0.0439
 6315SOL    HW219845   1.504   1.890   2.788 -0.5631 -0.3229 -0.0646
 6316SOL     OW19846   3.471   0.883   4.548  0.1880  0.1540 -0.4895
 6316SOL    HW119847   3.502   0.852   4.639 -1.5488 -0.3587 -0.0353
 6316SOL    HW219848   3.408   0.960   4.558 -4.1143 -2.9447 -0.6847
 6317SOL     OW19849   6.427   2.819   1.428  0.3215  0.2644 -0.1537
 6317SOL    HW119850   6.384   2.904   1.398 -0.5445  0.1202  0.6294
 6317SOL    HW219851   6.394   2.743   1.372 -0.6630  0.1201  0.5835
 6318SOL     OW19852   1.388   5.537   6.484 -0.2477 -0.2209  0.3830
 6318SOL    HW119853   1.371   5.461   6.547  0.0016 -0.6819 -0.0953
 6318SOL    HW219854   1.304   5.559   6.435 -0.3823 -0.0226  0.7034
 6319SOL     OW19855   5.828   1.484   3.339 -0.4260 -0.1312  0.0712
 6319SOL    HW119856   5.844   1.386   3.357  1.9795  0.4344  1.4972
 6319SOL    HW219857   5.898   1.518   3.276 -1.7511  0.5409 -1.0919
 6320SOL     OW19858   6.945   2.307   5.282  0.2926  0.0263 -0.2916
 6320SOL    HW119859   7.000   2.366   5.221  1.6128 -0.0167  0.8077
 6320SOL    HW219860   6.857   2.351   5.300 -0.4553 -0.2926 -2.7824
 6321SOL     OW19861   0.517   3.297   1.218  0.1592 -0.3263  0.0745
 6321SOL    HW119862   0.519   3.255   1.127 -4.0282 -0.2388 -0.2472
 6321SOL    HW219863   0.454   3.375   1.217  0.2767 -0.1079  2.9882
 6322SOL     OW19864   2.114   1.224   3.803  0.0057 -0.3338 -0.7450
 6322SOL    HW119865   2.080   1.240   3.896 -0.6861 -1.3719 -0.7995
 6322SOL    HW219866   2.037   1.227   3.739  0.3871 -0.2384 -1.1976
 6323SOL     OW19867   2.016   4.598   0.049 -0.0369 -0.0349  0.1520
 6323SOL    HW119868   2.028   4.523   0.114 -0.7656 -0.0976  0.2237
 6323SOL    HW219869   2.105   4.634   0.023  0.4409 -1.9993 -1.1456
 6324SOL     OW19870   5.151   1.791   0.895  0.0631 -0.9710  0.2209
 6324SOL    HW119871   5.221   1.733   0.935  0.1770  0.5698  2.4298
 6324SOL    HW219872   5.191   1.845   0.821  1.0338 -0.6595  0.9487
 6325SOL     OW19873   6.850   3.459   3.286  0.5706  0.2800  0.2694
 6325SOL    HW119874   6.802   3.379   3.321 -1.5118  1.3963  0.1195
 6325SOL    HW219875   6.902   3.502   3.361 -3.1749  2.1737  2.0535
 6326SOL     OW19876   4.875   6.335   5.048  0.2330  0.1356  0.3141
 6326SOL    HW119877   4.944   6.392   5.093  0.4352  1.0519 -1.0926
 6326SOL    HW219878   4.804   6.394   5.009 -1.3910 -0.8006  1.7743
 6327SOL     OW19879   5.976   6.693   3.915  0.4422 -0.1549  0.0299
 6327SOL    HW119880   6.062   6.668   3.960 -0.8210 -2.4753  1.3227
 6327SOL    HW219881   5.956   6.789   3.934  1.9820  0.0105  0.9909
 6328SOL     OW19882   5.267   2.814   5.952 -0.1653  0.0353 -0.5553
 6328SOL    HW119883   5.204   2.838   6.026  1.5652 -0.9585  1.3602
 6328SOL    HW219884   5.267   2.887   5.883 -2.9635  0.2863 -0.4094
 6329SOL     OW19885   0.896   3.700   5.860  0.6528  0.1239 -0.1345
 6329SOL    HW119886   0.797   3.686   5.862  0.7338 -0.5040  1.5754
 6329SOL    HW219887   0.919   3.786   5.905  0.8818  0.4346 -0.8254
 6330SOL     OW19888   6.233   2.909   3.737 -0.3760 -0.2288  0.5345
 6330SOL    HW119889   6.299   2.875   3.805  0.6172  0.9368  0.1824
 6330SOL    HW219890   6.280   2.927   3.651 -1.1054  0.8419  0.3401
 6331SOL     OW19891   0.236   5.422   3.955  0.7705  0.0077  0.3345
 6331SOL    HW119892   0.170   5.480   3.907  0.1886 -0.4054  0.6188
 6331SOL    HW219893   0.327   5.462   3.947  0.3362  1.1356  0.8015
 6332SOL     OW19894   2.566   2.248   5.907  0.6441 -0.2942 -0.5273
 6332SOL    HW119895   2.649   2.255   5.963  0.3994  2.6805 -0.3801
 6332SOL    HW219896   2.582   2.291   5.818 -0.9870  1.4041 -0.0805
 6333SOL     OW19897   6.094   0.464   1.685  0.7902 -0.5853  0.5075
 6333SOL    HW119898   6.092   0.471   1.785  0.5725 -0.9199  0.5276
 6333SOL    HW219899   6.176   0.510   1.651  0.9541 -0.6126  0.8516
 6334SOL     OW19900   0.671   0.795   1.252 -0.0148  0.2434 -0.3354
 6334SOL    HW119901   0.603   0.758   1.316 -1.1088  2.2059 -0.2916
 6334SOL    HW219902   0.756   0.813   1.301 -0.3037  0.1956  0.1962
 6335SOL     OW19903   6.167   3.289   4.164 -0.0913  0.4694 -0.3734
 6335SOL    HW119904   6.253   3.335   4.140  0.6659 -0.6218  0.1655
 6335SOL    HW219905   6.141   3.313   4.258  0.1130  0.1000 -0.2190
 6336SOL     OW19906   1.542   4.809   4.549  0.6633 -0.1504 -0.1850
 6336SOL    HW119907   1.495   4.837   4.465  1.1604  0.7462 -0.1744
 6336SOL    HW219908   1.477   4.812   4.625  0.6192  0.6778 -0.2446
 6337SOL     OW19909   5.677   6.797   5.916 -0.1731  0.9713 -0.2105
 6337SOL    HW119910   5.754   6.844   5.960  1.4503  0.9838 -2.8790
 6337SOL    HW219911   5.667   6.829   5.822 -0.8144 -1.9522 -1.2530
 6338SOL     OW19912   0.837   5.273   0.524 -0.0427 -0.1995  0.4190
 6338SOL    HW119913   0.892   5.192   0.506  0.9834  0.5356  0.1012
 6338SOL    HW219914   0.826   5.285   0.622 -1.2400 -1.3768  0.4474
 6339SOL     OW19915   6.781   6.209   3.955 -0.3579 -0.0003  0.0360
 6339SOL    HW119916   6.812   6.262   4.034  0.8379 -1.2091  0.4162
 6339SOL    HW219917   6.712   6.143   3.984 -2.1163  1.5128 -0.5008
 6340SOL     OW19918   2.044   4.745   1.189 -0.3432  0.0884  0.2335
 6340SOL    HW119919   1.990   4.662   1.175 -0.3091  0.2509 -0.9350
 6340SOL    HW219920   2.137   4.730   1.154  0.6173 -0.4013  2.7525
 6341SOL     OW19921   0.963   5.811   1.074  0.2088 -0.2735  0.2280
 6341SOL    HW119922   0.942   5.714   1.090  0.3497  0.0609  3.0375
 6341SOL    HW219923   1.059   5.827   1.095 -0.1454  0.6883  1.2416
 6342SOL     OW19924   2.438   1.409   2.560 -0.1866  0.4302 -0.0598
 6342SOL    HW119925   2.342   1.398   2.587 -0.0362  0.7542  0.6146
 6342SOL    HW219926   2.477   1.489   2.606  0.0204  1.1305 -1.3933
 6343SOL     OW19927   0.839   5.890   0.810 -0.5790  0.2478  0.3430
 6343SOL    HW119928   0.877   5.865   0.899 -0.4049 -0.4662  0.0719
 6343SOL    HW219929   0.862   5.986   0.790 -0.8484  0.5019  1.1763
 6344SOL     OW19930   1.115   1.889   3.713  0.4919 -0.5693 -0.2000
 6344SOL    HW119931   1.056   1.933   3.781 -1.7388 -0.8447 -1.8709
 6344SOL    HW219932   1.083   1.911   3.621  3.9595  0.5558 -1.3187
 6345SOL     OW19933   0.246   4.112   0.433 -0.1089  0.8650  0.2489
 6345SOL    HW119934   0.268   4.145   0.524  0.1216 -0.7119  0.7985
 6345SOL    HW219935   0.175   4.042   0.439  1.2207 -0.6284 -0.5510
 6346SOL     OW19936   0.909   3.169   5.118 -0.1905 -0.6584 -0.0229
 6346SOL    HW119937   0.872   3.089   5.165  0.9907 -0.9481  0.4493
 6346SOL    HW219938   0.910   3.247   5.180 -0.3134 -0.5583 -0.1443
 6347SOL     OW19939   1.791   2.231   3.486  0.0121 -0.0121 -0.1864
 6347SOL    HW119940   1.702   2.265   3.454 -0.9425 -1.8262  0.4072
 6347SOL    HW219941   1.798   2.245   3.585  0.1550 -0.3575 -0.1484
 6348SOL     OW19942   1.251   2.226   6.113 -0.5213  0.0348 -0.2788
 6348SOL    HW119943   1.189   2.253   6.186  0.8749  0.3041  0.8653
 6348SOL    HW219944   1.341   2.205   6.152  1.5325  4.0516 -2.1815
 6349SOL     OW19945   6.033   1.221   6.111 -1.0831  0.0833 -0.3990
 6349SOL    HW119946   5.980   1.213   6.196 -0.0927  1.0652  0.3361
 6349SOL    HW219947   6.122   1.179   6.124 -0.5215  1.1975 -0.5928
 6350SOL     OW19948   2.721   0.427   1.199 -0.0299  0.0946  0.1588
 6350SOL    HW119949   2.771   0.496   1.251  1.0580 -0.2881 -0.3625
 6350SOL    HW219950   2.635   0.406   1.246  0.4325  0.5260  1.2275
 6351SOL     OW19951   6.840   6.685   1.261 -0.0002  0.4949 -0.1476
 6351SOL    HW119952   6.742   6.675   1.279  0.0718 -2.1025 -0.8024
 6351SOL    HW219953   6.886   6.714   1.345 -1.2085  0.7934  0.4307
 6352SOL     OW19954   4.303   0.857   3.205  0.4090 -0.0060 -0.1637
 6352SOL    HW119955   4.374   0.852   3.275  0.6948 -2.4900 -0.5620
 6352SOL    HW219956   4.235   0.925   3.232  0.8267 -0.4697  2.2405
 6353SOL     OW19957   4.005   6.956   5.167  0.4143 -0.4639  0.4726
 6353SOL    HW119958   4.069   7.025   5.134  2.9304 -3.5343 -1.6240
 6353SOL    HW219959   3.912   6.994   5.169  1.3510  2.3700 -2.4113
 6354SOL     OW19960   4.349   5.915   1.248  0.1544  0.2002 -0.7888
 6354SOL    HW119961   4.255   5.885   1.229  0.3100 -1.8600  1.2802
 6354SOL    HW219962   4.349   5.974   1.329  0.7734 -1.1607  0.2397
 6355SOL     OW19963   4.044   5.571   6.945  0.1407  0.1187 -0.5336
 6355SOL    HW119964   4.125   5.573   6.886  0.5242 -0.7019 -0.0561
 6355SOL    HW219965   3.961   5.574   6.888  0.4782 -2.5172 -1.2938
 6356SOL     OW19966   0.608   4.410   0.631  0.6450  0.1524  0.3822
 6356SOL    HW119967   0.533   4.421   0.565 -0.2686 -1.4140  1.0813
 6356SOL    HW219968   0.671   4.341   0.597  0.7244  0.0816  0.6774
 6357SOL     OW19969   4.623   5.922   2.001  0.4019  0.2072  0.3331
 6357SOL    HW119970   4.619   5.946   1.904 -0.5391  0.4496  0.4167
 6357SOL    HW219971   4.566   5.842   2.017  0.2694  0.3809  0.7400
 6358SOL     OW19972   1.836   2.568   5.710  0.1111 -0.0683 -0.2363
 6358SOL    HW119973   1.887   2.584   5.625  0.0077 -0.2232 -0.3299
 6358SOL    HW219974   1.823   2.654   5.758  0.0394  0.0426 -0.4541
 6359SOL     OW19975   4.529   6.065   1.142  0.3519 -0.2973  0.1475
 6359SOL    HW119976   4.472   5.998   1.190 -0.5929 -0.1291 -0.7141
 6359SOL    HW219977   4.496   6.157   1.161  0.4910 -0.1816 -0.1714
 6360SOL     OW19978   1.821   0.684   6.976 -0.3767  0.6795  0.1041
 6360SOL    HW119979   1.902   0.714   7.026  0.0397 -0.9769  0.5024
 6360SOL    HW219980   1.829   0.586   6.955 -0.2089  1.3663 -3.8463
 6361SOL     OW19981   0.579   0.540   6.557  0.5437 -0.0627  0.3108
 6361SOL    HW119982   0.628   0.544   6.470  0.2844  0.5769  0.1927
 6361SOL    HW219983   0.496   0.596   6.552  0.3183 -0.3355  0.8405
 6362SOL     OW19984   2.355   4.415   1.358 -0.3726 -0.4563  0.6023
 6362SOL    HW119985   2.447   4.453   1.370 -0.3117 -0.7762  1.1607
 6362SOL    HW219986   2.288   4.486   1.378 -0.2569  0.1784 -1.1118
 6363SOL     OW19987   2.616   5.054   2.896 -0.1857 -0.2796  0.6373
 6363SOL    HW119988   2.574   5.053   2.987 -1.3006  0.1713  0.1458
 6363SOL    HW219989   2.675   4.974   2.886 -1.7044 -1.5158  1.0272
 6364SOL     OW19990   2.346   1.885   5.325 -0.5284  0.5211  0.0958
 6364SOL    HW119991   2.382   1.924   5.410 -0.4422  0.3570  0.1329
 6364SOL    HW219992   2.264   1.937   5.297  0.1655  1.3835 -0.4028
 6365SOL     OW19993   5.304   6.068   3.101  0.0206 -0.4086 -0.0934
 6365SOL    HW119994   5.390   6.019   3.115  0.8491  0.9212 -0.3369
 6365SOL    HW219995   5.270   6.100   3.189  2.0796  2.7581 -0.2969
 6366SOL     OW19996   6.433   1.492   3.899 -0.1561 -0.2397 -0.2950
 6366SOL    HW119997   6.500   1.522   3.967  0.8676  0.0254 -1.3871
 6366SOL    HW219998   6.389   1.572   3.859 -1.2733 -0.4200  0.5408
 6367SOL     OW19999   6.622   3.823   2.643  0.5738  0.6578  0.5164
 6367SOL    HW120000   6.661   3.761   2.575 -1.4190 -0.1212  0.0173
 6367SOL    HW220001   6.532   3.854   2.613 -0.6393 -0.1534  3.0051
 6368SOL     OW20002   5.392   4.148   4.791 -0.2633  0.1345 -0.1492
 6368SOL    HW120003   5.381   4.248   4.786  0.4400  0.1684 -3.0237
 6368SOL    HW220004   5.307   4.106   4.822 -0.4113  1.6370  1.5934
 6369SOL     OW20005   4.115   5.565   0.266  0.1713 -0.3395 -0.2951
 6369SOL    HW120006   4.169   5.646   0.288 -1.5298  0.1480  2.6893
 6369SOL    HW220007   4.086   5.521   0.351 -4.4328 -0.3008 -1.5608
 6370SOL     OW20008   4.663   4.702   3.494  0.1010 -0.1214  0.0101
 6370SOL    HW120009   4.676   4.719   3.396 -2.3327  2.2397 -0.0436
 6370SOL    HW220010   4.647   4.605   3.510  0.7853 -0.5844 -1.8719
 6371SOL     OW20011   5.266   5.477   1.384  0.2138 -0.3850  0.4063
 6371SOL    HW120012   5.318   5.555   1.421  0.0952  0.7422 -1.6284
 6371SOL    HW220013   5.180   5.467   1.434  1.0661 -0.4343  1.9239
 6372SOL     OW20014   6.485   2.060   1.669 -0.0703  0.3999 -1.1107
 6372SOL    HW120015   6.490   2.159   1.674  2.1623  0.2887  1.0348
 6372SOL    HW220016   6.555   2.026   1.607 -0.0959  0.1135 -0.9841
 6373SOL     OW20017   6.305   4.161   1.539  0.3983 -0.1663  0.1426
 6373SOL    HW120018   6.247   4.239   1.516  0.0283 -0.4670  0.0470
 6373SOL    HW220019   6.321   4.106   1.457 -1.6305 -1.7125  0.6907
 6374SOL     OW20020   6.003   3.893   5.466 -0.2337  0.1430 -0.4281
 6374SOL    HW120021   6.042   3.861   5.379 -0.7736 -1.3854 -0.1489
 6374SOL    HW220022   5.935   3.826   5.498  1.4351 -0.4109  2.2194
 6375SOL     OW20023   5.279   2.590   2.512 -0.4760 -0.3908 -0.2712
 6375SOL    HW120024   5.329   2.604   2.597  0.7516 -2.1577 -0.6280
 6375SOL    HW220025   5.311   2.655   2.443 -1.2705  0.8520  0.5103
 6376SOL     OW20026   3.153   2.589   1.768 -0.4532  0.1518  0.8022
 6376SOL    HW120027   3.076   2.549   1.818 -1.0878 -1.8434 -1.5659
 6376SOL    HW220028   3.198   2.518   1.714  2.1117  1.5992  0.8908
 6377SOL     OW20029   6.749   6.050   0.728  0.5505  0.0600 -0.3125
 6377SOL    HW120030   6.738   6.107   0.646  2.1831 -0.6847 -1.1040
 6377SOL    HW220031   6.780   5.959   0.700  0.0874 -0.5386  1.0814
 6378SOL     OW20032   5.394   4.119   3.141 -0.0528  0.1956 -0.4283
 6378SOL    HW120033   5.452   4.188   3.097 -1.4181  1.5221 -0.2101
 6378SOL    HW220034   5.304   4.119   3.099 -0.0048 -1.7401 -0.6532
 6379SOL     OW20035   2.010   5.092   0.791 -0.7110  0.3826 -0.0982
 6379SOL    HW120036   2.040   4.997   0.778  0.9555  0.7731  0.5935
 6379SOL    HW220037   1.972   5.127   0.706  0.9097 -0.1498 -1.0777
 6380SOL     OW20038   0.308   6.427   4.518 -0.6451  0.0599  0.4751
 6380SOL    HW120039   0.396   6.384   4.496 -0.9207 -0.3196  0.1224
 6380SOL    HW220040   0.269   6.382   4.598 -0.7368 -0.0686  0.3569
 6381SOL     OW20041   4.252   1.573   6.987  0.5474 -0.1534 -0.1013
 6381SOL    HW120042   4.172   1.521   7.017 -0.4079  0.9982 -0.5201
 6381SOL    HW220043   4.328   1.511   6.967 -0.0075 -1.2181  0.9982
 6382SOL     OW20044   0.473   1.447   0.214 -0.1745 -0.4763 -0.6321
 6382SOL    HW120045   0.553   1.433   0.156  0.2333  1.7033 -0.7139
 6382SOL    HW220046   0.497   1.511   0.287 -1.5713 -0.6048 -0.0416
 6383SOL     OW20047   1.238   2.002   2.576 -0.2055 -0.0190 -0.5543
 6383SOL    HW120048   1.303   2.020   2.503  0.2007  0.1675 -0.1555
 6383SOL    HW220049   1.287   1.971   2.657 -0.6452 -0.1942 -0.3510
 6384SOL     OW20050   5.444   1.937   1.284 -0.2388  0.0257  0.2560
 6384SOL    HW120051   5.535   1.974   1.262 -0.3345 -0.0915 -0.3696
 6384SOL    HW220052   5.392   2.006   1.335 -0.7820  1.2061 -1.7665
 6385SOL     OW20053   0.373   3.403   6.660  0.1664  1.0484  0.4196
 6385SOL    HW120054   0.371   3.495   6.700 -0.8751  0.6059  1.4362
 6385SOL    HW220055   0.428   3.405   6.576  0.7107  2.4476  0.7687
 6386SOL     OW20056   4.067   1.731   1.816  0.9327  0.4050  0.4166
 6386SOL    HW120057   4.006   1.653   1.832  1.7255 -0.3391 -0.0492
 6386SOL    HW220058   4.021   1.816   1.842 -0.9725  0.0548 -1.5124
 6387SOL     OW20059   0.385   5.069   6.982  0.2198 -0.0507  0.0842
 6387SOL    HW120060   0.313   5.112   6.928  0.5839 -0.5982 -0.8612
 6387SOL    HW220061   0.356   5.065   7.078 -1.6475 -1.5263 -0.4638
 6388SOL     OW20062   4.586   5.018   2.686 -0.3116  0.3271  0.0734
 6388SOL    HW120063   4.677   5.050   2.709 -0.1182 -0.4777  0.4767
 6388SOL    HW220064   4.539   5.087   2.631  0.7808  0.4730 -0.7145
 6389SOL     OW20065   5.035   6.677   6.290 -0.8984 -0.0478  0.7619
 6389SOL    HW120066   5.125   6.665   6.249 -0.1071  1.8613  1.7746
 6389SOL    HW220067   4.965   6.670   6.219  0.0841 -1.0104 -0.1442
 6390SOL     OW20068   5.803   1.039   1.554 -0.4669  0.1655  0.5740
 6390SOL    HW120069   5.791   1.109   1.483  0.4113  0.6161  0.8525
 6390SOL    HW220070   5.774   0.950   1.519  1.0571  0.1637 -0.7658
 6391SOL     OW20071   0.115   1.007   6.418  0.0942  0.1214  0.6085
 6391SOL    HW120072   0.085   1.057   6.498  2.0654  1.2140  0.7348
 6391SOL    HW220073   0.202   1.044   6.385  0.0058 -1.1304 -1.2679
 6392SOL     OW20074   4.825   6.254   3.585 -0.3564 -0.7287  0.4279
 6392SOL    HW120075   4.892   6.209   3.644 -0.3164  0.6915  1.5241
 6392SOL    HW220076   4.735   6.214   3.601 -0.4093 -0.1557  1.7566
 6393SOL     OW20077   0.648   3.492   5.496  0.0376 -0.1050 -0.0997
 6393SOL    HW120078   0.734   3.518   5.540  0.8380  1.2304 -2.2920
 6393SOL    HW220079   0.648   3.523   5.401 -1.8364 -2.3230 -0.9396
 6394SOL     OW20080   1.339   5.185   1.988 -0.4879  0.3209  0.4905
 6394SOL    HW120081   1.407   5.255   1.969 -0.7634  0.5356  0.3031
 6394SOL    HW220082   1.268   5.186   1.918 -0.1893 -0.5314  0.1602
 6395SOL     OW20083   1.386   3.112   5.535 -0.1805  0.3673  0.6743
 6395SOL    HW120084   1.415   3.121   5.440 -1.3167 -0.9824  0.1688
 6395SOL    HW220085   1.454   3.057   5.585 -1.0808 -1.6225 -0.1734
 6396SOL     OW20086   1.004   3.731   5.487 -0.1028 -0.1716  0.3305
 6396SOL    HW120087   1.036   3.739   5.392 -0.6784  1.8364  0.2584
 6396SOL    HW220088   1.079   3.751   5.549  0.4190 -2.0263  0.3549
 6397SOL     OW20089   0.407   3.540   4.724 -0.7899  0.0530 -0.3059
 6397SOL    HW120090   0.419   3.458   4.780 -1.2704  0.2874  0.1481
 6397SOL    HW220091   0.310   3.557   4.710 -0.7680  1.3875  0.8883
 6398SOL     OW20092   2.203   0.201   2.258  0.2091 -0.1059  0.0514
 6398SOL    HW120093   2.134   0.185   2.330  0.6573  1.1755  0.7967
 6398SOL    HW220094   2.158   0.200   2.169 -0.6940  0.1319  0.4849
 6399SOL     OW20095   5.129   0.006   6.702 -0.6565  0.0586  0.7582
 6399SOL    HW120096   5.082   0.011   6.614  0.4040  1.2824  0.2324
 6399SOL    HW220097   5.221  -0.029   6.689 -0.0104  1.5453  1.1444
 6400SOL     OW20098   1.283   0.452   2.641 -0.3433  0.2764 -0.2329
 6400SOL    HW120099   1.355   0.520   2.634  1.3915 -1.2944  1.2441
 6400SOL    HW220100   1.279   0.416   2.734  0.4437 -3.2467 -1.3868
 6401SOL     OW20101   3.628   5.683   1.481 -0.2707 -0.3783 -0.8569
 6401SOL    HW120102   3.532   5.661   1.466 -0.1308 -0.3543 -1.8278
 6401SOL    HW220103   3.650   5.771   1.439  0.4553 -0.9475 -1.7039
 6402SOL     OW20104   3.604   4.399   5.775  0.1890 -0.8177 -0.5792
 6402SOL    HW120105   3.689   4.433   5.733 -0.5994  0.2395 -1.3587
 6402SOL    HW220106   3.609   4.413   5.874  0.5680  0.0778 -0.7104
 6403SOL     OW20107   5.648   6.888   5.663 -0.5441  0.0729 -0.2532
 6403SOL    HW120108   5.730   6.940   5.637 -0.1576 -0.0371  0.6985
 6403SOL    HW220109   5.596   6.865   5.581  0.1307  0.5519 -0.8324
 6404SOL     OW20110   4.509   5.175   1.235 -0.0526 -0.3106  0.2072
 6404SOL    HW120111   4.575   5.143   1.168 -0.1522 -0.6634  0.2783
 6404SOL    HW220112   4.456   5.250   1.196  1.0680  0.6747  0.4827
 6405SOL     OW20113   6.644   2.809   3.559 -0.3112  0.4659 -0.2871
 6405SOL    HW120114   6.573   2.745   3.587 -0.1210 -0.0263 -0.9080
 6405SOL    HW220115   6.632   2.831   3.462  0.5438  0.1570 -0.4738
 6406SOL     OW20116   6.953   3.416   2.931  0.7453  0.1182 -0.5950
 6406SOL    HW120117   6.880   3.461   2.983  0.5592  0.2215 -0.9399
 6406SOL    HW220118   6.920   3.396   2.839 -0.1068 -3.0928  0.2814
 6407SOL     OW20119   0.052   0.694   3.685  0.1067 -0.2541  0.1016
 6407SOL    HW120120   0.122   0.758   3.654 -0.7164  0.6708  0.1033
 6407SOL    HW220121  -0.025   0.694   3.621 -0.1881 -0.7584  0.4401
 6408SOL     OW20122   6.192   0.715   2.968 -0.0923 -0.7455  0.4805
 6408SOL    HW120123   6.264   0.675   3.026 -1.7977 -1.6138  2.0935
 6408SOL    HW220124   6.220   0.806   2.938  1.3331 -0.7383  1.7367
 6409SOL     OW20125   5.563   5.150   2.216  0.1170 -0.2055 -0.5280
 6409SOL    HW120126   5.614   5.212   2.276  0.4711  0.0004 -1.0337
 6409SOL    HW220127   5.580   5.056   2.244 -2.6617 -0.0659  2.0818
 6410SOL     OW20128   1.906   2.339   6.805 -0.0332 -0.1835 -0.1554
 6410SOL    HW120129   1.859   2.295   6.881 -2.6728  1.2211 -0.8746
 6410SOL    HW220130   1.923   2.272   6.733 -1.8776 -0.5678 -0.2734
 6411SOL     OW20131   0.825   4.281   2.691  0.1661 -0.2365  0.1876
 6411SOL    HW120132   0.728   4.266   2.673  0.0252 -0.5197  1.1245
 6411SOL    HW220133   0.856   4.363   2.642 -0.9440  0.8125  1.1900
 6412SOL     OW20134   3.418   3.172   0.162 -0.1011 -0.1421  0.1982
 6412SOL    HW120135   3.504   3.150   0.208  1.2477  1.1834 -1.5560
 6412SOL    HW220136   3.341   3.141   0.218  1.5071 -2.2442  1.3609
 6413SOL     OW20137   0.127   5.796   3.601  0.4277 -0.0029  0.8950
 6413SOL    HW120138   0.043   5.814   3.652 -0.0556  0.4431 -0.0289
 6413SOL    HW220139   0.121   5.706   3.557 -0.6831  1.0222 -1.2289
 6414SOL     OW20140   1.554   1.084   1.968 -0.4069  0.0780  0.2006
 6414SOL    HW120141   1.601   1.109   1.883  0.3075  2.2046  1.1521
 6414SOL    HW220142   1.559   0.985   1.981  0.5987 -0.1465 -1.5812
 6415SOL     OW20143   0.590   4.458   3.971 -0.0073 -0.3724  0.4986
 6415SOL    HW120144   0.598   4.406   4.056 -2.3667 -0.4111  0.7559
 6415SOL    HW220145   0.570   4.395   3.896  1.1026 -0.2346  0.0780
 6416SOL     OW20146   3.235   5.621   0.414 -0.5421 -0.2644 -0.1875
 6416SOL    HW120147   3.162   5.627   0.346  1.5338  1.8476 -2.4185
 6416SOL    HW220148   3.254   5.712   0.450  1.2889 -0.6846 -0.0108
 6417SOL     OW20149   4.393   2.581   6.509 -0.4881 -0.4686  0.0643
 6417SOL    HW120150   4.389   2.622   6.418  2.5063  0.1715  0.1349
 6417SOL    HW220151   4.441   2.643   6.572  3.6006 -3.5348  0.3790
 6418SOL     OW20152   6.580   6.300   0.076 -0.3839  0.6450  0.0266
 6418SOL    HW120153   6.508   6.303   0.007 -0.0234 -2.6271 -0.6367
 6418SOL    HW220154   6.547   6.252   0.157  0.7438 -0.1373  0.0542
 6419SOL     OW20155   2.195   1.133   6.412  0.4056  0.1768 -0.0623
 6419SOL    HW120156   2.203   1.206   6.345  0.8035  0.3290  0.1433
 6419SOL    HW220157   2.153   1.053   6.370  1.5345 -0.0628 -0.7667
 6420SOL     OW20158   2.031   6.716   5.541 -0.7248  0.4972  0.1166
 6420SOL    HW120159   1.974   6.643   5.503 -0.6689  0.0737  0.8309
 6420SOL    HW220160   2.048   6.785   5.471  0.9520 -1.1815 -1.2276
 6421SOL     OW20161   3.985   1.099   1.947 -0.2109 -0.0972  0.1040
 6421SOL    HW120162   4.022   1.136   1.862  0.9525  0.7322  0.9419
 6421SOL    HW220163   4.028   1.011   1.967  0.5014  0.3260  0.4860
 6422SOL     OW20164   1.030   3.276   6.276 -0.1491 -0.7666 -0.0082
 6422SOL    HW120165   1.054   3.320   6.190 -0.7324  0.6693  0.5403
 6422SOL    HW220166   0.956   3.211   6.261  1.1094 -2.0492 -0.9306
 6423SOL     OW20167   6.833   4.776   5.611 -0.0246  0.6776 -0.6100
 6423SOL    HW120168   6.764   4.845   5.594 -2.2453 -1.2074  0.2346
 6423SOL    HW220169   6.853   4.726   5.527 -2.4726 -1.1280 -0.2122
 6424SOL     OW20170   6.256   5.033   5.539 -0.2188  0.4854 -0.2893
 6424SOL    HW120171   6.220   5.074   5.456 -0.5831 -0.7306 -0.7640
 6424SOL    HW220172   6.344   5.074   5.562 -0.8413  1.9138 -0.3950
 6425SOL     OW20173   7.002   4.453   4.533 -0.5291  0.0107  0.4350
 6425SOL    HW120174   6.967   4.491   4.619  0.7631  0.8718  0.6101
 6425SOL    HW220175   7.081   4.506   4.503 -0.7901 -0.4527 -1.1603
 6426SOL     OW20176   5.265   4.456   4.068 -0.5615  0.1500  0.0237
 6426SOL    HW120177   5.167   4.469   4.055 -0.8685 -0.7914  1.2550
 6426SOL    HW220178   5.292   4.367   4.032 -0.3562 -0.0307  0.6138
 6427SOL     OW20179   3.942   3.952   3.837 -0.2112 -0.1478 -0.0590
 6427SOL    HW120180   4.024   3.915   3.879 -0.4011 -1.4095 -0.7726
 6427SOL    HW220181   3.959   3.970   3.740 -0.2719  1.2120  0.1561
 6428SOL     OW20182   0.416   4.219   6.575 -0.0955  0.1440  0.4694
 6428SOL    HW120183   0.503   4.262   6.551 -0.5610  1.1487  0.5519
 6428SOL    HW220184   0.350   4.289   6.603 -0.2813 -0.7629  2.4974
 6429SOL     OW20185   1.694   1.490   5.846 -0.6327  0.1956  0.4757
 6429SOL    HW120186   1.621   1.543   5.803 -0.9804 -0.3090  0.4348
 6429SOL    HW220187   1.734   1.428   5.778 -0.2128  0.4107  0.5177
 6430SOL     OW20188   5.476   2.445   4.359  0.2155  0.0342  0.2316
 6430SOL    HW120189   5.569   2.447   4.321  0.3460  1.0775  0.5768
 6430SOL    HW220190   5.466   2.518   4.427 -1.4243  1.1734 -1.1392
 6431SOL     OW20191   3.014   6.610   2.447 -0.3631  0.0474  0.3449
 6431SOL    HW120192   3.037   6.585   2.354  0.0205 -1.1780  0.7479
 6431SOL    HW220193   3.087   6.667   2.486  1.4368 -2.5812  1.1182
 6432SOL     OW20194   5.208   3.439   6.688  0.3421 -0.2457 -0.0905
 6432SOL    HW120195   5.149   3.422   6.609  1.5792  1.3563 -1.4054
 6432SOL    HW220196   5.201   3.535   6.716 -0.1259 -0.7878  1.8431
 6433SOL     OW20197   3.264   3.517   4.868  0.6707  0.0592  0.3153
 6433SOL    HW120198   3.221   3.546   4.953  2.4164  4.9250 -0.1283
 6433SOL    HW220199   3.363   3.527   4.876  0.9322 -0.1597 -1.9778
 6434SOL     OW20200   6.219   6.529   5.304 -0.0406  0.4347  0.2994
 6434SOL    HW120201   6.317   6.534   5.325  0.3355 -0.5969 -1.0231
 6434SOL    HW220202   6.192   6.610   5.251 -0.0644  1.0437  1.2316
 6435SOL     OW20203   3.957   1.804   1.026  0.4114 -0.4102 -0.3297
 6435SOL    HW120204   3.875   1.786   1.080 -1.5265  1.4568 -2.4254
 6435SOL    HW220205   4.036   1.814   1.087 -0.8204 -2.4121  1.7589
 6436SOL     OW20206   0.524   2.992   4.896 -0.0860  0.3582 -0.5199
 6436SOL    HW120207   0.601   2.932   4.871 -0.0352  0.6663 -1.1327
 6436SOL    HW220208   0.478   3.023   4.812  0.0639  1.4061 -0.2245
 6437SOL     OW20209   2.253   1.318   0.649 -0.5513 -0.4310  0.0409
 6437SOL    HW120210   2.247   1.223   0.619  3.6613 -0.9906  0.3324
 6437SOL    HW220211   2.283   1.375   0.573  1.6164 -0.2896  0.9275
 6438SOL     OW20212   0.245   6.950   0.611 -0.4117 -0.0683  0.2830
 6438SOL    HW120213   0.337   6.985   0.627 -0.3270  0.7654 -1.6445
 6438SOL    HW220214   0.248   6.851   0.600  0.6894  0.1619 -2.0613
 6439SOL     OW20215   4.545   6.369   2.416 -0.1566 -0.5159  0.9581
 6439SOL    HW120216   4.544   6.350   2.317  0.8828  1.7457  0.4385
 6439SOL    HW220217   4.613   6.440   2.435 -1.6236  0.4082  3.0567
 6440SOL     OW20218   3.894   0.702   1.354 -0.4662 -0.2172  0.3350
 6440SOL    HW120219   3.857   0.757   1.280  0.8187  0.2962  0.0467
 6440SOL    HW220220   3.872   0.744   1.442 -0.6747  0.0086  0.1749
 6441SOL     OW20221   6.255   2.511   1.654  0.3858  0.0077  0.0374
 6441SOL    HW120222   6.200   2.481   1.732 -0.2711 -0.8497 -0.7232
 6441SOL    HW220223   6.197   2.518   1.573  1.1528  0.3537 -0.4996
 6442SOL     OW20224   1.884   3.785   5.662 -0.5947  0.2424  0.4148
 6442SOL    HW120225   1.820   3.709   5.669 -0.9110  0.3874 -0.7689
 6442SOL    HW220226   1.866   3.850   5.735 -2.0533  0.4658 -0.1056
 6443SOL     OW20227   4.164   3.754   6.463 -0.1919  0.1275 -0.1404
 6443SOL    HW120228   4.084   3.705   6.499 -0.5664  1.7227  1.3432
 6443SOL    HW220229   4.134   3.816   6.390 -0.0387 -0.3780 -0.6416
 6444SOL     OW20230   1.652   5.962   4.969  0.4711  0.1295  0.3421
 6444SOL    HW120231   1.571   5.989   5.020 -0.3536 -0.0776 -0.8314
 6444SOL    HW220232   1.664   6.022   4.890  1.6726  0.3782  0.6920
 6445SOL     OW20233   3.570   3.680   2.634 -0.2946  0.1034 -0.2927
 6445SOL    HW120234   3.486   3.734   2.634 -1.1837 -1.2194 -1.5999
 6445SOL    HW220235   3.558   3.598   2.579  1.8665 -0.1448 -0.4996
 6446SOL     OW20236   0.405   6.334   6.386 -0.4997 -0.4112 -0.0821
 6446SOL    HW120237   0.443   6.274   6.456 -2.0503 -0.1464  1.0529
 6446SOL    HW220238   0.347   6.281   6.325 -1.7202 -0.1519  0.8088
 6447SOL     OW20239   6.365   1.777   3.309 -0.0737  0.1774  0.2679
 6447SOL    HW120240   6.339   1.712   3.238  0.5265 -1.1312  1.2170
 6447SOL    HW220241   6.342   1.870   3.279 -0.0949 -0.3675 -1.4955
 6448SOL     OW20242   2.824   3.204   6.473  0.3908 -0.1295 -0.3112
 6448SOL    HW120243   2.856   3.128   6.531 -0.2858 -0.3537 -0.2269
 6448SOL    HW220244   2.898   3.232   6.412  0.5061 -1.1719 -0.6672
 6449SOL     OW20245   1.396   3.965   0.245  0.5214  0.1901  0.1303
 6449SOL    HW120246   1.432   4.044   0.194  1.3630  0.6514  1.3879
 6449SOL    HW220247   1.431   3.881   0.204 -1.8824  0.2805 -2.4136
 6450SOL     OW20248   6.600   3.639   5.982  0.0757 -0.4321 -0.2260
 6450SOL    HW120249   6.533   3.699   5.938 -1.1168 -1.1567  0.5462
 6450SOL    HW220250   6.609   3.555   5.929 -0.4395 -0.7869  0.2435
 6451SOL     OW20251   4.909   3.706   0.607  0.3667 -0.0244 -0.0972
 6451SOL    HW120252   4.859   3.765   0.544  1.9726  2.4234  0.7956
 6451SOL    HW220253   5.007   3.728   0.604  0.6440 -0.5187  2.4510
 6452SOL     OW20254   2.118   2.519   4.646  0.1460 -0.0200  0.4466
 6452SOL    HW120255   2.098   2.615   4.625  0.9464 -0.3624 -2.2181
 6452SOL    HW220256   2.034   2.474   4.676 -0.9762  0.8456 -1.1896
 6453SOL     OW20257   2.157   6.742   2.769 -0.1780 -0.6579 -0.6085
 6453SOL    HW120258   2.167   6.760   2.671 -2.3223 -1.9190 -1.1050
 6453SOL    HW220259   2.138   6.828   2.817 -1.5678 -0.3483 -1.6662
 6454SOL     OW20260   6.057   4.012   4.408  0.1129  0.4247  0.3059
 6454SOL    HW120261   5.964   4.033   4.438  0.1684  2.3188 -0.7207
 6454SOL    HW220262   6.059   4.001   4.308  1.0553  0.8541  0.2592
 6455SOL     OW20263   0.768   2.017   5.382 -0.4206  0.3223  0.3507
 6455SOL    HW120264   0.710   2.096   5.405 -0.5422 -0.0486  1.3777
 6455SOL    HW220265   0.822   2.038   5.301 -1.3150  1.0242 -0.0895
 6456SOL     OW20266   4.251   0.706   2.359  0.1907  0.3071 -0.0994
 6456SOL    HW120267   4.213   0.630   2.306 -1.2236  0.2439  0.9342
 6456SOL    HW220268   4.262   0.678   2.454  2.8708  0.3579 -0.3405
 6457SOL     OW20269   4.838   1.340   2.436  0.2480  0.3456 -0.6849
 6457SOL    HW120270   4.807   1.299   2.521  1.0206  2.4773  0.6941
 6457SOL    HW220271   4.935   1.365   2.443  0.2042  1.0103 -1.9999
 6458SOL     OW20272   2.048   5.781   4.473  0.4978 -0.6395  0.1215
 6458SOL    HW120273   2.023   5.863   4.525  1.0497 -1.4866  1.7839
 6458SOL    HW220274   1.978   5.711   4.486  1.1141 -1.1917  0.5139
 6459SOL     OW20275   0.310   2.219   6.438 -0.1821 -0.2803 -1.0204
 6459SOL    HW120276   0.401   2.179   6.447 -0.3901 -0.3958  1.2035
 6459SOL    HW220277   0.245   2.147   6.413  0.0263 -0.6248 -0.5938
 6460SOL     OW20278   1.744   4.967   0.610 -0.2638  0.4485 -0.3018
 6460SOL    HW120279   1.834   4.948   0.570  0.0332  1.2130 -0.0225
 6460SOL    HW220280   1.734   5.065   0.625 -0.3635  0.2092  1.4863
 6461SOL     OW20281   6.501   6.695   6.446  0.0971 -0.3508 -0.0011
 6461SOL    HW120282   6.480   6.669   6.540 -0.4612  0.6965  0.1723
 6461SOL    HW220283   6.491   6.615   6.387 -2.4160 -0.3823  0.3792
 6462SOL     OW20284   1.793   3.852   6.224  0.0852  0.0182  0.4104
 6462SOL    HW120285   1.784   3.892   6.315  1.5068 -1.7203  1.3593
 6462SOL    HW220286   1.714   3.793   6.206  0.4642 -0.7056  1.0899
 6463SOL     OW20287   4.797   3.095   1.010  0.2708  0.1967 -0.3304
 6463SOL    HW120288   4.738   3.032   1.059  0.0602  0.4311 -0.2840
 6463SOL    HW220289   4.747   3.179   0.988  0.3965  0.1369 -0.8472
 6464SOL     OW20290   1.102   4.288   3.313  0.1908 -0.0431  0.0875
 6464SOL    HW120291   1.129   4.291   3.409 -1.2866 -0.8959  0.5668
 6464SOL    HW220292   1.012   4.330   3.303 -0.2464 -1.1127 -0.6794
 6465SOL     OW20293   3.926   2.041   3.166 -0.0371 -0.5236  0.4016
 6465SOL    HW120294   3.916   1.949   3.128  0.7540 -1.5670  2.5455
 6465SOL    HW220295   3.840   2.091   3.155 -0.1872 -1.1607 -1.6231
 6466SOL     OW20296   6.771   4.357   5.831  0.1057  0.3735  0.3389
 6466SOL    HW120297   6.820   4.296   5.768 -1.1690 -1.8477  1.3664
 6466SOL    HW220298   6.672   4.349   5.815 -0.3577 -1.2078  3.2944
 6467SOL     OW20299   1.179   3.170   5.924 -0.7168  0.2466  0.0328
 6467SOL    HW120300   1.087   3.209   5.916 -0.1298  1.4756 -1.2963
 6467SOL    HW220301   1.241   3.238   5.962 -0.3823 -0.6433  1.1183
 6468SOL     OW20302   1.210   1.279   0.576 -0.0247 -0.4824 -0.1126
 6468SOL    HW120303   1.180   1.327   0.494  2.5526  3.1808  0.8514
 6468SOL    HW220304   1.130   1.259   0.634 -1.7730 -2.3501 -2.9169
 6469SOL     OW20305   2.338   1.725   3.518 -0.1517  0.0470  0.2792
 6469SOL    HW120306   2.370   1.631   3.520  0.0834  0.1013 -0.6778
 6469SOL    HW220307   2.316   1.751   3.424 -0.6974  0.7850  0.6009
 6470SOL     OW20308   0.212   2.453   6.559  0.3102  0.2978  0.4920
 6470SOL    HW120309   0.262   2.368   6.545  2.1169  1.4481 -0.4529
 6470SOL    HW220310   0.198   2.498   6.470  0.0791  1.3428  1.0409
 6471SOL     OW20311   6.508   6.402   6.600  0.6208  0.0862 -0.4542
 6471SOL    HW120312   6.516   6.369   6.506 -0.5562 -1.1258 -0.1668
 6471SOL    HW220313   6.411   6.406   6.625  0.9481 -0.1943  0.9134
 6472SOL     OW20314   1.392   5.313   2.583 -0.3003 -0.3915 -0.1256
 6472SOL    HW120315   1.405   5.214   2.587  2.8688 -0.1826 -1.5957
 6472SOL    HW220316   1.458   5.358   2.643 -0.5836  0.8549 -0.7021
 6473SOL     OW20317   2.779   1.285   3.998  0.2624  0.0809  0.2100
 6473SOL    HW120318   2.803   1.208   3.939 -0.3064 -0.2796  0.4398
 6473SOL    HW220319   2.692   1.325   3.967 -0.1637 -0.2603  0.9327
 6474SOL     OW20320   3.573   0.151   4.158  0.0580  0.0125 -1.1264
 6474SOL    HW120321   3.565   0.245   4.193  0.1961  0.0462 -1.1834
 6474SOL    HW220322   3.653   0.107   4.200 -0.7662 -0.5232 -0.0916
 6475SOL     OW20323   5.751   3.970   3.027 -0.4985  0.8373 -0.0060
 6475SOL    HW120324   5.661   3.930   3.007 -0.3396  0.9194 -0.9212
 6475SOL    HW220325   5.743   4.070   3.029 -0.7535  0.8115  1.5859
 6476SOL     OW20326   3.038   1.333   1.724  0.5233 -0.2441  0.5117
 6476SOL    HW120327   3.017   1.359   1.818  1.6266 -0.2709  0.7681
 6476SOL    HW220328   2.971   1.265   1.693  0.0511 -0.1109  1.2060
 6477SOL     OW20329   6.882   6.327   2.272 -0.5093  0.3743  0.4872
 6477SOL    HW120330   6.926   6.307   2.360  0.3897  1.8657  0.3985
 6477SOL    HW220331   6.823   6.407   2.282  0.1744  0.9997 -0.4377
 6478SOL     OW20332   3.076   6.994   6.975  0.2777 -0.3823 -0.4510
 6478SOL    HW120333   3.005   6.976   7.042 -1.0464  0.3510 -1.6208
 6478SOL    HW220334   3.036   7.005   6.885  1.9025 -0.1966 -1.1968
 6479SOL     OW20335   5.711   6.114   3.276  0.1977 -0.0481 -0.0127
 6479SOL    HW120336   5.671   6.064   3.200  0.0926 -0.6589  0.4411
 6479SOL    HW220337   5.651   6.109   3.356 -0.9692  2.7318 -0.6012
 6480SOL     OW20338   4.001   6.929   4.511 -0.1767 -0.3562  0.0399
 6480SOL    HW120339   3.965   6.985   4.436  0.1086 -0.0897  0.1000
 6480SOL    HW220340   4.079   6.976   4.554  1.0871 -1.4886 -0.9137
 6481SOL     OW20341   3.828   2.947   3.247 -0.2455  0.4582  0.2754
 6481SOL    HW120342   3.881   2.917   3.168  1.2101  0.3763  1.2387
 6481SOL    HW220343   3.872   3.027   3.288 -1.5337  1.1156  0.4316
 6482SOL     OW20344   6.542   4.375   5.609  0.3386 -0.2681  0.9398
 6482SOL    HW120345   6.454   4.332   5.629  1.2848 -2.6980  0.1735
 6482SOL    HW220346   6.541   4.470   5.642 -3.1626  0.3633 -0.5376
 6483SOL     OW20347   2.473   6.259   5.077  0.0346  0.4608 -0.1625
 6483SOL    HW120348   2.479   6.182   5.012 -1.1741  1.6974 -1.8371
 6483SOL    HW220349   2.556   6.314   5.071  0.2170  0.1880 -0.1642
 6484SOL     OW20350   1.739   2.510   2.569  0.4983 -0.2040  0.3530
 6484SOL    HW120351   1.748   2.605   2.539  0.4574 -0.4984 -0.6501
 6484SOL    HW220352   1.828   2.464   2.560 -0.2905 -1.3685 -3.3005
 6485SOL     OW20353   2.838   6.635   5.084 -0.0192 -0.2042  0.1907
 6485SOL    HW120354   2.875   6.704   5.146  1.2887 -0.1741 -0.6110
 6485SOL    HW220355   2.912   6.580   5.047 -0.6981  0.2543 -1.9441
 6486SOL     OW20356   2.144   6.246   1.508  0.3236 -0.2030  0.3579
 6486SOL    HW120357   2.114   6.322   1.565  0.3279  1.4890 -1.7458
 6486SOL    HW220358   2.074   6.226   1.440  1.8510  0.5526 -1.5473
 6487SOL     OW20359   5.436   4.616   4.325  0.7746 -0.5268 -0.1437
 6487SOL    HW120360   5.354   4.657   4.366  0.3812  1.0084 -2.3043
 6487SOL    HW220361   5.410   4.534   4.274  0.8595 -0.9213  0.4299
 6488SOL     OW20362   3.068   6.021   6.346 -0.0953 -0.9335  0.0424
 6488SOL    HW120363   3.066   6.007   6.445  0.7240 -0.8044  0.0846
 6488SOL    HW220364   3.033   6.113   6.325 -2.4084 -1.7550  0.0131
 6489SOL     OW20365   5.587   0.152   4.449  0.1895 -0.4244  0.1292
 6489SOL    HW120366   5.668   0.169   4.505  0.9382  2.7514 -1.6295
 6489SOL    HW220367   5.514   0.115   4.505  2.2143 -1.5436  2.1872
 6490SOL     OW20368   1.700   1.673   2.084 -0.0816  0.4518 -0.5928
 6490SOL    HW120369   1.607   1.673   2.047 -0.9725 -0.8179  1.4425
 6490SOL    HW220370   1.754   1.601   2.041 -0.1817  0.8711 -1.4314
 6491SOL     OW20371   1.297   0.072   0.484  0.0222  0.3406 -0.4705
 6491SOL    HW120372   1.216   0.014   0.481  1.0043 -1.0375 -2.0198
 6491SOL    HW220373   1.373   0.021   0.524  0.3378  1.3575  0.2674
 6492SOL     OW20374   2.965   4.552   6.613  0.2043  0.1430  0.0119
 6492SOL    HW120375   3.044   4.612   6.629 -0.2126  0.6067  0.3752
 6492SOL    HW220376   2.910   4.588   6.537  0.2663 -0.1021 -0.1507
 6493SOL     OW20377   0.778   2.966   5.916  0.9675  0.1471 -0.1993
 6493SOL    HW120378   0.853   2.907   5.888  0.0979 -0.7649 -0.6824
 6493SOL    HW220379   0.699   2.909   5.941  0.4241  1.0793  0.2535
 6494SOL     OW20380   6.213   6.931   2.913 -0.2279 -0.0852  0.3520
 6494SOL    HW120381   6.275   6.914   2.990  1.2658  0.3978 -0.7027
 6494SOL    HW220382   6.235   7.019   2.871 -2.5588  0.7716  0.7673
 6495SOL     OW20383   6.544   1.823   4.872  0.8174 -0.1864 -0.2859
 6495SOL    HW120384   6.590   1.895   4.820  0.4510 -0.4022 -0.9129
 6495SOL    HW220385   6.559   1.735   4.828  1.5327 -0.5534  0.6548
 6496SOL     OW20386   3.464   1.892   2.858  0.3511  0.0245  0.2943
 6496SOL    HW120387   3.483   1.990   2.871  2.4941 -0.1891 -0.7249
 6496SOL    HW220388   3.469   1.870   2.761 -1.3985 -0.9090  0.3756
 6497SOL     OW20389   0.488   2.278   0.018 -0.7445  0.4284  0.2163
 6497SOL    HW120390   0.462   2.342  -0.055  4.7263  0.1613 -2.5097
 6497SOL    HW220391   0.435   2.194   0.009  0.0231  0.1684 -4.0563
 6498SOL     OW20392   1.634   4.955   5.478  0.3882  0.9813  0.3182
 6498SOL    HW120393   1.643   5.010   5.560 -1.2780  1.1559  0.4233
 6498SOL    HW220394   1.672   4.863   5.495  1.2246  1.4111  0.8368
 6499SOL     OW20395   5.004   2.831   3.303 -0.6480  0.2724  0.0704
 6499SOL    HW120396   5.002   2.931   3.297 -0.7925  0.2896  0.4021
 6499SOL    HW220397   5.081   2.801   3.358 -1.0970  0.2393  0.6946
 6500SOL     OW20398   0.921   4.140   4.082 -0.2369 -0.6441  0.1187
 6500SOL    HW120399   0.992   4.101   4.024  1.5764 -0.1183  1.8824
 6500SOL    HW220400   0.895   4.230   4.047  1.0239 -0.2136  0.2492
 6501SOL     OW20401   5.192   0.882   1.529  0.0821 -0.9513  0.0641
 6501SOL    HW120402   5.211   0.878   1.430  1.1317  0.0314  0.1973
 6501SOL    HW220403   5.159   0.793   1.560  0.5326 -1.5234 -1.0243
 6502SOL     OW20404   0.102   3.256   3.513  0.1217 -0.2197  0.1831
 6502SOL    HW120405   0.008   3.249   3.546 -0.0418 -1.0129 -0.4323
 6502SOL    HW220406   0.165   3.260   3.590 -0.5180  2.4884  0.6964
 6503SOL     OW20407   0.414   2.945   5.664 -0.6066  0.4961 -0.6243
 6503SOL    HW120408   0.471   2.863   5.659  1.2280  1.5215  1.5454
 6503SOL    HW220409   0.362   2.945   5.749  0.5321  2.1621  0.1437
 6504SOL     OW20410   3.690   4.830   5.312  0.2770 -0.1275 -0.0686
 6504SOL    HW120411   3.748   4.892   5.365  1.6099  0.4021 -2.0117
 6504SOL    HW220412   3.703   4.736   5.344  0.1066  0.2871  1.2904
 6505SOL     OW20413   0.580   5.992   0.118  0.5968 -0.0185  0.1644
 6505SOL    HW120414   0.564   6.091   0.120  1.2939  0.1410 -1.3562
 6505SOL    HW220415   0.658   5.972   0.060  0.2914 -1.5035  0.2304
 6506SOL     OW20416   0.237   5.831   2.878  1.3129  0.3327  0.1148
 6506SOL    HW120417   0.244   5.795   2.971 -2.4953  0.9221  0.7805
 6506SOL    HW220418   0.219   5.929   2.881 -0.3783  0.1025 -1.1355
 6507SOL     OW20419   4.150   0.034   1.133  0.3419 -0.9141 -0.6593
 6507SOL    HW120420   4.106  -0.008   1.053 -1.1224  0.0414 -0.4055
 6507SOL    HW220421   4.187   0.123   1.107  1.8601 -1.5362 -0.7668
 6508SOL     OW20422   1.728   5.779   4.325  0.5031 -0.4220 -0.2081
 6508SOL    HW120423   1.640   5.760   4.281 -0.5769  1.4696  0.9878
 6508SOL    HW220424   1.746   5.709   4.394 -0.7044 -0.1609  0.3981
 6509SOL     OW20425   1.667   0.733   6.304  0.0533  0.0842  0.2414
 6509SOL    HW120426   1.589   0.733   6.368 -0.0806 -0.9934  0.0992
 6509SOL    HW220427   1.674   0.823   6.262 -2.0210 -0.1712 -0.8036
 6510SOL     OW20428   2.191   5.844   5.390  0.2975 -0.2908  0.0760
 6510SOL    HW120429   2.151   5.760   5.353  0.0899 -0.2907  0.2916
 6510SOL    HW220430   2.290   5.840   5.382  0.3338 -0.8685  0.7170
 6511SOL     OW20431   3.806   1.883   5.313  0.3496 -0.0110  0.2064
 6511SOL    HW120432   3.788   1.935   5.396 -2.7403 -0.5785  0.0202
 6511SOL    HW220433   3.783   1.939   5.233  2.3033  0.1728 -0.2773
 6512SOL     OW20434   5.562   2.264   0.360  0.3972 -0.6084 -0.3549
 6512SOL    HW120435   5.467   2.293   0.367  0.1268 -1.6573  0.4833
 6512SOL    HW220436   5.584   2.246   0.264  0.4114  1.6981 -0.8532
 6513SOL     OW20437   3.195   5.192   3.105 -0.1930 -0.0543  0.0249
 6513SOL    HW120438   3.213   5.262   3.174  0.0090 -1.3358  1.3140
 6513SOL    HW220439   3.200   5.102   3.147 -1.1029 -0.8306 -1.4564
 6514SOL     OW20440   6.689   1.921   6.630 -0.9702  0.1672 -0.0277
 6514SOL    HW120441   6.669   1.882   6.541  2.1280 -1.1674 -0.2735
 6514SOL    HW220442   6.758   1.865   6.677 -0.6127  2.2128  2.1033
 6515SOL     OW20443   1.238   4.006   1.765 -0.4277 -0.3478  1.0139
 6515SOL    HW120444   1.268   4.065   1.840 -0.5237 -0.7520  1.3830
 6515SOL    HW220445   1.299   3.927   1.759 -1.4863 -1.2799  1.9006
 6516SOL     OW20446   0.538   4.046   2.426 -0.1080 -0.5827 -0.0999
 6516SOL    HW120447   0.588   4.060   2.340 -0.9807  2.0614 -0.2732
 6516SOL    HW220448   0.602   4.026   2.499  1.0787  1.0235 -0.6408
 6517SOL     OW20449   0.870   2.765   6.977 -0.4589  0.5279  0.1509
 6517SOL    HW120450   0.804   2.743   6.904  1.4133 -1.9611 -0.9699
 6517SOL    HW220451   0.896   2.861   6.971 -0.9533  0.5855 -2.0231
 6518SOL     OW20452   6.840   0.995   1.070 -0.3144  0.1361  0.3178
 6518SOL    HW120453   6.919   0.938   1.046  0.0310  0.4203  0.7728
 6518SOL    HW220454   6.771   0.938   1.114  0.4644  0.2399  1.7386
 6519SOL     OW20455   1.137   1.408   3.643  0.2415  0.0129 -0.5743
 6519SOL    HW120456   1.125   1.360   3.556  1.4684 -0.1892 -0.6437
 6519SOL    HW220457   1.056   1.393   3.700 -0.7905  0.5407 -1.8461
 6520SOL     OW20458   0.424   4.931   0.977 -0.2975 -0.1703 -0.1521
 6520SOL    HW120459   0.389   5.003   1.037  1.2686 -0.0612  0.6768
 6520SOL    HW220460   0.496   4.968   0.918 -2.1334 -0.1590 -2.5309
 6521SOL     OW20461   0.502   3.783   5.110  0.3354  0.6964 -0.1437
 6521SOL    HW120462   0.446   3.703   5.135  0.7931 -0.4071 -2.4130
 6521SOL    HW220463   0.444   3.853   5.070  0.2018  0.7457  0.1306
 6522SOL     OW20464   1.877   1.725   5.356  0.1458 -0.1262  0.2590
 6522SOL    HW120465   1.907   1.649   5.414  0.3330  0.0376  0.3813
 6522SOL    HW220466   1.910   1.811   5.395  1.8299 -0.1272 -1.0160
 6523SOL     OW20467   0.093   6.353   2.128  0.1488 -0.3999  1.2241
 6523SOL    HW120468   0.154   6.283   2.165 -0.4239 -0.4208  2.1639
 6523SOL    HW220469   0.002   6.341   2.166 -0.7033 -0.9356 -0.8761
 6524SOL     OW20470   2.215   2.903   1.706  0.2645 -0.2116 -0.0565
 6524SOL    HW120471   2.245   2.882   1.799  0.0548 -0.8489 -0.1238
 6524SOL    HW220472   2.250   2.993   1.678 -0.7099  0.5557  1.1002
 6525SOL     OW20473   6.607   5.374   3.540 -0.2648  0.2564 -0.2831
 6525SOL    HW120474   6.687   5.434   3.549 -0.7433  0.6529  2.0166
 6525SOL    HW220475   6.547   5.410   3.469  0.3642  1.4434 -0.2581
 6526SOL     OW20476   1.723   5.715   0.616  0.1478  0.5884 -0.4745
 6526SOL    HW120477   1.647   5.661   0.579  1.1934 -0.0360 -1.7736
 6526SOL    HW220478   1.746   5.788   0.552  0.8699  0.5502 -0.2653
 6527SOL     OW20479   3.934   1.932   1.911 -0.3617 -0.4506  0.4586
 6527SOL    HW120480   3.973   2.024   1.906 -2.0937  0.3053  0.3135
 6527SOL    HW220481   3.867   1.928   1.985 -0.6881 -1.4488  0.1277
 6528SOL     OW20482   3.553   0.459   0.086 -0.0385 -0.3325  0.1192
 6528SOL    HW120483   3.555   0.361   0.070 -0.4355 -0.0093 -2.3665
 6528SOL    HW220484   3.607   0.481   0.168 -1.0818 -2.7025  1.5452
 6529SOL     OW20485   5.203   0.361   2.620 -0.3133 -0.5574  0.4217
 6529SOL    HW120486   5.260   0.437   2.652 -0.2240 -1.1625  1.7541
 6529SOL    HW220487   5.191   0.368   2.521  0.6847  0.5164  0.3564
 6530SOL     OW20488   0.655   2.601   3.155 -0.1248 -0.7435 -0.3649
 6530SOL    HW120489   0.598   2.612   3.073  0.2322 -2.1039 -0.8201
 6530SOL    HW220490   0.637   2.677   3.218 -1.3725 -0.3728 -1.1251
 6531SOL     OW20491   3.177   3.719   4.162 -0.9807 -0.4728  0.3394
 6531SOL    HW120492   3.204   3.813   4.142 -0.6018 -0.4504  0.9433
 6531SOL    HW220493   3.197   3.697   4.258 -0.5664 -1.3374  0.0736
 6532SOL     OW20494   0.922   6.510   2.726 -0.5106  0.0847 -0.0955
 6532SOL    HW120495   0.914   6.534   2.629 -0.1621  2.2147  0.3354
 6532SOL    HW220496   0.915   6.411   2.737  0.1185 -0.2734 -2.3552
 6533SOL     OW20497   4.248   4.739   1.773 -0.2510 -0.1091 -0.2394
 6533SOL    HW120498   4.196   4.758   1.690 -0.8423 -0.4461  0.0488
 6533SOL    HW220499   4.277   4.643   1.773 -1.8064 -0.6171  0.7710
 6534SOL     OW20500   1.425   5.798   2.994 -0.4723 -0.3717  0.6696
 6534SOL    HW120501   1.522   5.808   2.970 -0.8674  0.8123 -0.5827
 6534SOL    HW220502   1.377   5.751   2.919 -1.6862  3.1160 -0.9407
 6535SOL     OW20503   5.699   4.335   4.373  0.2845 -0.2465 -0.0047
 6535SOL    HW120504   5.738   4.256   4.422  0.2301 -0.0824  0.3063
 6535SOL    HW220505   5.750   4.350   4.288  1.3974  0.4172  0.7485
 6536SOL     OW20506   0.230   2.633   4.274 -0.7051  0.8280  0.4183
 6536SOL    HW120507   0.329   2.624   4.285 -0.6227  3.3482  3.1054
 6536SOL    HW220508   0.210   2.689   4.194 -0.1032 -0.9211 -1.0137
 6537SOL     OW20509   5.408   5.504   4.489  0.5290 -0.8231  0.6393
 6537SOL    HW120510   5.390   5.527   4.585 -0.1437 -2.0656  0.8368
 6537SOL    HW220511   5.366   5.573   4.430 -1.7931 -1.6455  1.2069
 6538SOL     OW20512   1.279   1.576   6.066 -0.0083 -0.2268 -0.4895
 6538SOL    HW120513   1.355   1.610   6.121 -0.5160 -2.6069  1.9479
 6538SOL    HW220514   1.210   1.647   6.057  0.3136  0.4424  1.6747
 6539SOL     OW20515   5.805   1.351   0.284 -0.2373  0.6154  0.0656
 6539SOL    HW120516   5.717   1.385   0.316  0.7472  1.4044  2.0660
 6539SOL    HW220517   5.806   1.251   0.288 -0.9649  0.6071  0.1838
 6540SOL     OW20518   6.953   1.590   5.083 -0.1157 -0.1713  0.5556
 6540SOL    HW120519   6.997   1.540   5.158  2.5439  1.4886  0.2474
 6540SOL    HW220520   6.969   1.688   5.095  0.9684  0.1267 -2.4552
 6541SOL     OW20521   4.106   2.427   6.171  0.5273  0.1851  0.5958
 6541SOL    HW120522   4.087   2.330   6.183 -2.0361  0.4740 -0.4403
 6541SOL    HW220523   4.036   2.481   6.219  0.4453  1.4508 -0.8742
 6542SOL     OW20524   1.984   3.910   3.518 -0.1396 -0.1434 -0.0465
 6542SOL    HW120525   1.903   3.968   3.510 -0.8153 -1.0722 -0.1699
 6542SOL    HW220526   2.014   3.882   3.427  0.7434  0.7350 -0.0468
 6543SOL     OW20527   4.394   1.612   5.345  0.1023  0.4275  0.0595
 6543SOL    HW120528   4.462   1.543   5.317 -0.8196 -0.4572 -0.0459
 6543SOL    HW220529   4.334   1.633   5.268 -1.2847 -0.6396  0.7990
 6544SOL     OW20530   1.043   0.501   0.378 -0.2172 -0.3981 -0.6007
 6544SOL    HW120531   1.114   0.568   0.358  0.5504 -1.2302 -0.7124
 6544SOL    HW220532   0.971   0.507   0.310 -0.1852  0.3475 -0.5748
 6545SOL     OW20533   3.440   0.324   1.769 -0.4413 -0.0123 -0.5240
 6545SOL    HW120534   3.538   0.302   1.762 -0.3515 -0.2571  0.9705
 6545SOL    HW220535   3.404   0.285   1.854 -1.9041 -0.1147 -1.1641
 6546SOL     OW20536   4.833   1.947   6.976 -0.4697 -0.5785  0.1385
 6546SOL    HW120537   4.883   1.998   7.046 -1.6714  2.2484 -0.8934
 6546SOL    HW220538   4.772   1.881   7.021  0.8223 -0.8636  1.5754
 6547SOL     OW20539   0.227   5.752   0.642 -0.3030  0.6988 -0.2596
 6547SOL    HW120540   0.222   5.652   0.639  1.3754  0.3252  3.4038
 6547SOL    HW220541   0.245   5.788   0.550 -0.8037 -2.3320 -1.6563
 6548SOL     OW20542   6.968   0.513   5.244  0.2529 -0.1814 -0.5182
 6548SOL    HW120543   7.009   0.599   5.272 -0.1821  0.1340 -0.8429
 6548SOL    HW220544   6.935   0.520   5.150 -0.6889 -0.3681 -0.2170
 6549SOL     OW20545   5.613   1.562   4.062 -0.1809  0.2505  0.6085
 6549SOL    HW120546   5.607   1.532   4.158 -2.2588 -1.6611 -0.0143
 6549SOL    HW220547   5.662   1.493   4.009 -0.0860  0.7149  0.0882
 6550SOL     OW20548   0.051   1.077   3.454 -0.0289 -0.2168  0.1608
 6550SOL    HW120549  -0.029   1.018   3.439 -0.8487  0.0590  2.9377
 6550SOL    HW220550   0.023   1.173   3.444 -0.1410 -0.1109  1.3527
 6551SOL     OW20551   3.449   1.116   1.150  0.9849 -0.0768 -0.2343
 6551SOL    HW120552   3.513   1.048   1.115  0.4431  0.3458 -2.1865
 6551SOL    HW220553   3.408   1.166   1.074  1.1697  2.3043  1.1086
 6552SOL     OW20554   1.416   5.270   0.577  0.2732 -0.0374 -0.2286
 6552SOL    HW120555   1.357   5.196   0.545  1.3022 -0.5379 -1.0312
 6552SOL    HW220556   1.379   5.307   0.662  0.4211 -2.3725  0.9416
 6553SOL     OW20557   1.089   3.350   2.585 -0.1033 -0.0069  0.2420
 6553SOL    HW120558   1.055   3.437   2.549  0.3714  0.2126  0.3119
 6553SOL    HW220559   1.124   3.364   2.678 -0.5423 -0.3910  0.4658
 6554SOL     OW20560   1.358   1.457   4.573 -0.3587  0.2225  0.3000
 6554SOL    HW120561   1.332   1.434   4.480 -0.3920 -1.2123  0.6368
 6554SOL    HW220562   1.279   1.492   4.623 -0.2057  1.5666 -0.3537
 6555SOL     OW20563   0.417   5.597   5.744 -0.9064  0.1777 -0.2885
 6555SOL    HW120564   0.429   5.516   5.801 -0.5763  0.1757 -0.3609
 6555SOL    HW220565   0.363   5.665   5.793 -1.7504 -0.3459 -0.4784
 6556SOL     OW20566   5.145   3.929   3.941  0.3142 -0.4114 -0.4506
 6556SOL    HW120567   5.060   3.885   3.913  0.0568 -0.4598  0.3945
 6556SOL    HW220568   5.141   3.952   4.038  1.2129 -0.2845 -0.4337
 6557SOL     OW20569   1.877   0.013   2.621  0.0513 -0.8886 -0.3398
 6557SOL    HW120570   1.852  -0.070   2.571 -2.5084 -0.1175 -0.4823
 6557SOL    HW220571   1.804   0.080   2.613  0.3691  0.0065  2.8573
 6558SOL     OW20572   6.244   6.454   6.164 -0.0825 -0.0030 -0.0448
 6558SOL    HW120573   6.284   6.367   6.191  1.4683  0.7659  0.2362
 6558SOL    HW220574   6.186   6.489   6.238  1.4302  0.4648  0.9510
 6559SOL     OW20575   7.003   5.142   5.330  0.0498 -0.0508 -0.7856
 6559SOL    HW120576   7.018   5.053   5.372 -0.0277  0.3436  0.0916
 6559SOL    HW220577   6.930   5.135   5.262 -1.7892 -0.1288  1.1198
 6560SOL     OW20578   5.140   5.854   0.262  0.3665 -0.3879  0.2240
 6560SOL    HW120579   5.145   5.757   0.285 -0.5233 -0.6651 -0.6706
 6560SOL    HW220580   5.165   5.867   0.166  2.7801  0.5818  0.9249
 6561SOL     OW20581   1.878   4.475   1.281  0.3094  0.1063  0.2061
 6561SOL    HW120582   1.972   4.494   1.310  0.1602 -0.8202  1.3874
 6561SOL    HW220583   1.877   4.393   1.224  0.2399  0.1878  0.0914
 6562SOL     OW20584   5.046   2.203   2.763  0.1845  0.2788  0.1975
 6562SOL    HW120585   5.083   2.119   2.722  0.5031  0.4076  0.2195
 6562SOL    HW220586   5.014   2.183   2.856 -0.1062  0.0932  0.0592
 6563SOL     OW20587   6.607   5.368   4.816 -0.0894 -0.4251 -0.1590
 6563SOL    HW120588   6.529   5.316   4.782  0.1687 -0.1720 -1.1901
 6563SOL    HW220589   6.692   5.325   4.784  0.1194  1.1292 -1.9070
 6564SOL     OW20590   4.616   2.617   3.329 -0.2571 -1.0441  0.0902
 6564SOL    HW120591   4.711   2.636   3.304 -0.0248 -0.4528  1.3541
 6564SOL    HW220592   4.609   2.605   3.428 -1.9078  1.7497  0.4384
 6565SOL     OW20593   6.233   6.319   0.600  0.1626 -0.2950 -0.1107
 6565SOL    HW120594   6.302   6.247   0.610 -0.9278 -1.8076 -2.6625
 6565SOL    HW220595   6.166   6.311   0.675 -0.3066 -2.4176 -0.6808
 6566SOL     OW20596   4.648   4.372   2.642 -0.3305 -1.4787 -0.3796
 6566SOL    HW120597   4.574   4.396   2.705  0.0552  0.1931 -0.5216
 6566SOL    HW220598   4.616   4.383   2.548  0.0999 -0.7188 -0.4399
 6567SOL     OW20599   6.055   0.648   2.742 -0.4511 -0.2219 -0.1473
 6567SOL    HW120600   6.016   0.558   2.760  0.4370 -1.0049 -1.9141
 6567SOL    HW220601   6.085   0.688   2.829 -3.0864 -0.5053  0.9889
 6568SOL     OW20602   3.671   0.882   1.986  0.4692 -0.4189 -0.4660
 6568SOL    HW120603   3.702   0.917   2.075  0.4360  0.1352 -0.6658
 6568SOL    HW220604   3.670   0.957   1.920 -0.8464 -0.5342 -0.5879
 6569SOL     OW20605   0.656   3.508   5.188  0.5481  0.2925  0.8903
 6569SOL    HW120606   0.645   3.591   5.134 -1.7325  0.3486  1.3215
 6569SOL    HW220607   0.567   3.464   5.200  1.7738 -2.7016 -0.0376
 6570SOL     OW20608   4.284   1.243   1.886 -0.5188 -0.3070  0.0644
 6570SOL    HW120609   4.267   1.162   1.943 -1.6917 -0.4339 -0.4514
 6570SOL    HW220610   4.305   1.321   1.945  2.0000 -1.2466  0.5390
 6571SOL     OW20611   4.593   0.592   5.141  0.4473 -0.0635 -0.0470
 6571SOL    HW120612   4.606   0.651   5.061 -1.2848  1.6790  0.8612
 6571SOL    HW220613   4.568   0.648   5.220 -0.9425 -1.9793  0.9656
 6572SOL     OW20614   2.326   6.803   3.535 -0.1462 -0.0315  0.4432
 6572SOL    HW120615   2.331   6.883   3.595  0.2645 -1.0788  1.8452
 6572SOL    HW220616   2.386   6.731   3.570 -0.6243 -1.0201 -0.7053
 6573SOL     OW20617   0.684   1.551   4.835  0.0377  0.1753 -0.2130
 6573SOL    HW120618   0.700   1.582   4.741 -0.4835  0.3798 -0.2363
 6573SOL    HW220619   0.586   1.536   4.849  0.2109 -0.8423 -0.0057
 6574SOL     OW20620   1.831   4.807   3.219 -0.2381  0.1089  0.2891
 6574SOL    HW120621   1.888   4.889   3.209  2.8096 -1.9767 -0.5467
 6574SOL    HW220622   1.814   4.790   3.316  3.5214 -0.9762  0.8889
 6575SOL     OW20623   1.487   6.676   3.604  0.6176 -0.2453 -0.2828
 6575SOL    HW120624   1.423   6.690   3.680  0.9463  0.8761 -0.1928
 6575SOL    HW220625   1.445   6.709   3.519  0.6651 -0.4937 -0.4022
 6576SOL     OW20626   4.198   0.283   1.067  0.2254 -0.2925 -0.4224
 6576SOL    HW120627   4.290   0.267   1.030  0.3207  2.6364 -1.7044
 6576SOL    HW220628   4.196   0.371   1.113 -2.1262  0.0282 -1.0244
 6577SOL     OW20629   5.432   2.415   2.273  0.1556 -0.8499  0.3374
 6577SOL    HW120630   5.368   2.462   2.212  0.0383 -2.7959 -1.1190
 6577SOL    HW220631   5.437   2.465   2.360  0.7721  2.3445 -1.3702
 6578SOL     OW20632   2.699   5.034   1.012  0.2868 -0.2738 -0.0509
 6578SOL    HW120633   2.613   4.992   1.039 -0.2477  0.0005 -1.2489
 6578SOL    HW220634   2.681   5.109   0.949  1.2639  1.2577  1.3960
 6579SOL     OW20635   0.056   1.592   3.917 -0.0235  0.1392  0.2778
 6579SOL    HW120636   0.113   1.637   3.986  0.3490  1.0964 -0.6290
 6579SOL    HW220637  -0.034   1.573   3.955  0.6486 -0.7348  1.5027
 6580SOL     OW20638   7.010   2.451   6.716  0.5063  0.2758 -0.0457
 6580SOL    HW120639   7.090   2.459   6.657  0.6966 -0.1009  0.1559
 6580SOL    HW220640   6.930   2.490   6.670  0.4467 -0.8356 -0.9424
 6581SOL     OW20641   6.203   3.372   0.487  0.2982  0.1538 -0.3700
 6581SOL    HW120642   6.203   3.472   0.476  0.6550  0.4402  1.7696
 6581SOL    HW220643   6.268   3.332   0.422  0.3672  1.3316 -1.0586
 6582SOL     OW20644   5.754   0.792   3.537 -0.0838  0.3401  0.3900
 6582SOL    HW120645   5.792   0.807   3.445 -1.9604  0.3340 -0.4263
 6582SOL    HW220646   5.781   0.702   3.570  0.2479  0.1619 -0.3443
 6583SOL     OW20647   3.838   5.452   0.709 -0.0132 -0.0279 -0.0542
 6583SOL    HW120648   3.857   5.378   0.774  0.0418 -2.0371 -2.2423
 6583SOL    HW220649   3.746   5.487   0.726 -0.2244 -0.9090  0.7419
 6584SOL     OW20650   4.940   2.038   0.634 -0.3280  0.2515  0.3956
 6584SOL    HW120651   4.854   1.993   0.611 -0.5981 -0.7242  2.9915
 6584SOL    HW220652   4.922   2.135   0.654 -0.0039  1.2777 -3.5476
 6585SOL     OW20653   6.484   6.737   2.844  0.2818  0.4748 -0.2982
 6585SOL    HW120654   6.511   6.830   2.818  1.9678 -0.1672 -0.9647
 6585SOL    HW220655   6.444   6.690   2.766  1.3768 -0.0272 -0.5825
 6586SOL     OW20656   0.990   0.723   1.062 -0.0534 -0.0395 -0.0343
 6586SOL    HW120657   1.045   0.682   0.989  2.3493  1.1273  1.0053
 6586SOL    HW220658   1.046   0.731   1.145 -1.4869  2.0967  0.8106
 6587SOL     OW20659   2.061   4.359   4.529 -0.0558  0.2272  0.3643
 6587SOL    HW120660   2.100   4.290   4.589 -0.1849 -0.5137 -0.3871
 6587SOL    HW220661   1.961   4.355   4.534 -0.0639  0.3136  0.2739
 6588SOL     OW20662   6.978   6.629   6.420 -0.3618  0.3074 -0.2727
 6588SOL    HW120663   7.068   6.587   6.432  0.2348  1.2009 -1.4498
 6588SOL    HW220664   6.928   6.580   6.348 -0.4477  0.4104 -0.2831
 6589SOL     OW20665   2.337   6.580   1.771 -0.4172  0.1962  0.4510
 6589SOL    HW120666   2.302   6.575   1.677  0.0429  1.7692  0.1768
 6589SOL    HW220667   2.416   6.519   1.780  0.5789  1.2731 -0.6663
 6590SOL     OW20668   0.679   6.162   6.079 -0.2241 -0.0652  0.3374
 6590SOL    HW120669   0.744   6.236   6.063  0.5439 -0.7540  0.1342
 6590SOL    HW220670   0.730   6.077   6.097 -1.0704 -0.7538 -0.4150
 6591SOL     OW20671   5.815   5.304   3.446 -0.0459 -0.1236  0.3482
 6591SOL    HW120672   5.840   5.210   3.470  0.2307 -0.4533 -1.1012
 6591SOL    HW220673   5.841   5.365   3.520 -0.7642 -1.2471  1.5801
 6592SOL     OW20674   4.836   5.667   3.225 -0.0412 -0.1387 -0.0003
 6592SOL    HW120675   4.933   5.657   3.202  0.5728  1.2741  1.7418
 6592SOL    HW220676   4.780   5.625   3.154  1.8328 -0.4908 -1.3259
 6593SOL     OW20677   0.228   1.145   1.769 -0.1889  0.0811  0.3297
 6593SOL    HW120678   0.273   1.088   1.838 -2.1922  0.3573  1.9562
 6593SOL    HW220679   0.273   1.234   1.764 -0.6707  0.4635  2.1368
 6594SOL     OW20680   5.453   6.514   0.448  0.0855 -0.2261 -0.3787
 6594SOL    HW120681   5.409   6.582   0.388  0.6244 -0.7707 -1.4275
 6594SOL    HW220682   5.431   6.534   0.543 -2.2516 -0.3259 -0.8264
 6595SOL     OW20683   3.137   2.080   6.925  0.3750 -0.1176  0.1348
 6595SOL    HW120684   3.147   2.132   6.840 -0.6603 -0.3906 -0.1645
 6595SOL    HW220685   3.217   2.096   6.983  0.5581  0.9859 -0.3925
 6596SOL     OW20686   4.982   6.225   3.343  0.6075 -0.5235 -0.1748
 6596SOL    HW120687   4.974   6.131   3.310  0.9824 -0.5956 -0.0692
 6596SOL    HW220688   4.906   6.245   3.405 -0.8175  0.0160 -2.0099
 6597SOL     OW20689   6.106   5.697   1.149  0.0053 -0.4265 -0.1404
 6597SOL    HW120690   6.128   5.679   1.245  1.2518 -1.4294 -0.5761
 6597SOL    HW220691   6.057   5.619   1.111 -1.1263  0.2664 -0.1581
 6598SOL     OW20692   2.972   5.979   3.921  0.1275 -0.0325 -0.6463
 6598SOL    HW120693   3.003   5.975   3.826  1.3198 -1.3694 -0.2472
 6598SOL    HW220694   3.020   5.909   3.974 -1.4088 -0.1201  0.6940
 6599SOL     OW20695   0.038   5.648   5.190 -0.7748 -0.2338 -0.1952
 6599SOL    HW120696   0.018   5.654   5.093  1.7465 -1.2238 -0.8607
 6599SOL    HW220697   0.116   5.587   5.204 -1.1786 -0.2566  2.4777
 6600SOL     OW20698   2.554   0.446   5.684  0.2517 -0.2284  0.2852
 6600SOL    HW120699   2.524   0.528   5.635 -2.1653 -2.4587 -2.3199
 6600SOL    HW220700   2.637   0.410   5.641 -0.7121 -1.0437 -0.9747
 6601SOL     OW20701   6.347   3.093   1.363 -0.2779 -1.0075 -0.1012
 6601SOL    HW120702   6.311   3.076   1.271 -0.7917 -1.0471  0.1039
 6601SOL    HW220703   6.286   3.156   1.412  0.8891  0.3802 -0.3777
 6602SOL     OW20704   0.448   4.864   1.815 -0.5194 -0.4577  0.0335
 6602SOL    HW120705   0.374   4.870   1.882 -0.8031 -0.6119 -0.2671
 6602SOL    HW220706   0.534   4.891   1.859 -0.7228 -0.4389  0.4286
 6603SOL     OW20707   0.229   2.618   2.201  0.0103  0.4111 -0.0121
 6603SOL    HW120708   0.261   2.694   2.144 -0.3713 -0.4673 -1.4310
 6603SOL    HW220709   0.301   2.594   2.267 -0.0929  2.3830  0.8918
 6604SOL     OW20710   1.859   5.590   4.524  0.4880  0.4346 -0.1897
 6604SOL    HW120711   1.904   5.501   4.519 -0.5210 -0.0105 -2.1057
 6604SOL    HW220712   1.784   5.586   4.591  1.3776  0.3199  0.8296
 6605SOL     OW20713   0.283   6.066   1.675  0.3583 -0.7597 -0.8016
 6605SOL    HW120714   0.307   5.989   1.616  1.3707  1.7208 -3.9082
 6605SOL    HW220715   0.356   6.135   1.672 -0.9594  0.8296  0.9813
 6606SOL     OW20716   1.057   3.739   1.891 -0.0770 -0.2868 -0.8491
 6606SOL    HW120717   1.051   3.791   1.807  0.1426  1.7339  0.3242
 6606SOL    HW220718   0.975   3.683   1.902 -1.5433  1.7369 -0.9705
 6607SOL     OW20719   0.350   2.951   4.301  0.0921  0.5151  0.2629
 6607SOL    HW120720   0.362   3.048   4.280  3.3658  0.5684  1.7544
 6607SOL    HW220721   0.363   2.896   4.218  1.8314  1.2134  0.0405
 6608SOL     OW20722   1.786   4.958   4.954 -0.4745  0.2438  0.3297
 6608SOL    HW120723   1.845   4.880   4.933 -0.8989  0.5089 -2.0868
 6608SOL    HW220724   1.698   4.925   4.988 -0.3803 -0.3040  0.0535
 6609SOL     OW20725   4.527   0.986   0.025  0.1806  0.6382 -0.2406
 6609SOL    HW120726   4.458   0.913   0.025  1.2330 -0.4831 -2.4815
 6609SOL    HW220727   4.599   0.963   0.090  1.0196 -0.9576 -1.6345
 6610SOL     OW20728   2.903   5.543   1.956 -0.8494 -0.2896 -0.3093
 6610SOL    HW120729   2.934   5.568   2.048 -1.0657 -2.4016  0.3961
 6610SOL    HW220730   2.887   5.626   1.903  1.8554  0.9889  0.6647
 6611SOL     OW20731   3.259   1.539   5.536  0.1373  0.4225  0.0854
 6611SOL    HW120732   3.278   1.635   5.553  1.5999  0.9191 -3.4165
 6611SOL    HW220733   3.160   1.526   5.525  0.0301  1.8738 -0.9216
 6612SOL     OW20734   5.800   0.002   4.320  0.0189 -0.3191  0.1358
 6612SOL    HW120735   5.804  -0.022   4.223 -0.7742 -0.4120  0.1188
 6612SOL    HW220736   5.724   0.065   4.335 -2.4018 -3.2459  1.2595
 6613SOL     OW20737   2.597   1.608   2.303  0.3806  0.4637  0.0012
 6613SOL    HW120738   2.676   1.547   2.314  0.7335  0.8642 -0.2502
 6613SOL    HW220739   2.577   1.620   2.206  0.0147  0.3736  0.0649
 6614SOL     OW20740   3.873   3.790   6.607 -0.0909  0.0192  0.2453
 6614SOL    HW120741   3.861   3.874   6.554 -0.6145 -0.7192 -0.8388
 6614SOL    HW220742   3.830   3.714   6.559  3.1524 -1.5157 -0.5134
 6615SOL     OW20743   2.719   6.043   6.795 -0.6396 -0.0045 -0.5395
 6615SOL    HW120744   2.780   6.005   6.864  0.5869  0.0807 -1.5372
 6615SOL    HW220745   2.633   5.992   6.795  0.4644 -1.9947 -0.9725
 6616SOL     OW20746   3.861   0.913   0.013  0.2843 -0.0242  0.3787
 6616SOL    HW120747   3.833   0.907  -0.083  1.0738  0.0118  0.1443
 6616SOL    HW220748   3.797   0.973   0.062  0.1960  0.3998 -0.2465
 6617SOL     OW20749   3.030   5.990   4.267  0.3903  0.3567  0.7956
 6617SOL    HW120750   3.120   6.002   4.308  1.2202 -0.5422 -0.6765
 6617SOL    HW220751   2.992   5.901   4.294  0.9912 -0.2899 -0.4174
 6618SOL     OW20752   6.242   2.537   4.935  0.0049 -0.5454  0.2397
 6618SOL    HW120753   6.236   2.609   5.004 -1.4113  0.1554 -0.5713
 6618SOL    HW220754   6.282   2.574   4.851 -0.5420 -0.7365 -0.1126
 6619SOL     OW20755   3.608   5.548   3.336  0.0508 -0.2241  0.0338
 6619SOL    HW120756   3.610   5.628   3.276  1.7981  0.9342  1.5208
 6619SOL    HW220757   3.697   5.538   3.381 -0.4504 -2.4377  0.6480
 6620SOL     OW20758   1.965   4.186   2.837  0.2419  0.3267  0.6788
 6620SOL    HW120759   2.060   4.200   2.808 -0.0463 -0.6243 -0.9060
 6620SOL    HW220760   1.913   4.270   2.822 -0.3079 -0.5021 -3.6979
 6621SOL     OW20761   3.798   2.936   4.652  0.3360  0.1381 -0.2555
 6621SOL    HW120762   3.800   2.897   4.744  2.0349  0.4970 -0.1003
 6621SOL    HW220763   3.777   2.865   4.586  0.1988 -0.3622  0.3158
 6622SOL     OW20764   0.953   5.862   6.769 -0.3497 -0.1313  0.6035
 6622SOL    HW120765   0.959   5.765   6.745 -0.3040  0.1811 -0.7482
 6622SOL    HW220766   1.035   5.909   6.737 -0.5687  0.4328  0.8662
 6623SOL     OW20767   2.890   3.370   3.263 -0.2427 -0.0017 -0.1572
 6623SOL    HW120768   2.906   3.447   3.325 -0.6639 -0.5521  0.6518
 6623SOL    HW220769   2.796   3.374   3.229 -0.2022 -0.0514 -0.2753
 6624SOL     OW20770   0.343   1.638   1.479  0.0712  0.1177  0.8733
 6624SOL    HW120771   0.395   1.710   1.436  0.6525 -0.4258  0.6529
 6624SOL    HW220772   0.405   1.575   1.527  0.0249 -2.3207 -1.9757
 6625SOL     OW20773   0.392   5.221   5.152  0.0400  0.3526  0.2054
 6625SOL    HW120774   0.435   5.181   5.071  0.6786  0.8196  0.3109
 6625SOL    HW220775   0.430   5.179   5.234  0.9140  1.3473  0.3282
 6626SOL     OW20776   1.426   0.241   4.713 -0.7974  0.2214 -0.1288
 6626SOL    HW120777   1.332   0.276   4.720 -0.2602  1.3282  2.9892
 6626SOL    HW220778   1.427   0.145   4.738 -1.2784 -0.2783 -1.8690
 6627SOL     OW20779   2.824   6.322   5.828  0.3307 -0.3515 -0.1036
 6627SOL    HW120780   2.779   6.234   5.840  0.0022 -0.0555  0.9712
 6627SOL    HW220781   2.923   6.312   5.841  0.4068 -0.7320 -0.9576
 6628SOL     OW20782   4.565   5.864   3.578 -0.2022 -0.7995 -0.2189
 6628SOL    HW120783   4.632   5.820   3.518  0.9241 -0.8974  1.0646
 6628SOL    HW220784   4.597   5.858   3.673  1.7463  5.4385 -0.0504
 6629SOL     OW20785   5.872   5.602   6.904  0.4925 -0.2246 -0.1271
 6629SOL    HW120786   5.934   5.679   6.924  0.2697  0.4077 -1.6887
 6629SOL    HW220787   5.784   5.619   6.947  0.3099  0.6336 -0.8000
 6630SOL     OW20788   6.665   0.858   6.968  0.3815  0.2016  0.2781
 6630SOL    HW120789   6.737   0.787   6.967 -0.3973 -0.6215  1.0259
 6630SOL    HW220790   6.587   0.825   7.020 -1.2165  0.4249 -1.8731
 6631SOL     OW20791   0.024   2.934   5.754 -0.1436 -0.2242 -0.0471
 6631SOL    HW120792   0.061   2.986   5.677 -0.6093 -1.3987 -1.0973
 6631SOL    HW220793  -0.038   2.863   5.719 -3.0458  1.3339  1.5710
 6632SOL     OW20794   1.199   0.629   0.581  0.1623 -0.9199  0.5185
 6632SOL    HW120795   1.113   0.584   0.555  0.0021  0.3433 -1.3844
 6632SOL    HW220796   1.233   0.682   0.503  2.4271 -0.9849  1.3990
 6633SOL     OW20797   4.735   0.186   6.565  0.5364  0.4424  0.4473
 6633SOL    HW120798   4.678   0.121   6.515 -0.1497  0.3786  1.2966
 6633SOL    HW220799   4.777   0.141   6.643  1.5034  0.5729  0.0114
 6634SOL     OW20800   2.096   1.624   4.122  0.0310 -0.0014  0.0527
 6634SOL    HW120801   2.183   1.576   4.129 -0.3414 -0.4883  1.7136
 6634SOL    HW220802   2.073   1.639   4.026  0.3292 -2.8405 -0.5192
 6635SOL     OW20803   3.818   6.469   4.518 -0.1601 -0.2752  0.0759
 6635SOL    HW120804   3.766   6.416   4.451  0.1189  0.3029 -0.6080
 6635SOL    HW220805   3.831   6.562   4.484  1.9482 -0.5888 -0.1235
 6636SOL     OW20806   4.865   1.924   6.722 -0.0581  0.0111  0.1782
 6636SOL    HW120807   4.880   1.933   6.820  0.3940  0.9968  0.0289
 6636SOL    HW220808   4.839   2.013   6.684 -1.2445 -0.5725 -0.4338
 6637SOL     OW20809   6.470   3.856   0.098 -0.3494 -0.1568  0.7316
 6637SOL    HW120810   6.543   3.788   0.096  0.7898  1.0339  1.0912
 6637SOL    HW220811   6.441   3.877   0.005 -0.4015 -0.7898  0.6002
 6638SOL     OW20812   3.191   4.084   4.706 -0.3532 -0.3188  0.1470
 6638SOL    HW120813   3.190   4.178   4.742  0.3748 -0.0954 -0.3847
 6638SOL    HW220814   3.126   4.028   4.757 -0.1614  0.2633  1.0559
 6639SOL     OW20815   4.073   0.921   3.895 -0.1741  0.2068 -0.1943
 6639SOL    HW120816   4.120   0.838   3.866 -0.4990 -0.6593  1.6447
 6639SOL    HW220817   4.052   0.977   3.815  0.5143 -1.2246 -1.4151
 6640SOL     OW20818   2.148   3.706   6.942  0.3550 -0.0179  0.7614
 6640SOL    HW120819   2.092   3.623   6.936 -1.4539  1.2407 -1.7590
 6640SOL    HW220820   2.091   3.782   6.972  0.8050  1.1810 -1.2534
 6641SOL     OW20821   5.918   2.581   0.487  0.0072 -0.4707 -0.7643
 6641SOL    HW120822   5.868   2.662   0.517  1.4157 -0.2961  1.3871
 6641SOL    HW220823   5.870   2.499   0.518  0.7515 -0.3104  0.9550
 6642SOL     OW20824   0.985   6.262   6.770 -0.1838 -0.0821  0.0839
 6642SOL    HW120825   0.927   6.302   6.700 -0.9111  1.6808  1.6043
 6642SOL    HW220826   0.937   6.187   6.815 -0.4085 -0.0542 -0.1097
 6643SOL     OW20827   1.680   5.248   6.278  0.4097  0.4876  0.2997
 6643SOL    HW120828   1.658   5.158   6.240  1.3055 -0.6140  2.2579
 6643SOL    HW220829   1.766   5.280   6.238  0.7412 -0.1178  0.5155
 6644SOL     OW20830   2.870   7.020   3.924  0.0143  0.0192  0.2665
 6644SOL    HW120831   2.801   7.050   3.989  0.4598  1.6214  0.0345
 6644SOL    HW220832   2.931   7.096   3.901 -0.0128 -0.5207 -1.8923
 6645SOL     OW20833   5.408   2.418   5.279 -0.5231 -0.1191 -0.4872
 6645SOL    HW120834   5.401   2.507   5.324  0.6175  0.2699 -1.0512
 6645SOL    HW220835   5.441   2.350   5.344  2.5224  0.7364 -0.9963
 6646SOL     OW20836   3.422   6.263   5.628 -0.9017  0.2781  0.6150
 6646SOL    HW120837   3.331   6.247   5.590 -1.0594 -0.4717  1.2711
 6646SOL    HW220838   3.446   6.359   5.618 -1.7517  0.4774  0.4011
 6647SOL     OW20839   3.305   3.914   0.790 -0.4269  0.1834  0.1400
 6647SOL    HW120840   3.206   3.909   0.776 -0.5115 -0.2525  0.8566
 6647SOL    HW220841   3.337   3.830   0.833  0.3235  0.1585 -0.4509
 6648SOL     OW20842   4.967   6.968   4.813 -0.1797  0.0711 -1.2603
 6648SOL    HW120843   4.962   7.008   4.722  0.6761  0.3364 -1.2012
 6648SOL    HW220844   4.989   7.039   4.880 -0.4417 -0.1840 -0.8985
 6649SOL     OW20845   3.897   3.032   6.510 -0.4070 -0.5066 -0.2815
 6649SOL    HW120846   3.839   2.991   6.580 -1.8555  3.3158  1.0393
 6649SOL    HW220847   3.989   3.045   6.545 -1.1164  1.3595  1.0381
 6650SOL     OW20848   1.694   6.991   3.802  0.1442 -0.3681 -0.2748
 6650SOL    HW120849   1.626   6.995   3.875  0.8586 -2.1798  0.5455
 6650SOL    HW220850   1.662   7.044   3.724 -1.3581  0.3198  0.7640
 6651SOL     OW20851   4.858   3.969   6.020 -0.3212  0.2981 -0.2910
 6651SOL    HW120852   4.869   4.065   6.044  1.0296 -0.2128  1.3510
 6651SOL    HW220853   4.826   3.918   6.100 -0.6681 -0.6901 -1.0357
 6652SOL     OW20854   6.752   6.039   6.570  0.3873 -0.3932  0.0116
 6652SOL    HW120855   6.689   6.000   6.503 -0.8104  1.4054 -0.0121
 6652SOL    HW220856   6.698   6.082   6.644  1.6234 -0.0746  0.7531
 6653SOL     OW20857   0.063   3.365   6.805 -0.6290 -0.0218  0.5008
 6653SOL    HW120858   0.154   3.328   6.786 -0.3211  0.5167  0.8984
 6653SOL    HW220859   0.023   3.402   6.720  0.5628  1.9940  0.7487
 6654SOL     OW20860   5.981   4.987   2.407  0.6283 -0.0819  0.0779
 6654SOL    HW120861   6.019   5.079   2.402 -0.4731  0.4465  1.0024
 6654SOL    HW220862   6.054   4.922   2.429  0.9741  0.9557  2.2143
 6655SOL     OW20863   1.903   0.419   1.256 -0.5149  0.0633 -0.0282
 6655SOL    HW120864   1.966   0.493   1.278  2.2490 -1.9293 -0.6505
 6655SOL    HW220865   1.938   0.367   1.178 -3.1520 -1.0032 -0.6260
 6656SOL     OW20866   4.445   6.683   2.275  0.3190  0.2593  0.3507
 6656SOL    HW120867   4.425   6.635   2.189  1.4055  0.7779 -0.2217
 6656SOL    HW220868   4.363   6.686   2.332 -0.0004 -1.5487  0.0523
 6657SOL     OW20869   5.639   2.941   4.781 -0.0758 -0.0104 -0.1380
 6657SOL    HW120870   5.708   2.986   4.837 -0.5630  0.7577 -0.1386
 6657SOL    HW220871   5.576   2.891   4.839 -3.1230  4.1420  0.5906
 6658SOL     OW20872   4.794   6.372   4.218 -0.3997 -0.3701 -0.2162
 6658SOL    HW120873   4.818   6.452   4.164 -1.0089  0.6326  0.9302
 6658SOL    HW220874   4.847   6.293   4.188  0.5319  0.5657 -1.0817
 6659SOL     OW20875   6.684   6.509   2.343  0.1172  0.0741 -0.3315
 6659SOL    HW120876   6.618   6.436   2.324  1.4035 -1.1324 -0.3775
 6659SOL    HW220877   6.642   6.579   2.400 -1.0356 -0.9292  0.0894
 6660SOL     OW20878   0.443   5.857   4.016  0.4223  0.1621 -0.0995
 6660SOL    HW120879   0.487   5.938   4.055  0.6559 -0.5966  1.2757
 6660SOL    HW220880   0.372   5.885   3.953 -1.7337  1.5837  2.7294
 6661SOL     OW20881   4.210   5.697   4.726 -0.1593  0.4006  0.1392
 6661SOL    HW120882   4.179   5.792   4.722  1.6517  1.0413  0.4268
 6661SOL    HW220883   4.194   5.654   4.637 -2.0179  0.6074  0.3390
 6662SOL     OW20884   3.948   6.144   2.642 -0.0627 -0.1073 -0.5257
 6662SOL    HW120885   3.866   6.127   2.697 -0.7361  0.0400 -1.4498
 6662SOL    HW220886   3.940   6.233   2.597  0.3066 -0.3652 -1.1226
 6663SOL     OW20887   0.794   4.381   6.986  0.0802  0.0066 -0.2447
 6663SOL    HW120888   0.807   4.322   6.906  0.8648 -0.1906  0.0204
 6663SOL    HW220889   0.880   4.427   7.008  0.1183 -0.6288  1.0181
 6664SOL     OW20890   2.591   6.621   0.981  0.6478  0.9552 -0.6471
 6664SOL    HW120891   2.609   6.583   0.890 -0.4281  0.5017 -0.6901
 6664SOL    HW220892   2.528   6.699   0.972  1.4901  1.6778 -0.3946
 6665SOL     OW20893   2.887   0.159   5.179  0.1673  0.0955  0.4821
 6665SOL    HW120894   2.887   0.259   5.187  1.0252  0.0964  0.5889
 6665SOL    HW220895   2.804   0.122   5.220  0.0856  0.7370  0.9095
 6666SOL     OW20896   2.947   1.089   4.827 -0.3188 -0.0740  0.1051
 6666SOL    HW120897   3.035   1.089   4.778 -1.1480 -0.0327 -1.4393
 6666SOL    HW220898   2.953   1.150   4.906  0.6380  0.9531 -0.7341
 6667SOL     OW20899   2.037   6.815   0.125 -0.2067 -0.1015  0.1582
 6667SOL    HW120900   2.084   6.866   0.054 -0.5440 -0.0249 -0.0129
 6667SOL    HW220901   1.983   6.879   0.181 -0.1744 -0.1981  0.2999
 6668SOL     OW20902   0.424   3.098   0.542  0.1782 -0.2176  0.0271
 6668SOL    HW120903   0.384   3.178   0.586 -0.3215 -1.3622  1.7318
 6668SOL    HW220904   0.353   3.047   0.494  0.5118  0.3613 -1.1385
 6669SOL     OW20905   0.790   0.456   2.449  0.3637  0.3103 -0.8916
 6669SOL    HW120906   0.718   0.389   2.466 -0.2236  1.0456 -0.4032
 6669SOL    HW220907   0.876   0.424   2.489  0.0334 -0.0405 -0.4519
 6670SOL     OW20908   4.066   2.153   6.135  0.1938 -0.1953  0.2755
 6670SOL    HW120909   4.130   2.085   6.170 -1.7207 -0.1225  4.7018
 6670SOL    HW220910   3.974   2.113   6.133 -0.2990  0.9340 -1.7093
 6671SOL     OW20911   2.780   3.181   7.015  0.5181  0.5541 -0.2278
 6671SOL    HW120912   2.821   3.113   6.954 -0.4850 -1.7741  1.5380
 6671SOL    HW220913   2.699   3.220   6.971 -0.6441 -1.6499 -0.1837
 6672SOL     OW20914   6.639   2.420   1.461  0.3414  0.4368  0.3464
 6672SOL    HW120915   6.556   2.392   1.510 -0.5742  1.9986 -0.2343
 6672SOL    HW220916   6.690   2.486   1.517 -0.0290  1.2282 -0.2228
 6673SOL     OW20917   0.841   2.814   4.100  0.8116  0.0155  0.0329
 6673SOL    HW120918   0.767   2.853   4.045  1.8112  0.5160 -0.9970
 6673SOL    HW220919   0.838   2.853   4.192 -0.6361 -0.5221  0.2337
 6674SOL     OW20920   0.779   0.839   5.621  0.4613  0.2781 -0.1501
 6674SOL    HW120921   0.863   0.792   5.596  0.6827  0.3615  0.4275
 6674SOL    HW220922   0.799   0.933   5.647  0.4483 -0.2055  1.7378
 6675SOL     OW20923   4.060   0.150   5.910  0.3290 -0.2305  0.1041
 6675SOL    HW120924   3.972   0.123   5.871  0.4449 -0.2482 -0.1520
 6675SOL    HW220925   4.094   0.077   5.969  0.9227 -0.9232 -1.0582
 6676SOL     OW20926   2.046   4.220   5.926 -0.5472  0.6378 -0.1075
 6676SOL    HW120927   1.992   4.300   5.955 -0.7701  1.3881 -2.4469
 6676SOL    HW220928   2.078   4.233   5.833  0.5484 -1.4661 -0.0767
 6677SOL     OW20929   6.855   1.309   5.297  0.0921 -0.2347 -0.6731
 6677SOL    HW120930   6.832   1.250   5.374  0.2344  0.6085  0.0243
 6677SOL    HW220931   6.772   1.348   5.258  0.1900  2.8129  1.8436
 6678SOL     OW20932   1.960   4.428   1.597 -0.3961  0.5126  0.3066
 6678SOL    HW120933   2.017   4.351   1.627  1.2870  2.8342  3.5748
 6678SOL    HW220934   1.863   4.403   1.606  0.0861 -1.4547  0.5397
 6679SOL     OW20935   2.825   0.825   1.254  0.5505  0.2419 -0.4848
 6679SOL    HW120936   2.752   0.882   1.216 -0.6854 -1.1470 -0.2893
 6679SOL    HW220937   2.914   0.866   1.233 -0.2709  2.2547 -0.2941
 6680SOL     OW20938   6.254   6.701   1.703 -0.6199 -0.5429 -0.5635
 6680SOL    HW120939   6.344   6.688   1.661 -0.5026 -0.9557 -0.1853
 6680SOL    HW220940   6.265   6.727   1.799 -0.8282  2.7194 -1.3032
 6681SOL     OW20941   1.345   6.652   0.809 -0.0720 -0.4568 -0.3645
 6681SOL    HW120942   1.297   6.568   0.832  0.4269 -0.5188  0.4737
 6681SOL    HW220943   1.312   6.686   0.720 -2.6336  0.2037  0.7279
 6682SOL     OW20944   1.779   0.301   4.315  1.0989 -0.0204 -0.0458
 6682SOL    HW120945   1.694   0.308   4.369  0.9408 -0.4221 -0.2372
 6682SOL    HW220946   1.770   0.226   4.250  1.4107  0.2659 -0.4186
 6683SOL     OW20947   0.156   5.818   6.708  0.4161  0.2643 -0.3772
 6683SOL    HW120948   0.073   5.872   6.724 -0.3344 -0.7648 -0.7124
 6683SOL    HW220949   0.167   5.752   6.782  0.0913 -0.6194 -1.0959
 6684SOL     OW20950   5.132   0.131   6.934  0.6853  0.6717  0.3942
 6684SOL    HW120951   5.159   0.227   6.940  1.1740  0.5566  0.0850
 6684SOL    HW220952   5.154   0.096   6.843  1.1465  0.0857  0.7209
 6685SOL     OW20953   4.288   1.622   6.621 -0.1330 -0.5572  0.1782
 6685SOL    HW120954   4.225   1.688   6.579 -0.5515 -0.9626  0.1676
 6685SOL    HW220955   4.259   1.529   6.601  0.9880 -0.7623 -0.6072
 6686SOL     OW20956   4.557   5.519   3.711  0.7550 -0.2985 -0.4537
 6686SOL    HW120957   4.650   5.553   3.710  0.9088 -0.7063 -1.0836
 6686SOL    HW220958   4.510   5.547   3.627  0.9074 -1.6594 -1.0227
 6687SOL     OW20959   6.114   2.499   1.420 -0.3812  0.6826 -0.2316
 6687SOL    HW120960   6.208   2.497   1.385  0.0908 -1.1067  0.9491
 6687SOL    HW220961   6.051   2.522   1.346  0.7554 -0.8269 -1.7571
 6688SOL     OW20962   5.441   6.783   5.498 -0.6230  0.1633 -0.0497
 6688SOL    HW120963   5.352   6.740   5.481 -1.0130  0.6441  0.7461
 6688SOL    HW220964   5.511   6.735   5.445 -1.4233  0.0991 -1.0890
 6689SOL     OW20965   3.411   6.042   4.990  0.2250  0.1669  0.3094
 6689SOL    HW120966   3.486   6.001   4.938 -0.3581 -1.7060  0.8676
 6689SOL    HW220967   3.411   6.141   4.977  0.5445 -0.1451 -2.6580
 6690SOL     OW20968   0.887   1.607   5.314 -0.1740 -0.1095 -0.1139
 6690SOL    HW120969   0.900   1.695   5.358 -0.6748 -0.6375  1.1460
 6690SOL    HW220970   0.817   1.615   5.243 -0.3780  0.4636  0.1509
 6691SOL     OW20971   2.947   0.051   3.097 -0.4276 -0.1937  0.0526
 6691SOL    HW120972   3.041   0.052   3.061 -1.1483  1.0242 -1.9827
 6691SOL    HW220973   2.884   0.082   3.026 -2.0129  2.2464  2.3453
 6692SOL     OW20974   4.804   5.808   1.524 -0.2909  0.3437 -0.0600
 6692SOL    HW120975   4.848   5.828   1.611 -1.1542 -0.8365  0.6812
 6692SOL    HW220976   4.729   5.744   1.539  1.4965 -2.4569 -2.0147
 6693SOL     OW20977   2.707   1.819   5.697  0.0572  0.0563 -0.2208
 6693SOL    HW120978   2.678   1.723   5.704 -1.1835  0.2378 -1.9521
 6693SOL    HW220979   2.806   1.825   5.697  0.1452 -1.2394 -0.1048
 6694SOL     OW20980   3.505   4.893   1.156 -0.1581  0.4254 -0.2061
 6694SOL    HW120981   3.554   4.911   1.241 -2.1058 -0.6477  1.2142
 6694SOL    HW220982   3.498   4.977   1.102  0.4038  1.3169  1.0705
 6695SOL     OW20983   1.915   1.786   1.601  0.1336 -0.3981  0.1554
 6695SOL    HW120984   1.963   1.860   1.554  0.4216 -0.9091 -0.3717
 6695SOL    HW220985   1.816   1.802   1.595  0.1165 -0.9543 -1.5087
 6696SOL     OW20986   3.880   4.094   4.593 -0.1050  0.1100 -0.6775
 6696SOL    HW120987   3.948   4.045   4.648 -0.6390 -0.8178 -0.8239
 6696SOL    HW220988   3.800   4.114   4.649  0.0058  0.6009 -0.6892
 6697SOL     OW20989   4.833   3.062   2.872 -0.5216 -0.1973  0.1682
 6697SOL    HW120990   4.885   3.064   2.786  1.7063  0.6927  1.4284
 6697SOL    HW220991   4.788   2.974   2.882  0.2876 -0.8108 -1.2913
 6698SOL     OW20992   3.617   1.686   0.025  0.0875 -0.4802 -0.2746
 6698SOL    HW120993   3.547   1.619   0.051 -0.5217 -0.5799 -2.0698
 6698SOL    HW220994   3.656   1.662  -0.063 -0.2153  1.5545 -1.0183
 6699SOL     OW20995   1.459   3.911   5.828  0.2759 -0.4294  0.6550
 6699SOL    HW120996   1.464   3.816   5.858 -1.4252 -0.6904  0.2043
 6699SOL    HW220997   1.378   3.955   5.867  0.4488  0.5130  0.0046
 6700SOL     OW20998   0.212   0.785   1.865 -0.6683  0.1074  0.0789
 6700SOL    HW120999   0.206   0.772   1.964  0.5963 -1.5772 -0.0093
 6700SOL    HW221000   0.123   0.767   1.823 -1.2214  0.8714  0.9060
 6701SOL     OW21001   5.536   2.242   0.040 -0.0850 -0.3512 -0.0046
 6701SOL    HW121002   5.468   2.183  -0.004  0.8356 -0.6239 -1.1075
 6701SOL    HW221003   5.626   2.223   0.002  0.2763  1.5737 -0.1926
 6702SOL     OW21004   2.113   3.181   0.231  0.3041  0.0961 -0.1238
 6702SOL    HW121005   2.182   3.239   0.188  1.0996 -0.6086  0.1698
 6702SOL    HW221006   2.158   3.118   0.295 -0.7783  0.6994  1.2809
 6703SOL     OW21007   6.462   2.948   6.742  0.4273 -0.3057  0.4575
 6703SOL    HW121008   6.436   3.037   6.705  2.5144  0.0192 -0.3733
 6703SOL    HW221009   6.409   2.876   6.697 -0.6741  0.4389  0.5352
 6704SOL     OW21010   3.560   5.960   6.552  0.4301  0.3615  0.0766
 6704SOL    HW121011   3.502   5.975   6.472 -2.5197 -1.1453  1.7523
 6704SOL    HW221012   3.559   6.043   6.609  0.1505  0.4372 -0.0371
 6705SOL     OW21013   6.098   4.594   4.165 -0.0907 -0.1411  0.2640
 6705SOL    HW121014   6.030   4.648   4.213  1.1353  3.9415 -2.1204
 6705SOL    HW221015   6.167   4.562   4.230 -0.3589  2.0792  1.7473
 6706SOL     OW21016   5.528   6.821   6.560  0.2605  0.0383  0.4617
 6706SOL    HW121017   5.489   6.837   6.470 -0.9037 -0.0806  0.9262
 6706SOL    HW221018   5.485   6.882   6.626  3.5401  2.6765  0.4070
 6707SOL     OW21019   0.388   2.248   1.652 -0.7199  0.0286 -0.5330
 6707SOL    HW121020   0.368   2.276   1.558 -0.9276 -0.1283 -0.5345
 6707SOL    HW221021   0.306   2.256   1.708 -0.5166  0.4562 -0.2806
 6708SOL     OW21022   6.493   3.029   0.199  0.4147  0.5634 -0.1347
 6708SOL    HW121023   6.459   2.936   0.200  0.1792  0.5951 -1.9417
 6708SOL    HW221024   6.584   3.032   0.240 -0.5308  0.0007  2.1394
 6709SOL     OW21025   0.967   6.059   3.403 -0.2898  0.5682 -0.1933
 6709SOL    HW121026   1.021   6.076   3.485  0.3259  0.0045 -0.4807
 6709SOL    HW221027   1.022   6.012   3.334 -0.3351  2.3271 -1.5146
 6710SOL     OW21028   4.598   2.523   0.363 -0.0153 -0.0651 -0.0196
 6710SOL    HW121029   4.563   2.429   0.357  0.3306 -0.1312 -1.3788
 6710SOL    HW221030   4.698   2.520   0.367 -0.0508  0.1786  2.3475
 6711SOL     OW21031   1.050   6.725   6.464 -0.6782  0.9708  0.1607
 6711SOL    HW121032   1.012   6.714   6.372  1.4431  2.7329 -1.0114
 6711SOL    HW221033   1.119   6.797   6.463 -1.4825  1.9674  3.4322
 6712SOL     OW21034   6.362   0.178   1.220 -0.1174  0.0306  0.7437
 6712SOL    HW121035   6.352   0.215   1.312  0.5494  0.4788  0.6462
 6712SOL    HW221036   6.452   0.135   1.211  1.2322  2.8762 -0.6388
 6713SOL     OW21037   0.373   4.952   2.463 -0.5029 -0.3659  0.4667
 6713SOL    HW121038   0.421   4.947   2.375  3.0187  1.1941  2.0954
 6713SOL    HW221039   0.328   5.041   2.471  1.4867  0.6549  1.1653
 6714SOL     OW21040   0.712   1.694   1.038  0.0241  0.7469 -0.2726
 6714SOL    HW121041   0.789   1.744   1.078 -0.3305  1.7173 -0.7858
 6714SOL    HW221042   0.662   1.647   1.111  0.4836  0.9591  0.1927
 6715SOL     OW21043   2.336   6.999   0.401  0.2546  0.0223  0.3496
 6715SOL    HW121044   2.338   7.094   0.371  1.1417 -0.7504 -2.2869
 6715SOL    HW221045   2.430   6.964   0.407 -0.0978 -0.9141  0.5284
 6716SOL     OW21046   5.964   7.010   2.720  0.4101 -0.0366  0.3042
 6716SOL    HW121047   6.014   7.025   2.806  0.1331  0.9960  0.2908
 6716SOL    HW221048   5.869   6.986   2.741  0.2379  0.6169  0.2833
 6717SOL     OW21049   6.385   1.002   5.708 -0.4272  0.6987  0.1066
 6717SOL    HW121050   6.420   0.942   5.635  0.4995  1.0787  0.2369
 6717SOL    HW221051   6.424   1.093   5.698 -0.6850  0.8870  0.8008
 6718SOL     OW21052   3.168   0.308   6.188 -0.7463 -0.1514  0.5787
 6718SOL    HW121053   3.177   0.240   6.261  0.1401  0.0414  0.6621
 6718SOL    HW221054   3.251   0.309   6.133  0.3422  2.4852  2.0322
 6719SOL     OW21055   2.136   0.415   5.832  0.6816 -0.1378  0.5390
 6719SOL    HW121056   2.131   0.431   5.734  0.1569 -0.2025  0.5511
 6719SOL    HW221057   2.044   0.405   5.869  0.8798 -0.2579  1.0139
 6720SOL     OW21058   1.980   2.843   5.040  0.4543 -0.1769  0.2924
 6720SOL    HW121059   2.051   2.904   5.074 -0.3365  0.3822  0.9663
 6720SOL    HW221060   1.996   2.825   4.942  1.2023  0.3807  0.3025
 6721SOL     OW21061   4.795   0.057   2.087 -0.7582  0.5377  0.2417
 6721SOL    HW121062   4.746   0.117   2.023 -2.7017 -3.5532 -2.6165
 6721SOL    HW221063   4.733   0.027   2.159 -0.5851  0.2113  0.2600
 6722SOL     OW21064   4.696   4.216   6.326  0.0975 -0.6311  0.4229
 6722SOL    HW121065   4.624   4.160   6.287 -1.6050 -0.6618  3.3298
 6722SOL    HW221066   4.742   4.165   6.399  3.0230 -0.5431 -1.2081
 6723SOL     OW21067   1.479   0.930   0.877 -0.3360 -0.2796  0.1425
 6723SOL    HW121068   1.416   0.966   0.808 -0.5771 -0.4819  0.2570
 6723SOL    HW221069   1.514   0.841   0.847 -0.4455 -0.3703  0.2844
 6724SOL     OW21070   0.935   3.680   2.877 -0.0110 -0.4337 -0.2952
 6724SOL    HW121071   0.941   3.642   2.969  3.5868  0.2314 -0.1113
 6724SOL    HW221072   1.023   3.669   2.830 -0.5494  2.5372 -2.3062
 6725SOL     OW21073   6.118   3.604   3.826 -0.5571 -0.3731 -0.0654
 6725SOL    HW121074   6.099   3.516   3.867  0.9896 -0.5544  0.3236
 6725SOL    HW221075   6.116   3.596   3.726  0.4786 -1.0792 -0.0403
 6726SOL     OW21076   6.165   6.562   6.460  0.0053  0.1948 -0.1633
 6726SOL    HW121077   6.223   6.633   6.420 -2.6045  2.2607 -0.5772
 6726SOL    HW221078   6.148   6.583   6.557 -1.4282  0.6724 -0.4857
 6727SOL     OW21079   1.101   2.784   0.738 -0.2828  0.2282  0.3065
 6727SOL    HW121080   1.125   2.735   0.821  0.2442 -0.2464 -0.1246
 6727SOL    HW221081   1.002   2.801   0.737 -0.3631 -0.1960  0.7879
 6728SOL     OW21082   2.817   0.954   3.035 -0.3359 -0.1091  0.1208
 6728SOL    HW121083   2.757   0.902   3.095 -1.6590  0.1649 -0.9131
 6728SOL    HW221084   2.772   0.969   2.947  1.6945 -0.8929 -1.1434
 6729SOL     OW21085   5.443   2.492   2.947  0.2328 -0.4279  0.2336
 6729SOL    HW121086   5.354   2.462   2.912  0.3054  0.1040 -0.4287
 6729SOL    HW221087   5.477   2.567   2.892 -0.3396  1.4913  2.3385
 6730SOL     OW21088   0.121   1.344   6.781 -0.2561 -0.0570  0.0377
 6730SOL    HW121089   0.174   1.325   6.863 -0.5924  0.4594  0.3751
 6730SOL    HW221090   0.129   1.441   6.758 -1.1742  0.0553  0.1730
 6731SOL     OW21091   3.608   1.301   5.009  0.0389 -0.2750  0.4091
 6731SOL    HW121092   3.618   1.344   5.099  2.0250 -0.3462  0.2565
 6731SOL    HW221093   3.649   1.358   4.939  0.1362 -1.0685 -0.1990
 6732SOL     OW21094   6.255   5.632   5.068  0.0245  0.1765  0.3567
 6732SOL    HW121095   6.275   5.633   5.166 -0.6899 -0.6193  0.5181
 6732SOL    HW221096   6.204   5.714   5.043 -0.6478 -0.0875  0.8409
 6733SOL     OW21097   3.279   3.614   5.816  0.0320  0.0877 -0.2997
 6733SOL    HW121098   3.202   3.584   5.760 -0.8839  1.3453  0.2410
 6733SOL    HW221099   3.362   3.564   5.789 -0.9563 -1.2891 -0.8940
 6734SOL     OW21100   5.148   2.778   5.334  0.2007  0.7773  0.1186
 6734SOL    HW121101   5.136   2.798   5.431 -0.6859 -0.4705  0.2937
 6734SOL    HW221102   5.118   2.685   5.315 -1.1126  1.4972 -1.6381
 6735SOL     OW21103   0.258   1.347   3.061  0.5524  0.1144  0.2881
 6735SOL    HW121104   0.322   1.391   3.124 -1.4995  1.5360  1.5102
 6735SOL    HW221105   0.165   1.351   3.099 -0.4639 -0.9048 -1.8807
 6736SOL     OW21106   1.556   2.938   1.751  0.5651  0.2618 -0.0523
 6736SOL    HW121107   1.550   3.034   1.723  0.3720  0.3350  0.2397
 6736SOL    HW221108   1.468   2.908   1.788  0.9355  0.2925  0.8932
 6737SOL     OW21109   6.297   3.185   6.611  1.0904  0.2643 -0.1096
 6737SOL    HW121110   6.306   3.284   6.606 -2.1555  0.6234 -2.1943
 6737SOL    HW221111   6.226   3.161   6.676  0.6464 -0.5421 -0.8685
 6738SOL     OW21112   0.855   6.541   2.437  0.7412 -0.3694  0.3082
 6738SOL    HW121113   0.931   6.497   2.389 -0.6051 -1.8925 -0.5539
 6738SOL    HW221114   0.838   6.632   2.399  0.9435 -0.7817 -0.7958
 6739SOL     OW21115   6.910   1.609   4.823  0.4116  0.3003  0.5789
 6739SOL    HW121116   6.898   1.582   4.918  1.2048 -1.1466  0.3002
 6739SOL    HW221117   6.824   1.598   4.774  0.6579 -1.6334  0.5267
 6740SOL     OW21118   2.597   0.294   2.474  0.1937  0.3680  0.4939
 6740SOL    HW121119   2.676   0.233   2.474 -0.0007  0.1020  1.1226
 6740SOL    HW221120   2.589   0.339   2.563 -0.8918 -0.3410  0.7821
 6741SOL     OW21121   3.830   3.159   5.767  0.1303 -0.3230 -0.0688
 6741SOL    HW121122   3.892   3.195   5.698 -0.6615 -0.7851 -1.0371
 6741SOL    HW221123   3.882   3.137   5.850  1.1350 -0.0430 -0.6106
 6742SOL     OW21124   5.495   6.069   2.380  0.4425  0.3873 -0.2095
 6742SOL    HW121125   5.561   6.104   2.313  0.2554  1.7901  0.2993
 6742SOL    HW221126   5.544   6.039   2.462  0.5161  0.8392 -0.0813
 6743SOL     OW21127   3.036   5.195   6.440 -0.0978  0.1506  0.0389
 6743SOL    HW121128   2.940   5.177   6.461  0.0084 -0.8222 -0.2510
 6743SOL    HW221129   3.056   5.292   6.453 -1.0082  0.2768  0.5254
 6744SOL     OW21130   4.546   4.302   6.664 -0.8997 -0.0220  0.0027
 6744SOL    HW121131   4.546   4.392   6.620 -1.6709  0.4001  0.8428
 6744SOL    HW221132   4.637   4.262   6.656 -0.7466  0.4872 -1.0576
 6745SOL     OW21133   0.941   5.119   5.936  0.1820 -0.3020 -0.0404
 6745SOL    HW121134   1.019   5.136   5.875 -1.0255 -1.1549 -1.9078
 6745SOL    HW221135   0.892   5.204   5.953  1.7581  0.3493  1.5906
 6746SOL     OW21136   6.964   0.881   2.432  0.2642  1.2135 -0.8890
 6746SOL    HW121137   7.035   0.865   2.501 -1.1323 -2.4055 -0.0723
 6746SOL    HW221138   6.958   0.979   2.413  2.3484  2.1281  2.3073
 6747SOL     OW21139   2.355   5.506   6.048  0.1130  0.1119 -0.0700
 6747SOL    HW121140   2.346   5.409   6.028 -1.9054  0.2981 -0.3129
 6747SOL    HW221141   2.421   5.547   5.986  1.2226 -1.1442  0.2456
 6748SOL     OW21142   3.124   6.999   1.548 -0.2099  0.1172 -0.0564
 6748SOL    HW121143   3.180   7.031   1.625  0.6458 -0.2929 -0.4822
 6748SOL    HW221144   3.030   7.028   1.560 -0.0416  0.2525  1.0357
 6749SOL     OW21145   4.813   4.528   1.677  0.2332  0.4102  0.1379
 6749SOL    HW121146   4.777   4.440   1.709  0.6420 -0.1796 -0.9492
 6749SOL    HW221147   4.897   4.549   1.727 -0.8096  1.0997  1.6851
 6750SOL     OW21148   2.399   1.518   4.981  0.1652  0.2386  0.0705
 6750SOL    HW121149   2.304   1.495   4.960 -0.6825  2.1034  1.5657
 6750SOL    HW221150   2.405   1.615   5.003  2.4230  0.1311  0.0932
 6751SOL     OW21151   3.685   6.330   4.320 -0.1952  0.3858 -0.4034
 6751SOL    HW121152   3.707   6.295   4.229 -1.5663  1.9141 -1.3775
 6751SOL    HW221153   3.615   6.273   4.362 -0.6827  0.5628 -0.9686
 6752SOL     OW21154   3.044   4.584   1.637 -0.2503  0.6479 -0.2232
 6752SOL    HW121155   2.989   4.567   1.719  1.1510  0.0347  0.6373
 6752SOL    HW221156   3.126   4.635   1.662 -0.7150  2.1564 -1.5923
 6753SOL     OW21157   3.648   4.099   4.792 -0.0067  0.0888 -0.2453
 6753SOL    HW121158   3.610   4.119   4.882  0.0081  1.0208 -0.4423
 6753SOL    HW221159   3.580   4.118   4.721  0.3454  0.4176 -0.5047
 6754SOL     OW21160   6.756   2.445   0.293  0.5147  0.0977 -0.0405
 6754SOL    HW121161   6.812   2.386   0.235 -0.4568 -0.3823 -0.5217
 6754SOL    HW221162   6.659   2.429   0.272  0.2195  1.5185  0.1565
 6755SOL     OW21163   4.123   6.340   0.839  0.0569  0.2579 -0.6122
 6755SOL    HW121164   4.154   6.390   0.758 -1.2003  1.3850 -0.4242
 6755SOL    HW221165   4.058   6.396   0.890  0.6183 -0.5378  1.0497
 6756SOL     OW21166   3.398   3.134   4.885 -0.3259  0.8551  0.4593
 6756SOL    HW121167   3.394   3.044   4.842  0.4867  0.1965  1.6816
 6756SOL    HW221168   3.385   3.205   4.816 -3.9215 -0.1815 -0.1662
 6757SOL     OW21169   3.779   6.710   6.894 -0.1467 -0.1605  0.3295
 6757SOL    HW121170   3.697   6.679   6.847  0.8991 -1.7679 -0.5393
 6757SOL    HW221171   3.839   6.757   6.829  1.8185 -3.3828 -0.3657
 6758SOL     OW21172   7.007   1.389   3.198 -0.3074  0.6819  0.0960
 6758SOL    HW121173   6.997   1.399   3.297 -1.4527  1.1783 -0.0458
 6758SOL    HW221174   6.977   1.474   3.153  1.3468  0.9273 -0.6347
 6759SOL     OW21175   1.005   2.375   1.722 -0.0828 -0.5865  0.0112
 6759SOL    HW121176   1.086   2.416   1.680  0.9748 -2.2108  0.3986
 6759SOL    HW221177   1.032   2.324   1.803 -1.2372 -2.5876 -0.8108
 6760SOL     OW21178   4.395   2.358   5.229  0.3291  0.2925 -0.3185
 6760SOL    HW121179   4.322   2.413   5.191 -1.2105 -0.8509  0.8628
 6760SOL    HW221180   4.423   2.396   5.317 -1.3403 -1.1865  0.9233
 6761SOL     OW21181   5.617   1.410   5.040 -0.4260  0.2408 -0.3345
 6761SOL    HW121182   5.648   1.315   5.047  1.7482  0.8496 -1.0510
 6761SOL    HW221183   5.533   1.413   4.986  0.0314 -1.1747 -1.1982
 6762SOL     OW21184   5.026   5.146   4.048 -0.2361  0.7159 -0.2267
 6762SOL    HW121185   4.984   5.056   4.057 -1.5758  1.3691  0.2884
 6762SOL    HW221186   5.086   5.163   4.126 -0.7900  0.6804  0.2105
 6763SOL     OW21187   4.802   5.421   4.917 -0.4332 -0.6380 -0.0024
 6763SOL    HW121188   4.726   5.395   4.858 -1.1558  2.7555 -0.7516
 6763SOL    HW221189   4.847   5.502   4.880  2.1778 -1.2179  1.6356
 6764SOL     OW21190   2.895   4.887   0.246  0.0589  0.2996 -0.7478
 6764SOL    HW121191   2.967   4.927   0.190  0.7170  0.5419  0.2499
 6764SOL    HW221192   2.817   4.949   0.250 -0.4526 -0.2086 -2.2930
 6765SOL     OW21193   6.130   5.258   1.403  0.9232  0.0971  0.3412
 6765SOL    HW121194   6.042   5.293   1.433  0.8481  1.2228 -1.0886
 6765SOL    HW221195   6.198   5.273   1.475  0.5343  1.7787  0.4093
 6766SOL     OW21196   0.073   1.502   0.801 -0.5558  0.6074  0.8082
 6766SOL    HW121197   0.096   1.597   0.785 -1.9383  0.6029 -1.6648
 6766SOL    HW221198   0.050   1.489   0.898  0.0470  2.6674  1.2664
 6767SOL     OW21199   4.672   0.251   0.108 -0.0506 -0.7449 -0.6226
 6767SOL    HW121200   4.692   0.198   0.191 -1.8599 -0.9115 -0.2456
 6767SOL    HW221201   4.653   0.346   0.133 -0.7974 -0.8409 -0.7982
 6768SOL     OW21202   1.045   6.802   0.201  0.0321  0.0681 -0.3813
 6768SOL    HW121203   0.959   6.795   0.149  1.4401 -0.8403 -2.7329
 6768SOL    HW221204   1.099   6.878   0.166  1.0257 -0.5675 -0.2693
 6769SOL     OW21205   3.014   3.573   0.176 -0.2030  0.3462  0.1876
 6769SOL    HW121206   3.074   3.519   0.236  0.4408  0.8467 -0.0022
 6769SOL    HW221207   3.069   3.617   0.105 -0.6590  1.6040  0.5926
 6770SOL     OW21208   0.373   0.334   1.444  0.5196  0.1327 -0.6298
 6770SOL    HW121209   0.462   0.369   1.415  1.0290  1.6364  2.2928
 6770SOL    HW221210   0.385   0.245   1.490  0.4099 -0.0030 -0.8626
 6771SOL     OW21211   4.865   3.362   2.922  0.4915  0.3426 -0.1554
 6771SOL    HW121212   4.856   3.395   2.829 -0.2216 -2.9061 -1.3800
 6771SOL    HW221213   4.818   3.274   2.931  1.0520  0.2506  3.1188
 6772SOL     OW21214   2.853   1.926   4.062 -0.4568 -0.3038 -0.5713
 6772SOL    HW121215   2.809   1.943   3.973 -1.4015  0.0523 -0.0546
 6772SOL    HW221216   2.816   1.989   4.130  0.2920 -0.5427  0.0699
 6773SOL     OW21217   6.224   3.336   1.529  0.3440 -0.1100  0.0309
 6773SOL    HW121218   6.124   3.327   1.528  0.1252  1.5917  1.7771
 6773SOL    HW221219   6.255   3.360   1.621  2.4485 -1.1973 -0.3399
 6774SOL     OW21220   2.127   2.506   6.673  0.2343  0.1875  0.3747
 6774SOL    HW121221   2.182   2.589   6.683 -1.9477  1.6952  0.6365
 6774SOL    HW221222   2.088   2.481   6.762  0.7280 -1.0574  0.2644
 6775SOL     OW21223   3.094   5.143   5.108  0.9635 -0.1373 -0.0247
 6775SOL    HW121224   3.147   5.200   5.172  0.7023 -0.9932  0.9808
 6775SOL    HW221225   2.998   5.145   5.134  0.8794 -0.6263 -0.2988
 6776SOL     OW21226   5.187   5.115   5.918  0.5747  0.2037 -0.1543
 6776SOL    HW121227   5.193   5.188   5.851  2.1431 -1.3584 -1.8464
 6776SOL    HW221228   5.279   5.083   5.941 -0.0193 -0.5125  1.3832
 6777SOL     OW21229   5.405   6.062   6.668 -0.0994  0.4137  0.2510
 6777SOL    HW121230   5.428   6.134   6.734  0.8533  0.2942  0.0625
 6777SOL    HW221231   5.318   6.020   6.694 -0.0614  0.8118  1.0598
 6778SOL     OW21232   2.341   6.230   1.903 -0.7865  0.0094 -0.5349
 6778SOL    HW121233   2.403   6.156   1.926 -1.0529  0.0433  0.3458
 6778SOL    HW221234   2.391   6.316   1.897 -0.8946  0.2458  1.3726
 6779SOL     OW21235   0.902   5.025   0.291  1.0570  0.2901 -0.6619
 6779SOL    HW121236   0.810   5.056   0.271  0.6955 -0.8186 -0.7878
 6779SOL    HW221237   0.946   4.994   0.207  0.0850 -2.9240 -0.1045
 6780SOL     OW21238   0.274   3.727   3.105 -0.3029  0.0061 -0.0052
 6780SOL    HW121239   0.191   3.677   3.130  1.1787 -1.2912  2.8023
 6780SOL    HW221240   0.303   3.699   3.014 -3.0522  0.7464 -1.2034
 6781SOL     OW21241   5.807   4.843   4.209 -0.3580  0.4941 -0.9418
 6781SOL    HW121242   5.903   4.855   4.236 -0.5210 -1.8174  1.0463
 6781SOL    HW221243   5.800   4.766   4.146 -1.0632 -0.9383  0.7838
 6782SOL     OW21244   0.130   1.828   2.925 -0.0197 -0.2581  0.0871
 6782SOL    HW121245   0.129   1.741   2.875  2.3384  0.8721 -2.1732
 6782SOL    HW221246   0.083   1.898   2.871  1.0576  0.5973  0.2270
 6783SOL     OW21247   6.254   5.568   6.416 -0.1358 -0.2482  0.0912
 6783SOL    HW121248   6.229   5.528   6.327  1.8317 -0.2862 -0.4758
 6783SOL    HW221249   6.352   5.557   6.431 -0.4810 -0.5673  2.4563
 6784SOL     OW21250   3.308   2.065   6.223  0.1462 -0.0370 -0.1283
 6784SOL    HW121251   3.248   2.144   6.238  0.4682  0.0717  0.6228
 6784SOL    HW221252   3.254   1.987   6.192 -0.6796 -0.4412  2.1323
 6785SOL     OW21253   1.976   6.619   2.288  0.1151 -0.1940 -0.1340
 6785SOL    HW121254   1.929   6.662   2.210  0.9829  0.4526 -0.3220
 6785SOL    HW221255   1.991   6.523   2.268  0.4667 -0.0031 -0.8531
 6786SOL     OW21256   2.491   2.547   6.332 -0.0303 -0.6086 -0.3872
 6786SOL    HW121257   2.468   2.627   6.388 -0.1033 -0.3855 -0.7310
 6786SOL    HW221258   2.439   2.468   6.364  1.3487 -0.9636  1.1005
 6787SOL     OW21259   1.634   2.008   3.198  0.7620  0.0107  0.2800
 6787SOL    HW121260   1.657   2.069   3.122 -0.5763  0.0929 -0.0904
 6787SOL    HW221261   1.647   1.913   3.169 -1.0824 -0.0194 -0.5702
 6788SOL     OW21262   1.311   2.889   1.833 -0.1953  0.1399  0.8119
 6788SOL    HW121263   1.247   2.900   1.909  0.6357  0.8664  1.4277
 6788SOL    HW221264   1.318   2.792   1.809 -2.2830  0.1172  0.0404
 6789SOL     OW21265   6.685   0.618   2.730  0.2781  0.5354  0.3472
 6789SOL    HW121266   6.684   0.717   2.726  1.2449  0.5077 -0.9509
 6789SOL    HW221267   6.749   0.587   2.800 -1.8481  0.8125  2.5388
 6790SOL     OW21268   3.011   3.257   1.357  0.0067  0.0359  0.2776
 6790SOL    HW121269   3.058   3.184   1.407 -0.4516 -0.7044 -0.3363
 6790SOL    HW221270   2.914   3.233   1.348 -0.0149  0.3857 -0.5278
 6791SOL     OW21271   5.045   5.567   4.318  1.1346  0.3405  0.1611
 6791SOL    HW121272   5.080   5.506   4.389 -0.1588 -1.7441 -0.8818
 6791SOL    HW221273   4.952   5.597   4.343  2.3660  3.4760  1.5206
 6792SOL     OW21274   6.916   0.343   1.001  0.0639  0.5249 -0.1034
 6792SOL    HW121275   6.819   0.354   0.980  0.2870  1.8609 -0.5274
 6792SOL    HW221276   6.969   0.345   0.916  0.3071 -3.0333 -0.2151
 6793SOL     OW21277   6.830   2.073   1.727 -0.0242 -0.1730  0.5669
 6793SOL    HW121278   6.817   2.044   1.822 -0.9997  0.6762  0.7156
 6793SOL    HW221279   6.769   2.021   1.668  0.3510 -0.4779  0.4502
 6794SOL     OW21280   5.607   1.460   4.308  0.2839 -0.3626  0.2058
 6794SOL    HW121281   5.682   1.405   4.344  1.3807  1.5699  1.0375
 6794SOL    HW221282   5.520   1.426   4.343  0.9183 -1.5640  0.6566
 6795SOL     OW21283   1.459   5.633   6.104 -0.0510  0.2455  0.2747
 6795SOL    HW121284   1.453   5.733   6.114  1.0026  0.4574 -0.9558
 6795SOL    HW221285   1.528   5.597   6.167  0.0142  0.3725  0.2762
 6796SOL     OW21286   4.834   3.062   4.377  0.1081 -0.8382 -0.3183
 6796SOL    HW121287   4.803   3.031   4.467 -0.3585 -0.5701 -0.3856
 6796SOL    HW221288   4.826   2.986   4.312  1.6150 -1.4057  0.1287
 6797SOL     OW21289   0.539   3.497   3.042  1.1193 -0.6761  0.3955
 6797SOL    HW121290   0.440   3.484   3.040  0.7491  1.7396 -0.2306
 6797SOL    HW221291   0.563   3.553   3.122  1.4399  1.8860 -1.3757
 6798SOL     OW21292   6.463   0.109   3.722  0.5432  0.4339 -0.2983
 6798SOL    HW121293   6.521   0.046   3.672 -0.7740  0.4719 -1.9713
 6798SOL    HW221294   6.368   0.079   3.715  0.3018  0.2816  2.4906
 6799SOL     OW21295   5.834   0.113   5.624  0.2014  0.1877 -0.2515
 6799SOL    HW121296   5.813   0.202   5.584  1.2497  0.7193  0.3671
 6799SOL    HW221297   5.785   0.102   5.711  1.0265  0.6766  0.2840
 6800SOL     OW21298   2.071   6.624   0.433 -0.0990 -0.0786  0.3700
 6800SOL    HW121299   2.094   6.535   0.393 -0.9174  0.9942 -2.8080
 6800SOL    HW221300   1.987   6.616   0.486 -0.4185 -1.1323 -0.2577
 6801SOL     OW21301   6.473   4.432   1.913 -0.2458 -0.5599  0.5729
 6801SOL    HW121302   6.378   4.434   1.944 -0.3887 -2.5057  0.4056
 6801SOL    HW221303   6.507   4.525   1.903 -2.2409  0.1883  0.3123
 6802SOL     OW21304   1.937   6.092   2.710 -0.3588  0.0933  0.4105
 6802SOL    HW121305   2.006   6.114   2.641 -0.8782 -0.4235 -0.2898
 6802SOL    HW221306   1.887   6.175   2.735 -1.6926 -0.0722 -1.5299
 6803SOL     OW21307   5.306   3.258   1.509  0.6752  0.1270 -0.1433
 6803SOL    HW121308   5.338   3.199   1.583  0.0909  0.2912  0.2507
 6803SOL    HW221309   5.256   3.336   1.547  0.7942  0.4758 -0.6911
 6804SOL     OW21310   2.437   1.508   5.458 -0.1677 -0.1430 -0.4424
 6804SOL    HW121311   2.359   1.570   5.465 -0.0548 -0.0280 -0.2062
 6804SOL    HW221312   2.478   1.517   5.367 -0.5418 -0.3406 -0.6314
 6805SOL     OW21313   5.890   0.377   4.514 -0.6791 -0.0510 -0.1647
 6805SOL    HW121314   5.902   0.352   4.610  2.8161 -1.1943 -0.7805
 6805SOL    HW221315   5.899   0.477   4.505 -0.0164 -0.0293  0.5947
 6806SOL     OW21316   5.540   1.656   5.745  0.4867  0.1568  0.0468
 6806SOL    HW121317   5.595   1.605   5.811  0.5976 -1.1930 -1.0348
 6806SOL    HW221318   5.443   1.635   5.759  0.5845 -1.0309 -0.9049
 6807SOL     OW21319   3.418   3.056   1.630 -0.4275  0.3072 -0.1206
 6807SOL    HW121320   3.359   2.977   1.611  0.0525 -0.0183 -0.2613
 6807SOL    HW221321   3.482   3.034   1.704 -0.6279  0.7369  0.1865
 6808SOL     OW21322   1.473   2.435   6.379  0.0425 -0.2043 -0.3191
 6808SOL    HW121323   1.427   2.418   6.466  0.5783 -1.3463 -0.2379
 6808SOL    HW221324   1.570   2.454   6.396 -0.1615  1.1618 -0.5629
 6809SOL     OW21325   2.375   3.750   6.248  0.5660 -0.1539 -0.0013
 6809SOL    HW121326   2.452   3.810   6.228  0.3327 -0.5424 -2.2461
 6809SOL    HW221327   2.392   3.703   6.335  2.5259  0.2826 -0.0984
 6810SOL     OW21328   0.593   0.932   2.868 -0.2662 -0.3933  0.7382
 6810SOL    HW121329   0.509   0.879   2.854  0.1069 -1.7627  3.0045
 6810SOL    HW221330   0.662   0.873   2.911  1.0077  1.3432  1.1935
 6811SOL     OW21331   5.530   0.148   2.245 -0.3008  0.3054  0.8190
 6811SOL    HW121332   5.585   0.133   2.328 -0.9777 -2.7162  0.8114
 6811SOL    HW221333   5.582   0.119   2.165 -0.4562  1.2024  0.3854
 6812SOL     OW21334   3.248   3.346   3.572  0.3505  0.7346  0.2158
 6812SOL    HW121335   3.346   3.327   3.581 -0.0732 -1.0176  1.7344
 6812SOL    HW221336   3.215   3.390   3.655 -1.0122 -3.1985  2.0007
 6813SOL     OW21337   3.959   2.188   1.908  0.1353  0.0172  0.0885
 6813SOL    HW121338   3.949   2.220   1.814 -0.1434  0.6415  0.3290
 6813SOL    HW221339   3.872   2.199   1.956 -0.2359 -1.8839 -0.0520
 6814SOL     OW21340   3.052   2.537   1.103  0.2320 -0.4368  0.0415
 6814SOL    HW121341   3.089   2.630   1.108 -0.8746  0.0635 -0.6399
 6814SOL    HW221342   3.023   2.508   1.194  0.5167 -0.0969  0.2480
 6815SOL     OW21343   1.417   0.673   2.407 -0.1750 -0.0490 -0.1880
 6815SOL    HW121344   1.500   0.678   2.462 -1.0649  0.5212  1.1431
 6815SOL    HW221345   1.395   0.764   2.370 -0.0915 -0.2417 -0.7222
 6816SOL     OW21346   5.998   4.418   1.876  0.6433 -0.4692  0.0825
 6816SOL    HW121347   5.916   4.472   1.856  0.7135  0.6440  2.3819
 6816SOL    HW221348   6.009   4.346   1.808 -2.0852 -0.4864 -0.4449
 6817SOL     OW21349   1.171   3.332   4.821 -0.4649  1.0048 -0.1406
 6817SOL    HW121350   1.201   3.368   4.909 -0.8799  0.9957  0.0073
 6817SOL    HW221351   1.165   3.232   4.827 -1.1062  1.0480  0.0191
 6818SOL     OW21352   3.399   5.181   2.138  0.2784 -0.2153 -0.1919
 6818SOL    HW121353   3.300   5.171   2.150  0.2382  1.7495  1.8026
 6818SOL    HW221354   3.431   5.119   2.067 -2.6677  0.4134 -2.2421
 6819SOL     OW21355   3.874   0.539   3.798  0.2621 -0.5795 -0.2375
 6819SOL    HW121356   3.836   0.631   3.803  1.1053 -0.2350 -0.0508
 6819SOL    HW221357   3.945   0.527   3.868  0.2855 -1.3103 -0.3718
 6820SOL     OW21358   0.408   5.281   2.755 -0.4707 -0.3255 -0.3982
 6820SOL    HW121359   0.397   5.245   2.848  0.7901  0.3865  0.0496
 6820SOL    HW221360   0.486   5.236   2.711 -1.5712 -1.2728 -1.4460
 6821SOL     OW21361   2.611   2.154   6.262  0.1556 -0.1148 -0.7300
 6821SOL    HW121362   2.649   2.224   6.202  0.1895  2.8446  2.4068
 6821SOL    HW221363   2.642   2.063   6.232  3.5757  1.4993 -2.6439
 6822SOL     OW21364   5.390   1.900   6.347 -0.5387 -0.0298  0.2614
 6822SOL    HW121365   5.448   1.859   6.417  2.1003  1.4046 -0.9119
 6822SOL    HW221366   5.375   1.835   6.273  0.4482 -0.1288  0.1369
 6823SOL     OW21367   3.581   3.896   3.569 -0.1077 -0.5615 -0.5812
 6823SOL    HW121368   3.618   3.980   3.610  2.1193 -2.0913  0.7565
 6823SOL    HW221369   3.512   3.857   3.630  0.6058 -0.9435 -0.0039
 6824SOL     OW21370   1.022   5.064   0.592 -0.4894  0.0265 -0.2866
 6824SOL    HW121371   1.100   5.011   0.624  0.9216  1.8613 -0.5309
 6824SOL    HW221372   0.997   5.035   0.500 -1.5370 -2.0387  0.5819
 6825SOL     OW21373   5.260   0.455   4.160  0.1801 -0.0906  0.3829
 6825SOL    HW121374   5.273   0.550   4.186 -0.0012 -0.0343  0.2639
 6825SOL    HW221375   5.167   0.441   4.126 -0.3576 -0.6618  1.9737
 6826SOL     OW21376   0.515   3.675   3.728 -0.4720 -0.2901  0.1931
 6826SOL    HW121377   0.588   3.635   3.783 -0.6010  0.5907  1.0388
 6826SOL    HW221378   0.427   3.634   3.754 -0.3316 -1.1035 -0.5823
 6827SOL     OW21379   3.648   6.436   4.785 -1.0537  0.2016 -0.1573
 6827SOL    HW121380   3.657   6.342   4.818 -4.6528  0.1258  1.0967
 6827SOL    HW221381   3.626   6.435   4.687 -1.3161 -0.3145 -0.0975
 6828SOL     OW21382   1.820   3.672   0.759 -0.1836 -0.2623  0.4624
 6828SOL    HW121383   1.784   3.589   0.800 -0.5364 -0.1737  0.3348
 6828SOL    HW221384   1.763   3.750   0.785  0.2437 -0.0321  0.7189
 6829SOL     OW21385   3.381   5.743   4.668 -0.1061  0.1366  0.2264
 6829SOL    HW121386   3.360   5.704   4.758  0.0857  1.1674  0.7366
 6829SOL    HW221387   3.476   5.772   4.666  0.3350 -1.2465 -0.8515
 6830SOL     OW21388   6.075   3.110   3.596  0.2078  0.5479  0.2519
 6830SOL    HW121389   5.994   3.151   3.639 -1.1775 -1.1490 -0.6558
 6830SOL    HW221390   6.103   3.029   3.648  1.3660  1.1117  0.5510
 6831SOL     OW21391   0.209   2.125   5.694 -0.3914  0.2455 -0.1996
 6831SOL    HW121392   0.173   2.158   5.607  0.2004  4.4593  0.9647
 6831SOL    HW221393   0.309   2.127   5.692 -0.3712  0.4671  0.5895
 6832SOL     OW21394   2.517   5.252   6.209  0.0154  0.5321  0.2252
 6832SOL    HW121395   2.564   5.171   6.244  2.6521  1.8454  0.0109
 6832SOL    HW221396   2.558   5.278   6.121 -1.7210  1.3193 -0.3896
 6833SOL     OW21397   4.543   4.206   1.165  0.3744  0.0104  0.6192
 6833SOL    HW121398   4.603   4.264   1.110  0.2979 -0.5532 -0.0697
 6833SOL    HW221399   4.534   4.245   1.257 -1.8435  2.6459 -0.5686
 6834SOL     OW21400   5.258   4.727   2.311  0.1170 -0.2363  0.4548
 6834SOL    HW121401   5.328   4.727   2.383  1.2079 -0.4603 -0.5765
 6834SOL    HW221402   5.275   4.651   2.248 -0.0139  0.7269 -0.7892
 6835SOL     OW21403   4.611   6.630   5.409  0.0720 -0.0481 -0.5426
 6835SOL    HW121404   4.570   6.717   5.438  1.6206  0.7223 -0.5722
 6835SOL    HW221405   4.684   6.605   5.473  0.5075 -0.6531 -1.2694
 6836SOL     OW21406   3.949   5.794   0.138 -0.5271  0.5487  0.2570
 6836SOL    HW121407   4.035   5.839   0.116 -0.3081  0.1272  0.2578
 6836SOL    HW221408   3.894   5.855   0.195  0.6496 -0.0043  2.0505
 6837SOL     OW21409   0.240   1.320   2.346 -0.0567 -0.1274  0.6144
 6837SOL    HW121410   0.245   1.285   2.253 -1.4965  0.1561  0.4045
 6837SOL    HW221411   0.242   1.243   2.410  0.4442 -0.3508  0.3433
 6838SOL     OW21412   1.458   0.692   6.514 -0.6533  0.1466  0.3606
 6838SOL    HW121413   1.375   0.645   6.484 -0.9656 -0.3325  1.8635
 6838SOL    HW221414   1.433   0.775   6.564 -0.2851 -0.3262  1.3623
 6839SOL     OW21415   6.681   0.916   0.366  0.1275  0.5661  0.5112
 6839SOL    HW121416   6.619   0.855   0.316 -0.5337 -0.6540  2.6548
 6839SOL    HW221417   6.773   0.909   0.328 -0.4776  0.2630 -0.9556
 6840SOL     OW21418   0.588   1.354   6.863  0.4469 -0.1076 -0.0064
 6840SOL    HW121419   0.633   1.377   6.950  1.3920  1.5709 -0.8916
 6840SOL    HW221420   0.607   1.426   6.796  3.5652 -3.3613 -3.0371
 6841SOL     OW21421   0.596   3.882   6.000 -0.2293  0.7410 -0.2805
 6841SOL    HW121422   0.670   3.918   5.942 -0.2670  1.2293 -0.0294
 6841SOL    HW221423   0.508   3.900   5.955 -0.2141  0.4313 -0.4354
 6842SOL     OW21424   0.468   4.992   2.222 -0.7062  0.2363 -0.3393
 6842SOL    HW121425   0.485   5.080   2.178 -0.9552  0.0075 -0.9194
 6842SOL    HW221426   0.400   4.942   2.168  0.3387 -0.8239 -0.7167
 6843SOL     OW21427   3.906   6.219   6.018  0.2518  0.7087  0.5254
 6843SOL    HW121428   3.881   6.131   5.979 -1.6568  1.7857 -0.8361
 6843SOL    HW221429   4.005   6.232   6.011  0.4857 -1.0369  0.2059
 6844SOL     OW21430   6.822   6.951   4.630 -0.2123 -0.3952 -1.0667
 6844SOL    HW121431   6.761   6.908   4.696 -0.0690  0.0357 -0.6465
 6844SOL    HW221432   6.771   6.973   4.546 -0.2873 -1.3570 -1.2810
 6845SOL     OW21433   5.839   1.265   3.012 -0.6724  0.2239 -0.1054
 6845SOL    HW121434   5.783   1.300   3.088  0.2211  0.3508  0.5105
 6845SOL    HW221435   5.810   1.172   2.990 -1.1280  0.2854  0.2168
 6846SOL     OW21436   2.366   5.125   0.800  0.3951 -0.1630 -0.3875
 6846SOL    HW121437   2.308   5.096   0.724  0.2870  0.9150 -0.7396
 6846SOL    HW221438   2.392   5.046   0.855 -3.3895 -0.4991  1.2212
 6847SOL     OW21439   5.913   3.672   4.555  0.9526  0.1531 -0.3526
 6847SOL    HW121440   5.817   3.700   4.559  0.8211 -0.4256  3.1032
 6847SOL    HW221441   5.971   3.753   4.559  0.5435  0.4079  2.0776
 6848SOL     OW21442   5.797   4.358   4.831  0.2023  0.3612 -0.1269
 6848SOL    HW121443   5.766   4.376   4.737 -0.6011 -1.2781 -0.1980
 6848SOL    HW221444   5.897   4.357   4.832  0.2497 -1.0711 -1.3173
 6849SOL     OW21445   3.761   4.575   5.377  0.3022 -0.1574 -0.0620
 6849SOL    HW121446   3.854   4.584   5.412  0.8298 -0.3189 -1.3662
 6849SOL    HW221447   3.744   4.479   5.354  0.7753  0.2289 -2.2806
 6850SOL     OW21448   4.452   1.471   3.642 -0.2624  0.2039 -0.0156
 6850SOL    HW121449   4.444   1.564   3.607 -0.8114  0.1537 -0.0358
 6850SOL    HW221450   4.370   1.448   3.694 -0.2608 -0.3705 -0.2602
 6851SOL     OW21451   1.223   3.279   6.458  0.0290 -0.2432 -0.2560
 6851SOL    HW121452   1.154   3.266   6.385 -1.2972 -1.1951  1.1002
 6851SOL    HW221453   1.226   3.375   6.484 -2.3510 -0.4412  1.0430
 6852SOL     OW21454   2.845   4.042   0.414  0.1919  0.0274  0.2409
 6852SOL    HW121455   2.932   4.086   0.438  0.2258  0.4486 -0.6211
 6852SOL    HW221456   2.861   3.973   0.343 -0.4134  1.3749 -1.2601
 6853SOL     OW21457   4.383   2.634   0.230 -0.2977  0.1413 -0.0902
 6853SOL    HW121458   4.442   2.587   0.296  0.2745 -0.7809 -1.2212
 6853SOL    HW221459   4.329   2.567   0.179  0.5275  0.6745 -1.7377
 6854SOL     OW21460   5.614   5.857   0.511 -0.4036  0.2278  0.3762
 6854SOL    HW121461   5.545   5.908   0.461  0.8363  1.3636 -0.2479
 6854SOL    HW221462   5.570   5.803   0.583 -2.2161 -1.2384 -1.6781
 6855SOL     OW21463   4.594   5.249   3.669  0.1193 -0.0185 -0.1878
 6855SOL    HW121464   4.685   5.228   3.705  0.2845  1.2784  0.2107
 6855SOL    HW221465   4.574   5.346   3.684 -0.9148 -0.0533 -1.1973
 6856SOL     OW21466   1.121   0.651   1.744  0.4490  0.0640  0.1202
 6856SOL    HW121467   1.095   0.597   1.825  0.5204 -1.1658 -0.6427
 6856SOL    HW221468   1.220   0.663   1.743  0.5156 -0.4546 -0.0886
 6857SOL     OW21469   6.346   3.674   5.188 -0.0013  0.1107 -0.5210
 6857SOL    HW121470   6.425   3.734   5.182  1.1642 -1.2296  0.6294
 6857SOL    HW221471   6.333   3.627   5.101  2.1311 -1.5940 -0.0069
 6858SOL     OW21472   0.862   3.969   1.721  0.4094 -0.0357 -0.2418
 6858SOL    HW121473   0.888   3.905   1.649  0.5158 -2.1740  1.6011
 6858SOL    HW221474   0.788   3.930   1.776 -1.3141  2.5433 -0.5423
 6859SOL     OW21475   6.756   2.015   1.069 -0.0030  0.3382 -0.0319
 6859SOL    HW121476   6.708   1.941   1.116  0.5644 -0.4958 -0.7232
 6859SOL    HW221477   6.770   2.091   1.131  0.7547 -0.7425  1.1849
 6860SOL     OW21478   0.660   4.611   3.480  0.0465 -0.4266  0.2581
 6860SOL    HW121479   0.608   4.556   3.415 -2.6177  2.4185 -0.2246
 6860SOL    HW221480   0.598   4.657   3.543  2.3360 -0.2949  2.5828
 6861SOL     OW21481   6.592   2.976   3.779  0.0070  0.2218  0.4167
 6861SOL    HW121482   6.613   2.910   3.707 -1.5129 -0.5613  0.6270
 6861SOL    HW221483   6.527   2.934   3.843  0.8904  1.0981  1.9342
 6862SOL     OW21484   6.743   2.999   4.741  0.2866  0.0420 -0.1218
 6862SOL    HW121485   6.828   2.947   4.746  1.1395  1.3442 -0.5957
 6862SOL    HW221486   6.742   3.069   4.813  0.4922  1.2545 -1.2561
 6863SOL     OW21487   6.553   1.921   4.538  0.2918  0.5394 -0.6379
 6863SOL    HW121488   6.543   1.823   4.553 -0.7437  0.5093 -1.4434
 6863SOL    HW221489   6.633   1.955   4.589  1.4582 -0.9456 -1.4070
 6864SOL     OW21490   2.683   3.292   0.228 -0.3501 -0.8272  0.1999
 6864SOL    HW121491   2.698   3.273   0.131  1.1252 -0.2157  0.2814
 6864SOL    HW221492   2.594   3.256   0.256  0.5320 -3.9869 -0.6097
 6865SOL     OW21493   2.181   6.476   4.055  0.1260  0.8798  0.8279
 6865SOL    HW121494   2.216   6.452   4.145  0.8464 -0.7250  0.1488
 6865SOL    HW221495   2.252   6.522   4.002 -0.3406  1.9515  1.0925
 6866SOL     OW21496   0.918   5.599   2.057  0.7447  0.4490 -0.1142
 6866SOL    HW121497   0.863   5.674   2.093  1.6367  1.7055 -1.2780
 6866SOL    HW221498   1.013   5.610   2.087  1.0639  0.2960 -1.0401
 6867SOL     OW21499   2.424   1.834   0.419  0.0110 -0.1642  0.2400
 6867SOL    HW121500   2.476   1.900   0.366 -0.2794  0.7879  1.1060
 6867SOL    HW221501   2.442   1.848   0.517  0.7980 -2.0986  0.4177
 6868SOL     OW21502   0.653   5.822   4.602  0.5307 -0.7296 -0.2837
 6868SOL    HW121503   0.726   5.854   4.541  0.9334 -1.3373 -0.1340
 6868SOL    HW221504   0.661   5.723   4.614 -1.2272 -1.0644 -1.4571
 6869SOL     OW21505   3.616   1.710   3.432  0.9229  0.0666 -0.2985
 6869SOL    HW121506   3.653   1.780   3.493  1.8930 -2.4944  2.3306
 6869SOL    HW221507   3.528   1.678   3.467  0.6231 -0.2351 -1.2970
 6870SOL     OW21508   0.328   2.579   1.527  0.0640 -0.7715 -0.5652
 6870SOL    HW121509   0.312   2.674   1.499  0.4038 -0.8790 -1.1459
 6870SOL    HW221510   0.419   2.571   1.567  0.5875 -1.1067 -1.7742
 6871SOL     OW21511   1.171   4.480   4.159 -0.1085  0.8198  0.7449
 6871SOL    HW121512   1.175   4.447   4.253 -1.3709  2.1074  1.2993
 6871SOL    HW221513   1.228   4.422   4.101 -0.9607 -1.3111  1.9070
 6872SOL     OW21514   6.738   4.154   0.696 -0.2582  0.3637 -0.1128
 6872SOL    HW121515   6.760   4.057   0.706  0.2549  0.2219 -2.2608
 6872SOL    HW221516   6.677   4.181   0.770  1.3059 -1.0297  1.8226
 6873SOL     OW21517   0.121   2.630   1.162 -0.0963 -0.6099  0.2327
 6873SOL    HW121518   0.083   2.590   1.079 -0.8253  1.2184 -0.3597
 6873SOL    HW221519   0.057   2.618   1.237  0.1114 -1.3756  0.2899
 6874SOL     OW21520   6.397   6.549   3.027 -0.5100 -0.1111  0.2170
 6874SOL    HW121521   6.366   6.578   2.936 -0.4931 -0.6403  0.0419
 6874SOL    HW221522   6.497   6.541   3.027 -0.5295 -0.3489  0.2149
 6875SOL     OW21523   3.523   1.915   6.765 -0.1524 -0.2711  0.4474
 6875SOL    HW121524   3.468   1.832   6.772 -0.5719  0.0570  1.1070
 6875SOL    HW221525   3.476   1.982   6.707 -0.1909 -0.1919  0.5703
 6876SOL     OW21526   3.850   6.179   4.594 -0.0963  0.7331 -0.3556
 6876SOL    HW121527   3.906   6.100   4.569 -0.0695  1.1393 -1.6391
 6876SOL    HW221528   3.849   6.245   4.519  2.8002  3.6913  1.9298
 6877SOL     OW21529   1.813   2.899   2.852 -0.4147 -0.0165  0.1925
 6877SOL    HW121530   1.818   2.980   2.911  0.9101 -0.6001  0.9410
 6877SOL    HW221531   1.903   2.855   2.849 -0.3298  0.1930 -2.6122
 6878SOL     OW21532   2.409   1.299   6.566  0.4372 -0.4184  0.2161
 6878SOL    HW121533   2.336   1.242   6.531 -1.6116  1.4217  1.2599
 6878SOL    HW221534   2.465   1.332   6.490 -3.6829  3.2619 -1.6720
 6879SOL     OW21535   1.873   1.489   1.168 -0.5278  0.2296  0.6012
 6879SOL    HW121536   1.910   1.574   1.206  1.6731 -0.5093  0.2648
 6879SOL    HW221537   1.868   1.497   1.068 -0.3887 -0.0066  0.5748
 6880SOL     OW21538   1.752   5.432   5.930 -0.4544  0.1350 -0.4302
 6880SOL    HW121539   1.702   5.518   5.924  0.2622  0.6446  0.6520
 6880SOL    HW221540   1.802   5.428   6.016  1.6375 -0.1841 -1.5848
 6881SOL     OW21541   1.829   4.781   7.011  0.2929 -0.1761  0.1406
 6881SOL    HW121542   1.801   4.840   7.086  0.8598  0.0750  0.1631
 6881SOL    HW221543   1.918   4.740   7.032 -0.5870 -1.9246  0.6164
 6882SOL     OW21544   0.794   5.616   6.557  0.0360  0.1722 -0.3108
 6882SOL    HW121545   0.763   5.632   6.464 -0.2716  1.4888 -0.0041
 6882SOL    HW221546   0.894   5.622   6.561 -0.0580  3.0643 -0.1018
 6883SOL     OW21547   7.022   0.475   0.261  0.8226 -0.1770  0.6737
 6883SOL    HW121548   7.080   0.544   0.217  0.9951  0.6518  2.1330
 6883SOL    HW221549   7.053   0.460   0.355 -1.0260 -0.0258  1.3654
 6884SOL     OW21550   1.199   4.239   2.804 -0.5205 -0.7962 -0.1165
 6884SOL    HW121551   1.201   4.306   2.729 -0.5411  0.1751  0.7402
 6884SOL    HW221552   1.106   4.227   2.836 -0.1658  1.3356  1.9648
 6885SOL     OW21553   6.715   1.220   3.390  0.0745  0.1821 -0.6246
 6885SOL    HW121554   6.676   1.309   3.367  0.1253  0.9486  1.9510
 6885SOL    HW221555   6.815   1.226   3.393  0.0861  0.0086 -0.5936
 6886SOL     OW21556   3.260   0.206   5.829  0.3904  0.1216  0.3456
 6886SOL    HW121557   3.323   0.232   5.902  0.3212  0.5448  0.2592
 6886SOL    HW221558   3.275   0.265   5.750 -0.5538  0.6835  0.5533
 6887SOL     OW21559   5.343   4.844   5.760  0.6087 -0.5477 -0.0162
 6887SOL    HW121560   5.372   4.898   5.681 -0.6928  0.0294 -0.1301
 6887SOL    HW221561   5.243   4.849   5.769  0.7984  0.4498  2.3813
 6888SOL     OW21562   6.827   5.569   0.070  0.1090 -0.6152 -0.2983
 6888SOL    HW121563   6.729   5.547   0.071 -0.4332  1.5027 -1.0958
 6888SOL    HW221564   6.871   5.528   0.150 -1.0068 -3.1910 -0.8891
 6889SOL     OW21565   5.464   2.791   6.159  0.5226  0.0413 -0.0453
 6889SOL    HW121566   5.500   2.704   6.192  0.1613  0.9845  3.1549
 6889SOL    HW221567   5.382   2.774   6.103  0.9791 -1.6744 -0.2631
 6890SOL     OW21568   4.493   5.516   3.130  0.1448  0.0215 -0.0054
 6890SOL    HW121569   4.426   5.448   3.099 -0.9645  1.8910 -1.9325
 6890SOL    HW221570   4.536   5.483   3.214 -2.0163 -2.0004  0.4301
 6891SOL     OW21571   0.161   2.264   0.444  0.2218  0.2733  0.1211
 6891SOL    HW121572   0.085   2.226   0.392  1.3676  0.9479 -2.1621
 6891SOL    HW221573   0.125   2.308   0.527 -1.8871  0.7173 -0.9458
 6892SOL     OW21574   3.529   0.642   2.776  0.0541 -0.2577 -0.3774
 6892SOL    HW121575   3.468   0.565   2.755 -0.2766 -0.1333  0.1276
 6892SOL    HW221576   3.499   0.687   2.860 -0.2140  0.9052 -1.0747
 6893SOL     OW21577   4.511   2.955   0.970  0.0471  0.0070 -0.2618
 6893SOL    HW121578   4.459   3.041   0.971 -1.2250 -0.7231 -0.8655
 6893SOL    HW221579   4.492   2.905   1.055  0.7109  0.2735  0.0462
 6894SOL     OW21580   5.446   6.157   6.019  0.2043 -0.1982  0.1106
 6894SOL    HW121581   5.392   6.106   6.086  0.3158 -2.2300 -1.2664
 6894SOL    HW221582   5.542   6.128   6.026  0.6387  1.2529  0.5668
 6895SOL     OW21583   0.372   5.359   2.112  0.3497 -0.2700  0.7789
 6895SOL    HW121584   0.346   5.455   2.106 -1.5745 -0.7603  0.6670
 6895SOL    HW221585   0.385   5.323   2.019 -0.6858 -0.5436  0.7285
 6896SOL     OW21586   4.167   0.591   4.783 -0.0155  0.3613 -0.5414
 6896SOL    HW121587   4.165   0.491   4.774 -0.4450  0.4459 -1.5887
 6896SOL    HW221588   4.108   0.619   4.858  1.1526 -0.2368  0.6530
 6897SOL     OW21589   3.543   3.327   4.369  0.3827 -0.3085  0.3565
 6897SOL    HW121590   3.519   3.311   4.465  2.7935  0.2117  1.1220
 6897SOL    HW221591   3.582   3.418   4.359  0.5160 -0.4999 -1.0613
 6898SOL     OW21592   3.544   1.466   1.333  0.3513  0.0567 -0.1814
 6898SOL    HW121593   3.502   1.393   1.387  1.8285 -2.1841 -1.8434
 6898SOL    HW221594   3.612   1.513   1.389  1.2546 -1.6436  0.2412
 6899SOL     OW21595   5.316   5.478   3.741 -0.0747 -0.1242 -0.8463
 6899SOL    HW121596   5.359   5.553   3.791 -0.3975  1.1077 -2.3410
 6899SOL    HW221597   5.243   5.438   3.797  0.4877  0.2701  0.1987
 6900SOL     OW21598   6.352   2.782   6.013  0.0913  0.6022  0.2807
 6900SOL    HW121599   6.337   2.777   6.112 -0.2021 -1.6920  0.1940
 6900SOL    HW221600   6.447   2.759   5.992  0.1050  0.8873  0.0201
 6901SOL     OW21601   4.100   4.119   0.537 -0.3891 -0.1468 -0.1958
 6901SOL    HW121602   4.001   4.121   0.554 -0.2833  1.8828  0.4073
 6901SOL    HW221603   4.144   4.061   0.605 -0.9634  0.5244  0.7713
 6902SOL     OW21604   0.300   0.174   6.535 -0.5269 -0.0729  0.4512
 6902SOL    HW121605   0.273   0.231   6.458 -0.2455  0.8729  1.0426
 6902SOL    HW221606   0.219   0.131   6.574 -0.6880 -0.4510 -0.2779
 6903SOL     OW21607   0.779   0.056   4.790  0.3828  0.2745 -0.3149
 6903SOL    HW121608   0.696   0.051   4.845  0.1143 -0.2181 -0.7449
 6903SOL    HW221609   0.854   0.012   4.839  0.5032  1.1069  0.2612
 6904SOL     OW21610   5.821   5.850   3.978  0.0232 -0.1996  0.1561
 6904SOL    HW121611   5.785   5.936   3.941 -1.2497 -0.8568 -0.1990
 6904SOL    HW221612   5.786   5.837   4.071  0.2635 -0.3027  0.2320
 6905SOL     OW21613   2.767   6.677   0.430 -0.1096  0.1262 -0.4850
 6905SOL    HW121614   2.830   6.711   0.500  1.2359 -0.5134 -1.3320
 6905SOL    HW221615   2.812   6.605   0.378 -1.1797  0.4031 -1.8394
 6906SOL     OW21616   2.516   3.494   6.033 -0.8167  0.4069  0.7823
 6906SOL    HW121617   2.464   3.410   6.019 -1.1547  0.5532  1.1631
 6906SOL    HW221618   2.467   3.570   5.990 -0.3168  0.3538  0.0899
 6907SOL     OW21619   6.148   4.374   5.974 -0.1867 -1.4509 -0.5069
 6907SOL    HW121620   6.247   4.366   5.983 -0.2796 -2.6401 -0.3969
 6907SOL    HW221621   6.126   4.402   5.880  0.2576 -0.8092 -0.4281
 6908SOL     OW21622   1.673   3.445   1.558  0.1814 -0.1617 -0.3418
 6908SOL    HW121623   1.724   3.404   1.633  0.4417 -2.6506 -1.7805
 6908SOL    HW221624   1.627   3.374   1.505 -2.4399  1.7383 -0.8541
 6909SOL     OW21625   0.860   6.315   3.299 -0.6998 -0.0124 -0.2892
 6909SOL    HW121626   0.901   6.224   3.305 -1.9647 -0.6287 -0.6333
 6909SOL    HW221627   0.882   6.367   3.381 -0.0192 -0.6581 -0.0555
 6910SOL     OW21628   6.300   3.631   2.772  0.0065 -0.3476  0.0573
 6910SOL    HW121629   6.269   3.726   2.763 -0.0042 -0.4202 -0.8470
 6910SOL    HW221630   6.393   3.630   2.808  0.4239  0.0823 -0.9437
 6911SOL     OW21631   1.771   5.114   7.005  0.1401 -0.1471  0.1174
 6911SOL    HW121632   1.672   5.099   7.006  0.1691 -0.3275  1.0646
 6911SOL    HW221633   1.815   5.050   7.067  0.7132  0.8235  0.7376
 6912SOL     OW21634   2.786   1.158   6.193  0.3732  0.2603  0.3668
 6912SOL    HW121635   2.846   1.083   6.221  0.0895  0.4159  1.4420
 6912SOL    HW221636   2.816   1.243   6.237 -0.7187  0.3062  1.0565
 6913SOL     OW21637   5.452   5.693   6.308 -1.0814 -0.1986 -0.2736
 6913SOL    HW121638   5.378   5.749   6.272 -0.4595  0.8192  0.0104
 6913SOL    HW221639   5.427   5.596   6.302 -1.0313 -0.1144 -3.4712
 6914SOL     OW21640   2.163   2.801   1.961  0.0858  0.2776  0.2141
 6914SOL    HW121641   2.224   2.811   2.039  0.6641 -0.4584 -0.1335
 6914SOL    HW221642   2.071   2.833   1.986  0.7741  2.2160  0.4958
 6915SOL     OW21643   0.464   3.646   4.246  0.7934  0.8182 -0.0530
 6915SOL    HW121644   0.541   3.677   4.190  2.1975 -0.6096  1.0021
 6915SOL    HW221645   0.497   3.616   4.335 -0.9836  0.0554  0.3988
 6916SOL     OW21646   5.253   6.544   5.669  0.5895  0.2750 -0.1482
 6916SOL    HW121647   5.236   6.588   5.580  0.8291 -0.7729 -0.7304
 6916SOL    HW221648   5.316   6.601   5.723 -1.8573  2.4452  0.6095
 6917SOL     OW21649   4.592   6.989   1.333 -0.5198 -0.3271 -0.3850
 6917SOL    HW121650   4.675   7.005   1.386 -1.2574  1.6191  0.2470
 6917SOL    HW221651   4.613   6.996   1.235  0.0182  0.3741 -0.2259
 6918SOL     OW21652   0.675   4.184   1.491  0.2430  0.4171  0.6320
 6918SOL    HW121653   0.616   4.104   1.503  0.0022  0.6642  1.1408
 6918SOL    HW221654   0.685   4.231   1.579  0.7381  0.6981  0.4271
 6919SOL     OW21655   4.364   5.456   5.649 -0.5250 -0.0438 -0.2297
 6919SOL    HW121656   4.408   5.532   5.600  0.5382  0.6001  1.6130
 6919SOL    HW221657   4.434   5.390   5.676 -0.9695 -0.0323  1.0051
 6920SOL     OW21658   6.914   0.958   0.199 -0.2016 -0.0570 -0.1101
 6920SOL    HW121659   6.930   1.052   0.231 -1.1028  0.1878 -0.3415
 6920SOL    HW221660   6.956   0.946   0.110  1.5657 -0.4739  0.7401
 6921SOL     OW21661   5.412   6.899   3.897  0.8952  0.0965  0.2798
 6921SOL    HW121662   5.391   6.853   3.983 -2.1082  1.0508  0.1761
 6921SOL    HW221663   5.438   6.994   3.915  2.3026 -0.2509  0.2050
 6922SOL     OW21664   1.649   4.651   6.622  0.0223  0.4104  0.7656
 6922SOL    HW121665   1.639   4.750   6.623  2.9783  0.8714 -1.5908
 6922SOL    HW221666   1.738   4.627   6.584 -0.8458 -3.1900  0.6688
 6923SOL     OW21667   6.120   1.026   2.833 -0.3034  0.3337  0.6016
 6923SOL    HW121668   6.214   1.049   2.808 -0.0731  0.5694  1.6496
 6923SOL    HW221669   6.077   0.978   2.757  0.3050  1.1883 -0.3141
 6924SOL     OW21670   3.657   6.102   0.778  0.0577 -0.3558  0.7539
 6924SOL    HW121671   3.589   6.083   0.848 -0.5961  0.5183  0.3752
 6924SOL    HW221672   3.746   6.065   0.806  0.2980  1.6798  2.9882
 6925SOL     OW21673   5.681   6.341   6.828  0.0170  0.2334  0.2094
 6925SOL    HW121674   5.692   6.413   6.897 -0.1483 -0.0555  0.5404
 6925SOL    HW221675   5.771   6.318   6.791  0.1408  0.1898  0.5344
 6926SOL     OW21676   3.146   0.608   6.840  0.3178 -0.5476 -1.3411
 6926SOL    HW121677   3.094   0.524   6.826 -0.0602 -0.6584  0.4274
 6926SOL    HW221678   3.089   0.686   6.814 -0.2910 -0.7322 -0.6046
 6927SOL     OW21679   4.093   2.451   6.529 -0.5630 -0.2619 -0.1554
 6927SOL    HW121680   4.046   2.473   6.443  2.1698  0.1446 -1.6503
 6927SOL    HW221681   4.135   2.361   6.521  0.8313  0.3343  0.2175
 6928SOL     OW21682   3.595   0.331   2.338 -0.7169  0.0907 -0.0455
 6928SOL    HW121683   3.643   0.415   2.312 -0.0210  0.3002  1.7716
 6928SOL    HW221684   3.649   0.251   2.311 -1.6613  0.1213 -2.3403
 6929SOL     OW21685   0.379   5.373   0.044 -0.2520 -0.1813  0.4722
 6929SOL    HW121686   0.411   5.400  -0.047 -0.5191  0.0198  0.4391
 6929SOL    HW221687   0.456   5.376   0.108 -0.0215 -0.4940  0.2190
 6930SOL     OW21688   0.436   0.000   1.389  0.0797  0.4404 -0.1258
 6930SOL    HW121689   0.376  -0.014   1.310  0.0604 -1.0038  0.1268
 6930SOL    HW221690   0.528   0.023   1.358  0.1034 -0.2526 -0.5822
 6931SOL     OW21691   2.966   3.319   0.833  0.2089 -0.0428 -0.1280
 6931SOL    HW121692   2.884   3.263   0.818  0.2432  0.3299 -1.9338
 6931SOL    HW221693   2.976   3.337   0.931 -1.8428 -0.1336  0.1449
 6932SOL     OW21694   1.039   4.163   6.370 -0.1366  0.1424  0.1261
 6932SOL    HW121695   1.113   4.231   6.365  0.8879 -1.0064 -3.1527
 6932SOL    HW221696   0.985   4.168   6.286 -0.7790 -2.3168  0.3368
 6933SOL     OW21697   3.405   5.804   0.700 -0.3696  0.5168  0.0199
 6933SOL    HW121698   3.445   5.713   0.685 -0.9997  0.2740 -0.2251
 6933SOL    HW221699   3.347   5.802   0.781 -2.7800 -0.1409 -1.5959
 6934SOL     OW21700   2.611   4.091   6.864 -0.1679  0.4166 -0.2676
 6934SOL    HW121701   2.656   4.050   6.785  2.0063  0.8574  0.6368
 6934SOL    HW221702   2.575   4.019   6.923  0.6394 -0.0592 -0.3365
 6935SOL     OW21703   2.837   6.227   1.526  0.8315 -0.6475 -0.9679
 6935SOL    HW121704   2.809   6.322   1.519  0.7983 -0.7480 -2.4942
 6935SOL    HW221705   2.816   6.192   1.618 -0.7620  0.2892 -0.9569
 6936SOL     OW21706   0.005   2.601   3.391  0.6334 -0.4436 -0.7818
 6936SOL    HW121707   0.098   2.578   3.419  0.7364  1.9170  1.1351
 6936SOL    HW221708   0.008   2.662   3.312  0.6616 -1.1166 -1.3048
 6937SOL     OW21709   6.625   6.171   0.457 -0.0023 -0.2557  0.0193
 6937SOL    HW121710   6.699   6.197   0.395  0.3046  2.4435  1.3611
 6937SOL    HW221711   6.539   6.169   0.407  0.2547  1.7309 -0.5654
 6938SOL     OW21712   0.803   0.193   5.762 -0.2351  0.7950 -0.0307
 6938SOL    HW121713   0.893   0.209   5.722  0.3423  1.5643  1.4918
 6938SOL    HW221714   0.761   0.281   5.786  1.1331  0.4611  4.5097
 6939SOL     OW21715   6.091   4.327   3.114  0.1539  0.1113 -0.2659
 6939SOL    HW121716   6.080   4.303   3.210 -1.0079 -1.0679 -0.6628
 6939SOL    HW221717   6.181   4.370   3.100  1.2552 -1.6308  0.9927
 6940SOL     OW21718   1.868   4.984   1.875  0.1422 -0.5813  0.2204
 6940SOL    HW121719   1.923   5.023   1.802  0.5505  0.3102  0.9926
 6940SOL    HW221720   1.871   4.884   1.870  1.1289 -0.5325 -0.2577
 6941SOL     OW21721   3.414   3.217   1.383  0.3856 -0.0848  0.2705
 6941SOL    HW121722   3.369   3.178   1.302  1.6440  0.8956 -0.9644
 6941SOL    HW221723   3.405   3.154   1.460  0.9159 -2.0498 -1.1919
 6942SOL     OW21724   5.962   6.051   3.365  0.2635  0.0607  0.2445
 6942SOL    HW121725   5.880   6.044   3.308  0.3685 -0.9537  0.2002
 6942SOL    HW221726   5.936   6.047   3.461  0.2463 -0.2812  0.2301
 6943SOL     OW21727   4.291   4.025   5.426  0.0924  0.5261  0.2093
 6943SOL    HW121728   4.385   4.057   5.414 -0.2454  0.9127 -1.8292
 6943SOL    HW221729   4.228   4.096   5.395 -0.7384 -0.9511 -1.7412
 6944SOL     OW21730   2.047   5.097   5.890 -0.1014 -0.4554 -0.3435
 6944SOL    HW121731   2.107   5.030   5.846 -1.0084 -0.3571 -1.8243
 6944SOL    HW221732   2.012   5.059   5.976 -1.2562 -2.2803 -1.5467
 6945SOL     OW21733   5.274   1.435   1.207  0.1064 -0.0299 -0.2109
 6945SOL    HW121734   5.251   1.338   1.197  2.2610 -0.5853 -0.1889
 6945SOL    HW221735   5.213   1.490   1.149 -0.8308 -1.4143 -0.5912
 6946SOL     OW21736   5.504   4.337   2.838 -0.2086 -0.3958  0.1874
 6946SOL    HW121737   5.542   4.375   2.754  0.0266  1.1304  0.9510
 6946SOL    HW221738   5.413   4.376   2.854  0.4841  0.7513  1.5527
 6947SOL     OW21739   5.446   5.545   2.279  0.3192 -0.1313 -0.0673
 6947SOL    HW121740   5.407   5.590   2.359 -2.5789  0.2977 -1.5903
 6947SOL    HW221741   5.411   5.452   2.271  0.9125 -0.3210 -0.6191
 6948SOL     OW21742   6.971   4.671   0.107  0.0888  0.1174  0.2734
 6948SOL    HW121743   6.907   4.634   0.040 -0.3175  0.9212  0.2107
 6948SOL    HW221744   7.064   4.647   0.081 -0.2492 -3.1008  1.5837
 6949SOL     OW21745   3.047   2.258   4.024 -0.2960  0.2373 -0.4181
 6949SOL    HW121746   2.959   2.249   3.978 -0.4782  1.4894 -0.3362
 6949SOL    HW221747   3.034   2.250   4.123 -0.6711  2.5228 -0.2339
 6950SOL     OW21748   0.404   6.342   5.103 -0.6081 -0.3251  0.5826
 6950SOL    HW121749   0.407   6.244   5.121  0.5404 -0.4239 -0.0282
 6950SOL    HW221750   0.460   6.390   5.170 -0.0839 -0.2304  0.0856
 6951SOL     OW21751   2.080   3.650   6.564 -0.0323 -0.4724 -0.4928
 6951SOL    HW121752   2.018   3.643   6.641 -0.6412 -1.0110 -1.0222
 6951SOL    HW221753   2.117   3.560   6.542  2.2803  0.0595  0.8760
 6952SOL     OW21754   4.474   5.577   4.236  0.2392  0.4893  0.0466
 6952SOL    HW121755   4.488   5.480   4.258 -0.7881 -0.1116 -1.7006
 6952SOL    HW221756   4.381   5.604   4.263  0.1807  0.6992 -0.3549
 6953SOL     OW21757   5.582   1.759   2.828  0.8866 -0.2300 -0.2925
 6953SOL    HW121758   5.585   1.796   2.735  0.8463 -2.1356 -1.0933
 6953SOL    HW221759   5.647   1.683   2.836  0.8467 -0.1458  1.2406
 6954SOL     OW21760   5.363   2.457   0.003  0.6075  0.2756 -0.8353
 6954SOL    HW121761   5.304   2.450   0.083  1.7546  1.1251  0.1361
 6954SOL    HW221762   5.438   2.391   0.011  1.1201  0.8439 -0.8402
 6955SOL     OW21763   3.244   5.605   3.955  0.2519  0.2363 -0.0829
 6955SOL    HW121764   3.309   5.672   3.918 -0.3681  0.6996 -0.3554
 6955SOL    HW221765   3.283   5.562   4.037  0.4837  1.2668  0.3708
 6956SOL     OW21766   4.833   5.916   2.177 -0.1272 -0.1706  0.0949
 6956SOL    HW121767   4.767   5.916   2.102  1.0710 -0.5000 -1.0072
 6956SOL    HW221768   4.921   5.949   2.143  0.5574 -0.7386  1.2631
 6957SOL     OW21769   5.924   6.275   6.281 -0.3325  0.1584  0.6478
 6957SOL    HW121770   5.908   6.178   6.298 -0.6207  0.0444 -0.2140
 6957SOL    HW221771   5.970   6.287   6.193  1.2581  0.7068  1.5139
 6958SOL     OW21772   2.917   3.577   2.915 -0.0205 -0.2421 -0.4352
 6958SOL    HW121773   2.985   3.631   2.865 -0.4727 -0.7664 -1.6711
 6958SOL    HW221774   2.907   3.613   3.007 -1.8174  3.1805 -1.7921
 6959SOL     OW21775   6.542   4.275   2.142 -0.0583 -0.0695  0.4691
 6959SOL    HW121776   6.525   4.318   2.053 -0.4436  1.9778  1.4604
 6959SOL    HW221777   6.455   4.266   2.191  0.2532 -0.4256  0.9578
 6960SOL     OW21778   3.850   3.030   0.662  0.3182 -0.3128  0.0791
 6960SOL    HW121779   3.753   3.024   0.637  0.0392 -2.6528  1.4247
 6960SOL    HW221780   3.873   2.953   0.722  2.6272  1.1141  1.1305
 6961SOL     OW21781   4.912   2.478   5.562  0.0446 -0.1814 -0.7538
 6961SOL    HW121782   4.963   2.422   5.496  1.8123 -1.2375  1.3998
 6961SOL    HW221783   4.962   2.563   5.578 -0.3642  0.0563 -0.7290
 6962SOL     OW21784   3.476   6.244   0.059 -0.0793 -0.7704 -0.1666
 6962SOL    HW121785   3.537   6.282  -0.010 -1.5188  0.4784 -0.8153
 6962SOL    HW221786   3.507   6.272   0.150  0.5534 -0.4999 -0.4593
 6963SOL     OW21787   6.245   6.285   2.056 -0.2772 -0.7827 -0.1886
 6963SOL    HW121788   6.262   6.193   2.022 -3.0769 -0.3282 -3.3019
 6963SOL    HW221789   6.148   6.297   2.076  0.1250  1.3223  0.8129
 6964SOL     OW21790   1.542   6.929   4.260  0.6165  0.3314 -0.6679
 6964SOL    HW121791   1.564   6.832   4.271 -1.2550 -0.0486  0.2619
 6964SOL    HW221792   1.553   6.976   4.348 -1.4305  0.2440 -0.3022
 6965SOL     OW21793   2.631   7.001   6.527 -0.7580  0.2443 -0.5210
 6965SOL    HW121794   2.644   6.906   6.552 -1.4424  0.1521 -0.5152
 6965SOL    HW221795   2.662   7.060   6.601  2.0593  0.1212 -1.4773
 6966SOL     OW21796   1.743   6.799   0.317  0.3198  0.0040  0.1093
 6966SOL    HW121797   1.731   6.853   0.401  1.5796 -1.0063  0.9911
 6966SOL    HW221798   1.840   6.777   0.306  0.1869  0.1711 -1.6832
 6967SOL     OW21799   3.413   0.306   6.053  0.1146  1.0136 -0.3175
 6967SOL    HW121800   3.467   0.391   6.053 -0.2831  1.3360  1.8696
 6967SOL    HW221801   3.464   0.235   6.100  0.7432 -0.2435 -2.7477
 6968SOL     OW21802   5.713   5.389   3.140 -0.2107 -0.2169  0.3353
 6968SOL    HW121803   5.654   5.353   3.212 -1.0632 -1.6951 -1.0299
 6968SOL    HW221804   5.792   5.328   3.129  0.6151  0.7326  0.8994
 6969SOL     OW21805   1.635   1.273   0.622 -0.2728 -0.4291  0.8881
 6969SOL    HW121806   1.603   1.280   0.717 -1.7198 -1.0668  0.4730
 6969SOL    HW221807   1.611   1.357   0.573  1.8880  0.5960  1.4343
 6970SOL     OW21808   3.469   5.422   5.954 -0.2745  0.6877  0.6394
 6970SOL    HW121809   3.514   5.363   6.021 -1.4569 -1.0071  0.0002
 6970SOL    HW221810   3.374   5.438   5.981 -0.5773  0.5229 -0.2851
 6971SOL     OW21811   0.821   5.408   0.004  0.6723 -0.2278  0.4426
 6971SOL    HW121812   0.788   5.482   0.062  1.4027  2.4580 -2.2739
 6971SOL    HW221813   0.743   5.355  -0.029 -0.0390  0.2743  1.2745
 6972SOL     OW21814   5.009   2.704   2.512 -0.5730  0.2164  0.0056
 6972SOL    HW121815   5.018   2.789   2.563 -0.5481 -1.1362  2.4012
 6972SOL    HW221816   5.089   2.646   2.528 -1.5756 -1.1640  0.2551
 6973SOL     OW21817   2.790   1.639   3.139  0.6298 -0.0925 -0.2241
 6973SOL    HW121818   2.801   1.541   3.120 -0.9775 -0.7436  1.8327
 6973SOL    HW221819   2.733   1.680   3.069  0.0245 -1.0003 -0.2846
 6974SOL     OW21820   3.153   3.483   3.787 -0.0894 -0.0930 -0.1512
 6974SOL    HW121821   3.182   3.519   3.876 -0.8848 -1.2058  0.5842
 6974SOL    HW221822   3.073   3.535   3.755 -0.8398 -0.7341  0.6042
 6975SOL     OW21823   1.619   4.466   2.680 -0.2346 -0.5703 -0.7365
 6975SOL    HW121824   1.613   4.559   2.643  1.1298  0.3258  1.1146
 6975SOL    HW221825   1.532   4.443   2.724 -0.5606 -0.1495 -1.1389
 6976SOL     OW21826   4.316   4.654   6.971  0.1549 -0.0605 -0.1361
 6976SOL    HW121827   4.401   4.701   6.994 -0.8009  0.6611  2.2658
 6976SOL    HW221828   4.299   4.661   6.872  1.8167  1.5820 -0.3566
 6977SOL     OW21829   4.386   6.906   0.084 -0.7132 -0.5305 -0.0382
 6977SOL    HW121830   4.408   6.858   0.169  1.2041  0.8201  0.3069
 6977SOL    HW221831   4.374   7.004   0.103  0.1435 -0.1449 -1.3334
 6978SOL     OW21832   6.032   2.644   1.972 -0.0108 -0.1151 -0.1988
 6978SOL    HW121833   5.979   2.639   2.057 -0.0257 -0.4142 -0.2231
 6978SOL    HW221834   6.068   2.736   1.960  1.4438 -0.4910  1.0022
 6979SOL     OW21835   0.585   2.625   2.641  0.2702  0.4664  0.8772
 6979SOL    HW121836   0.616   2.709   2.686  1.1322  0.5900  0.0713
 6979SOL    HW221837   0.632   2.546   2.681 -0.7409  0.3214  1.8225
 6980SOL     OW21838   1.632   6.059   0.972 -0.4535  0.1752 -0.1652
 6980SOL    HW121839   1.644   5.961   0.958  0.4918  0.2231  0.1930
 6980SOL    HW221840   1.654   6.108   0.887 -2.2945  0.0102 -0.7708
 6981SOL     OW21841   2.962   2.737   0.395 -0.1266  0.0095  0.4213
 6981SOL    HW121842   2.965   2.641   0.423 -2.7684 -0.4406 -0.5491
 6981SOL    HW221843   2.948   2.794   0.475  2.1584 -0.2857  1.0993
 6982SOL     OW21844   0.656   5.592   3.121 -0.0938  0.0938  0.0525
 6982SOL    HW121845   0.663   5.492   3.122 -1.7738 -0.0397  0.3787
 6982SOL    HW221846   0.725   5.630   3.183  1.7810 -0.7329 -1.4080
 6983SOL     OW21847   0.450   1.869   4.319 -0.0348  0.2448  0.4170
 6983SOL    HW121848   0.523   1.905   4.261 -0.5911  0.5444 -0.1138
 6983SOL    HW221849   0.361   1.891   4.278 -0.4058 -1.3175  0.3415
 6984SOL     OW21850   1.099   2.563   4.290  0.2924  0.0400 -0.1881
 6984SOL    HW121851   1.066   2.590   4.199  0.9902  0.2645 -0.3843
 6984SOL    HW221852   1.023   2.527   4.344 -0.9574  3.2777  0.4418
 6985SOL     OW21853   6.008   4.029   0.038  0.2750 -0.8226  0.0682
 6985SOL    HW121854   6.057   3.958  -0.013  0.3200 -0.9474  0.2817
 6985SOL    HW221855   6.074   4.096   0.072  0.1231 -0.1054 -1.0197
 6986SOL     OW21856   5.122   5.686   6.308 -0.1666 -0.0433  0.2718
 6986SOL    HW121857   5.025   5.710   6.297 -0.1862 -0.7580 -1.5044
 6986SOL    HW221858   5.177   5.742   6.245  0.6855  0.9023  1.8056
 6987SOL     OW21859   0.062   1.056   6.072 -0.4700  0.1908  0.0641
 6987SOL    HW121860   0.110   1.144   6.078 -1.0954  0.5277  0.2791
 6987SOL    HW221861  -0.009   1.062   6.001 -0.0494 -0.3692 -0.4055
 6988SOL     OW21862   4.359   0.488   0.519 -0.2702  0.0509 -0.2175
 6988SOL    HW121863   4.262   0.514   0.517 -1.1652 -2.8207  0.8933
 6988SOL    HW221864   4.371   0.400   0.472  1.7006  0.0339  0.2377
 6989SOL     OW21865   1.248   4.830   1.612  0.3806  0.8327 -0.3850
 6989SOL    HW121866   1.206   4.804   1.700  1.3164  2.1140  0.4745
 6989SOL    HW221867   1.291   4.750   1.571  1.3079  0.5272  1.1124
 6990SOL     OW21868   5.128   0.583   1.299 -0.3349  0.5451 -0.2130
 6990SOL    HW121869   5.129   0.606   1.396  0.0579 -0.3839  0.0107
 6990SOL    HW221870   5.202   0.519   1.279 -0.4501  0.6793 -1.1128
 6991SOL     OW21871   4.802   2.257   3.232  0.4137 -0.3145  0.2841
 6991SOL    HW121872   4.771   2.295   3.319  2.5726  0.7753  0.6413
 6991SOL    HW221873   4.753   2.301   3.157 -0.5848 -0.3698  0.8843
 6992SOL     OW21874   2.064   4.580   0.774  0.5535 -0.3901 -0.7270
 6992SOL    HW121875   2.116   4.556   0.856 -0.0134 -0.0067 -0.2429
 6992SOL    HW221876   2.115   4.554   0.693  2.0108  1.0141 -0.3025
 6993SOL     OW21877   4.903   2.675   2.776  0.0673 -0.5104 -0.0043
 6993SOL    HW121878   4.909   2.636   2.684 -3.4917 -1.1772 -0.1127
 6993SOL    HW221879   4.921   2.604   2.844 -0.9487 -0.9871 -0.2165
 6994SOL     OW21880   2.475   0.688   2.918  0.2280 -0.2333  0.0630
 6994SOL    HW121881   2.471   0.617   2.989  1.4170 -0.8954 -0.4996
 6994SOL    HW221882   2.503   0.647   2.831  1.2872  0.9616 -0.2026
 6995SOL     OW21883   5.860   5.654   2.450 -0.1357 -0.7413 -0.1335
 6995SOL    HW121884   5.853   5.562   2.413 -2.0628 -0.3214 -0.9557
 6995SOL    HW221885   5.818   5.658   2.540  0.7132 -0.8419  0.2709
 6996SOL     OW21886   0.593   0.215   6.478  0.4467 -0.6473 -0.6258
 6996SOL    HW121887   0.613   0.232   6.381 -0.1722 -1.5019 -0.9117
 6996SOL    HW221888   0.494   0.210   6.491  0.5438 -1.2382 -0.0694
 6997SOL     OW21889   5.493   4.469   6.892 -0.2711 -0.0294 -0.5268
 6997SOL    HW121890   5.544   4.405   6.835 -1.2915 -1.0878 -0.2975
 6997SOL    HW221891   5.509   4.562   6.860  1.5599 -0.3494 -0.6145
 6998SOL     OW21892   5.849   1.942   6.974 -0.0503 -0.4456 -0.7068
 6998SOL    HW121893   5.772   1.905   7.027 -0.1721 -1.4202 -1.5384
 6998SOL    HW221894   5.841   1.912   6.879  0.2210  1.1947 -1.2674
 6999SOL     OW21895   6.400   3.992   6.882  0.0972  0.6724  0.6327
 6999SOL    HW121896   6.481   3.948   6.843 -1.4623 -1.0330 -0.8009
 6999SOL    HW221897   6.407   4.091   6.869  1.9339  0.5666  0.5557
 7000SOL     OW21898   0.965   0.113   2.492 -0.5561 -0.1295 -0.0586
 7000SOL    HW121899   1.000   0.206   2.494 -2.3416  0.6393 -1.8180
 7000SOL    HW221900   1.037   0.051   2.460 -0.1488  1.0758 -1.5815
 7001SOL     OW21901   6.841   3.740   6.075  0.4822  0.1307  0.1829
 7001SOL    HW121902   6.827   3.832   6.112  1.2739  0.8042 -1.1485
 7001SOL    HW221903   6.752   3.699   6.054 -0.0626 -0.4843  3.1801
 7002SOL     OW21904   0.434   5.235   3.681  0.0438 -0.1398 -0.0160
 7002SOL    HW121905   0.405   5.330   3.685  0.5138 -0.0060  0.2589
 7002SOL    HW221906   0.478   5.209   3.767  0.1062 -0.5454 -0.1651
 7003SOL     OW21907   6.451   4.701   1.435 -0.5145 -0.1592 -0.1083
 7003SOL    HW121908   6.423   4.678   1.342  1.3463 -1.6004 -0.3690
 7003SOL    HW221909   6.413   4.790   1.461 -0.6355  0.5098 -2.4248
 7004SOL     OW21910   2.954   0.348   0.049  0.0124 -0.0637 -0.2558
 7004SOL    HW121911   2.952   0.433   0.102  2.3743 -1.5823  2.4704
 7004SOL    HW221912   2.967   0.371  -0.048 -0.9370  2.6793  0.1577
 7005SOL     OW21913   1.800   6.372   0.936 -0.0328  0.8398  0.2015
 7005SOL    HW121914   1.711   6.386   0.979  0.0449 -1.3025  1.2149
 7005SOL    HW221915   1.867   6.347   1.007  1.5012  2.7966 -0.4821
 7006SOL     OW21916   1.835   6.526   4.427 -0.1173 -0.0061 -0.4618
 7006SOL    HW121917   1.832   6.430   4.398  0.9297 -0.2127  0.0606
 7006SOL    HW221918   1.918   6.569   4.393 -0.5068  0.6779 -0.5619
 7007SOL     OW21919   1.451   0.312   0.381  0.1391 -0.1933  0.0446
 7007SOL    HW121920   1.362   0.273   0.406 -0.2981 -1.3380 -2.8526
 7007SOL    HW221921   1.497   0.250   0.317  1.0552  2.3243 -1.8927
 7008SOL     OW21922   5.879   3.894   3.702  0.2412  0.3283  0.1151
 7008SOL    HW121923   5.964   3.856   3.665  0.2412 -0.9576  1.3341
 7008SOL    HW221924   5.892   3.915   3.799 -1.0845 -0.8245  0.5759
 7009SOL     OW21925   4.723   6.325   1.136 -0.7386 -0.1235 -0.1676
 7009SOL    HW121926   4.813   6.285   1.117 -1.7141 -1.6440 -2.0435
 7009SOL    HW221927   4.695   6.300   1.229  1.6952  2.3999  1.3889
 7010SOL     OW21928   6.411   3.587   0.702  0.0991 -0.3482 -0.4327
 7010SOL    HW121929   6.433   3.491   0.683  1.0725 -0.4036  0.8119
 7010SOL    HW221930   6.359   3.593   0.787 -1.6612  0.1027 -1.4915
 7011SOL     OW21931   2.608   0.041   0.121  0.6643  0.4268  0.2110
 7011SOL    HW121932   2.638   0.032   0.026  0.0513  2.0217 -0.1568
 7011SOL    HW221933   2.542   0.115   0.129 -1.0344 -1.1454  1.5131
 7012SOL     OW21934   6.461   2.233   6.437 -0.4015  0.8732 -0.1738
 7012SOL    HW121935   6.408   2.312   6.469 -0.8261  1.7763 -2.7930
 7012SOL    HW221936   6.532   2.265   6.374  0.2976 -0.7248 -0.2301
 7013SOL     OW21937   3.227   1.020   0.366  0.3338  0.0174  0.4122
 7013SOL    HW121938   3.262   1.020   0.460  1.0758  0.7679  0.1476
 7013SOL    HW221939   3.127   1.016   0.368  0.1933  2.3234  1.3309
 7014SOL     OW21940   6.293   3.407   0.955 -0.3840 -0.1321 -0.2283
 7014SOL    HW121941   6.270   3.315   0.925  0.4158 -0.1152 -0.9459
 7014SOL    HW221942   6.328   3.404   1.048 -1.1565 -0.4346  0.0590
 7015SOL     OW21943   4.970   6.645   1.064 -0.0014  0.5185  0.2607
 7015SOL    HW121944   4.870   6.642   1.068  0.0433  0.0727  2.4060
 7015SOL    HW221945   5.007   6.643   1.157  2.0268  0.2208 -0.4974
 7016SOL     OW21946   2.449   6.346   1.133 -0.5831  0.3777  0.3701
 7016SOL    HW121947   2.447   6.251   1.102  1.7193 -0.1618  1.6645
 7016SOL    HW221948   2.485   6.405   1.060  1.4954 -0.3485  0.7471
 7017SOL     OW21949   0.253   5.452   4.515  0.5896 -0.4328 -0.1844
 7017SOL    HW121950   0.292   5.485   4.429 -0.7966 -0.3376 -0.7968
 7017SOL    HW221951   0.166   5.498   4.533  0.2940 -1.2755  0.6828
 7018SOL     OW21952   0.876   2.203   3.727  0.5313 -0.2131 -0.4215
 7018SOL    HW121953   0.968   2.227   3.696  0.6130  1.2654  0.8204
 7018SOL    HW221954   0.828   2.153   3.655  1.3007  1.5198 -2.2273
 7019SOL     OW21955   5.489   0.582   2.904 -0.2554 -0.2118  0.6545
 7019SOL    HW121956   5.429   0.552   2.830 -1.4862  0.9158  1.1547
 7019SOL    HW221957   5.577   0.535   2.897  0.0819  0.6337 -2.1780
 7020SOL     OW21958   1.130   1.831   5.696 -0.2952  0.0331  0.0261
 7020SOL    HW121959   1.218   1.829   5.649 -1.0829 -0.4350 -1.4948
 7020SOL    HW221960   1.112   1.923   5.729  0.1967  0.4218 -0.7702
 7021SOL     OW21961   0.572   0.859   5.987  0.6625  0.3484  0.0356
 7021SOL    HW121962   0.501   0.917   6.026 -0.4705 -0.0937 -1.3048
 7021SOL    HW221963   0.554   0.844   5.890  2.4308 -0.0329 -0.2668
 7022SOL     OW21964   2.885   0.355   6.585 -0.1811  0.3659  0.1879
 7022SOL    HW121965   2.908   0.294   6.509  2.0893  0.1776  0.9688
 7022SOL    HW221966   2.867   0.447   6.550  0.6897  0.2478 -0.5968
 7023SOL     OW21967   1.460   1.881   6.409 -0.1012 -0.2470 -0.6621
 7023SOL    HW121968   1.445   1.958   6.471 -1.3400 -2.2767  1.7538
 7023SOL    HW221969   1.375   1.863   6.358  0.6068  0.7633 -2.3083
 7024SOL     OW21970   4.194   3.786   5.361  0.4040 -0.0766 -0.0790
 7024SOL    HW121971   4.220   3.880   5.381 -0.2358 -0.2189  1.5387
 7024SOL    HW221972   4.268   3.742   5.309  2.9756 -0.0726  3.2026
 7025SOL     OW21973   3.818   6.540   0.483  0.7281 -0.0859  0.1989
 7025SOL    HW121974   3.781   6.472   0.547  2.5159 -0.2330  1.1564
 7025SOL    HW221975   3.785   6.631   0.508  0.0947 -0.3306  0.2829
 7026SOL     OW21976   3.789   3.492   0.902 -0.3519  0.3277  0.3100
 7026SOL    HW121977   3.712   3.445   0.946 -1.0453 -0.0531 -1.2563
 7026SOL    HW221978   3.865   3.427   0.890 -0.2207  0.3907  0.7421
 7027SOL     OW21979   2.514   6.488   5.527 -0.2266 -0.0326 -0.5080
 7027SOL    HW121980   2.477   6.579   5.548  0.1270 -0.1122  0.5245
 7027SOL    HW221981   2.605   6.498   5.486  0.4018  0.0638  0.8604
 7028SOL     OW21982   2.925   6.512   1.302 -0.0320  0.0783  0.0061
 7028SOL    HW121983   3.001   6.569   1.334  0.8848 -1.0244 -0.1557
 7028SOL    HW221984   2.864   6.492   1.379  1.3809 -1.3659  0.8032
 7029SOL     OW21985   3.339   4.132   3.276 -0.0858  0.4367 -0.0923
 7029SOL    HW121986   3.415   4.067   3.282  1.9370  2.3395 -3.0262
 7029SOL    HW221987   3.312   4.159   3.368  0.1325 -3.1177  1.2025
 7030SOL     OW21988   6.786   2.667   5.183  0.0719  0.1947 -0.0716
 7030SOL    HW121989   6.783   2.607   5.103 -0.5094  0.6875 -0.4231
 7030SOL    HW221990   6.699   2.717   5.191  1.3649  2.7730 -1.1462
 7031SOL     OW21991   5.468   0.072   0.364 -0.1331  0.1567  0.1771
 7031SOL    HW121992   5.458   0.085   0.463 -1.1112  1.5235 -0.0655
 7031SOL    HW221993   5.557   0.106   0.334  0.4556 -0.8961  0.6575
 7032SOL     OW21994   3.617   5.243   4.018 -0.1289  0.5627  0.6832
 7032SOL    HW121995   3.607   5.145   4.038  1.3683  0.3706  0.6024
 7032SOL    HW221996   3.679   5.284   4.085  0.5325  1.0951 -0.2354
 7033SOL     OW21997   1.359   0.174   3.888  0.1400  0.4952 -0.3357
 7033SOL    HW121998   1.406   0.092   3.921  2.2433  0.4491 -3.1282
 7033SOL    HW221999   1.390   0.196   3.795 -3.0141  2.4184 -1.1014
 7034SOL     OW22000   5.769   6.092   3.843 -0.2274  0.0484  0.1895
 7034SOL    HW122001   5.669   6.100   3.841 -0.1282  1.6997 -0.7863
 7034SOL    HW222002   5.810   6.182   3.823  1.4419 -0.8135 -0.4858
 7035SOL     OW22003   1.042   1.025   1.314 -0.4448  0.2895 -0.2483
 7035SOL    HW122004   1.045   0.929   1.344  1.2632  0.1968 -0.6549
 7035SOL    HW222005   1.004   1.030   1.222 -0.9599  0.0618 -0.0531
 7036SOL     OW22006   6.508   2.031   3.783 -0.0523  0.3035 -0.4127
 7036SOL    HW122007   6.574   2.095   3.821 -0.3242 -0.4954  1.4967
 7036SOL    HW222008   6.454   2.077   3.713  0.2677  1.9482  0.3767
 7037SOL     OW22009   6.687   1.215   6.591  0.5056  0.1120  0.2269
 7037SOL    HW122010   6.670   1.139   6.654  0.5044  0.6213  0.8592
 7037SOL    HW222011   6.713   1.296   6.644 -0.2070  0.7485 -0.3845
 7038SOL     OW22012   1.847   5.060   1.027 -0.0392  0.0362  0.1520
 7038SOL    HW122013   1.881   5.069   0.934 -0.1049  1.1439  0.2290
 7038SOL    HW222014   1.763   5.006   1.026 -1.4964  2.1881 -0.7873
 7039SOL     OW22015   6.776   5.166   0.840 -0.1478 -0.1260  0.2021
 7039SOL    HW122016   6.798   5.213   0.754  0.1603 -0.7448 -0.0600
 7039SOL    HW222017   6.849   5.103   0.863 -0.8159 -0.8950  0.2569
 7040SOL     OW22018   6.343   1.302   4.479  0.0984 -0.5105  0.1255
 7040SOL    HW122019   6.263   1.258   4.438  0.6795 -1.1210 -0.3799
 7040SOL    HW222020   6.418   1.236   4.484  0.5242  0.0090  0.7394
 7041SOL     OW22021   1.141   6.964   5.507  0.3250 -0.5566  0.1139
 7041SOL    HW122022   1.127   6.980   5.604 -1.3284  0.1924 -0.2152
 7041SOL    HW222023   1.124   7.049   5.456  2.2273 -0.6515 -0.7591
 7042SOL     OW22024   5.927   0.731   5.025 -0.2264 -0.1651 -0.3771
 7042SOL    HW122025   6.013   0.782   5.031 -0.1279 -0.5066  1.6533
 7042SOL    HW222026   5.938   0.640   5.065 -1.0639 -0.9304 -1.7788
 7043SOL     OW22027   1.618   5.675   6.670  0.1126 -0.0682  0.0961
 7043SOL    HW122028   1.559   5.608   6.625  1.0589 -0.9850  0.1731
 7043SOL    HW222029   1.574   5.709   6.753 -0.2358 -0.8756  0.2540
 7044SOL     OW22030   5.510   0.457   4.485  0.1271 -1.2967  0.4996
 7044SOL    HW122031   5.550   0.521   4.419 -0.3211 -1.0027  0.5067
 7044SOL    HW222032   5.533   0.364   4.459  1.9856 -1.1042  1.2608
 7045SOL     OW22033   1.449   6.797   2.594 -0.3743  0.4580 -0.0591
 7045SOL    HW122034   1.443   6.737   2.514  1.3101  0.0663  0.0625
 7045SOL    HW222035   1.386   6.765   2.665 -0.7380 -0.1295 -0.6352
 7046SOL     OW22036   1.773   2.011   4.556 -0.5097  0.0214 -0.1321
 7046SOL    HW122037   1.739   2.031   4.464 -0.1906  3.2822  0.3653
 7046SOL    HW222038   1.868   2.040   4.563 -0.8168  0.7197  1.4854
 7047SOL     OW22039   6.765   4.679   0.608  0.1857 -0.3578 -0.2788
 7047SOL    HW122040   6.762   4.585   0.644 -0.1359  0.4956  2.1339
 7047SOL    HW222041   6.853   4.695   0.565 -0.1392 -2.0609 -1.6923
 7048SOL     OW22042   5.493   5.812   4.142  0.2208 -0.1427  0.4882
 7048SOL    HW122043   5.566   5.770   4.088  1.3084 -0.5849  2.2346
 7048SOL    HW222044   5.533   5.873   4.211 -1.1320  0.4961  0.7357
 7049SOL     OW22045   2.883   0.911   4.274 -0.2566  0.1551  0.0696
 7049SOL    HW122046   2.948   0.973   4.229 -3.6244  3.1438 -1.2240
 7049SOL    HW222047   2.885   0.926   4.372  0.5417  0.6870 -0.0176
 7050SOL     OW22048   3.952   3.120   1.532  0.0546  0.0760  0.0640
 7050SOL    HW122049   3.942   3.039   1.591  0.4735  0.9264  1.3552
 7050SOL    HW222050   3.972   3.199   1.589 -0.0750  1.0462 -1.2101
 7051SOL     OW22051   6.474   6.112   2.128 -0.2079 -0.1170  0.1346
 7051SOL    HW122052   6.449   6.183   2.194 -0.5192 -1.9595  2.0727
 7051SOL    HW222053   6.570   6.124   2.101  0.1066  0.3345  1.3739
 7052SOL     OW22054   5.748   1.271   3.737  0.0318  0.2709 -0.1369
 7052SOL    HW122055   5.738   1.316   3.648 -1.4998  0.3388  0.0380
 7052SOL    HW222056   5.755   1.172   3.724 -0.7186  0.2350 -0.3239
 7053SOL     OW22057   6.344   1.515   1.727  0.2022 -0.1340  0.1081
 7053SOL    HW122058   6.424   1.558   1.769  1.8677 -1.7220 -1.2632
 7053SOL    HW222059   6.277   1.493   1.798  0.0547  2.9820  1.0649
 7054SOL     OW22060   6.069   1.243   0.275  0.5767 -0.3046  0.4354
 7054SOL    HW122061   5.990   1.287   0.232 -0.4570 -0.9651  1.5916
 7054SOL    HW222062   6.115   1.308   0.335 -0.1587 -0.3883  1.1135
 7055SOL     OW22063   0.647   0.478   0.600 -0.4974  1.1263  0.4206
 7055SOL    HW122064   0.681   0.428   0.520 -1.2180  0.7752  0.3317
 7055SOL    HW222065   0.721   0.488   0.667 -0.6692 -1.2571  1.0356
 7056SOL     OW22066   6.552   5.215   0.431 -0.1929 -0.4263  0.0466
 7056SOL    HW122067   6.492   5.279   0.480  0.3458  1.1259 -1.2364
 7056SOL    HW222068   6.620   5.178   0.495 -1.0901 -0.4595  1.0155
 7057SOL     OW22069   1.441   4.431   4.770 -0.4608  0.5009 -0.6511
 7057SOL    HW122070   1.458   4.499   4.842  0.1878 -0.7264  0.3987
 7057SOL    HW222071   1.461   4.471   4.681  0.5595  1.4861 -0.0026
 7058SOL     OW22072   6.222   2.725   5.132 -0.6604 -0.6046  0.6646
 7058SOL    HW122073   6.239   2.789   5.206  1.4196  2.1947 -1.9603
 7058SOL    HW222074   6.134   2.745   5.089 -0.8932 -0.8107  1.0438
 7059SOL     OW22075   0.160   6.689   6.055  0.4804 -0.2301 -0.0380
 7059SOL    HW122076   0.076   6.732   6.022 -1.0515 -1.9524  1.4014
 7059SOL    HW222077   0.182   6.725   6.146  0.5684 -0.7138  0.1338
 7060SOL     OW22078   3.967   6.701   1.772  0.2049  0.2659  1.3306
 7060SOL    HW122079   3.871   6.698   1.801  0.1353  0.4747  1.1277
 7060SOL    HW222080   3.983   6.631   1.703 -0.4237  1.8208 -0.4629
 7061SOL     OW22081   6.824   2.931   2.248 -0.5811 -0.0507  0.1658
 7061SOL    HW122082   6.923   2.947   2.254 -0.3914 -0.0333 -1.9903
 7061SOL    HW222083   6.775   3.002   2.298  0.4829 -0.4191  1.8210
 7062SOL     OW22084   4.151   0.026   2.273  0.2461  0.1920  0.1438
 7062SOL    HW122085   4.154   0.081   2.357 -1.3198  0.4105  0.0967
 7062SOL    HW222086   4.095  -0.056   2.289  1.6014 -0.8150 -0.1226
 7063SOL     OW22087   1.083   6.382   3.117 -0.4587  0.3408 -0.1429
 7063SOL    HW122088   1.168   6.390   3.169  0.4534  2.1223 -1.8020
 7063SOL    HW222089   1.006   6.379   3.181  0.6545  1.5411  1.3436
 7064SOL     OW22090   2.863   2.460   5.613 -0.3493 -0.4795 -0.4103
 7064SOL    HW122091   2.919   2.499   5.540  0.6431  3.0754  1.9712
 7064SOL    HW222092   2.771   2.501   5.610  0.0977  0.7208  0.9907
 7065SOL     OW22093   3.796   6.700   4.700  0.9185 -0.4493  0.1724
 7065SOL    HW122094   3.730   6.625   4.700  0.5224 -0.2076 -2.7800
 7065SOL    HW222095   3.886   6.665   4.726  0.4522 -1.6202  0.2626
 7066SOL     OW22096   5.462   0.634   0.112 -0.7101 -0.0537  0.3953
 7066SOL    HW122097   5.494   0.542   0.092 -1.5973 -0.1156 -0.8563
 7066SOL    HW222098   5.364   0.640   0.094 -0.5626  1.2660 -0.0802
 7067SOL     OW22099   2.253   3.475   0.350 -0.0322 -0.3163  0.7102
 7067SOL    HW122100   2.286   3.420   0.427 -0.6416  0.4826  1.5603
 7067SOL    HW222101   2.276   3.571   0.366 -0.9135 -0.0297  0.2943
 7068SOL     OW22102   6.909   2.775   4.804  0.1790 -0.4631 -0.0267
 7068SOL    HW122103   6.982   2.720   4.763 -0.7656 -2.3793  0.7552
 7068SOL    HW222104   6.843   2.715   4.849 -1.6296  1.2598 -0.2624
 7069SOL     OW22105   6.699   1.769   1.287 -0.5545  0.1828  0.1755
 7069SOL    HW122106   6.763   1.776   1.210 -0.0147  1.0798  0.6881
 7069SOL    HW222107   6.670   1.674   1.297 -0.5464  0.0251 -1.0573
 7070SOL     OW22108   6.558   5.766   5.014  0.2591  0.2467 -0.1421
 7070SOL    HW122109   6.537   5.688   5.072  1.0284  0.6671  0.7337
 7070SOL    HW222110   6.627   5.740   4.946  0.2720  0.0717 -0.0607
 7071SOL     OW22111   3.462   5.282   0.095  0.2890  0.2040  0.2275
 7071SOL    HW122112   3.498   5.231   0.173 -0.1348 -0.0750  0.2466
 7071SOL    HW222113   3.363   5.269   0.091  0.0945  1.4623  0.5565
 7072SOL     OW22114   1.379   4.903   4.340  0.0947  0.5341  0.1908
 7072SOL    HW122115   1.352   4.997   4.362  2.4284  1.5981 -1.1637
 7072SOL    HW222116   1.308   4.860   4.283 -1.0241  1.4152  0.8667
 7073SOL     OW22117   2.788   1.823   4.646  0.2644  0.8951  0.1948
 7073SOL    HW122118   2.816   1.886   4.718  0.2885  1.2561 -0.1294
 7073SOL    HW222119   2.706   1.774   4.675  1.1388 -0.0786  1.0980
 7074SOL     OW22120   5.698   4.306   2.434 -0.0948 -0.2300 -0.2346
 7074SOL    HW122121   5.697   4.351   2.345  2.0525 -0.9982 -0.7176
 7074SOL    HW222122   5.675   4.209   2.423 -0.3509 -0.2110  0.1218
 7075SOL     OW22123   2.377   5.381   2.028  0.0464  0.3820 -0.2904
 7075SOL    HW122124   2.424   5.353   1.944 -1.1866  0.7935 -1.1423
 7075SOL    HW222125   2.353   5.478   2.022 -1.8108 -0.0474 -0.3607
 7076SOL     OW22126   0.421   3.384   2.810  0.2164  0.0363 -0.2810
 7076SOL    HW122127   0.403   3.290   2.781 -0.0853  0.0130 -0.0207
 7076SOL    HW222128   0.464   3.383   2.900 -0.8235  0.1912  0.2184
 7077SOL     OW22129   4.116   3.703   0.220  0.3132  0.4934  0.6819
 7077SOL    HW122130   4.053   3.702   0.298  0.5029 -2.1856  0.8780
 7077SOL    HW222131   4.196   3.647   0.241  0.7733  0.3975 -1.1554
 7078SOL     OW22132   6.817   0.248   6.730  0.2680 -0.4627 -0.4076
 7078SOL    HW122133   6.796   0.153   6.754  0.2823 -0.0809  1.2265
 7078SOL    HW222134   6.898   0.278   6.780 -0.4695  0.7872  0.0703
 7079SOL     OW22135   1.682   5.981   6.214  0.4623  0.3937  0.3475
 7079SOL    HW122136   1.731   5.897   6.237 -1.4478 -0.5868  1.0294
 7079SOL    HW222137   1.747   6.049   6.181  2.1471 -1.1158  0.3992
 7080SOL     OW22138   4.300   2.902   6.445  0.7497 -0.3159  0.0845
 7080SOL    HW122139   4.234   2.829   6.433  0.3812  0.0381 -0.0796
 7080SOL    HW222140   4.362   2.880   6.521  0.2539 -0.5166  0.4371
 7081SOL     OW22141   1.891   0.412   0.014 -0.9970 -0.5777 -0.4291
 7081SOL    HW122142   1.835   0.441   0.092  1.6299  1.8100  0.7698
 7081SOL    HW222143   1.954   0.340   0.043 -0.7147 -0.4145 -0.6293
 7082SOL     OW22144   5.767   4.757   1.505  0.4490  0.2364  0.0097
 7082SOL    HW122145   5.843   4.706   1.465  0.2204  0.4086 -0.6645
 7082SOL    HW222146   5.789   4.783   1.599  0.5792 -1.0614  0.3522
 7083SOL     OW22147   5.766   2.954   3.691  0.0388 -0.4806 -0.6877
 7083SOL    HW122148   5.793   2.888   3.621 -0.3629 -0.0162 -1.2928
 7083SOL    HW222149   5.740   2.905   3.774  1.4278 -1.0025 -0.5216
 7084SOL     OW22150   1.878   5.782   0.239 -0.9747 -0.0436 -0.0685
 7084SOL    HW122151   1.809   5.770   0.167  0.5040 -1.5211 -1.3246
 7084SOL    HW222152   1.940   5.703   0.238  0.0532  0.6988  1.7858
 7085SOL     OW22153   5.381   3.898   2.328 -0.4202 -0.0981  0.3063
 7085SOL    HW122154   5.394   3.800   2.315  0.3949 -0.3273  2.4600
 7085SOL    HW222155   5.283   3.919   2.332 -0.6964 -0.3800 -2.6680
 7086SOL     OW22156   6.855   1.154   3.898  0.5294 -0.3589 -0.1013
 7086SOL    HW122157   6.933   1.215   3.909  0.5610 -0.4688  0.3087
 7086SOL    HW222158   6.882   1.074   3.844  0.8170 -0.5978  0.3854
 7087SOL     OW22159   5.882   3.219   2.482 -0.4441 -0.3223 -0.3580
 7087SOL    HW122160   5.848   3.301   2.435 -1.6549 -0.8616 -0.4742
 7087SOL    HW222161   5.888   3.144   2.416  1.2528 -0.1838 -0.3861
 7088SOL     OW22162   4.050   1.937   5.913 -0.2895 -0.2125 -0.2075
 7088SOL    HW122163   4.107   2.017   5.930  0.1550 -0.6370  0.3518
 7088SOL    HW222164   4.004   1.947   5.825  1.0926 -0.1155 -0.9449
 7089SOL     OW22165   0.869   0.075   5.092  0.3760 -0.3422 -0.4676
 7089SOL    HW122166   0.847   0.065   5.189 -0.6330  0.3163 -0.6101
 7089SOL    HW222167   0.950   0.133   5.082  0.4389 -0.3519 -0.0234
 7090SOL     OW22168   4.750   2.766   1.624  0.5767  0.2387  0.3624
 7090SOL    HW122169   4.760   2.865   1.631  1.1587  0.2825 -0.7997
 7090SOL    HW222170   4.839   2.726   1.601  0.3930 -0.5790  1.0505
 7091SOL     OW22171   5.987   5.395   2.515  0.1969  0.1277 -0.1730
 7091SOL    HW122172   6.042   5.329   2.463  1.6201  1.4121 -0.3355
 7091SOL    HW222173   6.041   5.476   2.536 -0.3574 -0.2307  3.2094
 7092SOL     OW22174   4.724   1.318   4.440  0.1346 -0.7661  0.2037
 7092SOL    HW122175   4.703   1.409   4.476  1.1040  0.4718 -2.1317
 7092SOL    HW222176   4.822   1.312   4.420  0.0399 -2.2381  0.0628
 7093SOL     OW22177   3.319   1.752   1.648 -0.0991 -0.2793 -0.2956
 7093SOL    HW122178   3.333   1.682   1.578  1.9109 -0.2694  0.0428
 7093SOL    HW222179   3.342   1.842   1.611  1.4049 -0.3199  0.4298
 7094SOL     OW22180   3.260   0.983   5.861  0.9016  0.3679 -0.2818
 7094SOL    HW122181   3.359   0.972   5.866  0.7455 -1.8505 -1.0778
 7094SOL    HW222182   3.215   0.897   5.884 -0.7891  0.8728 -1.4506
 7095SOL     OW22183   2.916   4.880   5.056  0.0820  0.5484 -0.6240
 7095SOL    HW122184   2.854   4.913   5.127  0.8951  1.5493 -0.3495
 7095SOL    HW222185   2.880   4.795   5.017 -1.0601  0.7033  0.0419
 7096SOL     OW22186   6.110   0.813   1.081 -0.1394  0.4563 -0.6280
 7096SOL    HW122187   6.163   0.803   0.997  0.8967  0.9273 -0.0501
 7096SOL    HW222188   6.028   0.868   1.063  0.1331  0.6496 -1.2971
 7097SOL     OW22189   5.182   3.107   3.792 -0.5115 -0.2394  0.0015
 7097SOL    HW122190   5.231   3.176   3.845 -0.1053 -0.4423 -0.1069
 7097SOL    HW222191   5.198   3.121   3.695 -1.3629  0.2092 -0.0761
 7098SOL     OW22192   2.396   0.018   3.677 -0.1378 -0.2497 -0.3039
 7098SOL    HW122193   2.311   0.053   3.717  0.5226  0.2089  0.7242
 7098SOL    HW222194   2.431   0.085   3.611  0.5821  0.6156  0.9102
 7099SOL     OW22195   2.703   0.734   4.248 -0.7169  0.4551  0.0942
 7099SOL    HW122196   2.614   0.777   4.265  0.2188  1.7812  1.9675
 7099SOL    HW222197   2.776   0.802   4.261  0.6380 -0.8315 -0.4921
 7100SOL     OW22198   5.308   5.092   2.520 -0.2731 -0.3064 -1.0118
 7100SOL    HW122199   5.381   5.059   2.580  0.0085 -0.2265 -1.3041
 7100SOL    HW222200   5.220   5.060   2.554 -0.1496  0.0287 -0.3624
 7101SOL     OW22201   3.137   6.630   5.136 -0.3802  0.5076  0.1220
 7101SOL    HW122202   3.128   6.672   5.045  0.8639  0.4732 -0.0385
 7101SOL    HW222203   3.185   6.693   5.197  1.4029 -0.5752 -0.0871
 7102SOL     OW22204   6.266   0.770   3.910  0.3967  0.1517  0.2795
 7102SOL    HW122205   6.315   0.842   3.959  1.2278 -2.0862  2.9832
 7102SOL    HW222206   6.331   0.712   3.861  0.2787 -1.1174  1.5259
 7103SOL     OW22207   4.586   5.420   3.351 -0.2431  0.9961  0.6160
 7103SOL    HW122208   4.530   5.479   3.409  0.2599  2.0099  0.0821
 7103SOL    HW222209   4.574   5.325   3.380 -0.5710  1.4041  1.8977
 7104SOL     OW22210   5.601   4.497   4.939  0.0796 -0.2223 -0.0234
 7104SOL    HW122211   5.681   4.454   4.896  0.9222  0.6078  0.6610
 7104SOL    HW222212   5.603   4.596   4.922 -0.5960 -0.1425  0.3290
 7105SOL     OW22213   3.471   4.143   2.747 -0.4415 -0.8452  0.0251
 7105SOL    HW122214   3.422   4.078   2.805 -0.1609 -0.2796  0.9198
 7105SOL    HW222215   3.497   4.223   2.801  1.0962 -0.9332 -0.5270
 7106SOL     OW22216   3.612   2.017   2.493 -0.0068 -0.3829  0.3590
 7106SOL    HW122217   3.558   2.038   2.411 -1.2098 -1.3098  0.8864
 7106SOL    HW222218   3.676   2.092   2.510 -0.8391  0.5726 -0.5269
 7107SOL     OW22219   4.940   0.667   0.482 -0.2417  0.1315 -0.2468
 7107SOL    HW122220   4.920   0.626   0.393 -1.9775 -2.0184  1.0278
 7107SOL    HW222221   5.037   0.686   0.489 -0.1082  0.6155 -2.6856
 7108SOL     OW22222   4.525   0.413   0.764 -0.2556 -0.0838  0.2007
 7108SOL    HW122223   4.476   0.428   0.678  0.5544  0.5001 -0.1747
 7108SOL    HW222224   4.618   0.450   0.757 -0.4559  0.7914  1.6220
 7109SOL     OW22225   3.730   3.596   5.319  0.8963 -0.1306  0.0979
 7109SOL    HW122226   3.793   3.633   5.386  0.3579  0.6752  0.1755
 7109SOL    HW222227   3.654   3.549   5.365  1.0557 -0.4651  0.0243
 7110SOL     OW22228   1.846   4.971   3.919 -0.8050 -0.1014 -0.7799
 7110SOL    HW122229   1.899   5.027   3.855  0.1732 -1.7303 -1.4819
 7110SOL    HW222230   1.804   5.029   3.988  1.9411  1.3022 -0.1568
 7111SOL     OW22231   0.567   1.116   4.522 -0.2352 -0.5976  0.4016
 7111SOL    HW122232   0.487   1.162   4.561  0.3556 -0.7148  1.7948
 7111SOL    HW222233   0.625   1.184   4.477 -1.0751 -0.5026 -0.5681
 7112SOL     OW22234   6.630   4.332   0.263 -0.3125 -0.0965 -0.0657
 7112SOL    HW122235   6.585   4.281   0.336 -0.3008  0.9289  0.6856
 7112SOL    HW222236   6.684   4.406   0.303 -2.1806  1.9869 -1.2011
 7113SOL     OW22237   4.176   5.787   4.129 -0.4159  0.3869  0.9006
 7113SOL    HW122238   4.233   5.817   4.205  0.0508 -1.0227  1.1235
 7113SOL    HW222239   4.099   5.733   4.164  0.3845 -1.1703  0.3228
 7114SOL     OW22240   6.664   3.292   6.865 -0.0381 -0.4617  0.0073
 7114SOL    HW122241   6.675   3.385   6.900 -1.3077 -0.1889 -0.2674
 7114SOL    HW222242   6.592   3.246   6.917 -1.4088 -0.3199 -1.7004
 7115SOL     OW22243   4.257   4.888   0.154  0.1088  0.1858 -0.3481
 7115SOL    HW122244   4.313   4.858   0.230  0.7736 -1.2573 -1.3451
 7115SOL    HW222245   4.243   4.811   0.091 -2.1609  0.7591 -0.6461
 7116SOL     OW22246   1.009   3.929   5.917 -0.0037 -0.5392  0.0705
 7116SOL    HW122247   0.970   3.978   5.838 -0.8800  2.0205  1.9513
 7116SOL    HW222248   1.102   3.962   5.933  0.3904 -1.4880 -0.2267
 7117SOL     OW22249   6.215   7.019   3.692  0.0778 -0.9493  0.4596
 7117SOL    HW122250   6.188   7.045   3.599 -2.1123 -0.5655  1.1356
 7117SOL    HW222251   6.212   6.919   3.700  0.7775 -1.0126 -0.0108
 7118SOL     OW22252   3.801   4.026   4.095 -0.6517 -1.0780  0.4419
 7118SOL    HW122253   3.713   4.060   4.063  0.7917  2.0219 -0.6150
 7118SOL    HW222254   3.862   4.010   4.018  0.8381  0.3901  1.2261
 7119SOL     OW22255   3.687   5.825   4.636  0.2887  0.1296  0.1345
 7119SOL    HW122256   3.669   5.916   4.672 -1.1877  0.2188 -0.7502
 7119SOL    HW222257   3.732   5.770   4.706 -2.6499  0.2124  2.2711
 7120SOL     OW22258   5.643   0.676   2.199 -0.3011  0.2855  0.0676
 7120SOL    HW122259   5.607   0.759   2.157 -1.1223 -0.7528 -1.4152
 7120SOL    HW222260   5.576   0.640   2.264 -1.4745 -0.9233 -1.7062
 7121SOL     OW22261   2.540   6.858   1.306  0.6257  0.1300 -0.0028
 7121SOL    HW122262   2.585   6.787   1.359  1.2818 -0.5662 -1.4267
 7121SOL    HW222263   2.569   6.851   1.210 -0.3756  1.4404 -0.4267
 7122SOL     OW22264   3.672   1.380   0.072  0.3070  0.1403 -0.1510
 7122SOL    HW122265   3.654   1.422   0.161 -0.4650 -0.1638 -0.1552
 7122SOL    HW222266   3.770   1.382   0.054  0.4093  0.8087  0.4042
 7123SOL     OW22267   5.837   5.084   6.510 -0.0439 -0.4896 -0.0909
 7123SOL    HW122268   5.747   5.041   6.505  0.2367 -1.0794 -0.1985
 7123SOL    HW222269   5.831   5.179   6.480 -0.5485 -0.6518 -0.5124
 7124SOL     OW22270   0.505   1.861   0.905 -0.0688 -0.1043 -0.3403
 7124SOL    HW122271   0.518   1.947   0.855 -1.5755  0.5140  0.2567
 7124SOL    HW222272   0.592   1.833   0.945  0.4317  1.2205 -0.4333
 7125SOL     OW22273   1.041   5.440   1.853 -0.7265  0.0140 -0.0077
 7125SOL    HW122274   1.140   5.454   1.857 -0.8959  1.0795  0.8264
 7125SOL    HW222275   0.999   5.477   1.935 -1.7016 -1.6292  0.2821
 7126SOL     OW22276   4.577   6.014   0.088  0.0825 -0.2659 -0.6443
 7126SOL    HW122277   4.477   6.013   0.081  0.0987 -0.5396 -0.8229
 7126SOL    HW222278   4.606   5.954   0.163 -0.0735  2.4708  1.8100
 7127SOL     OW22279   2.059   6.351   6.942 -0.3244 -0.2657  0.2547
 7127SOL    HW122280   2.078   6.428   7.003 -2.0602  0.0256  0.4846
 7127SOL    HW222281   2.008   6.281   6.993  0.0624 -0.9743 -0.3153
 7128SOL     OW22282   0.233   4.410   0.672  0.1290  0.4218 -0.3416
 7128SOL    HW122283   0.252   4.314   0.689  0.1567  0.4163 -0.4015
 7128SOL    HW222284   0.291   4.443   0.597 -0.5383  0.2415 -0.9496
 7129SOL     OW22285   2.307   0.281   0.346 -0.4764 -0.2861 -0.0639
 7129SOL    HW122286   2.343   0.268   0.253  0.1664 -1.7635  0.3637
 7129SOL    HW222287   2.273   0.374   0.355  2.5024  0.9843 -0.7449
 7130SOL     OW22288   2.409   0.335   2.909 -0.1888 -0.3023  0.1504
 7130SOL    HW122289   2.480   0.266   2.894 -0.3018 -0.8703  1.9875
 7130SOL    HW222290   2.446   0.408   2.967 -0.3778  0.6889 -0.9455
 7131SOL     OW22291   1.051   1.465   1.777 -0.4179  0.7648  0.2123
 7131SOL    HW122292   0.985   1.453   1.704  0.6292  0.4218 -0.7101
 7131SOL    HW222293   1.112   1.542   1.755  0.9463 -0.3654 -0.1176
 7132SOL     OW22294   5.038   2.534   5.980  0.1342  0.4497  0.1701
 7132SOL    HW122295   5.040   2.608   6.047 -1.6058  0.9490 -0.2515
 7132SOL    HW222296   5.084   2.563   5.896  2.3980 -0.2138  1.1337
 7133SOL     OW22297   5.713   4.258   2.985  0.3718  0.1716 -0.0447
 7133SOL    HW122298   5.769   4.333   3.019  0.5461 -0.2739  0.6778
 7133SOL    HW222299   5.634   4.294   2.936  0.1521  0.8343  0.7772
 7134SOL     OW22300   4.949   6.684   0.114  0.9831 -0.1976  0.5599
 7134SOL    HW122301   5.026   6.673   0.177 -0.3011 -1.1501  2.0458
 7134SOL    HW222302   4.980   6.731   0.031  3.3211 -1.2012  0.7726
 7135SOL     OW22303   6.108   2.300   6.914  0.1670  0.5800 -0.8226
 7135SOL    HW122304   6.102   2.254   6.826  1.1203  0.4353 -0.8254
 7135SOL    HW222305   6.017   2.305   6.956 -0.0685 -0.6571 -1.1456
 7136SOL     OW22306   1.215   0.949   3.159 -0.4087 -0.3379  0.0460
 7136SOL    HW122307   1.165   0.892   3.095  0.4659  0.0293 -0.9847
 7136SOL    HW222308   1.264   1.020   3.110  3.1373 -2.1154  0.6756
 7137SOL     OW22309   4.088   2.551   1.703  0.0427  0.2399 -0.4980
 7137SOL    HW122310   4.042   2.462   1.704 -0.9634  0.7259  1.0684
 7137SOL    HW222311   4.022   2.623   1.681  0.6588  0.6880 -0.9078
 7138SOL     OW22312   5.130   1.982   0.146 -0.5458 -0.0881  0.0520
 7138SOL    HW122313   5.188   1.903   0.164  0.0170  0.2461 -0.2540
 7138SOL    HW222314   5.163   2.031   0.066  2.1202  3.1459  2.7760
 7139SOL     OW22315   0.098   6.201   0.214 -0.2066  0.4997  0.0984
 7139SOL    HW122316   0.109   6.111   0.173 -0.1108  0.1181  0.9364
 7139SOL    HW222317   0.115   6.272   0.145 -1.9271 -0.1030 -1.0113
 7140SOL     OW22318   6.466   3.456   5.699 -0.1452 -0.3333 -0.3063
 7140SOL    HW122319   6.433   3.496   5.613  0.2615 -0.9669 -0.7640
 7140SOL    HW222320   6.565   3.462   5.703 -0.0580 -1.4833 -0.4838
 7141SOL     OW22321   3.609   0.189   0.904  0.1634  1.2298 -0.1768
 7141SOL    HW122322   3.533   0.132   0.934  0.4905  0.3190 -1.0135
 7141SOL    HW222323   3.677   0.195   0.977  0.9069 -0.8696 -0.6099
 7142SOL     OW22324   1.761   6.728   3.891  0.0598 -0.1449  0.2951
 7142SOL    HW122325   1.749   6.815   3.843  0.0040 -0.7005 -0.7193
 7142SOL    HW222326   1.846   6.732   3.945 -0.6132  0.9971  1.3314
 7143SOL     OW22327   2.918   2.003   6.293 -0.1296 -0.2038  0.3520
 7143SOL    HW122328   3.000   1.961   6.255 -0.1212  0.9691 -1.0321
 7143SOL    HW222329   2.838   1.970   6.243 -0.1028  1.4997 -0.9077
 7144SOL     OW22330   6.472   0.237   6.041 -0.6343  0.0126 -0.5035
 7144SOL    HW122331   6.562   0.267   6.008 -0.2990 -0.3960  0.0412
 7144SOL    HW222332   6.464   0.139   6.029 -0.5102 -0.1440  0.6223
 7145SOL     OW22333   6.465   1.954   6.782  0.2663 -0.1181 -0.1570
 7145SOL    HW122334   6.548   1.941   6.727  0.4265 -3.2922  0.6068
 7145SOL    HW222335   6.387   1.969   6.722  0.7083 -1.7360 -1.2135
 7146SOL     OW22336   1.181   0.773   1.280 -0.1565  0.1364  0.1131
 7146SOL    HW122337   1.223   0.697   1.231  0.9932  0.2973  0.8061
 7146SOL    HW222338   1.252   0.837   1.309 -0.8236  0.2010  1.6950
 7147SOL     OW22339   5.986   6.175   2.116  0.1320  0.3773  0.1654
 7147SOL    HW122340   5.996   6.155   2.214 -1.0843 -1.9285 -0.1330
 7147SOL    HW222341   6.044   6.113   2.063 -0.4398  0.5196 -0.6446
 7148SOL     OW22342   6.355   2.832   0.906  0.2006 -0.2536  0.2352
 7148SOL    HW122343   6.306   2.761   0.957 -2.8470  1.6433  0.2201
 7148SOL    HW222344   6.343   2.817   0.808  0.2261 -0.1978  0.2233
 7149SOL     OW22345   5.166   4.177   6.108  0.3595 -0.6465 -0.4103
 7149SOL    HW122346   5.069   4.203   6.107  0.3954 -0.4872 -0.0023
 7149SOL    HW222347   5.220   4.247   6.062  0.2714 -0.7849 -0.7289
 7150SOL     OW22348   3.002   3.185   6.267  0.4763 -0.4142 -0.0428
 7150SOL    HW122349   2.955   3.097   6.259 -1.6796  0.6335  0.2104
 7150SOL    HW222350   3.035   3.214   6.177  0.8960 -1.2935 -0.1850
 7151SOL     OW22351   5.275   2.354   6.255 -0.0426  0.3958 -0.2229
 7151SOL    HW122352   5.189   2.355   6.307  0.5535 -0.0879  0.8001
 7151SOL    HW222353   5.290   2.262   6.218  1.4991 -0.4387  2.1936
 7152SOL     OW22354   0.504   1.622   4.465  0.0256  0.4665  0.0348
 7152SOL    HW122355   0.578   1.632   4.532  0.7049 -2.2005 -0.1959
 7152SOL    HW222356   0.487   1.710   4.421  1.7022  1.5939  1.4767
 7153SOL     OW22357   5.036   5.174   0.887  0.1459 -0.1146 -0.5197
 7153SOL    HW122358   4.963   5.240   0.906  0.5538  0.6595 -1.5563
 7153SOL    HW222359   5.000   5.081   0.899 -1.0275  0.2451 -1.0348
 7154SOL     OW22360   2.492   1.244   2.360  0.4387 -0.6297  0.0551
 7154SOL    HW122361   2.413   1.243   2.299  0.7159 -0.6863 -0.3095
 7154SOL    HW222362   2.478   1.310   2.433  0.2748 -0.2611 -0.3074
 7155SOL     OW22363   0.902   1.103   1.911  0.6648  0.1849  0.1432
 7155SOL    HW122364   0.857   1.062   1.832 -0.3469  2.0442 -0.2928
 7155SOL    HW222365   1.001   1.091   1.903  0.5995  0.6456 -1.5940
 7156SOL     OW22366   6.726   3.963   5.477  0.4777  0.4265  0.4149
 7156SOL    HW122367   6.629   3.937   5.471  0.6172 -0.2248  0.9241
 7156SOL    HW222368   6.748   4.026   5.402 -0.2392  0.2643  0.0604
 7157SOL     OW22369   1.723   2.689   3.820  0.4228  0.2832  0.1956
 7157SOL    HW122370   1.646   2.752   3.811  0.6072  0.8618  2.2100
 7157SOL    HW222371   1.741   2.646   3.732 -2.5066 -0.2556 -0.2428
 7158SOL     OW22372   5.023   6.773   3.964  0.2459 -0.2733 -0.3089
 7158SOL    HW122373   5.017   6.747   4.061 -1.1854 -0.1472 -0.3471
 7158SOL    HW222374   5.096   6.721   3.921  0.6129 -0.6595  0.7364
 7159SOL     OW22375   0.013   5.619   4.885 -0.2471  0.4364  0.3167
 7159SOL    HW122376  -0.012   5.715   4.889 -1.1790  0.2117  0.0562
 7159SOL    HW222377  -0.009   5.582   4.795 -1.9937 -0.5609  1.1034
 7160SOL     OW22378   7.012   6.328   3.003  0.3925  0.0484 -0.4047
 7160SOL    HW122379   7.075   6.380   3.061 -1.4658  0.7744  1.1099
 7160SOL    HW222380   6.962   6.262   3.060  2.7688 -3.6960 -2.2839
 7161SOL     OW22381   3.517   4.173   3.010 -0.3943  0.2955  0.1812
 7161SOL    HW122382   3.605   4.128   3.029  0.8848  3.3040  2.0922
 7161SOL    HW222383   3.458   4.164   3.090 -2.1735 -2.1130 -1.2538
 7162SOL     OW22384   1.768   6.735   2.719 -0.2072  0.0140 -0.6767
 7162SOL    HW122385   1.808   6.754   2.629  0.4562  0.6599 -0.2561
 7162SOL    HW222386   1.678   6.778   2.725 -0.3363 -0.1894 -1.0930
 7163SOL     OW22387   0.590   1.011   6.848 -0.2427  0.5428  0.2706
 7163SOL    HW122388   0.570   0.915   6.831 -0.1483  0.4812  0.4943
 7163SOL    HW222389   0.546   1.040   6.933  0.6012  0.4013  0.7736
 7164SOL     OW22390   1.925   1.527   5.553 -0.0989 -0.1245 -0.0437
 7164SOL    HW122391   1.958   1.435   5.534 -0.1800  0.1599 -1.6945
 7164SOL    HW222392   1.826   1.525   5.569 -0.3788 -0.1613 -1.6149
 7165SOL     OW22393   6.315   2.799   6.288 -0.1686  0.6938  0.2494
 7165SOL    HW122394   6.403   2.760   6.315  0.6319  1.3616 -1.2562
 7165SOL    HW222395   6.316   2.897   6.305 -0.2365  0.8642 -0.7019
 7166SOL     OW22396   0.613   0.290   6.206 -0.1440  0.1121  0.4903
 7166SOL    HW122397   0.711   0.310   6.213 -0.2537  0.3392  1.6155
 7166SOL    HW222398   0.575   0.336   6.126  0.3218  1.5262  1.0465
 7167SOL     OW22399   6.357   2.061   5.567 -0.5590 -0.6879  0.3609
 7167SOL    HW122400   6.307   2.110   5.639 -2.4953 -1.1125 -0.6293
 7167SOL    HW222401   6.435   2.014   5.607 -0.6837  0.3332  1.9145
 7168SOL     OW22402   0.378   0.196   3.484  0.2395 -0.3145  0.6410
 7168SOL    HW122403   0.376   0.219   3.581 -0.6973 -0.1378  0.5869
 7168SOL    HW222404   0.296   0.231   3.439  0.0776 -1.4311  0.0267
 7169SOL     OW22405   1.432   4.819   5.902 -0.4373 -0.2952  0.3969
 7169SOL    HW122406   1.351   4.873   5.925 -2.3437 -3.1063  0.7241
 7169SOL    HW222407   1.423   4.783   5.809 -0.4549 -2.0682  1.0496
 7170SOL     OW22408   1.687   2.449   0.165 -0.1134  0.0464  0.6041
 7170SOL    HW122409   1.766   2.388   0.158 -1.3987 -1.7304  0.8993
 7170SOL    HW222410   1.613   2.413   0.109 -0.3674  2.3423 -0.6545
 7171SOL     OW22411   0.390   3.580   0.612 -0.0446  0.4093  0.3599
 7171SOL    HW122412   0.379   3.675   0.642  1.1575  0.4330  0.8056
 7171SOL    HW222413   0.300   3.539   0.597 -0.5963  1.4494  0.6999
 7172SOL     OW22414   0.090   1.094   4.686  0.2251  0.0777 -0.2920
 7172SOL    HW122415   0.046   1.007   4.661 -2.5458  0.3430  2.8767
 7172SOL    HW222416   0.021   1.167   4.686  1.1063  1.0317  2.6592
 7173SOL     OW22417   4.904   4.123   0.903  0.2559 -0.1057  0.6179
 7173SOL    HW122418   4.836   4.074   0.849  0.9679  1.2669 -1.6379
 7173SOL    HW222419   4.861   4.202   0.947  0.2849  0.6010 -0.5803
 7174SOL     OW22420   6.064   2.824   1.256  0.3386  0.1375  0.1878
 7174SOL    HW122421   6.149   2.866   1.226 -0.8820  1.2152 -2.0537
 7174SOL    HW222422   6.029   2.873   1.336  1.3114  0.2923  0.5367
 7175SOL     OW22423   5.343   5.639   4.725 -0.5333 -0.2609  0.0810
 7175SOL    HW122424   5.395   5.592   4.796 -1.5071 -0.1515  0.8857
 7175SOL    HW222425   5.356   5.737   4.733  2.2657 -0.3131 -2.1882
 7176SOL     OW22426   6.172   2.322   0.334  0.5893  0.3952  0.0551
 7176SOL    HW122427   6.079   2.346   0.306  0.4029  0.9442  1.1152
 7176SOL    HW222428   6.231   2.318   0.253  0.2135  2.6116 -0.3848
 7177SOL     OW22429   1.531   5.757   4.106 -0.1690 -0.1545 -0.3912
 7177SOL    HW122430   1.522   5.668   4.062  0.7442  1.5615 -4.4778
 7177SOL    HW222431   1.455   5.816   4.079  0.1338  0.8668  0.8559
 7178SOL     OW22432   1.883   5.268   5.728  0.2208  0.1006  0.2966
 7178SOL    HW122433   1.943   5.220   5.792  0.6093  1.2594  0.8283
 7178SOL    HW222434   1.825   5.332   5.778  0.1411  0.6299 -0.4535
 7179SOL     OW22435   4.345   5.291   0.341 -0.3601 -0.2883 -0.1095
 7179SOL    HW122436   4.245   5.297   0.349 -0.3883 -0.0817 -0.6027
 7179SOL    HW222437   4.376   5.349   0.266  0.1503 -0.2245  0.1473
 7180SOL     OW22438   2.263   2.894   2.280 -0.1581  0.5716  0.6301
 7180SOL    HW122439   2.362   2.901   2.277 -0.1154 -0.3079 -1.0521
 7180SOL    HW222440   2.234   2.870   2.373  1.3690 -1.3045  0.6790
 7181SOL     OW22441   2.675   0.907   5.113 -0.1577 -0.1721  0.5660
 7181SOL    HW122442   2.664   0.909   5.013  1.3720  0.6198  0.3776
 7181SOL    HW222443   2.773   0.907   5.136 -0.4479 -2.3214  2.0676
 7182SOL     OW22444   1.456   0.692   4.169  0.1217 -0.1635  0.5078
 7182SOL    HW122445   1.446   0.792   4.172 -0.1543 -0.2093  1.4811
 7182SOL    HW222446   1.367   0.651   4.150 -0.1873 -0.2910  2.1132
 7183SOL     OW22447   6.085   0.324   0.683  0.2542  0.1442  0.5205
 7183SOL    HW122448   6.136   0.246   0.720  0.0549 -0.6464 -0.8157
 7183SOL    HW222449   6.135   0.408   0.702  2.7649 -0.6918 -1.7832
 7184SOL     OW22450   0.758   0.034   2.180  0.2140  0.4097 -0.3074
 7184SOL    HW122451   0.762   0.133   2.186  0.9117  0.6460 -3.0907
 7184SOL    HW222452   0.663   0.003   2.189 -0.2323  1.5133 -1.0397
 7185SOL     OW22453   3.091   0.255   5.371  0.3522  0.3923 -0.1118
 7185SOL    HW122454   3.072   0.207   5.456  0.2766 -1.2325 -1.0077
 7185SOL    HW222455   3.027   0.223   5.300  2.1323 -0.3222 -1.4674
 7186SOL     OW22456   6.575   2.168   0.506  0.3939  0.2788 -0.5115
 7186SOL    HW122457   6.520   2.136   0.583  1.3997  3.5997  1.7937
 7186SOL    HW222458   6.553   2.264   0.487  0.8177 -0.1678 -3.9043
 7187SOL     OW22459   3.979   3.194   3.969  0.7339  0.3044  0.1041
 7187SOL    HW122460   3.921   3.136   3.912  0.3533  1.5410 -0.8250
 7187SOL    HW222461   3.957   3.180   4.066  1.0864 -1.5079 -0.0505
 7188SOL     OW22462   2.603   3.588   0.090 -0.2412  0.5352  0.2324
 7188SOL    HW122463   2.687   3.546   0.056 -1.0540 -0.8337 -0.1884
 7188SOL    HW222464   2.595   3.572   0.188 -0.8874 -1.0180 -0.0366
 7189SOL     OW22465   5.599   2.017   5.159 -0.1765  0.2021 -0.3677
 7189SOL    HW122466   5.526   1.949   5.153 -0.5310  0.3975  1.4192
 7189SOL    HW222467   5.572   2.098   5.107  0.0874 -0.8064 -2.1952
 7190SOL     OW22468   5.892   3.974   0.878 -0.5088  0.1461  0.5967
 7190SOL    HW122469   5.859   3.921   0.956  0.5260 -2.0767 -0.3718
 7190SOL    HW222470   5.987   4.002   0.894  0.9760 -3.3202 -1.0916
 7191SOL     OW22471   6.008   5.382   3.249 -0.0823  0.0872  0.1181
 7191SOL    HW122472   5.934   5.384   3.316  2.0761  1.7885  2.6338
 7191SOL    HW222473   6.013   5.471   3.203  1.3859  0.6091  1.2154
 7192SOL     OW22474   3.748   3.564   6.475  0.1314 -0.6245 -0.7163
 7192SOL    HW122475   3.771   3.469   6.457 -0.7205 -1.0571  0.3326
 7192SOL    HW222476   3.660   3.568   6.523 -0.0975  0.7236 -1.2045
 7193SOL     OW22477   4.317   0.476   3.134 -0.3206 -0.1196  0.0156
 7193SOL    HW122478   4.222   0.481   3.164 -0.4459  2.6749 -0.6072
 7193SOL    HW222479   4.320   0.448   3.038 -0.5897  0.5131 -0.1831
 7194SOL     OW22480   2.625   4.156   5.496  0.4224  0.3245  0.2286
 7194SOL    HW122481   2.621   4.207   5.582 -0.5870  1.9572 -0.7245
 7194SOL    HW222482   2.537   4.164   5.448 -0.4341 -3.7689  0.7541
 7195SOL     OW22483   1.487   5.715   4.867  0.3566  0.2756  0.2610
 7195SOL    HW122484   1.415   5.660   4.824  0.6793  0.8976 -1.1429
 7195SOL    HW222485   1.456   5.746   4.957 -0.0478 -1.7125  0.8521
 7196SOL     OW22486   3.768   3.726   2.442  0.0326 -0.1636  0.1471
 7196SOL    HW122487   3.731   3.711   2.534 -0.1150  1.1595  0.3232
 7196SOL    HW222488   3.764   3.641   2.390 -0.2937 -0.8183  1.2206
 7197SOL     OW22489   2.449   5.683   5.857 -0.4815 -0.5104  0.2308
 7197SOL    HW122490   2.474   5.647   5.767  0.5463  0.5204  0.1006
 7197SOL    HW222491   2.362   5.731   5.850 -0.3007 -0.2515 -0.2536
 7198SOL     OW22492   6.690   2.711   1.196  0.0454  0.0390  0.1631
 7198SOL    HW122493   6.770   2.698   1.254  1.1110 -0.3964 -1.3439
 7198SOL    HW222494   6.608   2.683   1.246  0.8037  0.5009  1.7461
 7199SOL     OW22495   0.824   1.607   3.547  0.0028  0.2797  0.1683
 7199SOL    HW122496   0.802   1.685   3.488 -1.0412 -0.1319 -0.0168
 7199SOL    HW222497   0.828   1.637   3.642  0.5462  0.7346  0.0043
 7200SOL     OW22498   0.811   4.160   0.169  0.0926  0.0027 -0.0986
 7200SOL    HW122499   0.830   4.073   0.123 -1.7983 -0.1527 -0.6738
 7200SOL    HW222500   0.768   4.223   0.105  1.2914  1.3410  0.3546
 7201SOL     OW22501   4.761   6.419   4.719 -0.7588  0.7448 -0.2154
 7201SOL    HW122502   4.800   6.432   4.628 -0.6957  0.5315 -0.2200
 7201SOL    HW222503   4.748   6.321   4.736 -3.7697  0.8492 -1.2741
 7202SOL     OW22504   5.334   5.436   0.023  0.5397 -0.7060  0.8388
 7202SOL    HW122505   5.298   5.359   0.075  1.0383 -1.1258  0.5681
 7202SOL    HW222506   5.415   5.473   0.068  1.2633 -1.3817  0.1238
 7203SOL     OW22507   1.128   0.734   6.295  0.4255 -0.1749 -0.2115
 7203SOL    HW122508   1.089   0.818   6.258 -1.2479 -0.9140 -0.1985
 7203SOL    HW222509   1.221   0.722   6.259  0.1032  0.8550 -1.4502
 7204SOL     OW22510   0.132   1.740   3.211  0.2328  0.1146 -0.3422
 7204SOL    HW122511   0.075   1.672   3.165  0.3157  0.4491 -0.9433
 7204SOL    HW222512   0.146   1.819   3.151  0.2681  0.5982  0.2934
 7205SOL     OW22513   3.110   1.650   3.901  0.4989 -0.2318 -0.0223
 7205SOL    HW122514   3.133   1.740   3.937  1.8830 -0.2772 -0.7383
 7205SOL    HW222515   3.039   1.608   3.958 -0.4920  1.4821  0.0514
 7206SOL     OW22516   2.515   3.018   0.106  0.3041 -0.5774  0.0642
 7206SOL    HW122517   2.497   3.069   0.190 -0.8840 -1.4867  0.3919
 7206SOL    HW222518   2.594   2.958   0.119  0.4831 -0.2815  0.3369
 7207SOL     OW22519   1.887   1.159   2.232 -0.2393 -0.3686 -0.0606
 7207SOL    HW122520   1.894   1.107   2.147  0.2268 -1.2347  0.4973
 7207SOL    HW222521   1.890   1.097   2.310  0.3039  0.4937  0.6272
 7208SOL     OW22522   4.018   6.556   2.035 -0.1425 -0.5813  0.0914
 7208SOL    HW122523   4.019   6.596   1.943 -0.0367 -0.5811  0.0921
 7208SOL    HW222524   3.963   6.472   2.034 -0.7528 -0.1851  0.1998
 7209SOL     OW22525   3.714   2.140   2.708 -0.3348 -0.2377 -0.2792
 7209SOL    HW122526   3.770   2.057   2.706 -0.3817 -0.4069  2.2301
 7209SOL    HW222527   3.635   2.125   2.767 -2.2242  0.5469 -2.4448
 7210SOL     OW22528   2.213   1.282   2.942 -0.0957  0.2712  0.8255
 7210SOL    HW122529   2.301   1.235   2.937  0.0215  0.4992  0.7572
 7210SOL    HW222530   2.226   1.380   2.931 -0.1989  0.4558  2.1810
 7211SOL     OW22531   5.413   0.103   5.747 -0.2963  0.3585 -0.1538
 7211SOL    HW122532   5.500   0.071   5.784  0.9604  2.0248 -1.4942
 7211SOL    HW222533   5.351   0.124   5.823  0.9070  0.3088  0.8880
 7212SOL     OW22534   0.949   5.045   5.642 -0.2364  0.4950  0.3751
 7212SOL    HW122535   0.906   5.077   5.727 -0.2269  0.7413  0.2880
 7212SOL    HW222536   1.019   5.111   5.613 -0.7190  0.7588 -0.1979
 7213SOL     OW22537   2.961   0.095   6.430  0.0131  0.4069  0.8957
 7213SOL    HW122538   2.884   0.098   6.366  0.0922  0.3011  0.7942
 7213SOL    HW222539   3.037   0.044   6.388  1.7091  3.9370 -0.7689
 7214SOL     OW22540   1.301   1.550   0.250 -0.2242 -0.4126 -0.1888
 7214SOL    HW122541   1.239   1.502   0.312 -0.1821 -0.1534  0.0581
 7214SOL    HW222542   1.346   1.625   0.300  1.4009 -1.4924  0.0749
 7215SOL     OW22543   1.351   1.774   3.412 -0.3837 -0.7254  0.0995
 7215SOL    HW122544   1.261   1.732   3.426 -0.8115  0.0742 -0.1637
 7215SOL    HW222545   1.348   1.869   3.442  0.5684 -0.8680  0.6859
 7216SOL     OW22546   3.218   6.044   4.475  0.4712 -0.1753 -0.7385
 7216SOL    HW122547   3.308   6.003   4.491  0.1874 -0.7046 -0.4773
 7216SOL    HW222548   3.228   6.142   4.457  1.1732 -0.3687 -1.4649
 7217SOL     OW22549   1.303   2.353   1.690  0.0424 -0.5548  0.2074
 7217SOL    HW122550   1.352   2.305   1.616  0.2568 -0.6506  0.4097
 7217SOL    HW222551   1.332   2.315   1.778  1.1473  0.7785  0.4563
 7218SOL     OW22552   6.635   3.287   3.043  0.1591  0.1909 -0.0842
 7218SOL    HW122553   6.646   3.188   3.034 -0.7254  0.0794 -0.0197
 7218SOL    HW222554   6.626   3.328   2.952  0.9393  0.2702 -0.1322
 7219SOL     OW22555   4.387   6.473   2.807  0.1644  0.0616  0.4856
 7219SOL    HW122556   4.379   6.411   2.885  2.6572 -1.1830 -0.1272
 7219SOL    HW222557   4.424   6.422   2.728  2.5826  2.3204  0.0308
 7220SOL     OW22558   6.979   5.618   2.997 -0.1175  0.2173  0.3491
 7220SOL    HW122559   7.036   5.540   3.025  0.9232  1.6438  2.4998
 7220SOL    HW222560   7.005   5.647   2.905 -0.5601 -1.9182 -0.5356
 7221SOL     OW22561   3.741   4.842   2.405  0.7291 -0.1692 -0.3549
 7221SOL    HW122562   3.688   4.778   2.348  0.3611 -0.4244  0.2542
 7221SOL    HW222563   3.781   4.913   2.347 -0.3255  0.0569 -0.8306
 7222SOL     OW22564   5.815   0.385   5.987 -0.1044 -0.3762 -0.0075
 7222SOL    HW122565   5.910   0.408   5.967  0.3127 -0.6705  1.4811
 7222SOL    HW222566   5.758   0.466   5.974  0.3906 -0.1125 -0.6133
 7223SOL     OW22567   6.434   4.218   6.397 -0.0893 -0.8591  0.1227
 7223SOL    HW122568   6.452   4.177   6.307 -0.3627 -2.5042  0.7786
 7223SOL    HW222569   6.346   4.186   6.431  0.7409 -1.6008  1.6784
 7224SOL     OW22570   6.028   3.603   3.121  0.3972  0.4096  0.1827
 7224SOL    HW122571   6.031   3.510   3.157  1.7345 -0.0115 -0.9323
 7224SOL    HW222572   6.018   3.600   3.022 -1.6079  1.5182  0.2889
 7225SOL     OW22573   2.090   4.367   6.432 -0.3647 -0.0477 -0.1781
 7225SOL    HW122574   2.077   4.294   6.365 -0.4439 -0.7960  0.6280
 7225SOL    HW222575   2.185   4.368   6.463 -0.4281  0.0092  0.0158
 7226SOL     OW22576   6.453   6.561   5.445  0.4767 -0.5278  0.4114
 7226SOL    HW122577   6.552   6.568   5.440  0.3498  1.0870 -0.3100
 7226SOL    HW222578   6.423   6.582   5.538  0.7880 -1.0001  0.6254
 7227SOL     OW22579   2.489   6.389   1.438  0.1411 -0.5136  0.3749
 7227SOL    HW122580   2.419   6.452   1.473  0.4758 -0.1905  0.4714
 7227SOL    HW222581   2.481   6.383   1.339  0.0686 -0.3635  0.3703
 7228SOL     OW22582   6.666   3.567   2.120  0.3825  0.1564 -0.2101
 7228SOL    HW122583   6.761   3.589   2.097  0.2769 -0.6650 -1.5332
 7228SOL    HW222584   6.639   3.484   2.072 -0.4885 -0.5973  1.5070
 7229SOL     OW22585   0.088   0.966   5.593 -0.1719  0.1260 -0.3508
 7229SOL    HW122586   0.140   0.915   5.524  1.0628  0.0645  0.5883
 7229SOL    HW222587   0.141   1.046   5.621 -1.4664  1.1662 -0.7673
 7230SOL     OW22588   0.442   5.732   4.263 -0.2779 -0.4475  0.5912
 7230SOL    HW122589   0.433   5.770   4.171  2.7591  1.6611  0.9995
 7230SOL    HW222590   0.481   5.641   4.258  0.9190  0.0808 -0.2356
 7231SOL     OW22591   4.443   1.159   0.447 -0.1064  0.3618 -0.2373
 7231SOL    HW122592   4.455   1.185   0.543  1.7616  2.1830 -0.8982
 7231SOL    HW222593   4.446   1.241   0.390  1.8789 -0.9061 -2.0891
 7232SOL     OW22594   3.947   5.650   3.750  0.1921  0.2854  0.1888
 7232SOL    HW122595   4.032   5.692   3.717 -0.0842 -0.5701 -1.7551
 7232SOL    HW222596   3.968   5.561   3.792  0.2489 -0.1731 -0.7685
 7233SOL     OW22597   0.477   0.735   0.315  0.6041 -0.2820 -0.2742
 7233SOL    HW122598   0.476   0.819   0.262 -0.9371  0.4853  0.8720
 7233SOL    HW222599   0.542   0.743   0.390 -0.3959  0.3854  0.5418
 7234SOL     OW22600   4.870   2.105   4.246 -0.6386  0.3527 -0.0266
 7234SOL    HW122601   4.800   2.104   4.317 -1.0938  1.2501 -0.4352
 7234SOL    HW222602   4.887   2.012   4.214 -0.4909 -0.0470  1.1769
 7235SOL     OW22603   0.875   3.991   2.654  0.6256 -0.2683  0.5130
 7235SOL    HW122604   0.932   3.929   2.600  1.0892 -0.0730  0.7736
 7235SOL    HW222605   0.886   4.084   2.620 -1.9701 -0.5950 -1.5247
 7236SOL     OW22606   2.054   3.464   2.972  0.2031 -0.3655 -0.3929
 7236SOL    HW122607   2.076   3.554   2.934 -0.0520  0.6772  1.7688
 7236SOL    HW222608   1.956   3.457   2.988  0.5883  0.6669  3.2012
 7237SOL     OW22609   6.692   2.211   1.275 -0.4029  0.0073 -0.6610
 7237SOL    HW122610   6.639   2.127   1.284  1.7419 -1.2854  0.6392
 7237SOL    HW222611   6.677   2.268   1.356  3.2451 -2.3408  2.0068
 7238SOL     OW22612   2.671   3.412   0.911  0.1219  1.2830  0.5000
 7238SOL    HW122613   2.716   3.487   0.863  1.7663  0.3073  0.4232
 7238SOL    HW222614   2.573   3.428   0.913  0.4899  3.9074  1.3644
 7239SOL     OW22615   6.921   6.971   2.425 -0.0225 -0.3586 -0.7553
 7239SOL    HW122616   6.862   7.037   2.470  1.3056  0.7221 -0.5147
 7239SOL    HW222617   6.894   6.878   2.450 -1.6519  0.0962 -0.7594
 7240SOL     OW22618   0.193   1.976   6.446 -0.2024  0.2496  0.2872
 7240SOL    HW122619   0.109   1.923   6.440  0.2828 -0.4378 -0.4941
 7240SOL    HW222620   0.199   2.017   6.537 -0.5115 -1.1533  0.9668
 7241SOL     OW22621   3.051   0.243   1.204 -0.2551  0.3660  0.0414
 7241SOL    HW122622   3.075   0.335   1.236 -1.9982  0.4287  1.3690
 7241SOL    HW222623   3.014   0.249   1.111  1.5353  0.6845 -0.6962
 7242SOL     OW22624   6.789   6.063   3.716 -0.5914 -0.5902 -0.1499
 7242SOL    HW122625   6.820   6.108   3.800 -0.6524 -1.0385  0.1162
 7242SOL    HW222626   6.690   6.051   3.719 -0.6936  0.1133 -0.6434
 7243SOL     OW22627   6.010   4.379   5.213 -0.2337 -0.2290  0.6009
 7243SOL    HW122628   5.945   4.306   5.189 -0.1439 -0.6122  1.5064
 7243SOL    HW222629   5.973   4.467   5.184 -0.6005 -0.5713  0.0018
 7244SOL     OW22630   2.277   6.635   1.486  0.1365 -0.1431  0.0483
 7244SOL    HW122631   2.183   6.605   1.504 -0.0264  0.7942  0.8403
 7244SOL    HW222632   2.277   6.726   1.446  0.6268 -1.2238 -2.6132
 7245SOL     OW22633   6.990   4.728   6.671  0.6349  0.7667 -0.2404
 7245SOL    HW122634   6.894   4.736   6.642  0.5083 -2.0570 -0.9209
 7245SOL    HW222635   7.049   4.769   6.601  0.0422 -0.8547 -1.7579
 7246SOL     OW22636   4.148   5.525   5.811 -0.0645  0.4049 -0.3772
 7246SOL    HW122637   4.184   5.569   5.893  0.8635 -1.9370  0.5644
 7246SOL    HW222638   4.224   5.497   5.752 -0.6834  1.0952 -1.5370
 7247SOL     OW22639   4.051   3.391   4.788  0.6217 -0.5115 -0.0178
 7247SOL    HW122640   4.134   3.338   4.805  0.7210 -0.2033  0.4876
 7247SOL    HW222641   4.053   3.428   4.695  0.9869 -0.6126 -0.0505
 7248SOL     OW22642   2.399   0.726   3.933 -0.8050 -0.3194 -0.1512
 7248SOL    HW122643   2.399   0.774   4.021 -0.5199 -2.6324  1.1743
 7248SOL    HW222644   2.479   0.753   3.880  0.7578 -1.2043  1.6611
 7249SOL     OW22645   3.622   6.308   2.682 -0.1771  0.0746  0.2667
 7249SOL    HW122646   3.597   6.252   2.603 -2.7443  0.7600  0.5132
 7249SOL    HW222647   3.680   6.384   2.653 -2.2510  1.1653 -1.2967
 7250SOL     OW22648   4.119   6.585   3.064 -0.1523  0.7011 -0.2801
 7250SOL    HW122649   4.140   6.678   3.095 -1.6314  1.4470 -1.4256
 7250SOL    HW222650   4.159   6.520   3.128 -0.3242  2.1378  1.3776
 7251SOL     OW22651   1.504   6.631   6.037 -0.0704  0.3416 -0.5104
 7251SOL    HW122652   1.528   6.644   5.941 -1.0543  0.4925 -0.7462
 7251SOL    HW222653   1.419   6.680   6.057  1.2300  2.1309  0.9728
 7252SOL     OW22654   3.861   2.990   2.630 -0.2339  0.2080  0.1811
 7252SOL    HW122655   3.884   3.009   2.726  1.0226 -2.7945  0.5953
 7252SOL    HW222656   3.791   2.919   2.626  0.1605 -0.1451 -1.1021
 7253SOL     OW22657   2.804   5.059   4.825  0.3670  0.0257 -0.4925
 7253SOL    HW122658   2.844   5.049   4.916  0.4453 -1.4000 -0.6597
 7253SOL    HW222659   2.757   5.147   4.819  1.5014  0.7347  0.4684
 7254SOL     OW22660   5.606   2.264   4.706 -0.2939 -0.0007  0.5244
 7254SOL    HW122661   5.532   2.223   4.653 -0.6832 -0.3680  1.3182
 7254SOL    HW222662   5.661   2.323   4.648 -0.7408 -0.3446 -0.2606
 7255SOL     OW22663   4.150   3.348   0.021 -0.3921  0.1879 -0.1155
 7255SOL    HW122664   4.102   3.283   0.079 -1.0523  0.3762 -0.4395
 7255SOL    HW222665   4.199   3.414   0.078 -1.4790  0.7064  0.2489
 7256SOL     OW22666   2.400   1.471   6.802 -0.3463 -0.0571 -0.8588
 7256SOL    HW122667   2.410   1.559   6.755  1.1157 -0.1958 -0.8367
 7256SOL    HW222668   2.381   1.400   6.735  0.8468 -0.1080 -1.1548
 7257SOL     OW22669   0.260   6.815   5.272  1.0106 -0.4286  0.0794
 7257SOL    HW122670   0.239   6.721   5.244  0.9732 -0.2361 -0.5651
 7257SOL    HW222671   0.353   6.819   5.308  2.2589 -0.1518 -2.8901
 7258SOL     OW22672   6.557   2.349   2.542  0.0974 -0.0046  0.6287
 7258SOL    HW122673   6.533   2.418   2.473 -2.3289  1.5499  2.8040
 7258SOL    HW222674   6.503   2.266   2.526  1.2699 -0.5651 -0.6158
 7259SOL     OW22675   1.778   3.394   4.099 -0.2844 -0.0598  0.4237
 7259SOL    HW122676   1.812   3.467   4.158 -1.1109  0.4974  0.2281
 7259SOL    HW222677   1.715   3.432   4.032  2.3474 -0.2693 -2.3876
 7260SOL     OW22678   5.339   1.600   0.574 -0.4796 -0.3135 -0.3915
 7260SOL    HW122679   5.369   1.659   0.500  0.2535 -0.5822 -0.3234
 7260SOL    HW222680   5.392   1.621   0.657 -2.1527  0.8638  0.4451
 7261SOL     OW22681   0.517   5.191   5.704  0.0645  0.0195  0.4865
 7261SOL    HW122682   0.555   5.261   5.644  1.6735 -1.8240 -0.7860
 7261SOL    HW222683   0.439   5.147   5.659  2.7923 -3.1092 -1.6805
 7262SOL     OW22684   1.123   2.257   3.620 -0.1893  0.4040  0.0948
 7262SOL    HW122685   1.136   2.321   3.545  3.0065  2.5255  2.2033
 7262SOL    HW222686   1.154   2.166   3.593  1.6219  1.2897 -0.9794
 7263SOL     OW22687   7.021   6.690   6.820 -0.2714  0.2684 -0.5810
 7263SOL    HW122688   7.028   6.590   6.823  0.1443  0.3048  0.8832
 7263SOL    HW222689   6.932   6.719   6.856  0.1965  0.4563  0.4611
 7264SOL     OW22690   6.287   2.124   1.867  0.3211  0.0284  0.4065
 7264SOL    HW122691   6.301   2.107   1.769  1.4788  0.6384  0.4456
 7264SOL    HW222692   6.348   2.066   1.920 -2.6633 -2.8629  0.9775
 7265SOL     OW22693   3.352   6.092   6.386  0.6776  0.3350 -0.0993
 7265SOL    HW122694   3.347   6.178   6.436  0.4888 -0.6911  1.7205
 7265SOL    HW222695   3.266   6.043   6.395  0.0748  0.7381 -2.7190
 7266SOL     OW22696   6.921   0.900   3.799 -0.1335  0.0078 -0.0450
 7266SOL    HW122697   6.960   0.898   3.891  0.9057 -3.4610 -0.3842
 7266SOL    HW222698   6.960   0.825   3.745 -2.4238  0.4811 -2.5916
 7267SOL     OW22699   6.527   4.643   5.265  0.0304  0.5273 -0.5295
 7267SOL    HW122700   6.578   4.729   5.265  2.4482 -0.8107 -2.0542
 7267SOL    HW222701   6.443   4.654   5.211 -0.0253  2.0681 -0.1765
 7268SOL     OW22702   5.341   4.863   4.683  0.7099 -0.5202  0.2247
 7268SOL    HW122703   5.244   4.852   4.657  0.9084  1.1161 -1.4151
 7268SOL    HW222704   5.384   4.773   4.688 -0.2446 -1.1646 -1.8754
 7269SOL     OW22705   0.557   5.048   4.765 -0.0994 -0.3787  0.0169
 7269SOL    HW122706   0.646   5.017   4.796  0.0059 -0.3689 -0.2742
 7269SOL    HW222707   0.494   5.053   4.842  0.7809  1.8705  0.6712
 7270SOL     OW22708   1.727   6.466   4.771 -0.1234 -0.5636  0.0902
 7270SOL    HW122709   1.707   6.529   4.696  1.0145 -0.1033  0.1562
 7270SOL    HW222710   1.803   6.407   4.745 -0.0359 -0.7238  0.7017
 7271SOL     OW22711   1.439   3.353   4.322  0.3379  1.0668 -0.1651
 7271SOL    HW122712   1.481   3.314   4.240  1.4342  0.4022  0.7041
 7271SOL    HW222713   1.394   3.439   4.297  0.4198  0.7484 -1.5139
 7272SOL     OW22714   6.031   3.850   2.080 -0.6621 -0.6699 -0.5228
 7272SOL    HW122715   5.964   3.894   2.021 -0.5703  0.2084  0.0127
 7272SOL    HW222716   5.994   3.765   2.115 -1.6288 -0.0371  0.0243
 7273SOL     OW22717   6.125   3.113   5.513 -0.4265 -0.3638  0.5364
 7273SOL    HW122718   6.032   3.099   5.478 -0.3345  0.1585  0.0541
 7273SOL    HW222719   6.121   3.138   5.609 -0.8026 -0.1118  0.4577
 7274SOL     OW22720   0.555   5.294   0.876  0.0317  0.4878  0.3762
 7274SOL    HW122721   0.514   5.247   0.798  1.9209 -2.1257  0.8115
 7274SOL    HW222722   0.488   5.300   0.950 -0.3978 -1.3402  0.1864
 7275SOL     OW22723   1.150   0.503   1.973  0.0853 -0.6607  0.1267
 7275SOL    HW122724   1.247   0.481   1.964 -0.1510 -2.3220  1.2879
 7275SOL    HW222725   1.095   0.422   1.955 -1.0688  0.1169  0.0382
 7276SOL     OW22726   6.901   0.707   3.484 -0.3840 -0.0846 -0.1965
 7276SOL    HW122727   6.912   0.801   3.450  1.7173  0.0508  0.6806
 7276SOL    HW222728   6.819   0.667   3.445 -1.3649  2.1288 -0.5628
 7277SOL     OW22729   4.664   6.193   4.914  0.5683 -0.2691  0.5814
 7277SOL    HW122730   4.723   6.232   4.985  1.3091  0.5226 -0.4206
 7277SOL    HW222731   4.597   6.262   4.885  1.7295  0.2489 -1.0382
 7278SOL     OW22732   3.955   3.921   3.560 -0.2588  0.3800 -0.1846
 7278SOL    HW122733   3.991   3.847   3.502  1.9231  1.5067 -0.3673
 7278SOL    HW222734   3.907   3.987   3.502  0.2344  0.5186 -0.4450
 7279SOL     OW22735   3.939   6.109   6.700  0.3252 -0.5918  0.0082
 7279SOL    HW122736   3.934   6.194   6.647  2.9804 -0.3244  0.0453
 7279SOL    HW222737   4.025   6.107   6.751 -1.6375 -1.2933  3.5892
 7280SOL     OW22738   5.073   2.330   5.415 -0.2597 -0.4445  0.6018
 7280SOL    HW122739   5.068   2.253   5.351 -1.1321  0.5951 -0.6316
 7280SOL    HW222740   5.061   2.416   5.365 -0.1429  0.4599  2.0628
 7281SOL     OW22741   5.760   6.659   6.572 -0.0972 -0.1182 -0.1667
 7281SOL    HW122742   5.785   6.575   6.524  0.7806  0.1546 -0.1971
 7281SOL    HW222743   5.683   6.702   6.524  1.3599  0.6544 -1.9516
 7282SOL     OW22744   6.863   0.197   4.247 -0.1699 -0.0974 -0.1191
 7282SOL    HW122745   6.949   0.239   4.217  1.4012 -1.8013  1.7345
 7282SOL    HW222746   6.802   0.268   4.284  0.6438  1.0645 -0.9341
 7283SOL     OW22747   2.969   6.918   4.203 -0.1118 -0.1698 -0.4958
 7283SOL    HW122748   2.882   6.910   4.156  1.5064 -0.1110 -3.7436
 7283SOL    HW222749   2.988   7.015   4.221 -1.0642 -0.2375  1.1211
 7284SOL     OW22750   6.485   5.302   4.494  0.5514  0.1188 -0.0662
 7284SOL    HW122751   6.425   5.282   4.417 -0.2990  0.6182  0.4388
 7284SOL    HW222752   6.474   5.232   4.564 -0.7249  1.0615  0.7330
 7285SOL     OW22753   4.978   4.774   2.373 -0.4737 -0.0322 -0.0434
 7285SOL    HW122754   5.070   4.747   2.347 -0.9049 -2.0876  0.3815
 7285SOL    HW222755   4.977   4.870   2.400  1.3327  0.2680 -0.9515
 7286SOL     OW22756   1.396   4.789   6.933 -0.1295  0.4228 -0.1967
 7286SOL    HW122757   1.378   4.842   7.017  0.7267 -0.4478  0.5563
 7286SOL    HW222758   1.494   4.778   6.922 -0.2716 -0.1742 -0.8841
 7287SOL     OW22759   6.858   1.227   4.654  0.4715 -0.1362  0.7904
 7287SOL    HW122760   6.836   1.290   4.728  0.4096 -1.6033  2.0715
 7287SOL    HW222761   6.922   1.271   4.591  0.8606  1.0002  1.9398
 7288SOL     OW22762   4.789   0.492   6.038  0.2839 -0.0071  0.4304
 7288SOL    HW122763   4.750   0.412   6.085 -0.4131  0.8677  1.3805
 7288SOL    HW222764   4.716   0.558   6.019  0.7572  0.1746 -0.8569
 7289SOL     OW22765   5.507   2.587   3.194  0.3529 -0.1710 -0.1663
 7289SOL    HW122766   5.482   2.563   3.100  2.1314  1.2053 -1.0492
 7289SOL    HW222767   5.478   2.680   3.214 -0.4146 -0.6080  0.8303
 7290SOL     OW22768   2.537   5.234   4.516  0.1654 -0.4023 -0.8155
 7290SOL    HW122769   2.592   5.318   4.509  1.2337 -1.1305 -1.3983
 7290SOL    HW222770   2.554   5.176   4.437  0.5455 -1.8282  0.2647
 7291SOL     OW22771   4.714   5.726   1.056 -0.3117  0.8199 -0.1341
 7291SOL    HW122772   4.614   5.726   1.055 -0.3173  1.3254  0.0949
 7291SOL    HW222773   4.746   5.667   1.130 -0.3469 -3.6821 -3.3410
 7292SOL     OW22774   2.768   6.396   3.191 -0.0920  0.6650 -0.0224
 7292SOL    HW122775   2.690   6.373   3.250 -0.1535  0.1440 -0.3002
 7292SOL    HW222776   2.849   6.408   3.247  0.4475 -2.3450  0.0326
 7293SOL     OW22777   1.820   2.355   6.071 -0.2802  0.4603 -0.0477
 7293SOL    HW122778   1.918   2.350   6.088 -0.4489 -1.6866  0.5634
 7293SOL    HW222779   1.802   2.351   5.973  0.2676  2.7596 -0.3042
 7294SOL     OW22780   3.236   4.017   6.998  0.3546 -0.1732 -0.1638
 7294SOL    HW122781   3.302   3.995   6.926  0.7691  0.1972  0.0992
 7294SOL    HW222782   3.216   4.115   6.995  0.6755 -0.0864  0.4773
 7295SOL     OW22783   0.028   6.096   0.873 -0.3645 -0.4886  0.2527
 7295SOL    HW122784   0.110   6.055   0.912 -0.0544  0.2953  0.4501
 7295SOL    HW222785  -0.019   6.029   0.816  0.5528 -0.8649 -0.0776
 7296SOL     OW22786   2.452   3.835   1.408  0.0949  0.2038  0.0715
 7296SOL    HW122787   2.472   3.764   1.341  0.7997  0.2074  0.2770
 7296SOL    HW222788   2.469   3.801   1.500  0.2020  0.5618  0.1870
 7297SOL     OW22789   3.743   5.749   2.124 -0.1218 -0.4778  0.2054
 7297SOL    HW122790   3.688   5.778   2.046  0.2041  0.0436  0.1668
 7297SOL    HW222791   3.719   5.655   2.149  1.0918 -1.3432 -1.6808
 7298SOL     OW22792   5.262   3.638   3.329 -0.1172  0.1819  0.4589
 7298SOL    HW122793   5.250   3.583   3.245 -0.7909 -0.8070  1.1739
 7298SOL    HW222794   5.343   3.696   3.320 -0.7055  0.8003 -1.2515
 7299SOL     OW22795   6.370   5.217   6.256  0.3044  0.8113  0.5581
 7299SOL    HW122796   6.453   5.232   6.310  0.1839 -0.0044  1.0003
 7299SOL    HW222797   6.291   5.219   6.316  0.2714 -1.3852  0.6882
 7300SOL     OW22798   4.683   4.601   1.028 -0.1056  0.3150  0.3442
 7300SOL    HW122799   4.755   4.668   1.043  0.2151  0.2981 -0.9890
 7300SOL    HW222800   4.610   4.642   0.972  0.4134 -0.6060 -1.0731
 7301SOL     OW22801   6.616   6.348   4.958 -0.3859 -0.6701 -0.2039
 7301SOL    HW122802   6.562   6.299   5.026 -0.4353 -0.3485 -0.0096
 7301SOL    HW222803   6.650   6.433   4.997  0.5436 -1.0272 -0.2151
 7302SOL     OW22804   4.535   6.882   5.447  0.2936 -0.1088  0.3182
 7302SOL    HW122805   4.618   6.894   5.502  1.2000  1.0098 -1.2008
 7302SOL    HW222806   4.507   6.971   5.410 -1.5362 -0.4934  0.7207
 7303SOL     OW22807   4.630   2.592   1.947 -0.1572 -0.2501  0.0962
 7303SOL    HW122808   4.566   2.654   1.901 -0.1163  0.6997  1.2765
 7303SOL    HW222809   4.588   2.502   1.956 -1.0303  0.1534  0.1684
 7304SOL     OW22810   4.265   4.863   6.179 -0.0810  0.1330 -0.1104
 7304SOL    HW122811   4.247   4.868   6.278 -0.0935  2.1481 -0.1685
 7304SOL    HW222812   4.186   4.898   6.129 -0.2813 -1.3624 -0.8951
 7305SOL     OW22813   3.467   2.310   1.063  0.8083  0.0022 -0.5619
 7305SOL    HW122814   3.414   2.256   0.998 -0.7723  0.0894  0.5913
 7305SOL    HW222815   3.564   2.286   1.055  0.3622 -1.7497 -1.2528
 7306SOL     OW22816   4.325   5.098   2.113 -0.0472  0.2557 -0.4855
 7306SOL    HW122817   4.418   5.081   2.083  0.1469 -2.5804  1.3237
 7306SOL    HW222818   4.262   5.036   2.066 -0.5506 -0.0293  0.5129
 7307SOL     OW22819   4.501   0.598   2.709  0.2708  0.0623  0.4184
 7307SOL    HW122820   4.541   0.683   2.743  0.1008  0.5233 -0.4896
 7307SOL    HW222821   4.515   0.592   2.610 -1.0229 -0.2321  0.2357
 7308SOL     OW22822   6.100   2.651   6.262  0.1606 -0.1692  0.3165
 7308SOL    HW122823   6.186   2.702   6.260 -0.9623  1.7883 -1.6095
 7308SOL    HW222824   6.077   2.619   6.170 -0.2418 -2.4330  1.1284
 7309SOL     OW22825   3.722   5.179   1.345 -0.1376  0.4126 -0.2860
 7309SOL    HW122826   3.735   5.108   1.414  0.8402  1.1421  0.3122
 7309SOL    HW222827   3.758   5.148   1.257  1.1170  0.4744  0.1811
 7310SOL     OW22828   3.504   5.492   0.375  0.1608  1.0816 -0.6332
 7310SOL    HW122829   3.577   5.501   0.444  1.0240  0.3256 -1.4204
 7310SOL    HW222830   3.422   5.537   0.408  1.1521  2.4605  0.0438
 7311SOL     OW22831   2.057   2.639   3.210  0.0896  0.6788 -0.1217
 7311SOL    HW122832   1.987   2.591   3.156 -0.2908  1.3051 -0.2020
 7311SOL    HW222833   2.139   2.650   3.154  1.3685 -2.5752  0.8792
 7312SOL     OW22834   6.438   2.769   0.206  0.3651  0.1490  0.1992
 7312SOL    HW122835   6.360   2.731   0.256  0.4835 -0.0348  0.2446
 7312SOL    HW222836   6.495   2.695   0.171 -0.8093  0.2115 -2.0003
 7313SOL     OW22837   4.442   2.085   5.302  0.3102 -0.2648  0.0816
 7313SOL    HW122838   4.436   2.174   5.257 -0.2577 -0.1712  0.3295
 7313SOL    HW222839   4.356   2.065   5.349 -0.1578 -1.6414 -1.2625
 7314SOL     OW22840   5.801   4.077   4.483  0.2839 -0.5163 -0.2657
 7314SOL    HW122841   5.779   4.067   4.386  0.6582  0.6908 -0.4872
 7314SOL    HW222842   5.725   4.040   4.538 -0.0045 -1.0525 -1.0014
 7315SOL     OW22843   0.810   6.674   4.057  0.5463 -0.1225 -0.1182
 7315SOL    HW122844   0.856   6.698   4.142  1.2631  1.8328 -1.0010
 7315SOL    HW222845   0.719   6.715   4.055 -0.4048 -2.0436  0.6129
 7316SOL     OW22846   3.042   4.003   4.424  1.1149  0.2647 -0.1083
 7316SOL    HW122847   3.124   3.977   4.475  0.7238  1.0643  0.9879
 7316SOL    HW222848   2.999   4.082   4.469 -0.5753 -0.4925 -0.3036
 7317SOL     OW22849   1.100   0.574   4.698 -1.0292  0.0921  0.1586
 7317SOL    HW122850   1.015   0.622   4.722 -0.4010  0.9666  0.6810
 7317SOL    HW222851   1.178   0.629   4.726 -0.2815 -0.7662 -0.2073
 7318SOL     OW22852   1.386   1.742   0.430 -0.3887  0.1621  0.6374
 7318SOL    HW122853   1.431   1.830   0.417  1.6295 -0.5362  2.3819
 7318SOL    HW222854   1.317   1.750   0.501 -0.7336  0.4690  0.2786
 7319SOL     OW22855   5.584   3.066   0.907 -0.5952 -0.5147  0.0383
 7319SOL    HW122856   5.503   3.054   0.849 -0.3389  1.3998 -0.8066
 7319SOL    HW222857   5.666   3.043   0.855 -0.5003 -0.8715  0.3473
 7320SOL     OW22858   0.847   2.856   2.150 -0.0956  0.0634  0.0849
 7320SOL    HW122859   0.815   2.950   2.136 -0.4912 -0.1867 -0.7751
 7320SOL    HW222860   0.901   2.851   2.234  1.3281  1.4171 -0.6966
 7321SOL     OW22861   3.371   6.892   4.755 -0.4104  0.3181  0.9464
 7321SOL    HW122862   3.446   6.842   4.798 -0.8341 -1.5565 -0.4058
 7321SOL    HW222863   3.389   6.901   4.657 -1.1436  1.4183  0.8925
 7322SOL     OW22864   0.893   4.898   6.100  0.2760 -0.5014 -0.3706
 7322SOL    HW122865   0.900   4.968   6.029 -2.7676 -0.5450 -0.8199
 7322SOL    HW222866   0.929   4.811   6.066 -1.4376 -0.6043 -2.0383
 7323SOL     OW22867   2.219   3.885   5.356 -0.1926  0.2674  0.4209
 7323SOL    HW122868   2.294   3.899   5.291 -0.9303 -0.8004 -0.7181
 7323SOL    HW222869   2.177   3.796   5.339 -0.7714  0.2081  2.0295
 7324SOL     OW22870   6.318   0.155   2.847  0.0498  0.4096  0.6124
 7324SOL    HW122871   6.316   0.213   2.766  0.8318 -1.9612 -1.2232
 7324SOL    HW222872   6.356   0.207   2.924  0.9405  2.2239 -0.9625
 7325SOL     OW22873   3.319   5.851   6.005  0.1312  0.4292  0.1869
 7325SOL    HW122874   3.396   5.842   6.067 -0.1137 -0.0354  0.4303
 7325SOL    HW222875   3.320   5.941   5.963  0.1313  0.8591  1.0934
 7326SOL     OW22876   3.745   6.790   1.155 -0.2496 -0.2632 -0.5442
 7326SOL    HW122877   3.727   6.697   1.187 -1.2955  0.8949  2.6328
 7326SOL    HW222878   3.669   6.850   1.182  1.2602  1.8803 -0.7976
 7327SOL     OW22879   1.372   4.628   1.196  0.0785  0.1457 -0.6616
 7327SOL    HW122880   1.468   4.600   1.202 -0.1784 -0.6372 -0.1132
 7327SOL    HW222881   1.345   4.635   1.099  1.1116  1.9036 -0.8635
 7328SOL     OW22882   2.405   6.755   5.831  0.7213 -0.3294 -0.1490
 7328SOL    HW122883   2.402   6.747   5.931 -1.3898  0.3523 -0.1089
 7328SOL    HW222884   2.443   6.844   5.806  2.8006 -1.1247 -0.0507
 7329SOL     OW22885   3.012   2.686   0.039  0.0462  0.1971 -0.1402
 7329SOL    HW122886   3.045   2.773   0.003  0.8217  0.1714  0.4740
 7329SOL    HW222887   3.059   2.665   0.124 -1.8936  0.3705  1.0437
 7330SOL     OW22888   2.270   0.713   1.152  0.1450  0.1395 -0.0874
 7330SOL    HW122889   2.310   0.664   1.075  0.0784  0.3440 -0.2537
 7330SOL    HW222890   2.343   0.756   1.206  0.0853  1.8048 -1.2617
 7331SOL     OW22891   5.515   0.504   1.805  0.3650 -0.6491 -0.0933
 7331SOL    HW122892   5.556   0.414   1.824  0.7046 -0.4587  0.0896
 7331SOL    HW222893   5.447   0.524   1.876 -0.3862 -1.1665 -0.6515
 7332SOL     OW22894   4.523   4.560   1.533 -0.1974 -0.0673  0.3844
 7332SOL    HW122895   4.542   4.599   1.622 -0.2846  0.7803  0.0410
 7332SOL    HW222896   4.532   4.630   1.462 -0.7559 -0.5642 -0.2060
 7333SOL     OW22897   0.644   4.787   3.106  0.2339  0.4462  0.0213
 7333SOL    HW122898   0.672   4.699   3.068 -0.1632  0.3436 -0.0419
 7333SOL    HW222899   0.725   4.838   3.135  0.6190  0.8038 -1.5410
 7334SOL     OW22900   3.614   6.253   5.224  0.1089 -0.1424 -0.2838
 7334SOL    HW122901   3.704   6.227   5.260  0.9771  0.6879 -1.7254
 7334SOL    HW222902   3.543   6.216   5.283  1.3958 -0.3093  1.2534
 7335SOL     OW22903   1.762   3.365   2.110 -0.0335 -0.3656  0.4578
 7335SOL    HW122904   1.803   3.448   2.149  1.1966  0.1136 -1.6945
 7335SOL    HW222905   1.805   3.284   2.151  0.6784  0.1024  0.6598
 7336SOL     OW22906   2.981   0.181   4.254  0.6002  0.0766  0.3637
 7336SOL    HW122907   3.015   0.197   4.347  0.7786  1.7520  0.0466
 7336SOL    HW222908   2.886   0.211   4.248  0.5531 -0.1365  0.0263
 7337SOL     OW22909   5.881   3.812   0.655 -0.0421  0.1273 -0.3639
 7337SOL    HW122910   5.782   3.803   0.671  0.3385 -1.5065  1.4651
 7337SOL    HW222911   5.928   3.819   0.743  1.4700  1.3396 -1.2255
 7338SOL     OW22912   5.287   2.151   0.913  0.1032  0.4297 -0.4918
 7338SOL    HW122913   5.370   2.134   0.859  0.5207  0.3446  0.1607
 7338SOL    HW222914   5.242   2.064   0.933  0.2883  0.4022 -0.1839
 7339SOL     OW22915   6.135   5.742   5.590 -0.4222  0.2166 -0.1949
 7339SOL    HW122916   6.037   5.729   5.605 -0.1973 -0.8187  0.4938
 7339SOL    HW222917   6.167   5.820   5.643 -0.4540 -0.8728  1.5082
 7340SOL     OW22918   2.353   5.466   0.490 -1.0591  0.0953 -0.2575
 7340SOL    HW122919   2.433   5.415   0.522 -2.3349 -1.7141  0.1989
 7340SOL    HW222920   2.303   5.503   0.568 -1.8407 -0.6680 -0.3785
 7341SOL     OW22921   5.762   3.264   6.060  0.2308  0.0583 -0.0877
 7341SOL    HW122922   5.804   3.286   5.972  1.0922 -1.8302 -0.2015
 7341SOL    HW222923   5.807   3.184   6.099 -0.8562  0.2104  1.5772
 7342SOL     OW22924   1.572   0.222   3.654 -0.1574  0.0824  0.4715
 7342SOL    HW122925   1.652   0.280   3.644 -0.9576  1.3527  1.1482
 7342SOL    HW222926   1.524   0.216   3.567  1.3768 -1.8371 -0.3191
 7343SOL     OW22927   5.310   2.696   0.120 -0.0148  0.1867 -0.2315
 7343SOL    HW122928   5.348   2.671   0.031  1.4919  1.9150 -0.1256
 7343SOL    HW222929   5.356   2.643   0.191  2.4776  2.3071 -0.0948
 7344SOL     OW22930   2.571   6.837   0.500  0.0076  0.2234  0.1927
 7344SOL    HW122931   2.643   6.771   0.477  1.2017  2.0825 -1.7965
 7344SOL    HW222932   2.610   6.911   0.554 -1.0985 -0.1590  1.5582
 7345SOL     OW22933   5.122   5.371   6.261 -0.2302 -0.1250 -0.0425
 7345SOL    HW122934   5.052   5.299   6.268 -0.8778  0.5876  1.2790
 7345SOL    HW222935   5.088   5.455   6.304  1.6014  0.1182  1.0607
 7346SOL     OW22936   4.810   3.607   1.595  0.2211  0.2480  0.2468
 7346SOL    HW122937   4.809   3.671   1.672  0.3305  0.0463  0.4188
 7346SOL    HW222938   4.785   3.516   1.628 -1.9108  0.5611 -0.3256
 7347SOL     OW22939   5.903   2.435   6.664 -0.0917 -0.3286  0.0199
 7347SOL    HW122940   5.829   2.370   6.680 -0.3839 -0.5644 -2.0470
 7347SOL    HW222941   5.883   2.521   6.710 -0.8874 -0.8841  0.7371
 7348SOL     OW22942   0.198   3.905   3.295  0.0372  0.4916  0.3625
 7348SOL    HW122943   0.203   3.838   3.368 -0.4021 -0.3250 -0.3364
 7348SOL    HW222944   0.235   3.866   3.211  0.9811  1.5762  0.2442
 7349SOL     OW22945   5.656   2.099   2.013 -0.6130 -0.0445  0.3071
 7349SOL    HW122946   5.630   2.007   2.043 -0.2772 -0.2761 -0.0960
 7349SOL    HW222947   5.720   2.092   1.936  0.2592  0.5076  0.9617
 7350SOL     OW22948   3.330   6.302   6.004 -0.6394  0.2796 -0.5998
 7350SOL    HW122949   3.326   6.321   6.102  0.2269  2.4992 -0.9405
 7350SOL    HW222950   3.382   6.374   5.958  0.5654 -1.6578 -2.4688
 7351SOL     OW22951   2.645   5.281   2.757  0.2707 -0.4513  0.0352
 7351SOL    HW122952   2.627   5.192   2.799 -0.2432 -0.0689  0.6387
 7351SOL    HW222953   2.607   5.283   2.665 -2.1242  0.0534  0.9689
 7352SOL     OW22954   6.914   1.617   3.085  0.2664 -0.1436  0.0322
 7352SOL    HW122955   6.930   1.654   2.994  2.9023 -2.0744 -0.3970
 7352SOL    HW222956   6.860   1.682   3.139  0.6239  2.0617 -2.1268
 7353SOL     OW22957   6.631   1.373   0.506  0.0012  0.1175 -0.0437
 7353SOL    HW122958   6.710   1.312   0.495 -0.8884 -0.9272 -0.9357
 7353SOL    HW222959   6.629   1.438   0.430  1.2436  1.6598  1.1843
 7354SOL     OW22960   0.520   2.599   3.556  0.4128  0.6145 -0.0051
 7354SOL    HW122961   0.604   2.556   3.590 -0.3191  1.2045  2.7745
 7354SOL    HW222962   0.504   2.685   3.603 -2.1154  0.1842  0.0963
 7355SOL     OW22963   6.873   4.224   6.050  0.6416  0.0041  0.0256
 7355SOL    HW122964   6.971   4.214   6.035  1.1572  2.2778  1.4929
 7355SOL    HW222965   6.833   4.277   5.974  0.6847 -0.2538 -0.1784
 7356SOL     OW22966   4.494   5.324   0.006  0.4653  0.0490  0.0137
 7356SOL    HW122967   4.427   5.337  -0.068 -0.3010  1.3315  0.8847
 7356SOL    HW222968   4.498   5.407   0.062  2.9590  0.0885 -0.1069
 7357SOL     OW22969   5.255   6.973   1.160 -0.4454 -0.0859  0.1365
 7357SOL    HW122970   5.192   7.036   1.205 -1.2826 -1.1324  0.4710
 7357SOL    HW222971   5.314   6.930   1.228 -0.4917 -0.3376  0.0176
 7358SOL     OW22972   3.885   0.318   5.567  0.4483 -0.1739  0.6784
 7358SOL    HW122973   3.892   0.223   5.538  1.4911  0.0495  0.1138
 7358SOL    HW222974   3.944   0.375   5.508  0.1743  0.7510  1.2737
 7359SOL     OW22975   4.312   1.503   1.551  0.0284 -0.8559  0.1933
 7359SOL    HW122976   4.398   1.518   1.502  0.3777  0.3051  1.1286
 7359SOL    HW222977   4.310   1.409   1.586  1.6357 -0.4406  1.5118
 7360SOL     OW22978   3.013   3.208   4.583  0.3159  0.1490 -0.7450
 7360SOL    HW122979   3.032   3.163   4.496 -0.3176  0.4909 -1.0656
 7360SOL    HW222980   3.036   3.146   4.658  2.7810  0.5503 -1.0728
 7361SOL     OW22981   5.325   0.532   1.597  0.4932 -0.0227  0.4204
 7361SOL    HW122982   5.373   0.486   1.522  0.2530 -2.8458  1.9023
 7361SOL    HW222983   5.380   0.527   1.680 -0.5751  0.3962  1.1671
 7362SOL     OW22984   2.655   5.588   6.180 -0.1459  0.0176 -0.1193
 7362SOL    HW122985   2.708   5.504   6.193  0.9417  0.4105 -1.7041
 7362SOL    HW222986   2.579   5.590   6.245  0.1032 -1.9374  0.2888
 7363SOL     OW22987   3.649   5.933   1.353 -0.0478 -0.3692 -0.0203
 7363SOL    HW122988   3.724   5.961   1.293 -0.7861  0.1880 -0.6847
 7363SOL    HW222989   3.568   5.911   1.298 -1.1390  1.3871  0.8281
 7364SOL     OW22990   5.209   6.084   1.606 -0.1879  0.1121  0.4717
 7364SOL    HW122991   5.256   6.170   1.585 -0.9331  0.8223  1.6139
 7364SOL    HW222992   5.112   6.092   1.582 -0.2948 -0.3527  0.7440
 7365SOL     OW22993   3.191   5.157   2.398 -0.3087  0.6555  0.1077
 7365SOL    HW122994   3.136   5.193   2.323  1.4429  1.1746 -0.9920
 7365SOL    HW222995   3.208   5.229   2.465 -0.5308  0.6464  0.1724
 7366SOL     OW22996   4.061   0.517   3.255 -0.1279 -0.0249  0.2260
 7366SOL    HW122997   4.024   0.609   3.265  0.1709  0.4031 -2.1166
 7366SOL    HW222998   3.986   0.451   3.256 -0.2884  0.1059  2.6746
 7367SOL     OW22999   5.695   0.508   6.546 -0.1672 -0.0032 -0.0326
 7367SOL    HW123000   5.726   0.511   6.451  1.6500  0.3655  0.5298
 7367SOL    HW223001   5.738   0.430   6.592 -2.2914 -1.1586  0.1132
 7368SOL     OW23002   3.192   3.704   3.341  0.8989  0.7313  0.3613
 7368SOL    HW123003   3.208   3.627   3.279 -0.9643 -0.3726  1.1770
 7368SOL    HW223004   3.179   3.788   3.287  2.3294  0.4016 -0.5582
 7369SOL     OW23005   5.759   4.298   0.194  0.5482 -0.3386 -0.1332
 7369SOL    HW123006   5.829   4.344   0.248  0.1063 -0.2814  0.3957
 7369SOL    HW223007   5.758   4.200   0.215  1.0900 -0.5005 -0.8247
 7370SOL     OW23008   2.778   0.366   4.021 -0.2441 -0.3131  0.4565
 7370SOL    HW123009   2.690   0.326   4.049  0.9519 -3.6761 -0.0884
 7370SOL    HW223010   2.828   0.396   4.101 -1.0415 -0.3200  0.9669
 7371SOL     OW23011   4.656   6.981   4.818  0.2257  0.7432 -0.1436
 7371SOL    HW123012   4.753   6.958   4.808  0.6601  1.8530  1.2025
 7371SOL    HW223013   4.603   6.937   4.745  1.6109 -0.6186 -0.3641
 7372SOL     OW23014   6.113   1.743   5.445 -0.0024 -0.5618  0.4836
 7372SOL    HW123015   6.047   1.729   5.372 -0.0343  0.1940  0.3517
 7372SOL    HW223016   6.071   1.795   5.520  0.6545  0.6945  0.0183
 7373SOL     OW23017   5.326   1.270   5.761  0.5144 -0.1587 -0.0914
 7373SOL    HW123018   5.310   1.358   5.806 -0.2605  0.0415 -0.7334
 7373SOL    HW223019   5.251   1.207   5.782 -0.9111  0.5529 -2.5561
 7374SOL     OW23020   0.240   1.539   4.447  0.0592  0.3669 -0.1731
 7374SOL    HW123021   0.332   1.551   4.483 -0.0508  1.8932 -0.3439
 7374SOL    HW223022   0.245   1.519   4.349  0.2063  0.6855 -0.2320
 7375SOL     OW23023   1.580   2.960   2.149 -0.6986 -0.4664 -0.4372
 7375SOL    HW123024   1.658   2.995   2.201 -0.6244  1.9303 -2.0083
 7375SOL    HW223025   1.503   2.947   2.210 -0.0887  0.5060  0.5879
 7376SOL     OW23026   6.179   3.963   6.734  0.2890  0.3977 -0.0528
 7376SOL    HW123027   6.126   4.046   6.749 -0.6486  0.0866 -1.4578
 7376SOL    HW223028   6.266   3.970   6.784  0.3850  2.3717 -0.3919
 7377SOL     OW23029   3.380   4.595   0.590  0.5445 -0.0657  0.1353
 7377SOL    HW123030   3.351   4.670   0.650  2.6792  0.8796  0.0913
 7377SOL    HW223031   3.376   4.509   0.639 -1.0108  0.1982  0.5076
 7378SOL     OW23032   1.938   0.838   5.807  0.2612  0.8187  0.4506
 7378SOL    HW123033   1.898   0.847   5.716  0.0052  1.0145  0.5806
 7378SOL    HW223034   1.977   0.925   5.835  1.5004  0.4400  0.0011
 7379SOL     OW23035   2.993   7.001   6.671  0.3443  0.4050 -0.1914
 7379SOL    HW123036   2.974   7.046   6.584  2.1450  0.2356 -0.7020
 7379SOL    HW223037   2.984   6.902   6.659 -0.4971  0.4356  0.1192
 7380SOL     OW23038   5.638   3.185   5.544  0.2182 -0.7765  0.6328
 7380SOL    HW123039   5.713   3.151   5.488  0.8978  0.6248  0.6403
 7380SOL    HW223040   5.581   3.109   5.574  1.1795 -1.7838 -0.0267
 7381SOL     OW23041   4.715   1.775   6.335 -0.4836  0.5950 -0.3122
 7381SOL    HW123042   4.799   1.721   6.345 -1.3877 -1.2810 -2.0313
 7381SOL    HW223043   4.655   1.758   6.412  0.1178  0.8379  0.2200
 7382SOL     OW23044   6.581   5.850   0.978  0.3451 -0.2755 -0.9282
 7382SOL    HW123045   6.481   5.860   0.973  0.2178 -0.7555  0.3679
 7382SOL    HW223046   6.605   5.755   0.955  0.3959 -0.4713 -0.0787
 7383SOL     OW23047   2.544   1.519   0.043  0.5677  0.0008 -0.2016
 7383SOL    HW123048   2.481   1.487   0.114  0.2801  1.2977  0.1609
 7383SOL    HW223049   2.501   1.506  -0.047 -1.4325  3.1870  0.1426
 7384SOL     OW23050   0.782   6.406   5.059 -1.0478 -0.3845 -0.1377
 7384SOL    HW123051   0.739   6.487   5.098  3.9421  2.1268  0.9775
 7384SOL    HW223052   0.838   6.433   4.980  0.0554 -2.9398 -0.3325
 7385SOL     OW23053   4.871   3.726   2.147 -0.2573  0.5868 -0.1346
 7385SOL    HW123054   4.868   3.626   2.136 -2.1548  0.0325  3.7810
 7385SOL    HW223055   4.810   3.769   2.080  1.7033 -0.6071 -2.8885
 7386SOL     OW23056   5.990   3.381   0.668 -0.0393  0.0836  0.6835
 7386SOL    HW123057   6.023   3.434   0.745 -0.1127  1.6354 -0.3161
 7386SOL    HW223058   6.063   3.322   0.634  0.2705  0.0845  1.3389
 7387SOL     OW23059   6.597   5.850   5.813 -0.2043 -0.0256 -0.2506
 7387SOL    HW123060   6.532   5.775   5.823 -2.4813  1.7084 -0.9602
 7387SOL    HW223061   6.627   5.856   5.718  0.2771 -0.2543 -0.1156
 7388SOL     OW23062   2.899   5.381   2.836 -0.4364 -0.0182 -0.3507
 7388SOL    HW123063   2.848   5.296   2.853 -1.6217  0.5406 -0.9545
 7388SOL    HW223064   2.834   5.454   2.814  0.5751  1.0268  0.0550
 7389SOL     OW23065   4.835   1.336   6.873  0.5670  0.4314  0.3554
 7389SOL    HW123066   4.807   1.253   6.921  0.0396  1.4844  1.9570
 7389SOL    HW223067   4.892   1.312   6.794 -1.6759 -1.5861 -0.7816
 7390SOL     OW23068   0.624   2.854   2.856 -0.3458 -0.0798 -0.1750
 7390SOL    HW123069   0.580   2.796   2.925  0.8669 -1.5168 -0.5644
 7390SOL    HW223070   0.567   2.934   2.839 -1.6153 -0.6741  1.0723
 7391SOL     OW23071   3.447   4.134   4.577  0.7476 -0.1305 -0.1666
 7391SOL    HW123072   3.457   4.119   4.479 -0.1250  1.2896 -0.5019
 7391SOL    HW223073   3.350   4.129   4.602  1.1385 -3.5541  1.2101
 7392SOL     OW23074   2.519   5.278   1.694 -0.6013 -0.1185 -0.2736
 7392SOL    HW123075   2.577   5.286   1.613  0.3516  0.4717  0.4353
 7392SOL    HW223076   2.479   5.187   1.699 -0.7103 -0.1447 -1.4182
 7393SOL     OW23077   5.219   4.495   3.715  0.5241 -0.3746 -0.4372
 7393SOL    HW123078   5.311   4.524   3.742 -0.3074  3.4940 -1.0689
 7393SOL    HW223079   5.159   4.497   3.795  0.3882 -0.0178 -0.5478
 7394SOL     OW23080   4.270   0.413   3.435 -0.1819 -0.1790  0.7630
 7394SOL    HW123081   4.359   0.404   3.392 -0.2086 -1.0146  0.8746
 7394SOL    HW223082   4.201   0.436   3.366  0.2157  1.0976  0.7722
 7395SOL     OW23083   1.695   6.923   1.562 -0.2851 -1.0840 -0.3115
 7395SOL    HW123084   1.695   7.020   1.541  0.1977 -1.4025 -1.9590
 7395SOL    HW223085   1.610   6.898   1.608 -0.3817  0.1169  0.1881
 7396SOL     OW23086   2.204   3.515   1.608  0.2353  0.3877 -0.1019
 7396SOL    HW123087   2.135   3.569   1.656  0.8491  0.5040  0.6659
 7396SOL    HW223088   2.271   3.481   1.673  0.0309 -1.0735 -0.6191
 7397SOL     OW23089   4.492   4.829   4.363  0.1894  0.0321 -0.1215
 7397SOL    HW123090   4.419   4.761   4.355 -0.3031  0.6331 -0.9735
 7397SOL    HW223091   4.579   4.789   4.336 -0.1063 -0.2637 -0.6599
 7398SOL     OW23092   2.133   3.642   4.804  0.3134 -0.5919  0.2770
 7398SOL    HW123093   2.181   3.557   4.784  1.7499  0.5480 -1.4594
 7398SOL    HW223094   2.114   3.691   4.719 -1.0900  0.5287  1.1790
 7399SOL     OW23095   5.965   2.853   4.130  0.3264 -0.3039  0.3142
 7399SOL    HW123096   6.041   2.902   4.087  1.0676 -1.0803  0.7352
 7399SOL    HW223097   5.904   2.919   4.174  0.9852  0.2919  0.3503
 7400SOL     OW23098   5.317   3.854   5.367  0.2869  0.0441  0.0497
 7400SOL    HW123099   5.359   3.896   5.448  0.9065 -0.7844  0.1686
 7400SOL    HW223100   5.242   3.794   5.396  1.7412 -1.8032  0.2342
 7401SOL     OW23101   1.777   2.518   3.609  0.3072 -0.1686 -0.2047
 7401SOL    HW123102   1.799   2.497   3.514  0.4469  0.5911 -0.3474
 7401SOL    HW223103   1.857   2.499   3.667  0.4247 -0.0592 -0.3285
 7402SOL     OW23104   3.472   6.166   4.267 -0.2447 -0.0595  0.0820
 7402SOL    HW123105   3.455   6.232   4.193  0.5557 -0.8468 -0.8115
 7402SOL    HW223106   3.469   6.073   4.231 -1.3272 -0.5472  1.3301
 7403SOL     OW23107   1.090   5.163   2.729  0.1338 -0.3376  0.5387
 7403SOL    HW123108   1.129   5.224   2.798  1.2316  0.3819 -0.6622
 7403SOL    HW223109   0.996   5.192   2.709  0.6775  1.1120 -0.1074
 7404SOL     OW23110   3.607   4.292   0.903  0.2148  0.3601  0.3141
 7404SOL    HW123111   3.667   4.366   0.872  0.3997 -0.0773 -0.4027
 7404SOL    HW223112   3.534   4.278   0.836  0.4174 -0.3684  0.2326
 7405SOL     OW23113   4.760   0.241   3.084 -0.6211 -0.6316  0.3391
 7405SOL    HW123114   4.789   0.322   3.033  1.1304 -1.0760  0.5621
 7405SOL    HW223115   4.752   0.164   3.021 -1.2608 -0.5254  0.2903
 7406SOL     OW23116   2.421   1.183   4.298 -0.7856 -0.1587 -0.1516
 7406SOL    HW123117   2.512   1.202   4.261 -1.2506  1.9071 -0.3628
 7406SOL    HW223118   2.367   1.131   4.231 -0.4795  0.5313 -0.9464
 7407SOL     OW23119   6.872   5.046   5.102  0.6148  1.0788  0.6194
 7407SOL    HW123120   6.804   5.114   5.075 -2.4352 -0.8927  2.5881
 7407SOL    HW223121   6.886   4.982   5.026 -0.9684  0.6866  0.6068
 7408SOL     OW23122   3.364   6.067   5.844  0.1873  0.0209 -0.0447
 7408SOL    HW123123   3.338   6.138   5.910 -1.3317  0.8424 -1.4535
 7408SOL    HW223124   3.405   6.110   5.764 -2.0237 -0.4610 -1.5436
 7409SOL     OW23125   0.420   5.447   6.470 -0.1787 -0.5879 -0.2057
 7409SOL    HW123126   0.388   5.458   6.376 -0.3507  3.4453  0.1604
 7409SOL    HW223127   0.519   5.429   6.469 -0.0310  0.1946 -1.1576
 7410SOL     OW23128   6.392   6.959   2.099 -0.4909  0.0458  1.2222
 7410SOL    HW123129   6.337   7.041   2.116 -0.9184  0.0537 -0.1003
 7410SOL    HW223130   6.472   6.983   2.044 -1.4696 -0.6486 -0.5882
 7411SOL     OW23131   1.324   3.350   6.086 -0.4059 -0.1540 -0.8921
 7411SOL    HW123132   1.419   3.370   6.108 -0.4805  1.2445 -1.7546
 7411SOL    HW223133   1.280   3.431   6.048 -1.5837 -1.1463 -1.7327
 7412SOL     OW23134   5.310   0.708   0.707  0.2442 -0.2121  0.2067
 7412SOL    HW123135   5.234   0.736   0.764  0.1551  2.3854 -1.0609
 7412SOL    HW223136   5.276   0.669   0.621  0.3485  0.3468 -0.0890
 7413SOL     OW23137   4.014   0.451   2.923  0.2401  0.7900 -0.0089
 7413SOL    HW123138   3.950   0.520   2.891  0.2281  2.3745  3.1062
 7413SOL    HW223139   3.964   0.370   2.954  0.1414  0.0724 -1.9126
 7414SOL     OW23140   1.979   0.722   6.057  0.4301  0.3386 -0.1742
 7414SOL    HW123141   1.979   0.751   5.962 -0.7503  1.6901  0.2123
 7414SOL    HW223142   1.899   0.665   6.075  2.1401 -2.4325 -0.6457
 7415SOL     OW23143   4.097   0.502   0.496  0.4906 -0.6253 -0.4245
 7415SOL    HW123144   4.045   0.419   0.473  0.3562 -0.3334 -1.2130
 7415SOL    HW223145   4.035   0.573   0.528  0.8485 -1.5867  2.6433
 7416SOL     OW23146   6.606   0.871   3.345  0.0707  0.1966  0.2004
 7416SOL    HW123147   6.542   0.827   3.282 -1.0750  2.6770 -0.4932
 7416SOL    HW223148   6.557   0.940   3.400  1.4635 -0.3934  2.3054
 7417SOL     OW23149   2.121   1.288   4.923  0.0053  0.1061 -0.4887
 7417SOL    HW123150   2.084   1.279   4.831  0.1249 -0.6168 -0.4766
 7417SOL    HW223151   2.062   1.347   4.978  0.6228  1.6015 -1.3819
 7418SOL     OW23152   1.897   3.584   1.100 -0.1202 -0.3440  0.0438
 7418SOL    HW123153   1.910   3.542   1.190  0.1923  1.7483  1.0416
 7418SOL    HW223154   1.813   3.550   1.058  0.2021 -2.0247  0.7056
 7419SOL     OW23155   0.306   3.767   3.501  0.4732 -0.4192 -0.4047
 7419SOL    HW123156   0.379   3.778   3.568  0.5339  0.1462 -0.5560
 7419SOL    HW223157   0.288   3.670   3.487  0.9425 -0.5557 -0.0968
 7420SOL     OW23158   6.570   1.621   0.940 -0.1373  0.3402  0.3106
 7420SOL    HW123159   6.494   1.635   0.877 -0.2401  0.7572  0.5246
 7420SOL    HW223160   6.636   1.696   0.931 -0.8726  1.1896  1.7234
 7421SOL     OW23161   4.360   3.073   0.195  0.2693 -0.2522 -1.0849
 7421SOL    HW123162   4.441   3.111   0.239 -0.6632 -0.1090  0.5963
 7421SOL    HW223163   4.322   3.000   0.252 -1.1072  0.0873 -1.5369
 7422SOL     OW23164   0.484   2.200   4.540  0.0617 -0.2562  0.0257
 7422SOL    HW123165   0.388   2.195   4.565  0.0514  1.1928  0.3602
 7422SOL    HW223166   0.539   2.158   4.613 -0.2155  0.4296  0.6383
 7423SOL     OW23167   6.497   0.376   0.693  0.7175 -0.2216 -0.2177
 7423SOL    HW123168   6.480   0.294   0.637 -1.1832 -0.3302  0.4460
 7423SOL    HW223169   6.518   0.453   0.633  1.3269 -0.9174 -0.9186
 7424SOL     OW23170   1.640   1.321   3.542  0.1350 -0.1538 -0.7870
 7424SOL    HW123171   1.566   1.388   3.545  0.9295  0.8349 -2.0248
 7424SOL    HW223172   1.680   1.321   3.450  0.8084 -1.6209 -0.5167
 7425SOL     OW23173   6.532   1.982   1.317 -0.5835  0.1024 -0.2243
 7425SOL    HW123174   6.566   1.890   1.299  1.2611  0.4618  1.1274
 7425SOL    HW223175   6.432   1.980   1.327 -0.6060 -1.6649 -0.5568
 7426SOL     OW23176   5.629   4.053   5.548 -0.7977  0.4462  0.7061
 7426SOL    HW123177   5.673   4.018   5.631  1.6324  0.1057 -0.6387
 7426SOL    HW223178   5.644   3.989   5.472 -3.3837  0.5024  0.0430
 7427SOL     OW23179   2.552   1.675   2.962 -0.1476 -0.1169  0.3064
 7427SOL    HW123180   2.537   1.661   3.060  1.0579  0.5321  0.6049
 7427SOL    HW223181   2.534   1.771   2.940 -1.5377 -0.5087 -0.3472
 7428SOL     OW23182   3.073   6.926   4.458 -0.2587 -0.6990 -0.3084
 7428SOL    HW123183   2.988   6.914   4.510 -0.9927  0.0820 -1.2810
 7428SOL    HW223184   3.055   6.911   4.361  0.5316  0.2284 -0.6196
 7429SOL     OW23185   2.914   6.945   1.344  0.0014  0.7202 -0.2825
 7429SOL    HW123186   2.867   6.960   1.257 -0.4375  1.5567  0.0886
 7429SOL    HW223187   2.902   7.025   1.403  1.3497  0.6900  0.0782
 7430SOL     OW23188   6.915   6.051   2.558  0.2174 -0.1740 -0.6015
 7430SOL    HW123189   6.973   6.132   2.561 -1.2511  0.9632 -1.5700
 7430SOL    HW223190   6.861   6.051   2.474 -1.4864 -0.9464  0.4269
 7431SOL     OW23191   1.505   0.412   3.114  0.1771  0.3490 -0.3302
 7431SOL    HW123192   1.499   0.449   3.022 -1.4175  2.0425  0.3828
 7431SOL    HW223193   1.520   0.487   3.179 -0.9400 -0.5140  0.9802
 7432SOL     OW23194   2.330   0.273   3.580 -0.5980 -0.3972 -0.0553
 7432SOL    HW123195   2.265   0.263   3.657 -0.6543  1.2842  0.1561
 7432SOL    HW223196   2.305   0.354   3.527  1.2701  0.2452 -0.0193
 7433SOL     OW23197   2.008   0.282   1.052 -0.1214 -0.3946  0.9628
 7433SOL    HW123198   1.940   0.302   0.982 -1.2524 -1.0295  1.8492
 7433SOL    HW223199   2.030   0.184   1.051  1.1268 -0.1330  0.4009
 7434SOL     OW23200   5.844   6.592   5.126 -0.0907  0.8646 -0.4497
 7434SOL    HW123201   5.917   6.661   5.125 -0.8483  1.7001  0.4671
 7434SOL    HW223202   5.877   6.509   5.171 -0.0124  1.6172  0.9254
 7435SOL     OW23203   5.372   4.267   2.166  0.0572  0.1854  0.4740
 7435SOL    HW123204   5.444   4.198   2.157  0.9645  1.2851 -1.2135
 7435SOL    HW223205   5.292   4.238   2.115  0.4398  0.3562 -0.2384
 7436SOL     OW23206   4.482   3.054   6.296 -0.8483 -0.2002 -0.7128
 7436SOL    HW123207   4.495   3.138   6.350 -1.4142  0.2533 -1.2614
 7436SOL    HW223208   4.436   2.985   6.351 -1.5602  0.3117 -0.6514
 7437SOL     OW23209   5.488   6.731   6.917 -0.0554 -0.0569 -0.4581
 7437SOL    HW123210   5.490   6.821   6.959 -1.6515  0.2457 -0.9652
 7437SOL    HW223211   5.438   6.736   6.831 -3.5467 -2.0753  1.2368
 7438SOL     OW23212   0.830   1.187   7.000  0.3912  0.1346  0.1924
 7438SOL    HW123213   0.851   1.099   7.044  1.7630 -1.4938 -3.3680
 7438SOL    HW223214   0.747   1.177   6.944  0.6339  1.0678 -0.3490
 7439SOL     OW23215   2.219   3.456   6.102 -0.4197 -0.3155  0.5957
 7439SOL    HW123216   2.300   3.442   6.160  0.3598  1.3558 -0.0246
 7439SOL    HW223217   2.140   3.411   6.143  0.5153 -0.7630  1.9645
 7440SOL     OW23218   4.756   5.049   3.006 -0.1432 -0.0759  0.4321
 7440SOL    HW123219   4.661   5.058   3.036 -0.5598 -0.8658 -0.5902
 7440SOL    HW223220   4.790   4.957   3.028 -0.1649 -0.3578 -0.6509
 7441SOL     OW23221   5.159   6.476   1.763  0.3932 -0.1748 -0.4829
 7441SOL    HW123222   5.178   6.536   1.841  1.7909  0.5238 -1.3210
 7441SOL    HW223223   5.231   6.487   1.694 -0.5639 -1.1123 -1.6811
 7442SOL     OW23224   0.222   0.271   6.240 -0.7992 -0.2256 -0.1644
 7442SOL    HW123225   0.170   0.212   6.178 -0.8526 -0.1848 -0.1589
 7442SOL    HW223226   0.301   0.309   6.193  0.1040 -1.5250  0.2637
 7443SOL     OW23227   0.287   6.456   2.392  0.2638  0.1178  0.3546
 7443SOL    HW123228   0.300   6.358   2.408 -0.4544 -0.0096  0.1894
 7443SOL    HW223229   0.218   6.470   2.321 -0.0384  0.7468  0.7596
 7444SOL     OW23230   0.246   6.567   6.411  0.5844  0.1715 -0.0772
 7444SOL    HW123231   0.299   6.489   6.444 -0.3425 -2.2997 -3.8650
 7444SOL    HW223232   0.308   6.633   6.369  1.1043 -0.1653  0.1482
 7445SOL     OW23233   4.810   5.272   2.087 -0.6368  0.4440  0.1450
 7445SOL    HW123234   4.897   5.229   2.110 -0.1782  2.0882  1.7652
 7445SOL    HW223235   4.797   5.271   1.988  0.3566 -1.3784 -0.0114
 7446SOL     OW23236   5.593   4.159   6.812 -0.0424 -0.3268  0.8792
 7446SOL    HW123237   5.575   4.112   6.898  0.9444  0.3005  1.4454
 7446SOL    HW223238   5.676   4.123   6.770 -2.1235 -2.8236 -1.4478
 7447SOL     OW23239   5.885   6.231   6.662  0.4591 -0.2823 -0.0565
 7447SOL    HW123240   5.977   6.217   6.625  0.3184  0.0789 -0.5548
 7447SOL    HW223241   5.872   6.172   6.742  1.9658  1.3721  1.5096
 7448SOL     OW23242   5.093   4.625   0.156  0.7332 -0.2036  0.1853
 7448SOL    HW123243   5.099   4.723   0.137  0.1440  0.0686  1.2761
 7448SOL    HW223244   5.071   4.612   0.253 -0.4859 -1.3853 -0.2245
 7449SOL     OW23245   6.953   5.083   5.717 -0.9524  0.1746 -0.3444
 7449SOL    HW123246   6.879   5.032   5.762  1.4924 -2.7816  0.6747
 7449SOL    HW223247   6.965   5.047   5.624  1.7129 -2.4060  0.8515
 7450SOL     OW23248   3.711   2.110   5.098  0.7059 -0.0676 -0.3904
 7450SOL    HW123249   3.660   2.164   5.165  0.7091 -1.1919  0.5460
 7450SOL    HW223250   3.655   2.096   5.016  0.0017 -0.2322  0.1167
 7451SOL     OW23251   3.347   6.366   1.495 -0.0073 -0.2556  0.3317
 7451SOL    HW123252   3.421   6.300   1.487  0.0454 -0.2134  0.4732
 7451SOL    HW223253   3.259   6.318   1.491  0.0238 -0.2971  0.0727
 7452SOL     OW23254   0.424   4.279   6.222 -0.0991 -0.9270 -0.2050
 7452SOL    HW123255   0.454   4.213   6.290  1.3066 -0.5784 -0.4470
 7452SOL    HW223256   0.487   4.277   6.144  0.6659  1.4731  0.2803
 7453SOL     OW23257   2.257   6.188   6.457  0.4021  0.1894 -0.0338
 7453SOL    HW123258   2.243   6.253   6.383  1.6173 -1.5697 -1.9274
 7453SOL    HW223259   2.319   6.227   6.525  0.2139  1.3936 -0.5261
 7454SOL     OW23260   3.928   1.903   2.650  0.0988 -0.2626 -0.2401
 7454SOL    HW123261   3.985   1.982   2.674 -0.3607 -0.1816  0.6135
 7454SOL    HW223262   3.948   1.875   2.556 -0.5227  1.5526 -0.9544
 7455SOL     OW23263   5.793   1.892   4.179 -0.2083 -0.3720  0.0517
 7455SOL    HW123264   5.770   1.873   4.274 -0.1920 -1.9158 -0.2246
 7455SOL    HW223265   5.749   1.825   4.120  1.2942 -0.5971 -0.8638
 7456SOL     OW23266   2.803   1.641   6.224 -0.1285  0.0377  0.6632
 7456SOL    HW123267   2.873   1.633   6.296 -0.6942 -0.2079  1.1971
 7456SOL    HW223268   2.730   1.574   6.241 -0.5072  0.3092  0.1301
 7457SOL     OW23269   3.558   0.067   2.624 -0.3654  0.9157 -0.9133
 7457SOL    HW123270   3.470   0.114   2.625 -1.4930 -1.0697  0.0333
 7457SOL    HW223271   3.579   0.039   2.530 -0.0357  2.5837 -1.3622
 7458SOL     OW23272   0.165   4.808   4.219  0.0808  0.8776  0.1488
 7458SOL    HW123273   0.085   4.748   4.224 -0.8096  2.0224  0.2987
 7458SOL    HW223274   0.221   4.783   4.140 -1.4568  1.2459 -1.1023
 7459SOL     OW23275   4.870   6.777   3.545 -0.3877  0.0988 -0.8903
 7459SOL    HW123276   4.895   6.752   3.451  3.2574  0.1862 -0.1103
 7459SOL    HW223277   4.901   6.705   3.607 -0.2733  1.2783  0.4530
 7460SOL     OW23278   5.089   0.794   0.864  0.1076  0.4144  0.3927
 7460SOL    HW123279   5.132   0.788   0.954 -1.0823 -1.5143  0.8915
 7460SOL    HW223280   4.994   0.822   0.875 -1.2844 -3.6097  0.2685
 7461SOL     OW23281   1.919   2.231   5.568 -0.1317 -0.1328 -0.5414
 7461SOL    HW123282   1.913   2.326   5.537 -2.2178 -0.3406 -0.9343
 7461SOL    HW223283   1.910   2.170   5.490  0.4428 -0.6714 -0.1957
 7462SOL     OW23284   1.635   4.010   0.416 -0.0784 -0.0647  0.1953
 7462SOL    HW123285   1.680   4.095   0.387 -1.4075  1.1625  1.5467
 7462SOL    HW223286   1.541   4.009   0.382  0.3167 -1.6753 -0.9525
 7463SOL     OW23287   2.539   5.325   0.629 -0.1012  0.4459 -0.4084
 7463SOL    HW123288   2.481   5.268   0.687  0.4913  0.0574 -0.1849
 7463SOL    HW223289   2.587   5.392   0.685 -0.3581  0.7857 -0.5953
 7464SOL     OW23290   5.270   6.128   3.364 -0.6742 -0.2172  0.2260
 7464SOL    HW123291   5.276   6.219   3.407 -0.7412  0.2136 -0.6556
 7464SOL    HW223292   5.201   6.073   3.411 -0.8847  0.3123  0.5447
 7465SOL     OW23293   1.497   5.213   0.997  0.6202  0.1143  0.2226
 7465SOL    HW123294   1.544   5.125   0.986  0.4969  0.0682  0.0684
 7465SOL    HW223295   1.540   5.264   1.071  1.5634  0.4902 -0.5627
 7466SOL     OW23296   0.212   6.748   4.194  0.0295 -0.4761  0.6635
 7466SOL    HW123297   0.262   6.699   4.123 -1.0510  2.8130 -2.6713
 7466SOL    HW223298   0.114   6.740   4.178 -0.2319  0.8180  1.4453
 7467SOL     OW23299   6.990   3.074   6.341 -0.1223  0.2173 -0.2445
 7467SOL    HW123300   6.942   2.996   6.300  0.9661 -0.5480 -0.1228
 7467SOL    HW223301   7.017   3.138   6.270 -0.1394 -0.0297 -0.4768
 7468SOL     OW23302   0.566   4.178   4.734 -0.1304  0.9338  1.1091
 7468SOL    HW123303   0.474   4.216   4.734 -0.8233 -0.4489 -2.2133
 7468SOL    HW223304   0.629   4.242   4.692 -0.0024  1.0070  1.4108
 7469SOL     OW23305   6.478   0.938   0.553  0.4208 -0.2027 -0.0959
 7469SOL    HW123306   6.527   0.937   0.466  1.5053 -0.9389  0.5003
 7469SOL    HW223307   6.379   0.941   0.536  0.5958 -0.9179 -1.3573
 7470SOL     OW23308   0.125   3.017   3.755 -0.4177  0.1361 -0.0383
 7470SOL    HW123309   0.039   3.031   3.805 -1.5223 -1.4212 -1.4014
 7470SOL    HW223310   0.109   2.959   3.676  2.1623 -1.4058  0.4427
 7471SOL     OW23311   4.969   0.595   6.934 -0.1799 -0.0642  0.4431
 7471SOL    HW123312   5.014   0.556   6.854  1.0030  0.0968  1.0139
 7471SOL    HW223313   4.925   0.682   6.910  2.3951  1.3383  0.4992
 7472SOL     OW23314   6.618   6.005   4.054 -0.4718  0.4289 -0.2238
 7472SOL    HW123315   6.672   5.959   4.124  1.1834  1.5723 -0.6816
 7472SOL    HW223316   6.565   5.937   4.003  0.6549 -0.7767  0.1551
 7473SOL     OW23317   3.083   6.460   4.355  0.0720 -0.2750 -0.4538
 7473SOL    HW123318   3.014   6.477   4.284 -2.9160 -0.0543  2.2889
 7473SOL    HW223319   3.145   6.538   4.361 -2.5966  1.9217  0.2662
 7474SOL     OW23320   5.713   2.224   1.040  0.2985 -0.6224  0.1542
 7474SOL    HW123321   5.789   2.289   1.030  0.1980 -0.1219  2.2998
 7474SOL    HW223322   5.626   2.272   1.031  0.2195 -0.8615 -0.4085
 7475SOL     OW23323   3.983   1.528   0.818  0.1412  0.0470 -0.2460
 7475SOL    HW123324   3.902   1.532   0.877  0.6439 -0.9055  0.5530
 7475SOL    HW223325   3.994   1.615   0.770 -2.5569 -0.4924 -2.0367
 7476SOL     OW23326   2.739   0.626   1.853 -0.0269 -0.5492 -0.1092
 7476SOL    HW123327   2.661   0.679   1.819  1.2436  0.1739 -2.0800
 7476SOL    HW223328   2.771   0.564   1.781  0.3115 -1.9245  1.1791
 7477SOL     OW23329   6.205   3.688   6.659  0.1475 -0.1320  0.2621
 7477SOL    HW123330   6.177   3.637   6.740 -1.8672 -0.1102 -0.3675
 7477SOL    HW223331   6.174   3.783   6.667  0.0059 -0.1098 -0.4858
 7478SOL     OW23332   1.273   2.038   6.565 -0.1110 -0.1993  0.2873
 7478SOL    HW123333   1.307   1.964   6.623  2.1255  0.5724  0.0627
 7478SOL    HW223334   1.242   2.000   6.478  0.8790 -0.9209  0.2264
 7479SOL     OW23335   3.444   4.004   6.796 -0.2438 -0.4606 -0.3358
 7479SOL    HW123336   3.525   4.027   6.849 -1.1910  0.7164  0.6682
 7479SOL    HW223337   3.428   4.074   6.727 -1.4529  0.3892  0.7472
 7480SOL     OW23338   4.803   5.349   1.815  0.1479 -0.3461  0.7528
 7480SOL    HW123339   4.752   5.433   1.796  2.5119  0.8238 -0.8927
 7480SOL    HW223340   4.749   5.270   1.784 -0.5743  0.8384 -1.2278
 7481SOL     OW23341   0.557   3.380   0.803  0.4107  0.0131  0.6574
 7481SOL    HW123342   0.471   3.431   0.807  0.3607 -0.1050  1.1914
 7481SOL    HW223343   0.619   3.423   0.738  0.2085  0.4997  0.7869
 7482SOL     OW23344   5.551   2.253   5.486  0.3452  0.1437  0.0010
 7482SOL    HW123345   5.622   2.320   5.507 -0.9090  1.2336  0.9018
 7482SOL    HW223346   5.593   2.162   5.475  1.8593  0.7536  0.5090
 7483SOL     OW23347   3.579   2.357   5.908 -0.0375  0.0502  0.4911
 7483SOL    HW123348   3.525   2.349   5.992  1.1725  0.9715  1.3906
 7483SOL    HW223349   3.672   2.324   5.926 -0.0187 -0.6329 -0.7719
 7484SOL     OW23350   4.036   6.831   3.188 -0.1560 -0.3899 -0.0005
 7484SOL    HW123351   3.952   6.877   3.160 -0.0201  1.1418  1.8559
 7484SOL    HW223352   4.106   6.900   3.209  1.1865 -1.5952 -0.3266
 7485SOL     OW23353   4.374   5.543   6.820 -0.3054 -0.8385 -0.1365
 7485SOL    HW123354   4.445   5.532   6.751 -2.1806 -1.1109 -2.1341
 7485SOL    HW223355   4.340   5.454   6.848 -0.5781 -0.6834  0.0351
 7486SOL     OW23356   2.672   1.036   1.102 -0.0067 -0.6811 -0.2083
 7486SOL    HW123357   2.679   1.032   1.002 -2.0947  3.3975 -0.7159
 7486SOL    HW223358   2.734   1.106   1.137 -0.6766 -0.7144  1.1070
 7487SOL     OW23359   5.024   0.591   5.127  0.1334  0.5208  0.1604
 7487SOL    HW123360   5.077   0.523   5.077  0.2020  0.8055 -0.1609
 7487SOL    HW223361   4.979   0.548   5.206 -0.1770  0.0205 -0.2843
 7488SOL     OW23362   2.957   5.567   5.156 -0.9451  0.2283 -0.1802
 7488SOL    HW123363   2.916   5.514   5.231  3.3916 -0.3032  2.0889
 7488SOL    HW223364   3.039   5.521   5.123 -0.3329  2.6366 -2.3616
 7489SOL     OW23365   3.959   4.128   6.753  0.4055  0.7045 -0.0959
 7489SOL    HW123366   3.887   4.105   6.687 -0.5582  1.9623  0.4809
 7489SOL    HW223367   4.019   4.197   6.713  0.4129  0.7405 -0.0221
 7490SOL     OW23368   1.557   0.893   3.161  0.1586 -0.1708 -0.2024
 7490SOL    HW123369   1.506   0.977   3.141  0.8727  0.0864 -1.0135
 7490SOL    HW223370   1.655   0.910   3.147  0.3613 -0.9848  0.1803
 7491SOL     OW23371   4.579   2.762   0.015 -0.1412  0.0989 -0.2951
 7491SOL    HW123372   4.670   2.740   0.050 -0.7147 -2.1994 -0.0475
 7491SOL    HW223373   4.511   2.747   0.087 -0.7810  1.2361 -0.6417
 7492SOL     OW23374   1.767   1.255   3.311  0.3647  0.1484  0.3894
 7492SOL    HW123375   1.850   1.202   3.294 -0.0305 -1.1582  2.2350
 7492SOL    HW223376   1.711   1.257   3.228  1.2727 -0.7326 -0.2689
 7493SOL     OW23377   5.592   6.515   5.331  0.8455  0.3963  0.2112
 7493SOL    HW123378   5.674   6.467   5.361  1.4719  0.8814 -0.6725
 7493SOL    HW223379   5.614   6.611   5.314  0.3525  0.2925 -1.0810
 7494SOL     OW23380   5.904   2.297   1.653  0.2913  0.3771 -0.4662
 7494SOL    HW123381   5.891   2.396   1.647  0.1073  0.5946  2.1395
 7494SOL    HW223382   5.843   2.251   1.589 -0.9734  1.9027 -0.4162
 7495SOL     OW23383   1.882   4.383   0.474  0.4268 -0.4495 -0.4562
 7495SOL    HW123384   1.820   4.428   0.538  0.5816  0.5150 -0.9740
 7495SOL    HW223385   1.968   4.361   0.521  0.9185  1.1489 -0.5701
 7496SOL     OW23386   4.930   3.235   3.688  0.6972  0.1304 -0.1748
 7496SOL    HW123387   5.014   3.187   3.715 -0.4081 -0.8314  1.7822
 7496SOL    HW223388   4.860   3.221   3.758 -0.1946  3.3816 -0.2797
 7497SOL     OW23389   5.951   6.525   7.002  0.0938  0.5159 -0.2081
 7497SOL    HW123390   5.906   6.586   6.936  0.1911 -0.7699 -1.5206
 7497SOL    HW223391   5.923   6.549   7.095 -0.9904  1.6136 -0.7911
 7498SOL     OW23392   3.487   6.568   1.618  0.3535 -0.0336 -0.7662
 7498SOL    HW123393   3.432   6.500   1.571 -1.1503  0.1311  0.6537
 7498SOL    HW223394   3.492   6.651   1.562 -0.1266 -0.3487 -1.2853
 7499SOL     OW23395   3.331   1.644   4.270 -0.0551  0.0622 -0.6211
 7499SOL    HW123396   3.381   1.579   4.326 -0.6398 -0.4247 -0.6491
 7499SOL    HW223397   3.328   1.733   4.315 -3.3198 -1.0759  1.8172
 7500SOL     OW23398   4.885   0.644   3.594 -0.0806 -0.2549  0.3932
 7500SOL    HW123399   4.909   0.738   3.617  2.3338 -0.5759 -0.5064
 7500SOL    HW223400   4.879   0.590   3.678  2.4724 -0.1063  0.7439
 7501SOL     OW23401   0.311   2.688   5.105  0.1623  0.6979 -0.4700
 7501SOL    HW123402   0.307   2.692   5.005 -0.8557  0.3680 -0.4467
 7501SOL    HW223403   0.377   2.618   5.132  2.0914  2.2498 -0.8807
 7502SOL     OW23404   2.895   0.867   5.749 -0.0980 -0.1119 -0.2459
 7502SOL    HW123405   2.953   0.785   5.749  0.5520  0.3327  0.5621
 7502SOL    HW223406   2.951   0.947   5.729 -0.3069  0.3844  1.0469
 7503SOL     OW23407   0.344   4.086   1.084 -0.1191 -0.3524  0.2007
 7503SOL    HW123408   0.405   4.020   1.040 -0.8969  0.2883 -1.9950
 7503SOL    HW223409   0.397   4.166   1.112  0.2717 -0.3327 -0.5459
 7504SOL     OW23410   5.004   6.175   4.604 -0.3300  0.2193  0.4685
 7504SOL    HW123411   5.095   6.191   4.642 -0.7379  0.7836  1.2444
 7504SOL    HW223412   4.967   6.262   4.569  0.3125 -0.3883 -1.9046
 7505SOL     OW23413   5.781   5.578   5.873 -0.0112  0.2083  0.1727
 7505SOL    HW123414   5.708   5.644   5.893  1.3213  1.3504  1.5325
 7505SOL    HW223415   5.809   5.533   5.958  2.0369  1.1015  0.0327
 7506SOL     OW23416   3.739   0.553   5.289  0.5125  0.3045  0.0586
 7506SOL    HW123417   3.744   0.480   5.221 -2.2939 -1.8393  1.9226
 7506SOL    HW223418   3.749   0.642   5.244  2.9858 -1.1111 -2.4418
 7507SOL     OW23419   0.782   4.432   4.695 -0.0456  0.7111 -0.1985
 7507SOL    HW123420   0.753   4.379   4.616  1.3635  0.9444 -0.9191
 7507SOL    HW223421   0.881   4.422   4.707 -0.4035 -0.4739  2.4297
 7508SOL     OW23422   2.733   1.839   0.023 -0.2291  0.5202  0.8618
 7508SOL    HW123423   2.761   1.780  -0.052  0.0007  1.0321  0.5395
 7508SOL    HW223424   2.788   1.923   0.022 -0.8226  0.9184  1.0697
 7509SOL     OW23425   6.099   2.952   2.404 -0.2445 -0.4898 -0.0660
 7509SOL    HW123426   6.178   2.966   2.344 -1.2321 -0.5686 -1.4353
 7509SOL    HW223427   6.118   2.991   2.495  0.3393  2.0203 -1.1711
 7510SOL     OW23428   3.956   3.391   2.242  0.1319  0.2951  0.0819
 7510SOL    HW123429   3.861   3.414   2.263 -0.9059 -2.8452 -0.6665
 7510SOL    HW223430   4.000   3.351   2.322  0.6045  1.0649  0.2134
 7511SOL     OW23431   4.920   5.841   5.942 -0.4849 -1.2423 -0.2041
 7511SOL    HW123432   4.997   5.778   5.927  0.7232  0.0415  0.4662
 7511SOL    HW223433   4.859   5.837   5.863  0.1028 -2.4881 -0.6275
 7512SOL     OW23434   3.437   0.745   6.220 -0.1385 -0.1675 -0.5058
 7512SOL    HW123435   3.353   0.765   6.170 -1.1542  0.0599  1.2029
 7512SOL    HW223436   3.416   0.688   6.300  1.2403  0.3084  0.2444
 7513SOL     OW23437   0.699   2.107   3.476  0.4184  0.3867  0.2255
 7513SOL    HW123438   0.714   2.175   3.405 -0.7427 -1.0366 -1.4709
 7513SOL    HW223439   0.601   2.086   3.481  0.8054 -1.6530  0.1726
 7514SOL     OW23440   1.397   2.446   1.384 -0.2851  0.6069  0.0983
 7514SOL    HW123441   1.337   2.507   1.435  0.1209  0.5088  0.7028
 7514SOL    HW223442   1.394   2.354   1.423  2.5361  1.2380  2.1587
 7515SOL     OW23443   6.510   6.053   4.474 -0.2923 -0.0234  0.3644
 7515SOL    HW123444   6.523   5.987   4.548  2.3698  1.6821  1.5406
 7515SOL    HW223445   6.435   6.115   4.497  0.0748  0.0714  1.3539
 7516SOL     OW23446   0.181   6.656   5.654 -0.5044  0.2683 -0.7230
 7516SOL    HW123447   0.158   6.601   5.734 -0.5436  0.1193 -0.8356
 7516SOL    HW223448   0.262   6.616   5.609  0.2596  1.0470 -0.0689
 7517SOL     OW23449   0.546   1.168   6.559  0.3775 -0.4768 -0.5784
 7517SOL    HW123450   0.548   1.259   6.518  1.3279 -0.3886 -0.3447
 7517SOL    HW223451   0.565   1.175   6.657  2.5183 -1.1033 -0.9050
 7518SOL     OW23452   5.189   2.727   4.173  0.7046 -0.2537  0.2289
 7518SOL    HW123453   5.192   2.669   4.254  0.6590  2.1692  2.0497
 7518SOL    HW223454   5.256   2.800   4.182  0.9140 -0.0865 -2.0993
 7519SOL     OW23455   4.195   6.023   3.530  0.4739 -0.3002 -0.1441
 7519SOL    HW123456   4.191   6.101   3.592  0.1328 -0.8243  0.5083
 7519SOL    HW223457   4.107   5.974   3.532  1.3440 -1.8998  1.0440
 7520SOL     OW23458   1.659   0.721   5.863  0.6299 -0.0024  0.0248
 7520SOL    HW123459   1.741   0.779   5.852 -0.1025  1.2094  0.7063
 7520SOL    HW223460   1.634   0.682   5.774  2.6121 -1.3688  0.0044
 7521SOL     OW23461   4.582   1.725   3.543  0.3791  0.4382  0.6252
 7521SOL    HW123462   4.575   1.821   3.570 -1.6612  1.8429 -3.8200
 7521SOL    HW223463   4.666   1.711   3.491  1.0635 -0.4862  1.9137
 7522SOL     OW23464   1.628   5.899   5.315 -0.0350  0.1751 -0.1431
 7522SOL    HW123465   1.702   5.961   5.291  0.0828  0.4930  0.9610
 7522SOL    HW223466   1.655   5.805   5.296 -0.3504  0.4603 -2.1748
 7523SOL     OW23467   5.914   2.647   6.004  0.2451  0.2360  0.0153
 7523SOL    HW123468   5.832   2.698   5.978 -0.6949 -0.4045  1.5591
 7523SOL    HW223469   5.889   2.552   6.020  1.7752 -0.5209 -1.7951
 7524SOL     OW23470   0.241   2.520   3.800  0.0906 -0.1128  0.4034
 7524SOL    HW123471   0.213   2.450   3.866  0.2176 -0.8265 -0.2785
 7524SOL    HW223472   0.174   2.594   3.798  0.3455  0.1660  1.6847
 7525SOL     OW23473   5.331   6.374   4.882  0.4464 -0.5734  0.0429
 7525SOL    HW123474   5.341   6.472   4.901 -1.0707 -0.5794  1.0454
 7525SOL    HW223475   5.380   6.321   4.952 -1.1017 -0.5321  1.2122
 7526SOL     OW23476   1.527   2.539   1.971 -0.3916  0.0184  0.2607
 7526SOL    HW123477   1.442   2.554   2.021 -0.1643 -0.6849  0.8672
 7526SOL    HW223478   1.575   2.626   1.961 -2.0197  0.7790 -1.6785
 7527SOL     OW23479   4.472   5.131   3.453  0.0340  0.0075  0.0689
 7527SOL    HW123480   4.448   5.035   3.466  0.7237 -0.5278 -2.2451
 7527SOL    HW223481   4.525   5.163   3.531  2.5963 -2.4487 -0.5098
 7528SOL     OW23482   5.353   3.480   5.990 -1.2334 -0.0762  0.2642
 7528SOL    HW123483   5.349   3.577   5.966 -1.9795  0.1822  1.3892
 7528SOL    HW223484   5.402   3.470   6.077 -1.4713 -0.6712  0.3299
 7529SOL     OW23485   0.012   3.486   4.392 -0.0460 -0.0355  0.3740
 7529SOL    HW123486   0.080   3.501   4.319  0.0831  2.8194  0.9901
 7529SOL    HW223487  -0.075   3.458   4.351  0.2797  0.6252 -0.8148
 7530SOL     OW23488   0.104   2.212   2.571 -0.1992  0.5731 -0.0681
 7530SOL    HW123489   0.157   2.294   2.594  0.1209  0.2495  0.3899
 7530SOL    HW223490   0.009   2.226   2.597 -0.1473  0.8012  0.0058
 7531SOL     OW23491   6.324   2.757   4.526 -0.0371 -0.5493  0.7768
 7531SOL    HW123492   6.315   2.848   4.486  0.1395 -1.5201 -1.6595
 7531SOL    HW223493   6.275   2.754   4.613  0.5090  2.0187  1.2459
 7532SOL     OW23494   5.004   6.488   5.805 -0.0306  0.1916 -0.4914
 7532SOL    HW123495   5.101   6.479   5.780  0.8374  2.5033  1.6770
 7532SOL    HW223496   4.986   6.436   5.889 -0.5165  0.3564 -0.4920
 7533SOL     OW23497   3.637   4.832   1.387 -0.1380  0.5624  0.1766
 7533SOL    HW123498   3.615   4.866   1.478 -0.8250 -0.9526  0.6101
 7533SOL    HW223499   3.703   4.758   1.393 -0.1155  0.5110 -0.5579
 7534SOL     OW23500   3.765   6.156   5.704  0.3940 -0.2376  0.0839
 7534SOL    HW123501   3.739   6.236   5.759  1.1999 -0.2743  0.5392
 7534SOL    HW223502   3.864   6.158   5.689  0.5709 -1.6665  0.9385
 7535SOL     OW23503   0.625   5.418   5.174  0.1208  0.0705 -0.6249
 7535SOL    HW123504   0.540   5.366   5.185  0.6227 -0.7291 -0.4736
 7535SOL    HW223505   0.607   5.498   5.117 -0.7927  0.0542 -0.3831
 7536SOL     OW23506   4.212   7.001   4.188  0.3270  0.3014  0.0315
 7536SOL    HW123507   4.119   6.974   4.164  1.4926 -2.2654 -2.0338
 7536SOL    HW223508   4.230   7.093   4.153 -0.7922  0.0119 -1.3770
 7537SOL     OW23509   1.861   6.816   2.451 -0.1228  0.1539 -0.7501
 7537SOL    HW123510   1.909   6.747   2.398 -1.3945 -0.3509 -1.2635
 7537SOL    HW223511   1.799   6.868   2.392 -1.5083 -0.3638  0.1915
 7538SOL     OW23512   6.988   5.241   0.194  0.4975 -0.0906  0.4495
 7538SOL    HW123513   6.919   5.301   0.236  1.0485  1.0543 -0.2398
 7538SOL    HW223514   6.944   5.158   0.160 -0.3585  0.1281  0.9948
 7539SOL     OW23515   6.074   0.066   3.454 -0.4716  0.0984 -0.1265
 7539SOL    HW123516   6.113   0.026   3.371  0.1067 -0.5583  0.4380
 7539SOL    HW223517   5.987   0.021   3.475 -1.3866  1.3149 -1.1903
 7540SOL     OW23518   6.810   5.603   2.682 -0.7839 -0.0867  0.1881
 7540SOL    HW123519   6.886   5.666   2.700 -0.6192 -0.1368 -0.3068
 7540SOL    HW223520   6.724   5.646   2.709 -0.6372  0.2090  0.1896
 7541SOL     OW23521   1.012   3.977   1.065 -0.4536  0.6543 -0.3514
 7541SOL    HW123522   1.077   4.032   1.118 -1.9370  0.2034  2.0962
 7541SOL    HW223523   0.921   3.984   1.106 -1.2653 -1.3851 -1.6502
 7542SOL     OW23524   6.825   6.647   3.473  0.3960 -0.4130 -0.1493
 7542SOL    HW123525   6.844   6.713   3.400 -1.0843  0.1202 -0.0698
 7542SOL    HW223526   6.757   6.582   3.442 -2.9137  1.8403  1.7876
 7543SOL     OW23527   3.190   1.005   6.635 -0.0999  0.0195  0.0257
 7543SOL    HW123528   3.199   0.974   6.541  1.1755  0.1925  0.0743
 7543SOL    HW223529   3.279   1.002   6.680 -0.7561 -0.4837  1.3667
 7544SOL     OW23530   6.164   1.767   2.847  0.4058 -0.6473 -0.5123
 7544SOL    HW123531   6.068   1.752   2.827 -0.3235  1.5151  1.0145
 7544SOL    HW223532   6.179   1.763   2.946  1.5318  0.7043 -0.5898
 7545SOL     OW23533   6.779   5.490   6.621  0.2292  1.0004 -0.4916
 7545SOL    HW123534   6.847   5.528   6.560 -1.0661 -1.2613 -3.6268
 7545SOL    HW223535   6.692   5.538   6.609 -0.2185  0.0879 -1.0097
 7546SOL     OW23536   0.745   2.624   1.081 -0.6480 -0.2650 -0.4516
 7546SOL    HW123537   0.723   2.682   1.160 -0.1188  0.8175 -1.0707
 7546SOL    HW223538   0.662   2.607   1.028 -0.5558  1.3464 -1.1724
 7547SOL     OW23539   3.203   1.099   3.067 -0.0441 -0.2109  0.5411
 7547SOL    HW123540   3.230   1.150   2.986 -0.9371  0.3408  0.5675
 7547SOL    HW223541   3.283   1.057   3.109  0.4252 -0.4779 -0.6041
 7548SOL     OW23542   2.807   2.043   4.500 -0.0663  0.1185  0.1770
 7548SOL    HW123543   2.896   2.089   4.503 -0.3990  0.7133  1.0306
 7548SOL    HW223544   2.813   1.955   4.547  0.4306 -0.5131 -1.0065
 7549SOL     OW23545   5.046   2.165   4.860 -0.3680  0.1409 -0.5913
 7549SOL    HW123546   5.064   2.187   4.764 -1.5924 -0.9164 -1.0965
 7549SOL    HW223547   4.972   2.098   4.866  0.5315 -0.7831  1.0468
 7550SOL     OW23548   0.683   4.857   5.658 -0.3208 -0.3095  0.9090
 7550SOL    HW123549   0.667   4.875   5.755  0.2865 -0.4496  1.0345
 7550SOL    HW223550   0.763   4.908   5.627  0.5548 -1.6318  0.9173
 7551SOL     OW23551   4.578   3.372   5.336 -0.0388 -0.2794 -0.2151
 7551SOL    HW123552   4.598   3.467   5.309  0.5618 -0.0463  0.9918
 7551SOL    HW223553   4.654   3.313   5.309 -1.1515 -0.7723 -2.5433
 7552SOL     OW23554   2.775   0.382   5.537  0.1009 -0.2000  0.4291
 7552SOL    HW123555   2.821   0.470   5.527 -1.0185  0.4000  0.3136
 7552SOL    HW223556   2.822   0.326   5.605  0.2085  0.9239  1.3080
 7553SOL     OW23557   6.039   6.779   4.739 -1.1673  0.2941  0.3978
 7553SOL    HW123558   6.037   6.683   4.713 -1.4147  0.2277  0.6684
 7553SOL    HW223559   6.051   6.835   4.657  2.1170 -0.0951  0.4545
 7554SOL     OW23560   4.113   0.128   6.714  0.0665 -0.0392 -0.1334
 7554SOL    HW123561   4.110   0.096   6.619 -0.2010 -2.2452  0.5747
 7554SOL    HW223562   4.063   0.214   6.721 -1.0407 -0.4984 -1.7583
 7555SOL     OW23563   2.498   5.259   5.253  0.2485 -0.0056  0.1226
 7555SOL    HW123564   2.452   5.199   5.187  1.3930  0.8169 -1.4837
 7555SOL    HW223565   2.493   5.218   5.344 -2.5081 -0.5731 -0.1831
 7556SOL     OW23566   6.518   4.745   0.999  0.1683 -0.0867 -0.1662
 7556SOL    HW123567   6.487   4.832   0.961  1.6077  0.2161 -0.7160
 7556SOL    HW223568   6.603   4.759   1.049  0.8313 -1.2866 -0.9024
 7557SOL     OW23569   5.569   0.680   1.220 -0.2699 -0.3567 -0.0313
 7557SOL    HW123570   5.622   0.660   1.138  1.8412 -0.5220  1.3068
 7557SOL    HW223571   5.526   0.596   1.253  0.4954 -0.7037  0.1026
 7558SOL     OW23572   1.176   3.588   5.177 -0.3051 -0.0904  0.2334
 7558SOL    HW123573   1.077   3.598   5.175 -0.1407  1.8640  0.3892
 7558SOL    HW223574   1.203   3.542   5.262 -1.0363 -0.2557  0.3822
 7559SOL     OW23575   2.371   1.423   4.632 -0.1966  0.1496 -0.0519
 7559SOL    HW123576   2.395   1.494   4.565 -2.8735  2.2254  0.9796
 7559SOL    HW223577   2.417   1.443   4.719  0.8523 -0.7639 -0.3777
 7560SOL     OW23578   5.204   1.806   5.933  0.0566 -0.0036  0.4771
 7560SOL    HW123579   5.213   1.899   5.899 -0.9612 -0.1961 -0.3777
 7560SOL    HW223580   5.118   1.767   5.901  0.6453 -1.3777  0.4919
 7561SOL     OW23581   5.400   1.785   5.116 -0.0892 -0.0934  0.6347
 7561SOL    HW123582   5.391   1.802   5.018  0.1842  1.1716  0.8152
 7561SOL    HW223583   5.309   1.768   5.155 -0.3962  1.0396  0.4367
 7562SOL     OW23584   3.279   6.498   4.635 -0.4389 -0.0378  0.0212
 7562SOL    HW123585   3.206   6.564   4.616 -0.0663  0.2886 -0.3068
 7562SOL    HW223586   3.274   6.423   4.568  0.0131  0.3967 -0.5127
 7563SOL     OW23587   2.470   5.495   4.310  0.1447  0.3683  0.2326
 7563SOL    HW123588   2.472   5.423   4.241  1.1684 -0.0140  0.6328
 7563SOL    HW223589   2.381   5.496   4.356 -0.0657 -0.2747 -0.1599
 7564SOL     OW23590   3.189   2.190   3.783  0.1594 -0.0876  0.2095
 7564SOL    HW123591   3.142   2.223   3.865 -1.1100 -3.7685  1.1451
 7564SOL    HW223592   3.283   2.167   3.804  1.0311  2.5218 -0.4318
 7565SOL     OW23593   5.263   5.826   5.047 -0.1530  0.2848 -0.0193
 7565SOL    HW123594   5.164   5.830   5.030  0.1135 -1.5742 -2.4765
 7565SOL    HW223595   5.312   5.834   4.961  1.7518 -1.1270  0.8725
 7566SOL     OW23596   4.154   4.317   1.195 -0.8909 -0.0889 -0.2206
 7566SOL    HW123597   4.230   4.377   1.168 -1.0970 -0.4603 -1.7033
 7566SOL    HW223598   4.189   4.245   1.255 -0.3662  0.6536  0.3803
 7567SOL     OW23599   0.515   0.893   6.444 -0.2112 -0.1203  0.1232
 7567SOL    HW123600   0.491   0.979   6.489  0.2391  0.3438 -0.5016
 7567SOL    HW223601   0.613   0.876   6.457 -0.4810 -1.0652  1.1025
 7568SOL     OW23602   0.647   6.762   3.184  0.3092 -0.6679  0.0612
 7568SOL    HW123603   0.724   6.801   3.235 -0.3565  1.6480 -0.5767
 7568SOL    HW223604   0.675   6.746   3.089  0.6482 -2.0946  0.3700
 7569SOL     OW23605   4.356   3.681   0.520 -0.0875 -0.3580 -0.1759
 7569SOL    HW123606   4.362   3.754   0.453  0.3403 -0.0261  0.2214
 7569SOL    HW223607   4.272   3.692   0.573 -0.7818 -1.0145 -1.0978
 7570SOL     OW23608   0.839   1.990   3.089  0.2661 -0.4840 -0.3316
 7570SOL    HW123609   0.846   1.980   2.990  0.5183  1.5989 -0.5621
 7570SOL    HW223610   0.779   1.919   3.126  1.0809 -1.9888 -1.8102
 7571SOL     OW23611   5.322   2.883   3.164 -0.3374 -0.3666  0.0561
 7571SOL    HW123612   5.290   2.841   3.249  0.3419 -0.1773  0.4118
 7571SOL    HW223613   5.260   2.858   3.089 -1.3879  0.1194  0.7491
 7572SOL     OW23614   2.732   6.163   1.793 -0.0362  0.0657  0.5002
 7572SOL    HW123615   2.659   6.122   1.848  0.0556  0.4456  0.9088
 7572SOL    HW223616   2.820   6.130   1.824 -0.0371 -0.5390 -0.1178
 7573SOL     OW23617   4.307   5.271   6.844  0.2201  0.1454  0.2145
 7573SOL    HW123618   4.341   5.237   6.757  3.5879 -0.8069  1.7627
 7573SOL    HW223619   4.231   5.213   6.875  0.7480 -1.1570 -0.8299
 7574SOL     OW23620   2.002   1.114   3.367 -0.0349  0.3989 -0.3544
 7574SOL    HW123621   2.007   1.029   3.420 -0.6980  0.3429 -0.3727
 7574SOL    HW223622   2.080   1.119   3.304 -2.0772 -2.2195 -3.3767
 7575SOL     OW23623   1.060   6.950   0.473  0.2746 -0.3550 -0.3788
 7575SOL    HW123624   0.999   7.029   0.475  1.9679  0.9900 -0.1943
 7575SOL    HW223625   1.054   6.907   0.382 -1.4930 -0.7505 -0.1243
 7576SOL     OW23626   5.966   3.475   5.687 -0.1625  0.1556  0.0165
 7576SOL    HW123627   6.043   3.432   5.733  0.8177 -0.8399 -2.3784
 7576SOL    HW223628   5.881   3.430   5.715  0.3030  0.0291  1.2944
 7577SOL     OW23629   1.374   5.505   2.382  0.2733 -0.6097  0.4707
 7577SOL    HW123630   1.279   5.495   2.353  0.4585 -2.1416  0.2936
 7577SOL    HW223631   1.394   5.440   2.455  1.4753 -1.1441 -0.2877
 7578SOL     OW23632   6.490   6.635   3.506 -0.9291  0.1734 -0.3930
 7578SOL    HW123633   6.427   6.652   3.430 -0.6943  1.6780 -0.2904
 7578SOL    HW223634   6.552   6.713   3.516 -0.5452 -0.2728  0.9475
 7579SOL     OW23635   1.457   3.203   1.951  0.0298 -0.3898 -0.0586
 7579SOL    HW123636   1.369   3.165   1.979 -0.1230  0.3547  0.4993
 7579SOL    HW223637   1.524   3.189   2.024  0.5346 -1.4420 -0.6974
 7580SOL     OW23638   2.121   5.331   3.665  0.3389  0.0100 -0.1595
 7580SOL    HW123639   2.111   5.431   3.671  0.3740  0.0575 -0.8004
 7580SOL    HW223640   2.218   5.307   3.668  0.4023  0.0867 -1.0694
 7581SOL     OW23641   0.376   0.349   1.776 -0.1799  0.1548  0.0344
 7581SOL    HW123642   0.283   0.345   1.812  0.5069 -0.3755  1.8980
 7581SOL    HW223643   0.394   0.269   1.720 -0.3145 -0.6551  1.1140
 7582SOL     OW23644   2.738   0.532   6.410  0.9048  0.4952  0.0378
 7582SOL    HW123645   2.797   0.591   6.354  1.9244 -2.5974 -2.4490
 7582SOL    HW223646   2.643   0.563   6.402  1.3740  1.7385 -1.2776
 7583SOL     OW23647   0.355   2.131   3.822 -0.2879  0.0338 -0.1219
 7583SOL    HW123648   0.385   2.159   3.730 -2.5934 -2.4615 -1.7871
 7583SOL    HW223649   0.279   2.189   3.852 -0.9481 -0.4828 -0.7734
 7584SOL     OW23650   6.927   1.144   3.140 -0.2723  0.2135  0.1944
 7584SOL    HW123651   6.851   1.164   3.079 -0.5122 -0.4445  0.2700
 7584SOL    HW223652   6.971   1.229   3.168 -1.3577  0.6378  0.6397
 7585SOL     OW23653   1.212   1.554   0.635  0.4640  0.5318  0.2611
 7585SOL    HW123654   1.191   1.548   0.733 -1.1310 -0.8719 -0.1222
 7585SOL    HW223655   1.213   1.462   0.596  1.2140  1.0717 -1.0452
 7586SOL     OW23656   6.311   1.485   0.530  0.0539  0.4263  0.4703
 7586SOL    HW123657   6.254   1.552   0.483 -0.6755 -0.2457  0.3664
 7586SOL    HW223658   6.402   1.485   0.490  0.2960  1.8647  0.9675
 7587SOL     OW23659   4.457   0.832   0.750 -0.2593 -0.4030  0.1705
 7587SOL    HW123660   4.481   0.790   0.838 -1.9203 -1.0822  0.3346
 7587SOL    HW223661   4.526   0.806   0.682  2.3621  1.9894  1.6752
 7588SOL     OW23662   2.267   2.672   5.770  0.9300  0.2485 -0.3388
 7588SOL    HW123663   2.332   2.684   5.845  1.2383  1.2773 -0.7428
 7588SOL    HW223664   2.189   2.732   5.783  0.5790 -0.1836 -0.4187
 7589SOL     OW23665   1.711   5.327   3.781  0.3411 -0.5761  0.5710
 7589SOL    HW123666   1.725   5.404   3.719 -0.0421 -1.1903 -0.2901
 7589SOL    HW223667   1.795   5.313   3.835  0.4105  0.4345  0.7416
 7590SOL     OW23668   6.418   0.658   5.774  0.2715 -0.3708  0.5596
 7590SOL    HW123669   6.352   0.721   5.815 -0.1624  1.1112 -2.1694
 7590SOL    HW223670   6.508   0.674   5.813 -0.1486  0.7895  1.0974
 7591SOL     OW23671   3.273   4.128   3.560 -0.3083 -0.4019 -0.2563
 7591SOL    HW123672   3.288   4.043   3.610  1.6553  0.0886  0.0409
 7591SOL    HW223673   3.301   4.206   3.616  0.7426  0.2375 -1.6278
 7592SOL     OW23674   6.603   0.894   4.471  0.0683 -0.2697 -0.0776
 7592SOL    HW123675   6.657   0.847   4.401 -0.4783  1.3408 -1.6754
 7592SOL    HW223676   6.615   0.993   4.461 -2.0492  0.0912  0.4286
 7593SOL     OW23677   1.689   0.502   6.531 -0.5578 -0.1783  0.1415
 7593SOL    HW123678   1.743   0.490   6.448  1.9513  1.5462  1.3970
 7593SOL    HW223679   1.608   0.557   6.510  1.2549  2.2931 -0.8601
 7594SOL     OW23680   6.854   5.780   6.926 -0.0389 -0.3286  0.0980
 7594SOL    HW123681   6.948   5.757   6.904 -0.3558 -0.5997 -1.0455
 7594SOL    HW223682   6.814   5.708   6.982  0.1421 -0.6843 -0.2278
 7595SOL     OW23683   6.306   2.759   6.973 -0.2298  0.4139 -0.2338
 7595SOL    HW123684   6.338   2.774   7.067 -1.5606  0.9669  0.1562
 7595SOL    HW223685   6.315   2.843   6.920  2.8378 -0.5177 -1.3857
 7596SOL     OW23686   3.167   0.785   4.191 -0.2858  0.0211  0.2620
 7596SOL    HW123687   3.082   0.813   4.146 -1.2260  1.1569  2.5963
 7596SOL    HW223688   3.236   0.856   4.181  0.1811 -0.5662 -0.9596
 7597SOL     OW23689   0.982   3.895   3.487  0.0128  0.4709  0.0564
 7597SOL    HW123690   0.938   3.932   3.569 -0.6211  0.3898 -0.2450
 7597SOL    HW223691   0.917   3.838   3.437  0.4631  0.3454 -0.3886
 7598SOL     OW23692   1.592   1.049   4.033  0.4581 -0.4003 -0.2747
 7598SOL    HW123693   1.677   1.001   4.012  1.7797  1.3068  0.9176
 7598SOL    HW223694   1.580   1.126   3.970  0.1627 -0.2023  0.0173
 7599SOL     OW23695   3.906   0.622   6.342  0.4854 -0.0924 -0.4925
 7599SOL    HW123696   3.827   0.680   6.322 -0.1747 -1.0218 -0.6532
 7599SOL    HW223697   3.966   0.619   6.262  1.3327  1.5909  0.0435
 7600SOL     OW23698   6.880   0.321   4.943 -0.2023  0.3603  0.6179
 7600SOL    HW123699   6.851   0.415   4.960 -2.1288 -0.0014 -0.3820
 7600SOL    HW223700   6.924   0.284   5.025 -0.8617  1.6199  1.5774
 7601SOL     OW23701   4.329   0.931   1.577 -0.2345  0.0863  0.4561
 7601SOL    HW123702   4.307   0.901   1.670  0.3253 -1.2656  0.1867
 7601SOL    HW223703   4.422   0.902   1.555 -0.9593 -1.1650 -1.1207
 7602SOL     OW23704   6.751   1.749   0.569  0.3602  0.3494  1.1717
 7602SOL    HW123705   6.810   1.753   0.488 -2.5234 -1.0500 -1.1828
 7602SOL    HW223706   6.760   1.658   0.611 -2.2292 -1.0884 -1.0913
 7603SOL     OW23707   3.938   6.423   6.730 -0.4780 -0.4993  0.0068
 7603SOL    HW123708   3.981   6.431   6.640  0.3476  0.2280  0.4538
 7603SOL    HW223709   3.861   6.488   6.736  0.5486  0.7125  0.4217
 7604SOL     OW23710   1.868   1.714   3.531  0.4535  0.7377  0.4014
 7604SOL    HW123711   1.877   1.807   3.496  0.6417 -0.3600 -2.6986
 7604SOL    HW223712   1.951   1.662   3.510 -0.4426 -0.6912  0.2892
 7605SOL     OW23713   3.331   1.848   1.903  0.3707 -0.1872  0.2138
 7605SOL    HW123714   3.431   1.849   1.903  0.3748  0.4360 -0.9429
 7605SOL    HW223715   3.297   1.802   1.821 -0.2993 -0.2274  0.5009
 7606SOL     OW23716   0.104   1.536   1.753  0.3933 -0.1992  0.1374
 7606SOL    HW123717   0.077   1.495   1.839  1.5033 -1.5365 -0.1146
 7606SOL    HW223718   0.063   1.485   1.677  1.0595 -0.3026 -0.1621
 7607SOL     OW23719   2.710   0.056   5.352 -0.1984  0.2866  0.0656
 7607SOL    HW123720   2.688  -0.040   5.339 -0.9275  0.3386  0.8415
 7607SOL    HW223721   2.674   0.087   5.440 -2.4770  1.9790 -1.3383
 7608SOL     OW23722   5.994   2.122   5.440 -0.2770  0.2099 -0.7412
 7608SOL    HW123723   5.989   2.173   5.526  1.0730  0.3896 -0.7454
 7608SOL    HW223724   6.061   2.049   5.449 -3.7264 -3.1586  0.0330
 7609SOL     OW23725   0.489   2.331   5.843 -0.6001  0.2631  0.5995
 7609SOL    HW123726   0.467   2.250   5.789  0.0071  0.9880 -0.7998
 7609SOL    HW223727   0.412   2.394   5.842 -0.2480  0.6873 -0.2263
 7610SOL     OW23728   3.703   3.907   5.438  0.5134  0.2149  0.1964
 7610SOL    HW123729   3.689   3.918   5.536  1.0348 -0.3256  0.3379
 7610SOL    HW223730   3.616   3.886   5.394  0.1067  1.4157  0.4013
 7611SOL     OW23731   4.539   3.686   6.500  0.1990  0.1628  0.1818
 7611SOL    HW123732   4.625   3.635   6.502  0.3139  0.3144 -0.5994
 7611SOL    HW223733   4.494   3.672   6.412 -0.9867 -0.5787  0.8847
 7612SOL     OW23734   5.455   1.470   2.706  0.3332 -0.1259  0.2205
 7612SOL    HW123735   5.449   1.371   2.690 -0.8441 -0.1120  0.5127
 7612SOL    HW223736   5.395   1.518   2.642 -0.1363  0.3009  0.9643
 7613SOL     OW23737   1.366   2.109   3.011  0.5820 -0.5278  0.2037
 7613SOL    HW123738   1.321   2.037   3.065  1.4773 -2.0917 -1.0540
 7613SOL    HW223739   1.305   2.189   3.005 -0.8598 -1.5257  0.8226
 7614SOL     OW23740   3.618   3.750   0.265 -0.5146 -0.5101  0.4555
 7614SOL    HW123741   3.692   3.734   0.199  1.2345 -2.7616  2.7642
 7614SOL    HW223742   3.536   3.703   0.234  0.0164 -0.8632 -0.4775
 7615SOL     OW23743   5.722   2.064   5.494  0.4491  0.2096  0.5189
 7615SOL    HW123744   5.710   1.966   5.478  1.8787  0.1159 -0.1456
 7615SOL    HW223745   5.815   2.091   5.468 -0.1249  1.8703  0.0760
 7616SOL     OW23746   0.594   6.477   3.364 -0.5350  0.0048 -0.2300
 7616SOL    HW123747   0.602   6.540   3.288 -2.0067  1.7209  0.9573
 7616SOL    HW223748   0.685   6.449   3.395  0.1085  0.8679 -1.3209
 7617SOL     OW23749   0.487   5.514   3.947  0.1264  0.3954  0.1905
 7617SOL    HW123750   0.550   5.578   3.990 -0.3335  1.0946 -0.1433
 7617SOL    HW223751   0.492   5.524   3.848  1.3794 -1.3903  0.0312
 7618SOL     OW23752   0.738   1.650   1.518 -0.2234 -0.4594  0.4355
 7618SOL    HW123753   0.805   1.584   1.550 -0.1970 -0.8019 -0.3062
 7618SOL    HW223754   0.670   1.666   1.590 -0.0179 -1.0075  0.7556
 7619SOL     OW23755   2.725   1.483   4.371 -0.0707 -0.1607 -0.0670
 7619SOL    HW123756   2.753   1.392   4.342 -0.7638 -0.7113  0.9416
 7619SOL    HW223757   2.745   1.549   4.298 -0.5354 -1.2744 -1.2327
 7620SOL     OW23758   2.613   3.848   0.042 -0.2428  0.4906  0.2241
 7620SOL    HW123759   2.517   3.878   0.046 -0.0521  1.1039  0.4723
 7620SOL    HW223760   2.618   3.749   0.051 -0.7963  0.5416  1.2460
 7621SOL     OW23761   5.879   4.830   0.309  0.3798  0.1281  0.2041
 7621SOL    HW123762   5.797   4.833   0.366  0.0354  0.6079 -0.3018
 7621SOL    HW223763   5.875   4.904   0.242  1.8201  0.9676  0.9904
 7622SOL     OW23764   4.563   3.436   1.289  0.1578  0.1418 -0.1278
 7622SOL    HW123765   4.535   3.496   1.365  1.9733  0.7379  0.1119
 7622SOL    HW223766   4.534   3.476   1.203  0.2931  0.7550  0.1061
 7623SOL     OW23767   4.030   3.636   1.334  0.1666  0.0291 -0.2767
 7623SOL    HW123768   3.971   3.558   1.316 -0.3391 -0.1850  1.9443
 7623SOL    HW223769   4.126   3.608   1.327  0.0628  0.1823 -3.1226
 7624SOL     OW23770   0.801   1.798   2.125 -0.6454  0.4176  0.2179
 7624SOL    HW123771   0.833   1.874   2.182 -0.8154  0.7091 -0.0760
 7624SOL    HW223772   0.717   1.824   2.077 -0.8239 -0.0275  0.2758
 7625SOL     OW23773   3.389   2.391   0.468 -0.7061 -0.2829 -0.1692
 7625SOL    HW123774   3.374   2.406   0.370 -0.5018  0.8054 -0.0455
 7625SOL    HW223775   3.483   2.415   0.491 -1.0505  0.4806  0.4821
 7626SOL     OW23776   2.533   1.125   5.179 -0.1620 -0.0502  0.3659
 7626SOL    HW123777   2.577   1.036   5.192  1.9194  1.2493  3.1668
 7626SOL    HW223778   2.515   1.167   5.268 -3.0655  1.5072 -0.7996
 7627SOL     OW23779   4.301   0.865   5.418  0.1334 -0.2817  0.2113
 7627SOL    HW123780   4.222   0.849   5.359  0.4488 -0.2930 -0.2173
 7627SOL    HW223781   4.347   0.949   5.390 -1.7719  1.7601  2.7241
 7628SOL     OW23782   3.177   2.593   0.231 -0.5464 -0.2554  0.3640
 7628SOL    HW123783   3.188   2.498   0.260  0.2717 -0.5990 -0.9966
 7628SOL    HW223784   3.121   2.642   0.298  0.7736 -1.1478  2.1783
 7629SOL     OW23785   6.450   3.180   2.536 -0.6797  0.1244 -0.2881
 7629SOL    HW123786   6.457   3.104   2.601 -3.0869 -0.0909 -0.2192
 7629SOL    HW223787   6.404   3.257   2.580 -1.1052  0.4766 -1.3226
 7630SOL     OW23788   0.047   5.562   3.793  0.0557 -0.7901 -0.3072
 7630SOL    HW123789   0.039   5.651   3.837  1.6385 -1.8715  2.4544
 7630SOL    HW223790   0.067   5.573   3.696  0.2306  1.8340 -0.0303
 7631SOL     OW23791   6.812   6.893   5.268 -0.5314  0.0399 -0.0797
 7631SOL    HW123792   6.798   6.923   5.363 -1.5796 -0.7969  0.0457
 7631SOL    HW223793   6.832   6.795   5.267  3.3296  0.6791 -0.4394
 7632SOL     OW23794   5.371   0.296   6.786 -0.4168 -0.0497 -0.0417
 7632SOL    HW123795   5.290   0.353   6.768  0.4708  0.8490 -1.3954
 7632SOL    HW223796   5.414   0.272   6.699  0.9189 -0.2856  0.6647
 7633SOL     OW23797   6.272   0.911   0.875  0.7515 -0.2680 -0.2742
 7633SOL    HW123798   6.303   0.967   0.952  0.5909 -2.5242  1.5271
 7633SOL    HW223799   6.334   0.834   0.863 -0.3478 -1.0475 -1.1161
 7634SOL     OW23800   6.448   3.554   5.422 -0.0265  0.0402  0.7192
 7634SOL    HW123801   6.414   3.609   5.346  0.6318 -0.3421  0.1347
 7634SOL    HW223802   6.409   3.463   5.418 -0.5691  0.2435  1.2777
 7635SOL     OW23803   2.350   3.626   6.744 -0.0294  0.2313  0.0296
 7635SOL    HW123804   2.401   3.554   6.791  1.4563  0.6353 -0.8943
 7635SOL    HW223805   2.296   3.678   6.810 -0.7030 -1.3785  0.7784
 7636SOL     OW23806   0.070   5.317   4.826  1.0505  0.4489  0.2947
 7636SOL    HW123807   0.090   5.270   4.912  2.8812  0.4582 -0.0850
 7636SOL    HW223808   0.063   5.415   4.842  0.2886  0.3604  0.5833
 7637SOL     OW23809   0.742   5.882   3.324  0.0540 -0.1368 -0.0339
 7637SOL    HW123810   0.670   5.949   3.311  0.3847 -0.0411 -1.4841
 7637SOL    HW223811   0.831   5.928   3.324  0.1941 -0.3797  0.7412
 7638SOL     OW23812   6.867   5.883   1.269  0.2120  0.3619  0.7990
 7638SOL    HW123813   6.770   5.904   1.263 -0.7204 -3.5517 -0.5115
 7638SOL    HW223814   6.911   5.901   1.181  0.8473  2.4568  1.4876
 7639SOL     OW23815   6.644   2.387   6.939  0.1581 -0.5132  0.2395
 7639SOL    HW123816   6.727   2.358   6.890  0.8649 -0.4466  1.3741
 7639SOL    HW223817   6.591   2.307   6.965 -0.4577 -0.5321 -1.0130
 7640SOL     OW23818   5.082   1.285   0.130 -0.0766  0.1871 -0.3305
 7640SOL    HW123819   5.121   1.352   0.068 -0.5928  0.0826 -0.7779
 7640SOL    HW223820   5.005   1.326   0.179 -0.8332 -0.2630 -1.1062
 7641SOL     OW23821   0.894   2.524   3.012 -0.2043 -0.4683 -0.2355
 7641SOL    HW123822   0.971   2.470   3.044  1.0068  1.4293  0.2222
 7641SOL    HW223823   0.820   2.521   3.080  0.6092 -0.0068  0.6905
 7642SOL     OW23824   5.327   1.304   2.054 -0.4302  0.5446 -0.5847
 7642SOL    HW123825   5.426   1.307   2.037  0.0920  1.3316  2.1472
 7642SOL    HW223826   5.286   1.391   2.026 -0.3425  0.2628 -1.6137
 7643SOL     OW23827   5.159   4.140   2.637 -0.1604 -0.1755 -0.0695
 7643SOL    HW123828   5.074   4.188   2.618 -0.2701  0.5736  2.0279
 7643SOL    HW223829   5.233   4.181   2.583 -0.5184  1.4903  0.6490
 7644SOL     OW23830   5.451   2.818   6.802 -0.2387  0.1454  0.2167
 7644SOL    HW123831   5.427   2.877   6.880 -0.9951  0.0830  0.0451
 7644SOL    HW223832   5.497   2.872   6.732  0.0679  0.2918  0.5274
 7645SOL     OW23833   2.397   5.625   5.332  0.1506 -0.1974  0.7143
 7645SOL    HW123834   2.335   5.586   5.400 -0.8542  1.0597  0.5639
 7645SOL    HW223835   2.359   5.613   5.241 -0.3254  1.3147  0.6824
 7646SOL     OW23836   5.174   3.337   1.061 -0.0354 -0.3235  0.5396
 7646SOL    HW123837   5.147   3.241   1.066  1.1968 -0.7039  0.1585
 7646SOL    HW223838   5.151   3.373   0.970 -0.3755 -0.2980  0.6365
 7647SOL     OW23839   5.627   2.329   3.019 -0.2994 -0.7292  0.1785
 7647SOL    HW123840   5.605   2.233   3.000 -0.4996 -0.2987 -2.1034
 7647SOL    HW223841   5.564   2.388   2.969  0.7555  0.5888  0.3344
 7648SOL     OW23842   3.066   0.833   3.059  0.1808  0.3779 -0.5294
 7648SOL    HW123843   3.068   0.854   3.157  0.1188  1.1169 -0.6811
 7648SOL    HW223844   3.008   0.899   3.012 -0.7131 -0.6420 -0.9190
 7649SOL     OW23845   3.660   0.268   5.028  0.0154  0.3931 -0.0275
 7649SOL    HW123846   3.643   0.203   4.955  0.0531  0.5587 -0.1853
 7649SOL    HW223847   3.610   0.353   5.010 -1.8128 -0.3526  1.2894
 7650SOL     OW23848   2.786   3.056   1.533 -0.6186 -0.7472 -0.0996
 7650SOL    HW123849   2.880   3.075   1.563 -1.3031  1.5555  0.7575
 7650SOL    HW223850   2.788   2.983   1.464  1.6828 -1.4126  0.5651
 7651SOL     OW23851   2.710   5.231   6.009  0.1121 -0.2820 -0.0093
 7651SOL    HW123852   2.772   5.267   6.079  0.8517  2.3001 -1.8587
 7651SOL    HW223853   2.756   5.158   5.959  0.0423 -1.2666  1.2885
 7652SOL     OW23854   2.118   1.450   3.607  0.1274  0.3370  0.0313
 7652SOL    HW123855   2.077   1.361   3.628 -0.5368  0.1011 -2.0429
 7652SOL    HW223856   2.093   1.477   3.514  2.3077  1.5801 -0.2534
 7653SOL     OW23857   1.650   0.431   0.531  0.2181  0.1212 -0.2449
 7653SOL    HW123858   1.642   0.517   0.581 -0.6608 -1.4182  2.4573
 7653SOL    HW223859   1.559   0.398   0.506  0.3361 -1.1027  0.8123
 7654SOL     OW23860   5.379   1.739   6.141  0.0396  0.1201  0.0681
 7654SOL    HW123861   5.322   1.779   6.069  0.5731 -0.8498 -0.9078
 7654SOL    HW223862   5.354   1.644   6.155  0.7803 -0.0452  0.3036
 7655SOL     OW23863   2.925   2.295   4.620 -0.0976 -0.1619 -0.1077
 7655SOL    HW123864   2.981   2.357   4.674 -1.3364 -1.0036  2.2974
 7655SOL    HW223865   2.845   2.344   4.585  0.1205  0.1250 -0.2074
 7656SOL     OW23866   5.503   2.028   5.992  0.3877 -0.2422 -0.0467
 7656SOL    HW123867   5.545   1.938   6.008 -1.0588 -1.0546 -0.6126
 7656SOL    HW223868   5.454   2.027   5.905 -2.0756  0.1286  1.2439
 7657SOL     OW23869   0.467   4.808   3.624  0.1376  0.2727  0.1706
 7657SOL    HW123870   0.376   4.767   3.616  0.8175 -1.3432  0.1707
 7657SOL    HW223871   0.492   4.814   3.721 -0.6346  2.3359  0.2730
 7658SOL     OW23872   2.739   1.977   2.173  0.0275 -0.4583 -0.0254
 7658SOL    HW123873   2.653   2.028   2.164  1.1592  1.5484  0.1521
 7658SOL    HW223874   2.786   1.977   2.085  1.3517  1.3059  0.6256
 7659SOL     OW23875   4.838   3.674   5.419  0.0484 -0.0511  0.3300
 7659SOL    HW123876   4.840   3.585   5.465  1.5534 -0.3981 -0.3375
 7659SOL    HW223877   4.792   3.664   5.331 -2.3880  0.5070  1.4543
 7660SOL     OW23878   5.971   5.607   3.103 -0.5077  0.1741 -0.1467
 7660SOL    HW123879   5.873   5.592   3.095 -0.2407 -1.4735 -0.5793
 7660SOL    HW223880   6.010   5.626   3.013 -0.5899  2.1106  0.1830
 7661SOL     OW23881   4.834   1.846   4.205  0.2954 -0.3660 -0.1266
 7661SOL    HW123882   4.852   1.788   4.285 -1.3113 -2.2068 -0.9969
 7661SOL    HW223883   4.819   1.787   4.125  1.4121  1.4054 -1.6978
 7662SOL     OW23884   6.841   6.885   0.243 -0.3128  0.1474 -0.6208
 7662SOL    HW123885   6.766   6.830   0.205 -0.8936 -0.3016  1.0832
 7662SOL    HW223886   6.832   6.889   0.342  0.9772  1.5269 -0.5278
 7663SOL     OW23887   0.419   6.351   5.977 -0.1925  0.6391 -0.4222
 7663SOL    HW123888   0.471   6.358   6.062  0.6029 -1.4664 -0.6889
 7663SOL    HW223889   0.469   6.396   5.904  1.1165 -0.9826 -0.5792
 7664SOL     OW23890   5.873   2.180   2.452  0.8416  0.2773  0.2441
 7664SOL    HW123891   5.790   2.183   2.507 -0.4741  1.3852 -1.6737
 7664SOL    HW223892   5.860   2.116   2.376  1.7865  0.3793 -0.0115
 7665SOL     OW23893   4.865   0.086   6.133 -0.0505 -0.2700  0.0587
 7665SOL    HW123894   4.957   0.125   6.142  0.8454 -2.3311  0.2973
 7665SOL    HW223895   4.809   0.146   6.075  1.5518  0.8223 -0.4271
 7666SOL     OW23896   3.714   5.039   4.476 -0.0647 -0.0513 -0.5971
 7666SOL    HW123897   3.744   4.966   4.416  1.5764  0.6683 -0.7228
 7666SOL    HW223898   3.620   5.023   4.506  0.0698 -1.8696 -1.0905
 7667SOL     OW23899   4.061   6.135   1.852 -0.1253 -0.0619 -0.4732
 7667SOL    HW123900   4.142   6.138   1.911  2.0481 -0.9275 -3.2337
 7667SOL    HW223901   4.001   6.060   1.881  0.6516 -0.1962  0.8570
 7668SOL     OW23902   2.989   6.256   6.967  0.3466  0.0188  0.3304
 7668SOL    HW123903   2.937   6.327   6.920 -1.9203 -1.1108  1.0154
 7668SOL    HW223904   3.042   6.296   7.041  0.2208  1.1626 -0.1786
 7669SOL     OW23905   2.963   0.483   4.208 -0.1604 -0.4372  0.1603
 7669SOL    HW123906   2.949   0.442   4.298  1.7293 -0.2025  0.6062
 7669SOL    HW223907   3.052   0.528   4.206 -0.3983  0.0214 -1.6751
 7670SOL     OW23908   3.036   5.725   0.246  0.2435  0.0469 -0.7873
 7670SOL    HW123909   2.947   5.746   0.286  0.5383 -0.1082 -0.0158
 7670SOL    HW223910   3.027   5.655   0.176  0.0839 -2.1444  1.2784
 7671SOL     OW23911   3.145   6.567   2.196 -0.0547  0.1915  0.5683
 7671SOL    HW123912   3.238   6.539   2.221 -0.3861  0.1214  1.7814
 7671SOL    HW223913   3.098   6.492   2.150 -0.0464 -0.3507  1.4182
 7672SOL     OW23914   5.615   5.133   1.854 -0.2248  0.7791  0.0496
 7672SOL    HW123915   5.544   5.157   1.920 -1.5251 -1.8049 -0.3017
 7672SOL    HW223916   5.659   5.048   1.882  1.3548  1.2541 -0.8403
 7673SOL     OW23917   2.615   6.343   4.719  0.1391 -0.4555 -0.1042
 7673SOL    HW123918   2.549   6.373   4.651  0.8530  0.0804 -0.5773
 7673SOL    HW223919   2.662   6.423   4.758  0.7178 -0.8330 -0.0045
 7674SOL     OW23920   6.157   0.592   3.367  0.2538  0.5408 -0.0760
 7674SOL    HW123921   6.060   0.604   3.388  0.1258  0.1578 -0.4617
 7674SOL    HW223922   6.190   0.506   3.407 -0.0204 -0.2578 -1.5160
 7675SOL     OW23923   4.929   6.225   2.329 -0.8260 -0.1026  0.8207
 7675SOL    HW123924   4.941   6.318   2.294  0.3750 -0.7458 -0.5978
 7675SOL    HW223925   4.843   6.188   2.292 -0.0849 -0.4011 -0.7025
 7676SOL     OW23926   2.019   2.766   6.406  0.2690  0.2453 -0.0493
 7676SOL    HW123927   2.032   2.746   6.504  1.1597  0.3312 -0.1457
 7676SOL    HW223928   2.011   2.680   6.356  0.4485  0.1912  0.0142
 7677SOL     OW23929   0.204   4.645   6.778  0.7199  0.3647 -0.3610
 7677SOL    HW123930   0.279   4.709   6.793  0.1559  0.6764  1.2329
 7677SOL    HW223931   0.131   4.691   6.728  1.3388  0.2016 -1.4707
 7678SOL     OW23932   1.905   0.324   4.811 -0.1833 -0.5847  0.1621
 7678SOL    HW123933   1.959   0.399   4.773  0.6955 -1.6943 -0.8287
 7678SOL    HW223934   1.962   0.242   4.820 -1.4048 -1.4684  0.1554
 7679SOL     OW23935   4.413   5.840   6.164 -0.2628 -0.1480 -0.0189
 7679SOL    HW123936   4.409   5.862   6.261  0.5762  0.9021 -0.1971
 7679SOL    HW223937   4.326   5.863   6.121 -0.9340 -1.4108  0.6199
 7680SOL     OW23938   2.522   6.988   5.738 -0.1653 -0.2161  0.1784
 7680SOL    HW123939   2.607   6.986   5.686 -0.6262  0.5369 -0.6184
 7680SOL    HW223940   2.445   7.003   5.676 -0.8826 -0.8175  0.8990
 7681SOL     OW23941   3.871   3.941   0.157 -0.1976  0.8220 -0.1663
 7681SOL    HW123942   3.797   3.984   0.208 -0.1102  0.7345  0.0359
 7681SOL    HW223943   3.914   4.008   0.096 -0.7061  0.7704 -0.5839
 7682SOL     OW23944   3.207   1.774   3.178 -0.0247 -0.0120 -0.0804
 7682SOL    HW123945   3.268   1.763   3.257 -0.2914  0.1068  0.1436
 7682SOL    HW223946   3.257   1.754   3.094  0.2327 -0.2464  0.1280
 7683SOL     OW23947   0.076   5.054   4.284 -0.1607 -0.4289 -0.1817
 7683SOL    HW123948   0.024   5.008   4.356 -0.6415  1.0480  0.4525
 7683SOL    HW223949   0.122   4.986   4.227 -1.9732 -1.7279 -0.1480
 7684SOL     OW23950   3.474   2.583   1.105  0.3924 -0.1670  0.5003
 7684SOL    HW123951   3.559   2.595   1.157  0.0886 -0.9759  1.1927
 7684SOL    HW223952   3.467   2.488   1.074 -0.4869 -0.2168  0.8454
 7685SOL     OW23953   1.411   0.721   1.746 -0.1968 -0.0366  0.4251
 7685SOL    HW123954   1.501   0.696   1.711 -1.2569 -0.1853 -2.4169
 7685SOL    HW223955   1.397   0.820   1.735 -1.3070 -0.3750 -1.6447
 7686SOL     OW23956   6.272   6.591   4.988  0.5781  0.3635 -1.3804
 7686SOL    HW123957   6.230   6.501   5.005  1.7848  0.2750  1.9445
 7686SOL    HW223958   6.204   6.653   4.949 -0.5032 -1.7301 -3.0261
 7687SOL     OW23959   4.845   4.948   4.056 -0.5601 -0.0342 -0.9052
 7687SOL    HW123960   4.790   4.952   3.973 -4.1884 -1.4579  1.1868
 7687SOL    HW223961   4.895   4.861   4.060 -0.9382 -0.2672 -1.2674
 7688SOL     OW23962   1.067   2.748   0.373 -1.0419 -0.1467 -0.6478
 7688SOL    HW123963   1.013   2.828   0.400 -0.3513  0.3037 -0.5504
 7688SOL    HW223964   1.057   2.732   0.275 -1.6035 -0.2652 -0.5717
 7689SOL     OW23965   5.081   0.206   2.284 -0.1130 -0.3441 -0.1902
 7689SOL    HW123966   5.078   0.300   2.319  2.4428 -0.2979  0.0887
 7689SOL    HW223967   5.094   0.209   2.185  0.2739 -0.3924 -0.1418
 7690SOL     OW23968   4.144   5.133   0.872  0.0314 -0.1026 -0.0840
 7690SOL    HW123969   4.128   5.095   0.964  2.2683  1.3068  0.9726
 7690SOL    HW223970   4.219   5.084   0.828 -0.0615  0.1763 -0.5619
 7691SOL     OW23971   4.866   3.974   2.006 -0.2075 -0.5950  0.1180
 7691SOL    HW123972   4.938   4.025   1.960  0.2296 -0.4564  0.9289
 7691SOL    HW223973   4.829   4.028   2.082 -1.0245 -0.7498 -0.1523
 7692SOL     OW23974   1.576   6.573   0.993 -0.1848  0.0725 -0.4686
 7692SOL    HW123975   1.530   6.489   1.022  0.0888  0.5644  1.5595
 7692SOL    HW223976   1.547   6.597   0.901 -0.9133 -1.7783 -0.7700
 7693SOL     OW23977   2.706   2.043   1.422 -0.6937  0.7673 -0.2582
 7693SOL    HW123978   2.735   2.137   1.403  0.1208  0.6196  0.2074
 7693SOL    HW223979   2.755   1.980   1.361 -0.9408  0.6132 -0.2974
 7694SOL     OW23980   6.695   2.402   5.310 -0.3279  0.3115 -0.3656
 7694SOL    HW123981   6.648   2.361   5.232  0.4423 -2.5158  0.5345
 7694SOL    HW223982   6.638   2.473   5.350 -2.0949 -0.3340 -1.6358
 7695SOL     OW23983   4.054   5.167   1.146  0.3724  0.0847  0.7655
 7695SOL    HW123984   3.998   5.085   1.160 -0.6025  0.8226  1.3430
 7695SOL    HW223985   4.100   5.191   1.232  1.0924 -0.1510  0.4574
 7696SOL     OW23986   1.856   1.294   6.594  0.0161  0.1827 -0.0650
 7696SOL    HW123987   1.873   1.293   6.495 -1.4906 -0.8084 -0.3396
 7696SOL    HW223988   1.917   1.360   6.637  2.3802 -1.0046 -1.3430
 7697SOL     OW23989   5.307   5.915   2.733 -0.6334  0.4364 -0.2764
 7697SOL    HW123990   5.273   5.825   2.758 -2.4463  1.4707  1.3052
 7697SOL    HW223991   5.362   5.952   2.809 -1.5149  1.3878 -0.0695
 7698SOL     OW23992   5.451   3.645   6.853 -0.6875  0.0792 -0.6635
 7698SOL    HW123993   5.551   3.642   6.856 -0.6939 -0.0304 -0.5785
 7698SOL    HW223994   5.415   3.663   6.944 -0.8053 -1.4848 -0.3766
 7699SOL     OW23995   5.150   5.804   6.987 -0.1407  0.0450 -0.4691
 7699SOL    HW123996   5.057   5.835   7.006  0.2771  0.3742  1.1497
 7699SOL    HW223997   5.153   5.704   6.986 -0.0376 -0.0680  2.4215
 7700SOL     OW23998   5.015   4.220   3.871  0.2451 -0.1881 -0.0456
 7700SOL    HW123999   5.076   4.142   3.885 -0.5191 -0.6857  0.5955
 7700SOL    HW224000   5.035   4.290   3.940 -0.9323 -1.0172  1.1938
 7701SOL     OW24001   1.529   2.858   5.942 -0.2664 -0.0028  0.0559
 7701SOL    HW124002   1.615   2.840   5.990 -0.1107 -0.6077 -0.4366
 7701SOL    HW224003   1.471   2.917   5.999  1.4938  2.6069 -0.6739
 7702SOL     OW24004   6.297   6.639   2.685  0.3726  0.3372 -0.6198
 7702SOL    HW124005   6.227   6.612   2.750  1.1109 -0.0799  0.0207
 7702SOL    HW224006   6.255   6.689   2.609 -0.6715 -0.3598 -0.5147
 7703SOL     OW24007   6.375   1.708   5.082  0.3954  0.6487 -0.3041
 7703SOL    HW124008   6.286   1.697   5.039 -0.6309 -0.1036  1.8570
 7703SOL    HW224009   6.440   1.746   5.016 -0.8972 -0.9462 -2.6183
 7704SOL     OW24010   1.693   2.961   5.425 -0.2808  0.0749  0.6045
 7704SOL    HW124011   1.664   3.046   5.382 -1.0071 -0.5277 -0.1249
 7704SOL    HW224012   1.631   2.938   5.500 -0.3626 -0.0503  0.4994
 7705SOL     OW24013   2.140   5.425   1.306 -0.2082  0.4806  0.0159
 7705SOL    HW124014   2.137   5.492   1.231  1.3508  1.9647  1.1965
 7705SOL    HW224015   2.144   5.333   1.267 -1.8123  1.0569 -1.6640
 7706SOL     OW24016   3.815   1.152   2.456 -0.1440 -0.4848 -0.1255
 7706SOL    HW124017   3.782   1.229   2.402 -1.7421 -1.0534 -0.0226
 7706SOL    HW224018   3.884   1.184   2.521 -1.3844  1.0527  0.5206
 7707SOL     OW24019   6.299   5.298   4.806  0.9268 -0.5503  0.1845
 7707SOL    HW124020   6.315   5.396   4.822  0.8795 -0.6010  0.5368
 7707SOL    HW224021   6.207   5.273   4.835  0.1137 -0.2443 -1.9396
 7708SOL     OW24022   1.193   0.883   5.017 -0.7620  0.0317  0.0745
 7708SOL    HW124023   1.110   0.902   5.069 -0.6446  0.6540  0.0435
 7708SOL    HW224024   1.267   0.943   5.050 -0.4998 -0.0667 -0.3329
 7709SOL     OW24025   4.742   3.476   0.613 -0.1864 -0.0687  0.5123
 7709SOL    HW124026   4.737   3.423   0.698 -0.5679 -0.4502  0.2527
 7709SOL    HW224027   4.824   3.533   0.614  1.5862 -2.4675 -0.2824
 7710SOL     OW24028   0.453   3.293   6.997  0.7419  0.2088 -0.6385
 7710SOL    HW124029   0.394   3.243   7.061 -0.3784  0.4028 -1.4874
 7710SOL    HW224030   0.460   3.389   7.027  2.0749 -0.1886  0.4280
 7711SOL     OW24031   6.673   5.633   4.772 -0.0748  0.1455  0.1182
 7711SOL    HW124032   6.757   5.580   4.761  0.2223  0.3441  1.3472
 7711SOL    HW224033   6.598   5.571   4.798  0.4598  0.3800  2.4214
 7712SOL     OW24034   1.272   3.346   5.626 -0.1351 -0.2992  0.6529
 7712SOL    HW124035   1.179   3.320   5.653 -0.9552 -0.6101 -2.1325
 7712SOL    HW224036   1.317   3.268   5.583  0.5306  0.5064 -0.1463
 7713SOL     OW24037   2.088   5.615   0.467  0.7437 -0.3169 -0.0109
 7713SOL    HW124038   2.151   5.582   0.396  0.3704  2.2346 -1.6704
 7713SOL    HW224039   2.127   5.695   0.512 -0.8839  0.7712 -0.4511
 7714SOL     OW24040   6.186   0.826   6.210  0.7315 -0.2097  0.3774
 7714SOL    HW124041   6.216   0.865   6.123  1.0171  0.9601  0.9931
 7714SOL    HW224042   6.182   0.726   6.201 -0.1187 -0.0672 -1.2477
 7715SOL     OW24043   3.365   2.641   5.263  0.0374  0.5416 -0.3354
 7715SOL    HW124044   3.369   2.716   5.197  1.8685 -0.3013 -1.2631
 7715SOL    HW224045   3.298   2.573   5.232 -0.1972  0.8590 -0.5274
 7716SOL     OW24046   3.442   0.359   6.657  0.2865  0.2946 -0.5689
 7716SOL    HW124047   3.376   0.367   6.583  1.4312  1.2193 -1.5326
 7716SOL    HW224048   3.406   0.298   6.727 -1.5937  0.8237 -1.0213
 7717SOL     OW24049   6.210   2.141   0.558 -0.1478  0.5080 -0.0208
 7717SOL    HW124050   6.168   2.053   0.539 -0.1413  0.5337 -0.1545
 7717SOL    HW224051   6.190   2.205   0.483 -2.1938  1.3594  1.1365
 7718SOL     OW24052   1.320   2.559   3.688 -0.1307 -0.0330  0.2016
 7718SOL    HW124053   1.332   2.555   3.787  1.1490  2.7799  0.2445
 7718SOL    HW224054   1.395   2.509   3.644 -1.4689 -2.5427  0.5431
 7719SOL     OW24055   2.340   4.999   4.946 -0.2193  0.4330  0.3934
 7719SOL    HW124056   2.351   4.969   4.852  0.6923 -1.7216  1.1234
 7719SOL    HW224057   2.293   4.929   4.999  3.8372 -0.9528  2.6617
 7720SOL     OW24058   3.501   6.533   2.320 -0.9127  0.4279  0.0846
 7720SOL    HW124059   3.456   6.486   2.244 -0.8740  0.6199 -0.0578
 7720SOL    HW224060   3.594   6.558   2.294 -0.0567 -1.5392  0.9755
 7721SOL     OW24061   6.289   0.318   2.611  0.6585  0.5711 -0.1323
 7721SOL    HW124062   6.218   0.385   2.594 -0.1736 -0.0517  0.7847
 7721SOL    HW224063   6.295   0.255   2.534 -2.5655 -1.7833  1.3096
 7722SOL     OW24064   6.973   6.760   3.676 -0.3045 -0.1205 -1.0386
 7722SOL    HW124065   6.912   6.706   3.618 -0.2749 -0.5767 -0.6485
 7722SOL    HW224066   7.029   6.820   3.618 -0.5722 -0.2613 -1.4486
 7723SOL     OW24067   4.043   3.436   6.668 -0.3820  0.3633  0.1256
 7723SOL    HW124068   4.141   3.426   6.651 -0.3990 -0.7557  0.6153
 7723SOL    HW224069   3.993   3.423   6.583 -0.1542  0.0521  0.0357
 7724SOL     OW24070   0.946   4.509   2.555  0.1679  0.5546 -0.0366
 7724SOL    HW124071   0.957   4.553   2.466 -1.1001  1.2974  0.1611
 7724SOL    HW224072   0.950   4.578   2.627  0.5200  0.0360  0.4504
 7725SOL     OW24073   6.044   3.326   4.680  0.1107 -0.0317  0.8635
 7725SOL    HW124074   6.083   3.407   4.723  0.4205  1.0350 -1.3207
 7725SOL    HW224075   5.944   3.334   4.679  0.1650  0.7297 -0.0242
 7726SOL     OW24076   6.102   3.844   5.208  0.0432  0.0646  0.3118
 7726SOL    HW124077   6.008   3.837   5.176  0.7386 -0.5076 -1.7031
 7726SOL    HW224078   6.152   3.762   5.183  1.0872  0.3291  1.4265
 7727SOL     OW24079   5.749   3.498   1.755 -0.8685 -0.1658 -0.7099
 7727SOL    HW124080   5.732   3.540   1.844 -1.4746 -0.5404 -0.6405
 7727SOL    HW224081   5.832   3.442   1.759  0.4435  1.6715 -1.0361
 7728SOL     OW24082   0.338   3.552   5.896 -0.2408 -0.5351  0.0302
 7728SOL    HW124083   0.431   3.582   5.876  0.1883 -1.0856  1.0964
 7728SOL    HW224084   0.323   3.552   5.995 -1.9937  1.2957 -0.1716
 7729SOL     OW24085   1.295   2.147   5.707  0.5068 -1.2354 -0.2986
 7729SOL    HW124086   1.225   2.110   5.767  1.3442 -0.5274  1.1993
 7729SOL    HW224087   1.378   2.165   5.761  0.7118  1.1060 -1.2740
 7730SOL     OW24088   5.322   4.454   4.690 -0.0278 -0.0643 -0.2847
 7730SOL    HW124089   5.254   4.474   4.760  0.6139 -0.0648  0.3475
 7730SOL    HW224090   5.397   4.520   4.696  1.9864 -2.3361  1.6545
 7731SOL     OW24091   1.156   5.867   5.466 -0.0311  0.3429  0.1386
 7731SOL    HW124092   1.146   5.951   5.412 -4.8317 -0.3526 -0.4875
 7731SOL    HW224093   1.127   5.789   5.410 -0.0731 -1.1239  2.1225
 7732SOL     OW24094   4.702   5.748   5.543  0.4476  0.4668 -0.2899
 7732SOL    HW124095   4.618   5.694   5.535 -0.4112  1.7287 -0.0746
 7732SOL    HW224096   4.743   5.760   5.453  0.6672 -0.5507 -0.3354
 7733SOL     OW24097   5.711   6.080   0.997 -0.3723  0.5321  0.7143
 7733SOL    HW124098   5.786   6.109   0.937  0.4783 -2.1227  0.3554
 7733SOL    HW224099   5.739   6.091   1.092  0.2129  0.1932  0.5870
 7734SOL     OW24100   1.697   2.702   4.915 -0.0278 -0.0646  0.2079
 7734SOL    HW124101   1.758   2.727   4.840 -0.4040 -0.1319 -0.1220
 7734SOL    HW224102   1.719   2.757   4.996 -1.0402  1.6237 -0.5975
 7735SOL     OW24103   1.662   0.154   1.443  0.2076  0.1251 -0.3793
 7735SOL    HW124104   1.708   0.116   1.363  1.2248  0.5764 -0.0382
 7735SOL    HW224105   1.571   0.185   1.417  0.4610  0.1259 -1.3333
 7736SOL     OW24106   2.059   3.449   0.538 -0.0229 -0.0625 -0.0533
 7736SOL    HW124107   2.087   3.511   0.611  0.2293 -0.7672  0.4678
 7736SOL    HW224108   2.130   3.443   0.468  0.6620 -0.9684  0.6912
 7737SOL     OW24109   4.413   2.830   0.687  0.4593 -0.2072 -0.0794
 7737SOL    HW124110   4.370   2.779   0.761 -0.6735 -0.9023 -1.1760
 7737SOL    HW224111   4.511   2.838   0.704  0.1959 -0.2147  1.5526
 7738SOL     OW24112   1.590   1.820   5.195  0.1986 -0.0253  0.1030
 7738SOL    HW124113   1.527   1.892   5.224  0.9478  1.1890 -1.1554
 7738SOL    HW224114   1.652   1.798   5.271 -0.9611 -0.4262  0.9762
 7739SOL     OW24115   1.569   2.572   0.949  0.1498 -0.4546 -0.8495
 7739SOL    HW124116   1.495   2.593   1.013  1.8171 -0.6493  1.2430
 7739SOL    HW224117   1.531   2.522   0.870 -1.7231 -1.9410  0.8858
 7740SOL     OW24118   2.979   1.808   2.801  0.1541 -0.5903  0.2885
 7740SOL    HW124119   3.042   1.839   2.730  0.0717  0.3894  0.6232
 7740SOL    HW224120   2.937   1.722   2.773  0.1265 -0.2243 -0.8514
 7741SOL     OW24121   2.062   4.055   0.233  0.0510  0.1075 -0.1761
 7741SOL    HW124122   1.994   4.018   0.170 -1.0742  0.1032  0.9995
 7741SOL    HW224123   2.131   4.106   0.182  0.0420 -1.1834 -1.5548
 7742SOL     OW24124   4.277   2.296   4.108 -0.4500 -0.1327  0.0337
 7742SOL    HW124125   4.188   2.286   4.063 -0.1954 -0.9731 -0.3050
 7742SOL    HW224126   4.305   2.207   4.145  0.7447 -0.1111 -0.7967
 7743SOL     OW24127   3.936   2.555   6.328  0.2176  0.0698 -0.1313
 7743SOL    HW124128   3.935   2.654   6.335  1.4024  0.0027  1.6905
 7743SOL    HW224129   3.843   2.521   6.321 -0.3403  1.2335  1.1542
 7744SOL     OW24130   1.414   6.062   5.073 -0.4626 -0.8739  0.2050
 7744SOL    HW124131   1.333   6.016   5.110  0.3781 -2.6215 -0.0135
 7744SOL    HW224132   1.388   6.116   4.993 -1.5225 -0.8624  0.5442
 7745SOL     OW24133   4.043   6.029   0.262 -0.0618 -0.4181 -0.5527
 7745SOL    HW124134   4.043   6.120   0.220  0.8834 -0.4389 -0.6261
 7745SOL    HW224135   4.014   6.036   0.357  2.2860  0.3595  0.1831
 7746SOL     OW24136   0.832   6.434   6.582  0.3399  0.3930 -0.0492
 7746SOL    HW124137   0.802   6.360   6.521  0.0530  0.0019  0.5496
 7746SOL    HW224138   0.927   6.456   6.563  0.1051  0.6346 -0.9840
 7747SOL     OW24139   1.146   5.108   6.704  0.3961 -0.1079  0.2474
 7747SOL    HW124140   1.092   5.122   6.788 -1.1091 -0.9275 -0.5539
 7747SOL    HW224141   1.186   5.017   6.705  0.2609 -0.1689  0.0049
 7748SOL     OW24142   5.277   3.333   6.379  0.1400  0.3559  0.2727
 7748SOL    HW124143   5.233   3.421   6.393 -0.1017  0.6303 -1.8369
 7748SOL    HW224144   5.362   3.347   6.327  1.0311 -0.4993  1.4417
 7749SOL     OW24145   2.168   4.263   5.695 -0.1217 -0.4022  0.3171
 7749SOL    HW124146   2.148   4.355   5.662  0.6612 -0.3875 -0.1351
 7749SOL    HW224147   2.155   4.198   5.620  0.7961 -0.4791  0.2221
 7750SOL     OW24148   6.211   4.455   6.350  0.1006 -0.0481 -0.0069
 7750SOL    HW124149   6.148   4.519   6.305 -0.1995 -1.3214 -1.4747
 7750SOL    HW224150   6.292   4.442   6.293  0.7167 -0.0813  0.8531
 7751SOL     OW24151   0.660   1.705   5.613 -0.4163 -0.1004  0.4555
 7751SOL    HW124152   0.629   1.613   5.588 -1.5801  0.3041  0.3589
 7751SOL    HW224153   0.738   1.698   5.675 -1.7649 -1.2064  2.1246
 7752SOL     OW24154   4.410   5.416   3.959  0.0101  0.5886 -0.9949
 7752SOL    HW124155   4.472   5.366   4.020 -0.2407  0.2417 -1.0213
 7752SOL    HW224156   4.457   5.435   3.872  0.6776  1.8699 -0.3865
 7753SOL     OW24157   3.239   1.871   5.898 -0.1324 -0.1475 -0.2137
 7753SOL    HW124158   3.315   1.806   5.899 -0.3979 -0.5334 -1.9313
 7753SOL    HW224159   3.259   1.945   5.834 -1.3374 -0.4693 -1.0080
 7754SOL     OW24160   0.005   0.747   1.111  0.3467  0.9630 -0.3069
 7754SOL    HW124161  -0.023   0.699   1.193  3.0892 -1.1634 -0.4636
 7754SOL    HW224162  -0.067   0.742   1.042 -0.7391 -0.0003  0.8670
 7755SOL     OW24163   3.099   6.894   6.279 -0.1345  0.0579  1.0049
 7755SOL    HW124164   3.115   6.896   6.180  0.2777 -1.5825  0.9990
 7755SOL    HW224165   3.006   6.861   6.297 -0.3238  0.6763  1.1605
 7756SOL     OW24166   5.152   0.930   2.772  0.4030 -0.1259  0.0664
 7756SOL    HW124167   5.167   0.919   2.870  1.1776  1.1009  0.0940
 7756SOL    HW224168   5.094   0.855   2.739  0.3332 -0.6835  1.4037
 7757SOL     OW24169   3.354   0.156   5.438 -0.1840  0.1695  0.0106
 7757SOL    HW124170   3.366   0.107   5.352  1.5008  0.1911  0.2126
 7757SOL    HW224171   3.312   0.245   5.420 -0.9522 -0.3024 -0.6259
 7758SOL     OW24172   1.471   2.476   5.609  0.3587  0.1411 -0.1075
 7758SOL    HW124173   1.487   2.507   5.703 -1.9285  0.4863  0.2172
 7758SOL    HW224174   1.377   2.443   5.600  0.7753 -0.6484 -2.0982
 7759SOL     OW24175   3.037   0.176   5.651 -0.3326 -0.2389  0.4927
 7759SOL    HW124176   3.000   0.083   5.656  0.1271 -0.3890  1.2441
 7759SOL    HW224177   3.112   0.185   5.717 -0.3103  0.6352  0.3485
 7760SOL     OW24178   4.962   2.501   2.961  0.6422 -0.1529  0.1304
 7760SOL    HW124179   4.908   2.490   3.045 -0.8857 -6.6288 -1.1720
 7760SOL    HW224180   5.044   2.443   2.967 -0.1677 -1.8478 -3.1458
 7761SOL     OW24181   5.822   6.896   6.383  0.6241 -0.7566  0.4653
 7761SOL    HW124182   5.779   6.805   6.387  0.9116 -0.8654  2.5933
 7761SOL    HW224183   5.880   6.908   6.464 -1.4416  2.2860  1.6943
 7762SOL     OW24184   1.226   0.103   2.325  0.4102 -0.0332 -0.8312
 7762SOL    HW124185   1.259   0.156   2.246 -1.8886 -0.7584 -2.4039
 7762SOL    HW224186   1.302   0.081   2.385  1.8334  2.9378 -1.3752
 7763SOL     OW24187   2.090   0.590   1.308  0.2445  0.4603  0.1805
 7763SOL    HW124188   2.156   0.637   1.249 -3.0155  2.6055 -2.0779
 7763SOL    HW224189   2.067   0.650   1.385  0.3469  0.0628  0.5207
 7764SOL     OW24190   2.921   2.751   1.471 -0.3949 -0.1780  0.0823
 7764SOL    HW124191   2.988   2.806   1.422 -0.6554 -0.6622 -0.8439
 7764SOL    HW224192   2.936   2.760   1.570 -0.9162  2.1833  0.0142
 7765SOL     OW24193   0.820   0.725   1.852  0.1067  0.1774  0.6499
 7765SOL    HW124194   0.887   0.734   1.925  1.5833  0.3832 -0.6819
 7765SOL    HW224195   0.821   0.807   1.795  0.3235 -0.6990 -0.6649
 7766SOL     OW24196   6.109   2.595   6.533  0.2550 -0.2339  0.2134
 7766SOL    HW124197   6.101   2.599   6.433  0.6767 -0.5997  0.1593
 7766SOL    HW224198   6.063   2.514   6.567 -1.0185  0.5659  0.4548
 7767SOL     OW24199   4.580   6.235   5.644 -0.5273 -0.2831 -0.1926
 7767SOL    HW124200   4.598   6.138   5.627  0.6899 -0.5460  2.0645
 7767SOL    HW224201   4.665   6.279   5.673 -1.5649  0.8358  1.3000
 7768SOL     OW24202   5.816   4.922   2.883  0.0110  0.0636  0.2557
 7768SOL    HW124203   5.850   4.994   2.821  0.1835 -0.2782 -0.0524
 7768SOL    HW224204   5.892   4.886   2.936 -0.2521  0.8522  1.2031
 7769SOL     OW24205   5.089   4.272   2.939 -0.4682  0.0098  0.1267
 7769SOL    HW124206   5.004   4.237   2.900 -0.4150 -0.8825  0.8023
 7769SOL    HW224207   5.160   4.202   2.933  0.3721  0.9091 -0.8610
 7770SOL     OW24208   4.462   5.092   0.522 -0.1885 -0.0961 -0.0193
 7770SOL    HW124209   4.537   5.143   0.564  0.1398 -0.9937  0.5169
 7770SOL    HW224210   4.412   5.151   0.459  0.2000  0.8647  0.5607
 7771SOL     OW24211   2.781   0.615   5.041  0.1350 -0.6408  0.6684
 7771SOL    HW124212   2.687   0.586   5.028  0.0928 -0.9040  1.4721
 7771SOL    HW224213   2.784   0.713   5.057  0.4240  0.2154 -3.6399
 7772SOL     OW24214   5.926   1.761   5.245 -0.2014 -0.4722  0.0653
 7772SOL    HW124215   5.895   1.855   5.233 -1.2265 -0.7937  0.0929
 7772SOL    HW224216   5.911   1.710   5.160 -0.2406 -0.7730  0.2540
 7773SOL     OW24217   2.918   3.731   6.666 -0.4012  0.1013 -0.3851
 7773SOL    HW124218   3.005   3.781   6.670 -0.4255  0.1269 -0.2040
 7773SOL    HW224219   2.915   3.679   6.581  0.0390 -0.3511 -0.1302
 7774SOL     OW24220   5.024   2.068   5.280  0.1582 -0.0226  0.3083
 7774SOL    HW124221   5.115   2.075   5.241 -0.2075  0.8397 -0.4367
 7774SOL    HW224222   4.968   2.007   5.224 -0.3848  1.2620 -0.5980
 7775SOL     OW24223   3.715   6.460   1.559 -0.2999  0.8543 -0.1696
 7775SOL    HW124224   3.732   6.369   1.596  0.6781  0.8940 -0.4903
 7775SOL    HW224225   3.625   6.493   1.590 -1.4034 -0.8718 -1.3247
 7776SOL     OW24226   2.913   4.270   7.011  0.2472 -0.3575  0.1467
 7776SOL    HW124227   2.877   4.316   6.929 -0.8732 -0.3931  0.5994
 7776SOL    HW224228   2.895   4.172   7.004 -0.1811 -0.3139  0.5927
 7777SOL     OW24229   2.703   0.666   6.117 -0.0611 -0.0271 -0.2330
 7777SOL    HW124230   2.665   0.602   6.050 -0.8178 -0.3284  0.4629
 7777SOL    HW224231   2.689   0.760   6.085  1.1276 -0.1798 -1.3005
 7778SOL     OW24232   5.383   0.243   1.941  0.3164  0.3588 -0.5266
 7778SOL    HW124233   5.326   0.179   1.889 -0.3023  0.2244  0.2963
 7778SOL    HW224234   5.480   0.222   1.925  0.1245 -0.7297 -0.3387
 7779SOL     OW24235   3.269   2.947   6.776 -0.7316  0.1908 -0.3954
 7779SOL    HW124236   3.333   2.870   6.781 -2.3549 -1.2095 -0.2291
 7779SOL    HW224237   3.252   2.971   6.680 -3.0476 -2.2315 -0.7092
 7780SOL     OW24238   1.793   6.955   4.678 -0.5551  0.2967 -0.3008
 7780SOL    HW124239   1.789   7.044   4.634 -1.1769 -0.6398 -2.2607
 7780SOL    HW224240   1.871   6.904   4.643 -0.3915 -0.0687  0.5581
 7781SOL     OW24241   0.808   5.332   5.970 -0.4249  0.1260 -0.4941
 7781SOL    HW124242   0.794   5.402   5.899 -1.3189 -3.1033 -3.8514
 7781SOL    HW224243   0.732   5.335   6.035 -0.7917  1.8095 -0.9614
 7782SOL     OW24244   4.664   5.164   5.454 -0.5589 -0.3554 -0.2897
 7782SOL    HW124245   4.724   5.239   5.482 -1.2960  0.3990 -0.6822
 7782SOL    HW224246   4.598   5.198   5.387 -3.5099 -0.3361  2.4258
 7783SOL     OW24247   4.983   5.574   5.155  0.1791  0.3525  0.5151
 7783SOL    HW124248   5.055   5.569   5.085  1.4453  2.4397  1.5892
 7783SOL    HW224249   4.908   5.631   5.121 -0.3021 -0.5893 -0.0287
 7784SOL     OW24250   0.788   2.430   4.405  0.1599 -0.1272 -0.0040
 7784SOL    HW124251   0.770   2.412   4.308 -0.3130 -0.5081  0.1488
 7784SOL    HW224252   0.869   2.379   4.433  2.0781  2.2108 -0.8933
 7785SOL     OW24253   2.406   5.345   3.622 -0.4051 -0.3312 -0.1020
 7785SOL    HW124254   2.483   5.297   3.582  0.3176 -0.5244  1.4378
 7785SOL    HW224255   2.438   5.425   3.672 -1.1254 -0.6940  0.9829
 7786SOL     OW24256   3.092   3.061   3.113  0.1903  0.5037 -0.2044
 7786SOL    HW124257   3.023   3.019   3.173 -0.6790 -2.2616 -2.8763
 7786SOL    HW224258   3.183   3.028   3.139  0.0526  0.8100  0.7132
 7787SOL     OW24259   3.245   2.070   5.699  0.4905 -0.0062  0.1545
 7787SOL    HW124260   3.273   2.019   5.618 -0.7929 -0.2838 -0.1391
 7787SOL    HW224261   3.285   2.161   5.697  1.3317 -0.3696 -0.2322
 7788SOL     OW24262   1.398   5.277   6.197  0.0846  0.1823 -0.1152
 7788SOL    HW124263   1.438   5.283   6.106  1.0166 -0.6911  0.2050
 7788SOL    HW224264   1.471   5.285   6.266 -0.6737  1.4326  0.5767
 7789SOL     OW24265   2.742   1.362   0.521 -0.1811 -0.2622 -0.2892
 7789SOL    HW124266   2.653   1.316   0.523 -0.4377  0.2486  1.0251
 7789SOL    HW224267   2.801   1.323   0.592 -0.0735  0.7692  0.2128
 7790SOL     OW24268   5.804   4.467   3.777  0.1711  0.7012  0.1094
 7790SOL    HW124269   5.774   4.485   3.683  0.2127 -2.4518 -0.6159
 7790SOL    HW224270   5.731   4.419   3.826  0.2933  1.9958  1.6423
 7791SOL     OW24271   0.975   5.589   4.425 -0.0024  0.1001 -0.5413
 7791SOL    HW124272   1.062   5.621   4.387 -0.3716 -0.2715 -1.7556
 7791SOL    HW224273   0.917   5.556   4.351 -1.1357  0.2226  0.2698
 7792SOL     OW24274   3.426   6.516   0.465  0.1895 -0.5373 -0.5739
 7792SOL    HW124275   3.383   6.549   0.549  0.3017  0.5622 -0.9221
 7792SOL    HW224276   3.411   6.418   0.456 -1.2788 -0.3775 -0.1295
 7793SOL     OW24277   0.601   1.203   5.354  0.2827 -0.3022  0.3989
 7793SOL    HW124278   0.649   1.208   5.266 -0.2849  0.3550  0.1244
 7793SOL    HW224279   0.663   1.165   5.423  0.4467 -1.7017 -0.4784
 7794SOL     OW24280   5.708   5.013   3.849  0.5985 -0.3401  0.2902
 7794SOL    HW124281   5.648   4.986   3.925  0.3433 -2.4071 -0.5799
 7794SOL    HW224282   5.713   5.113   3.845  0.1044 -0.1477  2.6031
 7795SOL     OW24283   5.128   5.582   4.925  0.0104 -0.0847 -0.7578
 7795SOL    HW124284   5.205   5.548   4.871  1.5578  2.3602 -0.2337
 7795SOL    HW224285   5.094   5.667   4.885  0.1097  0.9012  1.1348
 7796SOL     OW24286   3.265   3.475   3.227 -0.2251 -0.0175 -0.0103
 7796SOL    HW124287   3.351   3.425   3.237  0.1471  0.8329  1.2348
 7796SOL    HW224288   3.209   3.432   3.156  0.9161 -1.0074 -0.3300
 7797SOL     OW24289   3.474   0.116   3.336  0.4773 -0.4141 -0.1365
 7797SOL    HW124290   3.471   0.132   3.435 -0.1800  0.3072 -0.2600
 7797SOL    HW224291   3.398   0.056   3.310  1.0164 -1.1114 -0.1248
 7798SOL     OW24292   2.843   4.621   1.477  0.5425 -0.0004  0.1178
 7798SOL    HW124293   2.925   4.602   1.531  0.8322  1.0073  0.0465
 7798SOL    HW224294   2.848   4.713   1.440 -0.7151  0.1424  0.2693
 7799SOL     OW24295   5.645   5.116   0.318 -0.0417  0.5048 -0.1072
 7799SOL    HW124296   5.724   5.085   0.264 -0.3462 -0.5286  0.0044
 7799SOL    HW224297   5.627   5.050   0.391 -1.7109  0.0999 -0.8349
 7800SOL     OW24298   0.855   4.815   2.546  0.3866 -0.2307  0.3540
 7800SOL    HW124299   0.848   4.912   2.569  1.6897 -0.2601  0.9158
 7800SOL    HW224300   0.800   4.797   2.464 -0.0397  0.9337  0.3641
 7801SOL     OW24301   4.957   1.346   6.493 -0.0848  0.2705  0.1078
 7801SOL    HW124302   4.954   1.248   6.474 -4.6390  0.4668 -1.5966
 7801SOL    HW224303   5.030   1.388   6.439  1.6857 -2.0485  0.5321
 7802SOL     OW24304   4.901   0.938   6.011 -0.2928  0.0991 -0.0991
 7802SOL    HW124305   4.883   0.863   6.074 -0.1066  0.2786  0.1724
 7802SOL    HW224306   4.926   1.020   6.063 -0.8135  0.4406 -0.3768
 7803SOL     OW24307   3.643   5.006   6.237 -0.4592  0.1154  0.0066
 7803SOL    HW124308   3.692   4.932   6.189 -1.3547 -1.1118  0.9278
 7803SOL    HW224309   3.611   4.973   6.325  0.1942  2.0139  1.0018
 7804SOL     OW24310   5.240   1.295   6.719 -0.3525 -0.1110 -0.6355
 7804SOL    HW124311   5.272   1.254   6.634 -1.4951 -0.7333 -0.7971
 7804SOL    HW224312   5.145   1.267   6.735 -1.0109  2.0420 -0.4555
 7805SOL     OW24313   5.073   3.843   2.802 -0.0363 -0.4008  0.0779
 7805SOL    HW124314   4.985   3.874   2.765 -0.7941 -2.6601 -0.1756
 7805SOL    HW224315   5.141   3.842   2.729  0.5527  2.2624  0.4674
 7806SOL     OW24316   2.955   1.773   0.208 -0.4866 -0.2544  0.2114
 7806SOL    HW124317   2.881   1.755   0.143 -0.6159 -0.0352  0.2971
 7806SOL    HW224318   3.012   1.848   0.175 -1.0552  0.4308  0.7561
 7807SOL     OW24319   0.803   4.018   6.480 -0.3502 -0.4335 -0.0140
 7807SOL    HW124320   0.728   3.974   6.431 -0.5412 -0.4655  0.3054
 7807SOL    HW224321   0.876   4.042   6.415 -0.1283 -1.4617 -0.1626
 7808SOL     OW24322   0.361   1.600   5.358 -0.1925  0.3615 -0.4491
 7808SOL    HW124323   0.289   1.658   5.321 -0.1412  1.0010  0.4430
 7808SOL    HW224324   0.406   1.552   5.282 -0.5786  1.0692 -1.1491
 7809SOL     OW24325   1.166   5.464   5.144 -0.5759 -0.1257  0.2998
 7809SOL    HW124326   1.112   5.531   5.094  0.2861  0.6355  0.3722
 7809SOL    HW224327   1.249   5.442   5.093 -0.2604 -0.2273  0.8443
 7810SOL     OW24328   2.303   0.977   6.883  0.1813  0.0450  0.0661
 7810SOL    HW124329   2.258   0.966   6.795  0.5221 -1.5387  0.0563
 7810SOL    HW224330   2.303   0.889   6.931  0.3332  0.7927  1.4890
 7811SOL     OW24331   6.340   4.396   2.770  0.8107  0.5228 -0.0485
 7811SOL    HW124332   6.244   4.394   2.742  0.4674  0.8680  1.0416
 7811SOL    HW224333   6.393   4.449   2.705  0.4420 -0.4229 -1.1560
 7812SOL     OW24334   0.739   2.239   3.210 -0.2657  0.4374 -0.4236
 7812SOL    HW124335   0.673   2.256   3.137 -0.0939  0.8254 -0.4927
 7812SOL    HW224336   0.800   2.165   3.183 -1.2845 -0.6026  0.0533
 7813SOL     OW24337   5.633   2.856   2.782 -0.0541 -0.1592 -0.2137
 7813SOL    HW124338   5.683   2.772   2.802 -0.6391 -1.4926 -3.5785
 7813SOL    HW224339   5.615   2.906   2.867  1.9401 -2.4512  1.7050
 7814SOL     OW24340   6.435   2.879   2.940 -0.3081  0.2961 -0.1718
 7814SOL    HW124341   6.398   2.786   2.945  0.4464  0.0470  1.3422
 7814SOL    HW224342   6.366   2.944   2.974  0.0607 -0.0045  1.2025
 7815SOL     OW24343   0.666   2.438   6.182 -0.8840  0.0702 -0.1606
 7815SOL    HW124344   0.653   2.530   6.144  0.0432  0.7207  1.0169
 7815SOL    HW224345   0.646   2.440   6.280 -1.3056 -1.1112 -0.2026
 7816SOL     OW24346   1.094   4.304   3.741 -0.1954 -0.0962 -0.3686
 7816SOL    HW124347   1.031   4.354   3.681  0.8767  2.4166  0.4486
 7816SOL    HW224348   1.178   4.283   3.690  0.4640  1.4937 -0.0332
 7817SOL     OW24349   6.099   3.174   5.791  0.2144  0.2143  0.2079
 7817SOL    HW124350   6.137   3.258   5.830  2.0652 -0.5101  0.0698
 7817SOL    HW224351   6.137   3.095   5.840 -2.5339 -0.5748  1.2656
 7818SOL     OW24352   4.942   3.553   4.313  0.0540  0.3157 -0.2854
 7818SOL    HW124353   5.010   3.505   4.368 -1.2408  0.3926  1.5029
 7818SOL    HW224354   4.886   3.611   4.373 -0.5068  1.5494 -1.9287
 7819SOL     OW24355   6.648   0.272   1.423 -0.3817 -0.2850  0.0263
 7819SOL    HW124356   6.684   0.238   1.336  0.4530  1.3925 -0.3238
 7819SOL    HW224357   6.680   0.213   1.497  2.6876  0.7274 -0.3369
 7820SOL     OW24358   2.873   0.612   5.399  0.3318  0.0510 -0.1029
 7820SOL    HW124359   2.785   0.659   5.388  0.1105 -0.1566  0.7191
 7820SOL    HW224360   2.941   0.677   5.433 -0.2915 -0.4533  2.2935
 7821SOL     OW24361   3.945   4.491   1.194 -0.6396 -0.3204 -0.2679
 7821SOL    HW124362   3.957   4.567   1.130 -1.1456 -0.1055 -0.1177
 7821SOL    HW224363   4.018   4.424   1.181 -1.1329 -0.6489 -1.5873
 7822SOL     OW24364   0.036   3.945   5.643  0.2388  0.1585  0.1605
 7822SOL    HW124365  -0.061   3.953   5.665  0.1469  1.4868 -0.6314
 7822SOL    HW224366   0.084   3.900   5.718 -1.2150 -1.9818 -0.0830
 7823SOL     OW24367   2.993   6.285   6.333 -0.1113  0.4499  0.3628
 7823SOL    HW124368   2.911   6.280   6.277  0.8939 -2.3995 -1.0853
 7823SOL    HW224369   2.969   6.319   6.424 -2.2174  2.8674 -0.9643
 7824SOL     OW24370   0.530   2.153   5.433 -0.7020  0.2737  0.3151
 7824SOL    HW124371   0.534   2.253   5.442 -0.4552  0.4825 -1.7507
 7824SOL    HW224372   0.453   2.129   5.374  0.8160 -0.5478 -1.4349
 7825SOL     OW24373   1.722   1.816   5.841  0.2178  0.5843 -0.3144
 7825SOL    HW124374   1.672   1.849   5.920  0.2855  1.4447 -0.6180
 7825SOL    HW224375   1.819   1.838   5.851  0.3137  0.1865 -0.3706
 7826SOL     OW24376   0.611   3.842   6.294  0.0247 -0.1768  0.0419
 7826SOL    HW124377   0.609   3.844   6.194 -1.0420  0.1831  0.0546
 7826SOL    HW224378   0.564   3.923   6.329 -0.4760 -0.8022  0.8388
 7827SOL     OW24379   0.423   6.527   3.139  0.1047 -0.0863 -0.1649
 7827SOL    HW124380   0.323   6.536   3.139  0.2406  1.6788 -0.2002
 7827SOL    HW224381   0.449   6.448   3.195 -1.1742  1.4894  2.8790
 7828SOL     OW24382   0.639   5.466   1.172  0.3699 -0.6248 -0.0077
 7828SOL    HW124383   0.642   5.534   1.098 -1.1279 -0.0846  0.4004
 7828SOL    HW224384   0.573   5.495   1.241  0.6620 -1.8737  0.8227
 7829SOL     OW24385   0.971   3.314   1.925 -0.0028 -0.7533 -0.1618
 7829SOL    HW124386   0.958   3.316   1.826 -2.0347 -1.4941  0.0284
 7829SOL    HW224387   0.973   3.408   1.960 -0.9474 -0.4979 -0.7550
 7830SOL     OW24388   1.758   4.088   4.557  0.1617  0.6186  0.1996
 7830SOL    HW124389   1.746   4.187   4.542  1.2994  0.8021  0.4725
 7830SOL    HW224390   1.696   4.058   4.629 -0.4469  1.0519 -0.1216
 7831SOL     OW24391   3.542   0.038   6.524  0.1927 -0.0747 -0.1212
 7831SOL    HW124392   3.444   0.054   6.534  0.2020 -0.0309 -0.0995
 7831SOL    HW224393   3.561  -0.059   6.535  0.1788 -0.0526  0.0894
 7832SOL     OW24394   4.391   6.903   5.736 -0.2427 -0.1017 -0.8081
 7832SOL    HW124395   4.332   6.983   5.737 -0.7981 -0.5085 -0.8167
 7832SOL    HW224396   4.441   6.899   5.649  0.8777  1.0072 -0.2538
 7833SOL     OW24397   1.152   0.630   3.803 -0.2260 -0.1033  0.3322
 7833SOL    HW124398   1.205   0.546   3.813 -0.5278 -0.3763 -0.2694
 7833SOL    HW224399   1.192   0.685   3.730  0.9895  1.0861  1.8418
 7834SOL     OW24400   5.511   3.613   2.666  0.3727  0.3811 -0.4249
 7834SOL    HW124401   5.604   3.577   2.659  0.0958 -0.0609 -2.3495
 7834SOL    HW224402   5.462   3.566   2.740  1.5344  0.3666  0.3650
 7835SOL     OW24403   3.899   2.993   5.217  0.8274  0.6271 -0.0964
 7835SOL    HW124404   3.878   3.085   5.251  0.0500  0.4273 -0.0357
 7835SOL    HW224405   3.989   2.965   5.252  0.7559  1.0758  0.4607
 7836SOL     OW24406   3.286   3.199   2.549 -0.4236  0.2421 -0.1804
 7836SOL    HW124407   3.329   3.241   2.630 -2.0447  0.1743  0.7593
 7836SOL    HW224408   3.310   3.102   2.545 -1.2028 -0.0205  0.8855
 7837SOL     OW24409   6.985   6.151   1.155  0.4800  0.0336  0.1840
 7837SOL    HW124410   6.946   6.185   1.069 -0.3511  0.4262  0.7124
 7837SOL    HW224411   7.058   6.085   1.134  2.1684  2.1207 -0.8616
 7838SOL     OW24412   4.235   3.337   1.555 -0.4493  0.2056 -0.3964
 7838SOL    HW124413   4.288   3.259   1.591  1.5499  1.2957 -0.8622
 7838SOL    HW224414   4.165   3.362   1.622  0.3903 -0.5216  0.8061
 7839SOL     OW24415   5.646   2.842   4.339 -0.5114  0.1944  0.2348
 7839SOL    HW124416   5.625   2.840   4.437 -2.2427 -0.3727 -0.1253
 7839SOL    HW224417   5.661   2.749   4.306  0.7231  0.4328  0.0646
 7840SOL     OW24418   2.486   2.086   2.669 -0.2669  0.5664  0.6915
 7840SOL    HW124419   2.429   2.141   2.730 -1.3570 -0.5568  0.7134
 7840SOL    HW224420   2.486   2.127   2.578 -2.3717 -0.2127  0.2915
 7841SOL     OW24421   4.404   6.778   6.425 -0.2975  0.5681 -0.7486
 7841SOL    HW124422   4.413   6.849   6.356 -0.2056  1.8684  0.5596
 7841SOL    HW224423   4.352   6.813   6.502  0.3949 -0.5381  0.2522
 7842SOL     OW24424   2.858   0.572   1.380  0.1271  0.6879  0.2610
 7842SOL    HW124425   2.843   0.665   1.347 -1.2335 -0.4737 -2.8062
 7842SOL    HW224426   2.954   0.547   1.367 -0.1209  0.6840 -1.9414
 7843SOL     OW24427   0.374   6.242   2.761 -0.4246 -0.0951 -0.2085
 7843SOL    HW124428   0.349   6.335   2.735 -1.4404  0.3446  2.1194
 7843SOL    HW224429   0.471   6.240   2.787 -0.0465 -0.0141 -1.5493
 7844SOL     OW24430   3.366   0.964   3.309  0.5463 -0.3803 -0.0980
 7844SOL    HW124431   3.392   1.007   3.396  1.1613  0.4313 -0.6710
 7844SOL    HW224432   3.447   0.957   3.250 -0.2411  0.9993 -1.4176
 7845SOL     OW24433   1.066   3.476   0.671 -0.2843  0.3444 -0.0476
 7845SOL    HW124434   0.971   3.476   0.639 -0.8581  0.2198  1.5756
 7845SOL    HW224435   1.095   3.569   0.691  0.2324  0.4741 -1.3273
 7846SOL     OW24436   0.100   1.993   0.924 -0.1601  0.0070 -0.0279
 7846SOL    HW124437   0.059   2.082   0.909  0.0524  0.1741  0.3721
 7846SOL    HW224438   0.045   1.922   0.879  0.2540  0.4468 -1.2784
 7847SOL     OW24439   6.329   3.493   4.981 -0.1096 -0.4731 -0.1556
 7847SOL    HW124440   6.243   3.519   4.936 -1.2555 -0.4384  1.9492
 7847SOL    HW224441   6.375   3.423   4.927 -0.5111  0.8117 -2.2782
 7848SOL     OW24442   3.500   3.806   1.429  0.1465 -0.2563  0.0871
 7848SOL    HW124443   3.476   3.728   1.487 -1.9048 -1.1226 -1.7851
 7848SOL    HW224444   3.486   3.891   1.480 -3.2607 -0.9062  0.4445
 7849SOL     OW24445   0.622   5.236   0.340  0.1469 -0.5158 -0.3005
 7849SOL    HW124446   0.702   5.242   0.399 -0.2349 -0.6697  0.2475
 7849SOL    HW224447   0.650   5.210   0.247  0.6361 -1.6167  0.1317
 7850SOL     OW24448   0.851   0.906   3.241  0.8325 -0.2846 -0.5473
 7850SOL    HW124449   0.926   0.887   3.304 -0.6390  0.2505  1.5093
 7850SOL    HW224450   0.832   0.825   3.186 -0.0381 -2.1260  2.2260
 7851SOL     OW24451   5.908   4.479   2.454 -0.1697  0.7001  0.5599
 7851SOL    HW124452   5.821   4.429   2.444 -0.1424  1.0022 -1.7588
 7851SOL    HW224453   5.977   4.419   2.494 -0.8111 -0.3158  0.1748
 7852SOL     OW24454   6.826   3.032   0.076  1.0693 -0.3165 -0.1435
 7852SOL    HW124455   6.859   2.937   0.078  0.8073 -0.4080  2.1779
 7852SOL    HW224456   6.904   3.093   0.058  1.3885 -0.8936 -0.7924
 7853SOL     OW24457   3.744   3.145   1.355 -0.2363 -0.2613 -0.4178
 7853SOL    HW124458   3.658   3.186   1.386 -1.2015 -2.5869  0.1626
 7853SOL    HW224459   3.811   3.147   1.430 -0.8410 -1.2045  0.1690
 7854SOL     OW24460   3.378   3.081   6.386  0.2792  0.3623  0.9200
 7854SOL    HW124461   3.318   3.160   6.375  2.3143  1.8716 -0.1398
 7854SOL    HW224462   3.440   3.075   6.308  0.0420 -2.4900  0.8537
 7855SOL     OW24463   4.624   6.618   3.102 -0.6227  0.0200 -0.3567
 7855SOL    HW124464   4.692   6.657   3.165 -0.8158  2.2758 -1.4270
 7855SOL    HW224465   4.662   6.536   3.059  0.7663  0.2895  0.2943
 7856SOL     OW24466   1.583   0.282   5.655  0.3456  0.2067  0.1746
 7856SOL    HW124467   1.617   0.290   5.561  0.0780  1.2000  0.1529
 7856SOL    HW224468   1.661   0.280   5.718  0.5002  2.1450  0.1008
 7857SOL     OW24469   6.304   4.334   2.260 -0.4221  0.8351  0.1635
 7857SOL    HW124470   6.232   4.270   2.289  1.3969 -2.2341 -1.5978
 7857SOL    HW224471   6.271   4.387   2.181 -0.8050 -0.5638 -0.6573
 7858SOL     OW24472   0.737   2.099   1.881 -0.2143  0.0288 -0.0960
 7858SOL    HW124473   0.726   2.164   1.806 -0.1252 -1.3279 -1.3311
 7858SOL    HW224474   0.782   2.144   1.958  0.2212  1.3164 -1.0742
 7859SOL     OW24475   4.504   1.422   6.675  0.5282 -0.2535 -0.0896
 7859SOL    HW124476   4.518   1.426   6.773  0.5472 -0.1222 -0.0979
 7859SOL    HW224477   4.408   1.443   6.654 -0.1307 -2.7494  0.0963
 7860SOL     OW24478   2.077   6.907   3.473 -0.0511  0.2448 -0.3399
 7860SOL    HW124479   2.034   6.886   3.561  2.1437  2.9158  1.5303
 7860SOL    HW224480   2.165   6.861   3.467  1.1214  2.3248  0.2286
 7861SOL     OW24481   0.970   0.209   1.266  0.0248 -0.2402  0.2439
 7861SOL    HW124482   1.002   0.196   1.172  0.3901 -0.6927  0.4293
 7861SOL    HW224483   0.945   0.305   1.279 -0.4773 -0.2719 -0.4494
 7862SOL     OW24484   3.772   6.327   0.651  0.3817  0.1286 -0.5100
 7862SOL    HW124485   3.750   6.382   0.732  0.0812 -1.1179  0.2694
 7862SOL    HW224486   3.728   6.238   0.658  2.6809 -1.1026 -0.6296
 7863SOL     OW24487   6.776   5.206   3.307 -0.7420 -0.1569 -0.1980
 7863SOL    HW124488   6.742   5.268   3.378 -1.6040 -0.1582 -0.5942
 7863SOL    HW224489   6.702   5.144   3.280  0.5705 -2.6501  1.5280
 7864SOL     OW24490   2.629   1.533   5.660  0.1296 -0.3742  0.3875
 7864SOL    HW124491   2.565   1.543   5.584 -0.0987  0.1869  0.6441
 7864SOL    HW224492   2.589   1.476   5.731  0.2706 -0.7511  0.1625
 7865SOL     OW24493   5.692   4.405   2.182  0.2235  0.4209  0.2155
 7865SOL    HW124494   5.756   4.369   2.114 -0.3642 -2.5916  1.1105
 7865SOL    HW224495   5.646   4.486   2.144  1.1088 -0.1356 -2.2786
 7866SOL     OW24496   5.817   5.843   5.315 -0.0403 -0.4477  0.3159
 7866SOL    HW124497   5.729   5.805   5.288  0.5605 -1.3198 -0.4747
 7866SOL    HW224498   5.864   5.879   5.235  0.0310  0.6713  0.8364
 7867SOL     OW24499   4.945   5.735   2.361  0.1205 -0.3076 -0.1873
 7867SOL    HW124500   5.042   5.758   2.364  0.0581 -0.1272  0.7018
 7867SOL    HW224501   4.903   5.780   2.282  0.9162 -1.0550 -1.0631
 7868SOL     OW24502   3.555   6.969   1.689 -0.5208 -0.0480  0.7422
 7868SOL    HW124503   3.605   7.027   1.753 -0.6060 -0.5262  1.2532
 7868SOL    HW224504   3.457   6.982   1.703 -0.5385 -0.0133  0.5818
 7869SOL     OW24505   3.918   5.348   6.384  0.1701  0.0509  0.1564
 7869SOL    HW124506   3.986   5.313   6.320  0.3820  2.6576 -1.1897
 7869SOL    HW224507   3.877   5.432   6.347 -2.0906 -0.1379  1.9984
 7870SOL     OW24508   5.097   4.724   3.949 -0.0437 -0.1910 -0.3775
 7870SOL    HW124509   5.182   4.747   3.901  0.4507 -0.4385  0.3577
 7870SOL    HW224510   5.028   4.696   3.883  0.1361  0.9420 -1.0762
 7871SOL     OW24511   4.980   1.542   0.754 -0.1126 -0.5185 -0.7166
 7871SOL    HW124512   4.962   1.475   0.826 -0.9617  0.1989 -0.2348
 7871SOL    HW224513   5.045   1.611   0.788  0.8807 -1.1529 -1.2619
 7872SOL     OW24514   2.433   6.490   4.580 -0.1503  0.2639 -0.4361
 7872SOL    HW124515   2.456   6.587   4.574 -0.6834  0.5099  1.0544
 7872SOL    HW224516   2.352   6.478   4.637 -0.1595 -1.0542 -0.6866
 7873SOL     OW24517   5.415   1.958   2.292 -0.0146  0.4470 -0.0702
 7873SOL    HW124518   5.447   2.031   2.353  0.1180  0.5705 -0.2892
 7873SOL    HW224519   5.315   1.961   2.287 -0.0978 -0.1484  0.8777
 7874SOL     OW24520   4.767   2.726   6.775 -0.3232 -0.0032 -0.2875
 7874SOL    HW124521   4.742   2.686   6.687  0.6969 -0.8183 -0.2184
 7874SOL    HW224522   4.759   2.657   6.847  2.0659 -0.3114 -0.2618
 7875SOL     OW24523   4.949   6.066   6.513  0.2887 -0.2894 -0.1434
 7875SOL    HW124524   5.013   6.024   6.449  0.4174  1.2977 -1.1298
 7875SOL    HW224525   4.979   6.159   6.533 -0.5166 -0.2840  1.1498
 7876SOL     OW24526   1.440   5.739   3.774 -0.4948 -0.2623 -0.1275
 7876SOL    HW124527   1.537   5.734   3.797 -0.6726  0.1953  0.7472
 7876SOL    HW224528   1.407   5.648   3.746  0.2789 -0.3264 -0.8749
 7877SOL     OW24529   0.804   1.306   2.545  0.2614 -0.1319 -0.0067
 7877SOL    HW124530   0.716   1.257   2.546  0.2069 -0.0795 -1.0512
 7877SOL    HW224531   0.878   1.242   2.560  0.2181 -0.6520 -1.7120
 7878SOL     OW24532   5.730   4.570   1.821 -0.6095  0.4962  0.1072
 7878SOL    HW124533   5.714   4.504   1.895  0.5724 -1.3213 -1.2064
 7878SOL    HW224534   5.651   4.571   1.760 -0.0486 -0.8417 -0.6806
 7879SOL     OW24535   3.668   5.131   4.767  0.1877 -0.6672  0.2831
 7879SOL    HW124536   3.704   5.107   4.677  1.3829 -0.0389  0.5699
 7879SOL    HW224537   3.581   5.084   4.782  0.2273 -1.1792 -0.9847
 7880SOL     OW24538   1.126   5.254   2.157 -0.6067 -0.4580  0.6297
 7880SOL    HW124539   1.192   5.197   2.106 -0.1854  0.3050  0.3117
 7880SOL    HW224540   1.125   5.224   2.253 -0.1354 -0.7790  0.5413
 7881SOL     OW24541   5.175   3.219   5.523  0.0654 -0.0895  0.6576
 7881SOL    HW124542   5.169   3.296   5.586  0.3924 -0.0764  0.6778
 7881SOL    HW224543   5.234   3.244   5.446 -1.9302  0.6135 -0.7251
 7882SOL     OW24544   0.556   3.415   1.968  0.4838 -0.2767 -0.4646
 7882SOL    HW124545   0.586   3.505   1.938 -0.9090  0.8563  1.3018
 7882SOL    HW224546   0.472   3.390   1.920 -0.4383  0.4775  0.6927
 7883SOL     OW24547   5.862   5.353   6.794 -0.4947  0.3106  0.2657
 7883SOL    HW124548   5.866   5.450   6.816  0.7168 -0.0217  1.6526
 7883SOL    HW224549   5.952   5.321   6.768 -0.2159 -1.0033  2.5376
 7884SOL     OW24550   0.037   3.122   2.952  0.3082 -0.4837  0.7804
 7884SOL    HW124551  -0.028   3.195   2.931  0.0327 -0.7906  0.5543
 7884SOL    HW224552   0.041   3.107   3.050 -0.7257 -1.1531  0.7318
 7885SOL     OW24553   0.531   4.438   6.984 -0.3968 -0.4067  0.0274
 7885SOL    HW124554   0.513   4.478   6.894  2.4798 -0.2610 -0.5646
 7885SOL    HW224555   0.625   4.405   6.988 -0.9158 -1.8282  2.5010
 7886SOL     OW24556   4.520   4.552   0.175  0.0403  0.3726  0.6935
 7886SOL    HW124557   4.568   4.532   0.090 -1.6222 -0.9388 -0.0166
 7886SOL    HW224558   4.426   4.518   0.169 -0.6040  1.6400  2.4879
 7887SOL     OW24559   5.426   0.936   6.741 -0.0245  0.3501 -0.1560
 7887SOL    HW124560   5.350   0.960   6.680 -1.5654  0.0167  1.5400
 7887SOL    HW224561   5.435   1.007   6.811  1.4645  0.5399 -0.5132
 7888SOL     OW24562   4.939   1.849   5.129  0.1682 -0.4976  0.1138
 7888SOL    HW124563   4.840   1.848   5.136  0.1771 -3.0835  0.7984
 7888SOL    HW224564   4.967   1.825   5.036  0.1991  0.8835 -0.2619
 7889SOL     OW24565   1.201   6.096   1.335  0.1263 -0.3273  0.3656
 7889SOL    HW124566   1.206   6.072   1.432 -1.1151  0.2483  0.5887
 7889SOL    HW224567   1.188   6.013   1.281  2.4847 -0.8496  0.5105
 7890SOL     OW24568   1.870   1.582   4.655 -0.1855  0.3176 -0.4239
 7890SOL    HW124569   1.833   1.673   4.674 -0.8604 -0.0039 -0.1902
 7890SOL    HW224570   1.968   1.581   4.678 -0.1255  1.0374 -0.6168
 7891SOL     OW24571   2.138   5.362   5.180  0.0316 -0.2044  0.0894
 7891SOL    HW124572   2.186   5.276   5.197 -1.6461 -1.4346 -1.0270
 7891SOL    HW224573   2.093   5.358   5.091 -3.3263  0.2358  1.6136
 7892SOL     OW24574   3.553   1.519   0.283 -0.5226  0.1327  0.0411
 7892SOL    HW124575   3.607   1.587   0.331  1.7722 -0.9067 -0.9094
 7892SOL    HW224576   3.513   1.455   0.349  0.7255  0.0239  0.7153
 7893SOL     OW24577   0.455   0.352   7.018  0.2725 -0.5786 -0.9128
 7893SOL    HW124578   0.536   0.319   6.969  1.3936 -1.2375  1.2099
 7893SOL    HW224579   0.409   0.275   7.062 -0.6217 -0.0140 -0.8411
 7894SOL     OW24580   2.883   0.059   1.605 -0.5848 -0.0490  0.3334
 7894SOL    HW124581   2.841   0.056   1.695  0.3483  1.2573  0.8474
 7894SOL    HW224582   2.842   0.133   1.551 -0.4441 -0.1712  0.0535
 7895SOL     OW24583   0.527   2.051   2.875  0.0210 -0.2060  0.3956
 7895SOL    HW124584   0.449   1.988   2.882 -1.1496  1.0804 -0.5065
 7895SOL    HW224585   0.612   2.000   2.885 -0.9252 -1.5784  1.9940
 7896SOL     OW24586   3.793   1.902   5.999  0.2716 -0.2419 -0.2164
 7896SOL    HW124587   3.891   1.906   5.980  0.3594  1.6101  0.3987
 7896SOL    HW224588   3.770   1.969   6.070 -1.3532 -1.0787  0.1112
 7897SOL     OW24589   3.354   2.137   0.059 -0.0504 -0.3942 -0.0252
 7897SOL    HW124590   3.413   2.056   0.054 -1.5471 -1.5571  0.3070
 7897SOL    HW224591   3.405   2.212   0.101  1.2246 -1.3053  0.1423
 7898SOL     OW24592   4.706   2.386   4.763 -0.0472 -0.4234 -0.3181
 7898SOL    HW124593   4.608   2.404   4.771  0.3078  1.7310 -0.0322
 7898SOL    HW224594   4.741   2.430   4.680  0.5045 -2.1866 -1.0667
 7899SOL     OW24595   4.769   1.215   2.203  0.5471  0.4587  0.3850
 7899SOL    HW124596   4.820   1.251   2.281  0.7196 -1.5830  1.2715
 7899SOL    HW224597   4.671   1.232   2.216  0.4416 -0.9705  1.7222
 7900SOL     OW24598   0.969   3.458   1.451 -0.0340  0.3134  0.0837
 7900SOL    HW124599   0.910   3.401   1.395  0.1782  1.2341 -1.1176
 7900SOL    HW224600   0.994   3.540   1.400  0.9538  0.7221  1.1825
 7901SOL     OW24601   5.572   5.708   5.170  0.0381 -0.1373 -0.1927
 7901SOL    HW124602   5.495   5.696   5.232  0.6739 -1.9595  0.3065
 7901SOL    HW224603   5.591   5.622   5.122  1.4833  0.3884 -0.6311
 7902SOL     OW24604   3.963   4.379   5.930  0.5032 -0.3416  0.2875
 7902SOL    HW124605   4.010   4.291   5.935  1.3156  0.1408  2.5357
 7902SOL    HW224606   4.030   4.453   5.936 -0.1181  0.4937 -2.0484
 7903SOL     OW24607   6.035   1.880   0.564  0.1527 -0.2001 -0.1937
 7903SOL    HW124608   5.967   1.921   0.504  0.0296  0.9348  0.6947
 7903SOL    HW224609   6.015   1.783   0.576 -0.6648 -0.1162 -0.8026
 7904SOL     OW24610   0.566   0.042   6.059 -0.3750 -0.7184 -0.0710
 7904SOL    HW124611   0.530   0.130   6.090 -0.1361 -0.5417 -0.2881
 7904SOL    HW224612   0.666   0.046   6.057 -0.3798 -0.7956 -0.6568
 7905SOL     OW24613   4.465   0.717   1.172 -1.1786  0.6480  0.1049
 7905SOL    HW124614   4.511   0.711   1.083 -0.9379 -0.7413  0.2960
 7905SOL    HW224615   4.434   0.811   1.187 -1.7971  0.7905 -1.7297
 7906SOL     OW24616   0.061   4.928   5.521  0.7187 -0.0286 -0.3614
 7906SOL    HW124617   0.037   4.844   5.569 -1.4757 -0.3058 -1.7858
 7906SOL    HW224618   0.145   4.966   5.559 -0.2921 -0.7713  2.9295
 7907SOL     OW24619   6.669   4.626   4.068  0.7257  0.0265 -0.2243
 7907SOL    HW124620   6.754   4.667   4.036  1.4243  1.7402  3.3673
 7907SOL    HW224621   6.591   4.673   4.025  1.5746  1.3912 -0.3156
 7908SOL     OW24622   0.132   2.116   2.282 -0.0484 -0.5046 -0.3637
 7908SOL    HW124623   0.131   2.151   2.376 -1.1275 -0.6173 -0.3182
 7908SOL    HW224624   0.224   2.084   2.259  0.0913 -1.0119  0.8486
 7909SOL     OW24625   5.157   4.541   4.908  0.5505 -0.1384 -0.0435
 7909SOL    HW124626   5.143   4.638   4.928  1.6253  0.6539 -2.6707
 7909SOL    HW224627   5.083   4.488   4.948 -0.7175  1.9044  0.4728
 7910SOL     OW24628   6.547   4.946   5.869  0.0602  0.0947  0.5331
 7910SOL    HW124629   6.522   4.942   5.966  1.6841 -0.2492  0.9676
 7910SOL    HW224630   6.553   4.853   5.832 -1.4911  0.2448 -0.1891
 7911SOL     OW24631   0.063   0.199   0.136 -0.3918 -0.3574  1.1049
 7911SOL    HW124632   0.103   0.112   0.163 -1.3776 -0.8865  0.9219
 7911SOL    HW224633   0.061   0.261   0.215  0.9189 -0.2457  1.0702
 7912SOL     OW24634   1.183   2.869   5.603  0.0293 -0.0525 -0.2649
 7912SOL    HW124635   1.242   2.939   5.562  0.9476 -0.3545  0.5098
 7912SOL    HW224636   1.216   2.778   5.576 -0.2329 -0.2197 -0.0279
 7913SOL     OW24637   0.468   4.787   6.032 -0.0874 -0.1019  0.2502
 7913SOL    HW124638   0.537   4.858   6.015 -1.0251  1.4332  2.3241
 7913SOL    HW224639   0.386   4.806   5.978  0.6232 -1.2198 -1.2728
 7914SOL     OW24640   0.083   2.843   2.344  0.4597  0.0520  0.5669
 7914SOL    HW124641   0.057   2.774   2.277 -1.3210  0.1510  1.1062
 7914SOL    HW224642   0.148   2.907   2.302  0.6173 -0.8081 -0.5506
 7915SOL     OW24643   4.705   0.964   3.212 -0.4364 -0.4955  0.0659
 7915SOL    HW124644   4.643   1.009   3.147 -1.1296  0.0939  1.0896
 7915SOL    HW224645   4.718   1.024   3.291 -0.4797 -1.6277  0.9560
 7916SOL     OW24646   3.217   4.169   6.199  0.2658  0.4967  0.7106
 7916SOL    HW124647   3.253   4.117   6.277 -0.2464  1.5973  1.7299
 7916SOL    HW224648   3.292   4.220   6.156 -0.0075  3.6943  3.5333
 7917SOL     OW24649   3.371   3.508   6.340 -0.2174 -0.0632  0.0978
 7917SOL    HW124650   3.349   3.549   6.429  0.4878 -0.3546  0.4145
 7917SOL    HW224651   3.452   3.449   6.350  0.4721  0.6713 -0.9373
 7918SOL     OW24652   6.236   2.644   1.045 -0.1085  0.2313 -0.0274
 7918SOL    HW124653   6.240   2.544   1.049  1.0556  0.2703  0.1856
 7918SOL    HW224654   6.153   2.676   1.089 -0.6335 -0.6531 -0.3438
 7919SOL     OW24655   4.956   3.383   6.509  0.4299  0.2075  0.2797
 7919SOL    HW124656   4.915   3.399   6.599  3.7675 -0.1965  2.0638
 7919SOL    HW224657   4.936   3.291   6.478  0.8761 -0.3618  1.6291
 7920SOL     OW24658   6.431   6.372   2.245 -0.1490  0.1477 -0.1850
 7920SOL    HW124659   6.376   6.392   2.326  0.3788  0.3863  0.1186
 7920SOL    HW224660   6.372   6.366   2.165 -1.0397 -2.4770  0.5420
 7921SOL     OW24661   4.330   4.985   1.670  0.2131 -0.1884 -0.6194
 7921SOL    HW124662   4.234   5.013   1.674  0.4972  0.9532 -1.3110
 7921SOL    HW224663   4.340   4.895   1.710 -1.0033  0.0649  0.3110
 7922SOL     OW24664   1.059   0.013   1.422  0.5826  0.4950 -0.3553
 7922SOL    HW124665   1.019   0.086   1.366 -0.1855  0.8059  0.5700
 7922SOL    HW224666   1.017   0.014   1.512  1.0594 -0.6691 -0.1063
 7923SOL     OW24667   0.713   0.096   1.385 -0.9224 -0.1618  0.2423
 7923SOL    HW124668   0.664   0.091   1.298  0.1426 -2.3557 -0.2991
 7923SOL    HW224669   0.784   0.167   1.379 -2.1495  1.0872  0.0664
 7924SOL     OW24670   1.585   6.104   4.001 -0.1226 -0.2952 -0.1891
 7924SOL    HW124671   1.503   6.062   4.041  0.6866 -1.6720  0.0780
 7924SOL    HW224672   1.662   6.041   4.008  0.0548 -0.7672 -4.1996
 7925SOL     OW24673   6.953   0.455   6.938  0.0793  0.5914 -0.0962
 7925SOL    HW124674   7.052   0.439   6.936 -0.1396 -0.9385 -0.1055
 7925SOL    HW224675   6.909   0.380   6.987 -1.4959 -1.2118 -3.9125
 7926SOL     OW24676   2.900   2.187   2.296 -0.5704 -0.5044 -0.6326
 7926SOL    HW124677   2.899   2.244   2.214 -2.3865  0.3693 -0.0390
 7926SOL    HW224678   2.838   2.110   2.284 -2.7771  0.9376  0.7316
 7927SOL     OW24679   3.820   5.233   5.428  0.1887  0.1645  0.1071
 7927SOL    HW124680   3.782   5.302   5.367  1.2310  1.4851  0.9017
 7927SOL    HW224681   3.745   5.183   5.473 -0.5885  0.9450 -0.2904
 7928SOL     OW24682   0.886   4.561   1.074  0.2172 -0.1294 -0.3245
 7928SOL    HW124683   0.842   4.590   1.159  1.3641  0.5060  0.0634
 7928SOL    HW224684   0.933   4.474   1.089 -2.5738 -1.9708 -1.2867
 7929SOL     OW24685   3.532   3.352   4.653 -0.2006 -0.5468 -0.7217
 7929SOL    HW124686   3.432   3.356   4.656 -0.1641  0.0285  0.0988
 7929SOL    HW224687   3.569   3.444   4.665  0.4482 -0.9855  0.8846
 7930SOL     OW24688   4.586   0.203   4.862 -0.3409 -0.1753  0.0782
 7930SOL    HW124689   4.652   0.257   4.914 -0.8574  1.1195 -0.5776
 7930SOL    HW224690   4.620   0.109   4.853  0.7956  0.1389  0.8382
 7931SOL     OW24691   2.009   2.069   0.031 -0.1967  0.3177  0.3558
 7931SOL    HW124692   2.020   1.973   0.056 -2.4504 -0.3397 -0.8165
 7931SOL    HW224693   2.058   2.087  -0.054  0.2981  0.2246  0.6202
 7932SOL     OW24694   3.402   5.614   1.759  0.5549  0.1297 -0.1211
 7932SOL    HW124695   3.418   5.519   1.787  0.2130  0.1567  0.1603
 7932SOL    HW224696   3.409   5.620   1.659  2.8240  0.2342 -0.0025
 7933SOL     OW24697   1.237   0.625   0.838 -0.1629 -0.8611 -0.2344
 7933SOL    HW124698   1.320   0.620   0.894 -0.4718  1.5506  0.5501
 7933SOL    HW224699   1.262   0.635   0.742  0.3777 -3.0755 -0.3817
 7934SOL     OW24700   5.413   3.006   5.256 -0.4027 -0.5696  0.3077
 7934SOL    HW124701   5.337   2.991   5.193  0.2718 -1.1704 -0.3658
 7934SOL    HW224702   5.398   3.092   5.305 -0.6425  0.2139 -1.0975
 7935SOL     OW24703   4.977   5.626   2.061  0.4436  0.6944  0.3825
 7935SOL    HW124704   5.005   5.616   1.965 -0.4161  0.5510  0.1443
 7935SOL    HW224705   5.031   5.564   2.118  0.6939  0.5058 -0.0575
 7936SOL     OW24706   5.498   4.233   5.149 -0.3846 -0.7349 -0.0072
 7936SOL    HW124707   5.527   4.279   5.233  0.5473 -2.0181  0.4169
 7936SOL    HW224708   5.451   4.298   5.089 -0.7010  0.2972  1.3214
 7937SOL     OW24709   4.110   6.436   5.185 -0.1713  0.6701  0.4011
 7937SOL    HW124710   4.042   6.397   5.122 -1.4027  2.8472  0.2917
 7937SOL    HW224711   4.170   6.499   5.135  1.6052 -0.7588  0.6244
 7938SOL     OW24712   5.050   4.476   4.342 -0.4124 -0.1232  0.3518
 7938SOL    HW124713   5.117   4.549   4.351 -0.4396  0.3075 -2.1302
 7938SOL    HW224714   5.083   4.394   4.389  1.0353  0.5954  0.6417
 7939SOL     OW24715   1.431   0.047   5.670 -0.3300  0.7356  0.2238
 7939SOL    HW124716   1.485   0.131   5.665  0.9173 -0.0653 -0.3102
 7939SOL    HW224717   1.484  -0.029   5.631 -1.3931 -0.3198  0.7739
 7940SOL     OW24718   3.933   6.606   0.930  0.4920  0.0615 -0.1515
 7940SOL    HW124719   3.961   6.682   0.987 -0.4816  0.7183 -0.5223
 7940SOL    HW224720   3.989   6.604   0.847  2.4854 -1.4042  1.1445
 7941SOL     OW24721   3.290   0.262   6.883  0.0322  0.0879  0.3987
 7941SOL    HW124722   3.317   0.169   6.906  1.1478 -0.2352 -1.9267
 7941SOL    HW224723   3.317   0.324   6.957  1.0358 -1.1559  1.1080
 7942SOL     OW24724   1.766   2.706   1.322  0.0951 -0.1760  0.2873
 7942SOL    HW124725   1.798   2.653   1.401 -0.1095  0.9433  1.1523
 7942SOL    HW224726   1.666   2.703   1.319  0.0659  0.4549  0.5578
 7943SOL     OW24727   4.366   3.737   6.273  0.1508 -0.3601 -0.2922
 7943SOL    HW124728   4.290   3.725   6.337 -0.1645 -1.2442 -0.8052
 7943SOL    HW224729   4.335   3.718   6.180  0.7070  0.4946 -0.6646
 7944SOL     OW24730   6.316   4.624   0.192  0.2207 -0.5619 -0.8654
 7944SOL    HW124731   6.363   4.607   0.279 -0.5340 -2.8611 -0.8360
 7944SOL    HW224732   6.218   4.636   0.208  0.4388  2.3116 -1.1272
 7945SOL     OW24733   3.417   5.965   2.162  0.2958 -0.1597 -0.6465
 7945SOL    HW124734   3.356   5.914   2.223 -1.4233  1.4151 -0.9820
 7945SOL    HW224735   3.509   5.926   2.167 -0.1320 -1.0072  1.8137
 7946SOL     OW24736   2.257   1.984   1.146 -0.0780  0.0583 -0.3216
 7946SOL    HW124737   2.250   1.968   1.047 -0.2051  0.8321 -0.4457
 7946SOL    HW224738   2.171   1.957   1.190  0.7141 -2.3287 -0.1036
 7947SOL     OW24739   4.587   5.468   6.615  0.6945 -0.0821  0.0673
 7947SOL    HW124740   4.534   5.393   6.575  0.5892  0.4162 -0.7686
 7947SOL    HW224741   4.623   5.525   6.541 -2.6630  3.1013  0.5777
 7948SOL     OW24742   1.113   5.568   0.406  0.0412  0.2373  0.5975
 7948SOL    HW124743   1.189   5.548   0.468  0.9652 -0.3894 -0.6788
 7948SOL    HW224744   1.038   5.611   0.457  0.1181 -1.6603  2.4552
 7949SOL     OW24745   0.237   5.023   3.682  0.1907 -0.7919  0.2782
 7949SOL    HW124746   0.304   5.094   3.663 -1.8256  0.8542 -1.1288
 7949SOL    HW224747   0.260   4.941   3.630  1.3167 -0.4060  0.1469
 7950SOL     OW24748   2.491   4.824   5.241 -0.4336 -0.5316 -0.4748
 7950SOL    HW124749   2.392   4.833   5.226 -0.5141  1.0323  0.7293
 7950SOL    HW224750   2.531   4.772   5.165 -2.0969 -0.8129 -1.2225
 7951SOL     OW24751   3.006   3.490   0.629  0.3443 -0.0778 -0.0068
 7951SOL    HW124752   3.099   3.478   0.594  0.4469  0.2761  0.1398
 7951SOL    HW224753   2.993   3.430   0.709 -0.4273 -2.1376 -1.5779
 7952SOL     OW24754   6.141   5.376   0.473 -1.0325  0.1605  0.6135
 7952SOL    HW124755   6.104   5.456   0.520  1.1225  0.8840  1.1873
 7952SOL    HW224756   6.129   5.295   0.530 -1.1858  0.4821  1.0447
 7953SOL     OW24757   6.968   1.400   2.321 -0.4552  0.3976 -0.0373
 7953SOL    HW124758   6.986   1.498   2.312  0.0737  0.3078 -0.0081
 7953SOL    HW224759   7.055   1.350   2.319 -0.4590  0.1364  2.5584
 7954SOL     OW24760   6.281   5.096   4.585  0.0278 -0.1404  0.6724
 7954SOL    HW124761   6.342   5.020   4.562  0.7775  0.8567 -0.7686
 7954SOL    HW224762   6.330   5.165   4.637  0.3874  0.9804 -1.0692
 7955SOL     OW24763   1.667   0.328   6.931  0.0488 -0.2787 -0.6010
 7955SOL    HW124764   1.743   0.365   6.985  1.2054 -1.2912 -1.4768
 7955SOL    HW224765   1.582   0.373   6.958  0.9788  1.0326  0.2745
 7956SOL     OW24766   5.868   0.804   3.297  0.5801 -0.0491  0.9300
 7956SOL    HW124767   5.905   0.722   3.254 -1.3513 -0.9251  0.8083
 7956SOL    HW224768   5.872   0.880   3.233  1.2404 -0.3570  0.5919
 7957SOL     OW24769   1.167   3.825   7.005  0.2078  0.3458  0.3045
 7957SOL    HW124770   1.139   3.734   6.974 -0.2950  0.3100  0.8494
 7957SOL    HW224771   1.259   3.820   7.045  1.0713  0.4773 -1.5455
 7958SOL     OW24772   3.742   0.601   2.221  0.1956  0.0775  0.4015
 7958SOL    HW124773   3.743   0.587   2.320  0.2202  1.3078  0.5921
 7958SOL    HW224774   3.648   0.593   2.188  0.3422 -1.4996  0.3330
 7959SOL     OW24775   6.760   0.133   1.207  0.4493  0.0156  0.3424
 7959SOL    HW124776   6.709   0.056   1.170  0.9027 -0.4501  0.6542
 7959SOL    HW224777   6.853   0.103   1.231  0.3456  0.4278  1.3251
 7960SOL     OW24778   1.291   3.504   1.574 -0.6070 -0.3178  0.6713
 7960SOL    HW124779   1.358   3.526   1.645  0.0804 -0.5926  0.1165
 7960SOL    HW224780   1.253   3.413   1.591 -0.9181 -0.1275  1.0335
 7961SOL     OW24781   3.045   4.980   5.747  0.4766  0.2184  0.0101
 7961SOL    HW124782   3.047   4.893   5.699  1.1527 -0.1630  0.7027
 7961SOL    HW224783   3.037   5.055   5.681 -0.2801 -0.3740 -0.5754
 7962SOL     OW24784   1.275   6.362   3.307 -0.3572  0.4905  0.3434
 7962SOL    HW124785   1.285   6.267   3.279 -1.3445  0.5584 -0.2632
 7962SOL    HW224786   1.349   6.386   3.370  0.3044 -0.4627 -0.0577
 7963SOL     OW24787   6.743   0.267   5.391 -0.0894 -0.2606 -0.4233
 7963SOL    HW124788   6.745   0.225   5.300 -1.7921 -1.7588  0.1721
 7963SOL    HW224789   6.783   0.204   5.458 -0.8919 -0.1404  0.1895
 7964SOL     OW24790   5.761   5.370   2.391 -0.2906  0.0671 -0.1265
 7964SOL    HW124791   5.840   5.339   2.445 -0.2067  0.5105  0.0066
 7964SOL    HW224792   5.789   5.384   2.296 -0.4913 -0.9403 -0.3441
 7965SOL     OW24793   6.542   0.858   1.057 -0.5407  0.0737  0.1199
 7965SOL    HW124794   6.601   0.891   1.130  1.2880  0.7543 -1.5702
 7965SOL    HW224795   6.557   0.913   0.974 -1.6821 -1.3768 -1.1205
 7966SOL     OW24796   6.830   6.848   3.272  0.2457 -0.3960 -0.0954
 7966SOL    HW124797   6.742   6.852   3.224 -0.3319  1.6551  1.0048
 7966SOL    HW224798   6.881   6.932   3.253  0.9014 -0.4871  1.1917
 7967SOL     OW24799   0.731   5.826   2.081 -0.4284 -0.3372 -0.3688
 7967SOL    HW124800   0.793   5.902   2.099 -1.2723  0.9149 -2.3979
 7967SOL    HW224801   0.682   5.803   2.166  2.3967 -1.1174  1.1875
 7968SOL     OW24802   2.054   1.332   1.293 -0.1449  0.2474  0.2577
 7968SOL    HW124803   1.954   1.333   1.291 -0.1969 -0.0618  1.7114
 7968SOL    HW224804   2.088   1.405   1.234 -1.2988  1.9817  1.6134
 7969SOL     OW24805   3.786   1.839   3.841  0.2993  0.3111  1.0214
 7969SOL    HW124806   3.882   1.827   3.867  0.0202 -2.2114  1.2018
 7969SOL    HW224807   3.729   1.787   3.904 -1.2052  1.6941  0.8496
 7970SOL     OW24808   5.887   3.948   1.615 -0.6319  0.6500 -0.2542
 7970SOL    HW124809   5.815   3.956   1.683 -0.5016  2.5147 -0.3088
 7970SOL    HW224810   5.975   3.973   1.655 -0.3540  0.5597 -0.7917
 7971SOL     OW24811   2.617   1.583   3.432 -0.1010  0.3602 -0.7150
 7971SOL    HW124812   2.630   1.680   3.454  1.3016  0.5781 -2.2780
 7971SOL    HW224813   2.538   1.548   3.483 -1.9273  2.8391 -1.5915
 7972SOL     OW24814   2.224   6.344   0.419 -0.6384 -0.3577 -0.3811
 7972SOL    HW124815   2.240   6.280   0.344 -0.1313 -0.7493  0.0500
 7972SOL    HW224816   2.300   6.410   0.424 -0.9425  0.0055 -0.5538
 7973SOL     OW24817   6.300   1.369   2.886 -0.4882  0.6057  0.2504
 7973SOL    HW124818   6.238   1.330   2.954  0.2052  0.7527  0.9856
 7973SOL    HW224819   6.390   1.383   2.928 -0.1414  1.0017 -0.6125
 7974SOL     OW24820   4.438   6.431   3.891  0.4596  0.0938  0.2753
 7974SOL    HW124821   4.394   6.493   3.957  2.2313  0.5182  1.1166
 7974SOL    HW224822   4.402   6.449   3.800 -0.3168  1.1640  0.7690
 7975SOL     OW24823   0.932   1.420   1.172  0.4564 -0.1354 -0.4311
 7975SOL    HW124824   0.892   1.509   1.195  1.0435  0.3089 -1.0805
 7975SOL    HW224825   0.909   1.354   1.243 -0.5834  0.3539 -0.2919
 7976SOL     OW24826   6.778   6.106   4.947 -0.4716  0.0266  0.1870
 7976SOL    HW124827   6.733   6.071   5.029  0.5474  0.7001  1.0694
 7976SOL    HW224828   6.745   6.199   4.928  1.5210  1.1691  1.7562
 7977SOL     OW24829   3.082   0.422   0.657  0.4390  0.0225 -0.5707
 7977SOL    HW124830   3.019   0.416   0.580  0.8115 -2.6040 -0.7536
 7977SOL    HW224831   3.174   0.395   0.628  1.5366  2.9108 -0.0929
 7978SOL     OW24832   3.902   2.815   6.011  0.0104  0.2583 -0.1509
 7978SOL    HW124833   3.831   2.788   5.946  1.1568 -1.8560 -0.6442
 7978SOL    HW224834   3.907   2.914   6.017 -1.0792  0.4902 -2.2417
 7979SOL     OW24835   5.814   6.441   3.508  0.4256 -0.1625  0.0784
 7979SOL    HW124836   5.742   6.507   3.529  1.4995  1.0224  0.2087
 7979SOL    HW224837   5.823   6.376   3.583 -0.9184 -0.7381 -0.2281
 7980SOL     OW24838   2.095   1.262   1.546  0.0364 -0.0073 -1.1898
 7980SOL    HW124839   2.097   1.284   1.449  2.5509  0.7309 -1.0461
 7980SOL    HW224840   2.059   1.340   1.597 -0.4450 -0.0563 -1.4521
 7981SOL     OW24841   2.166   5.592   1.633 -0.0378  0.2230  0.6435
 7981SOL    HW124842   2.147   5.664   1.567 -2.7212 -2.1335 -1.3803
 7981SOL    HW224843   2.101   5.598   1.709 -1.1895 -0.8212 -0.2328
 7982SOL     OW24844   1.124   2.384   1.262 -0.0522 -0.0932  0.5323
 7982SOL    HW124845   1.096   2.321   1.334 -2.2821  1.7564  1.4452
 7982SOL    HW224846   1.089   2.476   1.284  1.1061  0.9887 -1.8341
 7983SOL     OW24847   5.097   3.919   2.207  0.4034 -0.2017  0.3388
 7983SOL    HW124848   5.103   3.935   2.306 -1.5139  1.7823  0.2232
 7983SOL    HW224849   5.017   3.862   2.187 -1.5365  2.5263 -0.2212
 7984SOL     OW24850   0.896   6.496   0.587  0.3666 -0.5473 -0.1531
 7984SOL    HW124851   0.857   6.550   0.512  1.2201 -0.3478 -0.4650
 7984SOL    HW224852   0.926   6.557   0.660  0.7815 -0.6397 -0.2432
 7985SOL     OW24853   6.825   0.268   0.521  0.7946  0.3017 -0.5614
 7985SOL    HW124854   6.830   0.349   0.580 -0.0881  0.0250 -0.0912
 7985SOL    HW224855   6.917   0.243   0.492  1.3298  0.1068  1.1946
 7986SOL     OW24856   3.727   0.805   5.742 -0.4520  0.4588  0.5038
 7986SOL    HW124857   3.698   0.741   5.671 -0.4075  1.4286 -0.4116
 7986SOL    HW224858   3.754   0.754   5.824  1.5418 -0.8176 -0.8726
 7987SOL     OW24859   6.866   1.758   5.756 -0.5477 -0.3408 -0.2534
 7987SOL    HW124860   6.913   1.670   5.766  0.6894  0.4230  1.0059
 7987SOL    HW224861   6.788   1.761   5.818  0.2875 -0.0208  0.8211
 7988SOL     OW24862   2.780   1.877   5.351 -0.3210 -0.3790 -0.3309
 7988SOL    HW124863   2.708   1.910   5.412  1.3573 -0.9132  2.1253
 7988SOL    HW224864   2.869   1.886   5.397  1.0254 -1.1773 -2.6121
 7989SOL     OW24865   3.115   3.082   3.882 -0.8180 -0.3676 -0.3685
 7989SOL    HW124866   3.056   3.109   3.806 -0.1458 -0.0821 -0.7937
 7989SOL    HW224867   3.211   3.096   3.857 -0.5380 -1.3128  0.1252
 7990SOL     OW24868   2.624   3.255   5.326 -0.4491 -0.4481  0.4390
 7990SOL    HW124869   2.606   3.241   5.423 -0.1031 -2.3512  0.2837
 7990SOL    HW224870   2.590   3.176   5.275 -1.8227  1.1076 -1.1721
 7991SOL     OW24871   0.921   2.286   4.016  0.3197  0.2561 -0.2854
 7991SOL    HW124872   0.947   2.244   4.103  0.8743  0.3682 -0.3956
 7991SOL    HW224873   0.906   2.215   3.948 -2.1719  0.0050  0.4136
 7992SOL     OW24874   2.873   6.512   1.772  0.5090 -0.1166  0.4309
 7992SOL    HW124875   2.808   6.507   1.696 -0.0431 -1.7308  0.9756
 7992SOL    HW224876   2.826   6.543   1.855  1.0355  1.3029  0.2307
 7993SOL     OW24877   1.881   1.193   0.820 -0.3657  0.0039  0.1715
 7993SOL    HW124878   1.914   1.284   0.794 -0.7411  0.2828  0.6575
 7993SOL    HW224879   1.781   1.192   0.819 -0.3635 -0.6507 -0.6600
 7994SOL     OW24880   3.982   6.672   2.576 -0.0829 -0.2969  0.1029
 7994SOL    HW124881   3.994   6.574   2.568  1.1135 -0.0476 -1.7248
 7994SOL    HW224882   3.970   6.697   2.673 -0.7130 -2.2310  0.5555
 7995SOL     OW24883   3.974   5.046   4.666 -0.5923  0.1350  0.1425
 7995SOL    HW124884   3.943   4.981   4.735 -3.1256  0.5001 -0.5307
 7995SOL    HW224885   3.899   5.065   4.603  1.1704  0.9943 -1.8155
 7996SOL     OW24886   4.037   6.426   4.668 -0.5808 -0.4475  0.4979
 7996SOL    HW124887   3.948   6.412   4.626  0.3990  0.1628 -1.9157
 7996SOL    HW224888   4.070   6.518   4.647  1.5478 -1.3909 -0.5544
 7997SOL     OW24889   0.213   0.105   2.473  0.3108  0.3081  0.0875
 7997SOL    HW124890   0.284   0.069   2.413  0.8660  2.1877 -0.4395
 7997SOL    HW224891   0.143   0.152   2.418 -0.7615 -0.5262  0.6920
 7998SOL     OW24892   0.285   6.218   5.760  0.4069 -0.0597  0.1680
 7998SOL    HW124893   0.355   6.150   5.738  1.2674  0.6383  0.6995
 7998SOL    HW224894   0.314   6.270   5.840  0.8910  2.5148 -1.5754
 7999SOL     OW24895   1.796   0.499   5.349 -0.0907 -0.1786 -0.7133
 7999SOL    HW124896   1.861   0.564   5.389  0.2448 -1.4694  0.9494
 7999SOL    HW224897   1.754   0.540   5.268  1.9727  1.1023 -1.2090
 8000SOL     OW24898   6.242   5.246   6.022 -0.1611 -0.4661 -0.2307
 8000SOL    HW124899   6.171   5.201   6.076 -1.9976  3.3108  0.8517
 8000SOL    HW224900   6.328   5.245   6.074 -0.7813 -0.5980  0.8159
 8001SOL     OW24901   1.904   0.277   1.489  0.2618  0.0561  0.1802
 8001SOL    HW124902   1.916   0.349   1.421  0.1786  0.2048  0.3236
 8001SOL    HW224903   1.810   0.243   1.485  0.0456  0.5881  0.7395
 8002SOL     OW24904   5.570   1.398   3.549  0.1093 -0.0195 -0.3682
 8002SOL    HW124905   5.511   1.394   3.630  1.8042 -0.7692  0.8783
 8002SOL    HW224906   5.592   1.493   3.528 -2.6386  0.4220 -1.7570
 8003SOL     OW24907   3.228   5.123   4.021  0.8981 -0.1340 -0.0077
 8003SOL    HW124908   3.143   5.147   4.070  2.2715  2.7024  1.2086
 8003SOL    HW224909   3.305   5.132   4.083  2.3700  0.0659 -1.7893
 8004SOL     OW24910   0.393   5.244   1.102 -0.5449  0.0697 -0.3174
 8004SOL    HW124911   0.310   5.291   1.133 -0.4986  0.1034 -0.2448
 8004SOL    HW224912   0.417   5.173   1.168  0.0341  0.6948  0.1596
 8005SOL     OW24913   3.269   0.230   1.516  0.2995  0.1661 -0.3238
 8005SOL    HW124914   3.362   0.261   1.541  0.5476  0.7213 -1.8224
 8005SOL    HW224915   3.275   0.142   1.470  0.2680  0.9022 -1.7839
 8006SOL     OW24916   4.616   0.071   2.657  0.1906 -0.2115 -0.0840
 8006SOL    HW124917   4.563   0.156   2.665 -1.1144 -1.0992  1.1806
 8006SOL    HW224918   4.697   0.077   2.714  1.7908  1.3258 -2.3473
 8007SOL     OW24919   6.365   1.694   5.376 -0.4620 -0.1029 -0.6969
 8007SOL    HW124920   6.281   1.749   5.386 -0.0893  0.4142 -0.3418
 8007SOL    HW224921   6.375   1.666   5.281 -0.8455  0.1456 -0.8159
 8008SOL     OW24922   4.446   6.403   0.711 -0.0094  0.4248 -0.1649
 8008SOL    HW124923   4.406   6.479   0.762  0.2701  0.8508 -0.5723
 8008SOL    HW224924   4.532   6.375   0.755 -0.0701  0.3972 -0.0633
 8009SOL     OW24925   0.355   6.723   2.160 -0.3465 -0.2681 -0.4920
 8009SOL    HW124926   0.406   6.674   2.232  0.3840 -1.3614 -1.7134
 8009SOL    HW224927   0.259   6.728   2.185  0.0577  0.3472  1.0738
 8010SOL     OW24928   2.687   3.501   6.244 -0.1048  0.4874  0.0328
 8010SOL    HW124929   2.698   3.401   6.238  3.0459  0.7372  0.0061
 8010SOL    HW224930   2.605   3.528   6.194 -0.2620 -1.9551 -1.2094
 8011SOL     OW24931   2.136   3.733   2.315 -0.7184  0.1224 -0.4632
 8011SOL    HW124932   2.166   3.751   2.221 -2.0973 -0.3362 -1.0196
 8011SOL    HW224933   2.151   3.814   2.371  1.2062  0.0287 -0.7670
 8012SOL     OW24934   3.186   6.705   2.708 -0.6091 -0.5133  0.3477
 8012SOL    HW124935   3.143   6.796   2.708 -2.7358 -1.4002 -2.0366
 8012SOL    HW224936   3.278   6.712   2.671 -2.0007  0.3242 -3.3871
 8013SOL     OW24937   0.430   4.594   4.163 -0.6532  0.7926 -0.0655
 8013SOL    HW124938   0.487   4.635   4.233  0.5004  1.0199 -1.1025
 8013SOL    HW224939   0.480   4.519   4.119 -1.0535  1.1386 -1.1394
 8014SOL     OW24940   2.386   6.942   6.666 -0.7761  0.3831  0.5150
 8014SOL    HW124941   2.293   6.977   6.660 -1.3786 -1.3977 -2.3269
 8014SOL    HW224942   2.448   7.004   6.618 -1.2480 -0.4485 -1.2682
 8015SOL     OW24943   0.785   1.832   6.980  0.5237 -0.2041  0.1383
 8015SOL    HW124944   0.863   1.868   7.031  0.7563 -0.9273  0.2999
 8015SOL    HW224945   0.755   1.900   6.912  0.9502  0.2869  0.4368
 8016SOL     OW24946   4.376   6.127   1.489  0.0992  0.0169  0.5320
 8016SOL    HW124947   4.401   6.151   1.583 -0.9731 -2.1752  1.4408
 8016SOL    HW224948   4.288   6.168   1.467  0.4044  0.6280  0.4195
 8017SOL     OW24949   6.341   3.663   4.648  0.4093  0.5494 -0.0028
 8017SOL    HW124950   6.286   3.733   4.692 -0.5839 -0.6630  0.7707
 8017SOL    HW224951   6.437   3.688   4.653  0.0889  1.7537  0.4288
 8018SOL     OW24952   6.126   2.202   0.806  0.1957  0.1468  0.0758
 8018SOL    HW124953   6.058   2.132   0.827  0.9815 -0.2015  1.6237
 8018SOL    HW224954   6.173   2.178   0.720 -0.4124 -0.5457 -0.0702
 8019SOL     OW24955   3.308   6.107   3.317  0.4329 -0.0586 -0.1687
 8019SOL    HW124956   3.215   6.139   3.336  0.2002 -1.5982  1.4507
 8019SOL    HW224957   3.368   6.130   3.393  0.6657 -1.7605  0.2073
 8020SOL     OW24958   5.214   6.175   5.281 -0.1289 -0.5941 -0.5492
 8020SOL    HW124959   5.150   6.131   5.343  0.6047 -0.6536  0.1791
 8020SOL    HW224960   5.250   6.259   5.323  1.5040 -1.4131 -0.2378
 8021SOL     OW24961   1.523   1.951   1.414 -0.5082  0.4559  0.6261
 8021SOL    HW124962   1.605   1.990   1.370 -0.6612 -0.8141 -0.8731
 8021SOL    HW224963   1.551   1.899   1.494 -0.0937  1.8382  1.4171
 8022SOL     OW24964   2.783   4.992   3.444  0.1909 -0.0616  0.0539
 8022SOL    HW124965   2.882   4.999   3.431  0.1285 -0.7611 -0.9145
 8022SOL    HW224966   2.755   4.896   3.440 -0.3253 -0.0307  2.0398
 8023SOL     OW24967   1.755   6.297   3.058  0.3067 -0.0997 -0.0009
 8023SOL    HW124968   1.718   6.262   3.143  0.5895 -0.3572  0.0166
 8023SOL    HW224969   1.692   6.277   2.983 -0.9058  1.8602  0.4292
 8024SOL     OW24970   6.993   5.235   3.641  0.1091  0.3446  0.6664
 8024SOL    HW124971   7.035   5.215   3.730 -0.1970  1.8357  1.1619
 8024SOL    HW224972   7.005   5.156   3.581  2.2987  0.1291  1.2820
 8025SOL     OW24973   3.490   5.288   6.686  0.2200 -0.2051 -0.1155
 8025SOL    HW124974   3.402   5.288   6.733  1.0164 -3.3297  1.6974
 8025SOL    HW224975   3.477   5.265   6.590 -1.1274  2.7400 -0.7479
 8026SOL     OW24976   0.867   2.187   6.636  0.2339  0.1059  0.1769
 8026SOL    HW124977   0.872   2.216   6.540  1.8385 -0.6175  0.0068
 8026SOL    HW224978   0.911   2.098   6.646  1.0756  0.6625  1.7862
 8027SOL     OW24979   4.131   3.929   6.260  0.1100  0.3567  0.2216
 8027SOL    HW124980   4.201   3.996   6.288  0.6802 -0.4209  0.7127
 8027SOL    HW224981   4.049   3.977   6.230  0.6006  1.2823  0.3194
 8028SOL     OW24982   6.177   4.380   5.679 -0.1093 -0.5917  0.2276
 8028SOL    HW124983   6.097   4.386   5.621  0.4562 -0.2142 -0.5205
 8028SOL    HW224984   6.230   4.464   5.673  0.8354 -1.1830 -0.0230
 8029SOL     OW24985   4.584   4.259   0.544  0.5727 -0.2241  0.1052
 8029SOL    HW124986   4.620   4.237   0.453  0.2612  1.0863 -0.3490
 8029SOL    HW224987   4.579   4.175   0.598 -0.7314 -1.3236 -1.6080
 8030SOL     OW24988   5.915   2.819   6.319  0.4123 -0.7413 -0.4692
 8030SOL    HW124989   5.998   2.775   6.284  0.0205 -0.3869 -1.9501
 8030SOL    HW224990   5.853   2.749   6.355  1.1739 -1.0466  0.2751
 8031SOL     OW24991   2.490   4.408   0.879  0.2126 -0.2631 -0.1738
 8031SOL    HW124992   2.556   4.481   0.863  2.0587 -1.5994  0.9719
 8031SOL    HW224993   2.409   4.445   0.924  1.6498  0.8798  1.5804
 8032SOL     OW24994   4.630   4.685   6.690  0.3413  0.0985  0.2853
 8032SOL    HW124995   4.641   4.780   6.720 -1.7557  0.3388  0.4808
 8032SOL    HW224996   4.655   4.677   6.594 -4.7998  2.2921 -1.5699
 8033SOL     OW24997   4.146   2.704   1.181 -0.1981  0.0904 -0.2891
 8033SOL    HW124998   4.186   2.779   1.128  2.0144 -0.3997  0.6038
 8033SOL    HW224999   4.150   2.727   1.279  2.1751 -1.8634  0.1532
 8034SOL     OW25000   6.586   2.061   5.118 -0.5001 -0.1691 -0.0744
 8034SOL    HW125001   6.592   1.981   5.058  0.9066 -0.2767  0.1687
 8034SOL    HW225002   6.544   2.137   5.069  1.0303 -0.1103 -1.3952
 8035SOL     OW25003   0.306   6.043   6.608 -0.8164 -0.3361  0.7071
 8035SOL    HW125004   0.270   6.104   6.677  0.7457 -1.0045  2.1885
 8035SOL    HW225005   0.271   5.951   6.623  0.7675 -0.8238  1.6743
 8036SOL     OW25006   2.782   2.202   1.832  1.0240  0.1245  0.2571
 8036SOL    HW125007   2.839   2.258   1.891  2.9769 -1.1215 -0.3380
 8036SOL    HW225008   2.776   2.109   1.870  2.5505 -0.7768 -1.5583
 8037SOL     OW25009   0.178   1.382   0.342  0.1790 -0.3220  0.1634
 8037SOL    HW125010   0.227   1.453   0.291 -2.0012  1.0167 -0.2362
 8037SOL    HW225011   0.191   1.397   0.440 -1.0108  1.2980  0.1216
 8038SOL     OW25012   6.372   1.077   6.360  0.2288 -0.6461 -0.4963
 8038SOL    HW125013   6.341   1.103   6.268 -0.4347  0.3483  0.0005
 8038SOL    HW225014   6.358   0.979   6.373 -0.8082 -0.5785 -1.0277
 8039SOL     OW25015   1.782   5.740   5.019 -0.4488 -0.0015 -0.1014
 8039SOL    HW125016   1.762   5.701   4.928  0.8601  1.3164 -0.9997
 8039SOL    HW225017   1.749   5.834   5.022 -0.1594  0.0766  0.6890
 8040SOL     OW25018   5.757   5.116   1.603 -0.7570  0.2455  0.1603
 8040SOL    HW125019   5.808   5.030   1.597 -1.2732 -0.0983  0.5638
 8040SOL    HW225020   5.709   5.120   1.691 -1.7370  0.3726 -0.3581
 8041SOL     OW25021   3.930   3.177   6.862 -0.0423 -0.1027  0.4893
 8041SOL    HW125022   4.002   3.228   6.815  0.0860 -0.0111  0.7828
 8041SOL    HW225023   3.865   3.141   6.794  0.2945 -0.2133  0.2211
 8042SOL     OW25024   2.144   3.587   3.406  0.1047  0.4761 -0.1011
 8042SOL    HW125025   2.060   3.558   3.454 -0.1241 -0.2871 -0.9414
 8042SOL    HW225026   2.123   3.601   3.309  1.3356 -1.5159 -0.6932
 8043SOL     OW25027   2.897   6.275   0.553 -0.2668  0.0207 -0.2762
 8043SOL    HW125028   2.810   6.231   0.574  0.0685  0.1797  1.6118
 8043SOL    HW225029   2.965   6.205   0.530 -0.5734 -0.1907 -0.5448
 8044SOL     OW25030   3.016   4.041   1.848  0.2678 -0.1708 -0.0445
 8044SOL    HW125031   3.007   4.135   1.816  0.7435 -0.2099 -0.2946
 8044SOL    HW225032   3.024   4.040   1.948 -3.7301 -0.1984  0.4226
 8045SOL     OW25033   6.968   4.261   3.169  0.1519  0.0671 -0.8363
 8045SOL    HW125034   7.024   4.215   3.239 -0.3003 -0.7300 -0.9902
 8045SOL    HW225035   6.950   4.197   3.094 -1.2976  0.1918 -0.6050
 8046SOL     OW25036   6.897   3.903   6.986  0.6612 -0.0525  0.4787
 8046SOL    HW125037   6.832   3.974   7.011  0.7966  0.8557 -1.6058
 8046SOL    HW225038   6.985   3.922   7.029  0.1436 -0.1465  1.6194
 8047SOL     OW25039   3.823   6.340   2.959 -0.8265 -0.5039  0.0667
 8047SOL    HW125040   3.909   6.392   2.957 -2.2421  1.9991  0.7562
 8047SOL    HW225041   3.781   6.349   3.049 -2.2159 -1.0355 -0.5070
 8048SOL     OW25042   0.156   6.957   5.071 -0.3958  0.3859 -0.5059
 8048SOL    HW125043   0.166   6.895   4.993 -0.9028 -1.4530  0.8104
 8048SOL    HW225044   0.209   6.922   5.148  0.3305  2.3142 -0.0756
 8049SOL     OW25045   1.624   4.941   6.331 -0.1756  0.6383 -0.1370
 8049SOL    HW125046   1.532   4.916   6.302 -0.0652  1.6468 -1.4974
 8049SOL    HW225047   1.628   4.948   6.431 -1.5334  0.4552 -0.0579
 8050SOL     OW25048   1.519   3.237   1.702  0.1442  0.1655  1.2698
 8050SOL    HW125049   1.499   3.220   1.799  0.7821 -1.4302  1.1512
 8050SOL    HW225050   1.433   3.242   1.651 -0.1664 -1.8430  1.5081
 8051SOL     OW25051   4.672   2.155   4.445 -0.1504  0.6635 -0.5017
 8051SOL    HW125052   4.614   2.185   4.370 -1.2002 -0.5569 -0.1981
 8051SOL    HW225053   4.620   2.154   4.530  0.9489  1.7589  0.2253
 8052SOL     OW25054   3.069   0.401   2.723  0.0628  0.0220  0.6866
 8052SOL    HW125055   3.150   0.392   2.665 -0.8517  0.7470 -0.7380
 8052SOL    HW225056   3.085   0.473   2.790  0.9339 -0.4810  1.0520
 8053SOL     OW25057   3.532   3.856   2.391  0.8580  0.4093  0.2635
 8053SOL    HW125058   3.624   3.824   2.413  0.8455  0.2230  0.0484
 8053SOL    HW225059   3.474   3.777   2.370 -0.0919  0.2284  3.0784
 8054SOL     OW25060   4.666   5.228   4.512  0.0478  0.0170  0.6073
 8054SOL    HW125061   4.742   5.262   4.568  0.5024  1.1871 -0.6531
 8054SOL    HW225062   4.702   5.170   4.439 -0.2943  0.2540  0.2410
 8055SOL     OW25063   6.579   0.258   4.548  0.2078 -0.2750  0.1962
 8055SOL    HW125064   6.608   0.182   4.489  0.9935 -0.2627  0.5539
 8055SOL    HW225065   6.630   0.254   4.634 -1.7298 -0.9720  1.3790
 8056SOL     OW25066   4.206   1.936   3.662 -0.0127 -0.0354 -0.3441
 8056SOL    HW125067   4.305   1.939   3.677  0.0839  1.3392 -1.0157
 8056SOL    HW225068   4.185   1.864   3.597  1.2713  2.7719 -4.3085
 8057SOL     OW25069   2.320   5.556   5.064  0.1876  0.2173  0.1428
 8057SOL    HW125070   2.265   5.473   5.067  0.1868  0.2256  2.3130
 8057SOL    HW225071   2.416   5.533   5.080  0.0800  0.6634  1.6040
 8058SOL     OW25072   1.466   6.601   3.118  0.6532 -0.5849 -0.5249
 8058SOL    HW125073   1.472   6.547   3.034  0.5331 -0.1977 -0.7831
 8058SOL    HW225074   1.426   6.690   3.098  0.8353 -0.4038 -0.0948
 8059SOL     OW25075   3.167   2.148   2.715  0.4147  0.0912 -0.1299
 8059SOL    HW125076   3.250   2.203   2.712  0.5456 -0.1088 -0.2119
 8059SOL    HW225077   3.122   2.160   2.803  0.5494  0.1729 -0.0718
 8060SOL     OW25078   1.122   1.733   5.084 -0.2577  0.3620  0.3047
 8060SOL    HW125079   1.185   1.691   5.018  0.5077  1.4159  0.3217
 8060SOL    HW225080   1.028   1.715   5.057  0.0369  0.9864 -1.2459
 8061SOL     OW25081   0.352   6.463   1.260 -0.0214 -0.8415 -0.4011
 8061SOL    HW125082   0.434   6.466   1.316 -1.2632 -1.6930  1.5887
 8061SOL    HW225083   0.315   6.369   1.259 -2.1511 -0.0858  0.6342
 8062SOL     OW25084   1.602   3.891   1.811 -0.0821 -0.1435 -0.2862
 8062SOL    HW125085   1.503   3.892   1.823 -0.1985  0.2643 -1.2637
 8062SOL    HW225086   1.625   3.853   1.721  0.6789 -0.8828  0.2037
 8063SOL     OW25087   3.111   1.832   6.555 -0.1997  0.1507  0.1340
 8063SOL    HW125088   3.193   1.778   6.576 -0.3293  1.1754  3.9612
 8063SOL    HW225089   3.138   1.927   6.538 -0.4391 -0.0055 -1.2459
 8064SOL     OW25090   5.905   3.019   6.110  0.4899  0.0138 -0.3581
 8064SOL    HW125091   5.917   2.967   6.195 -0.4581  0.2475 -0.0699
 8064SOL    HW225092   5.994   3.050   6.077  0.8183  0.5227  0.9397
 8065SOL     OW25093   4.963   1.331   0.926  0.6240  0.5198 -0.2805
 8065SOL    HW125094   4.883   1.306   0.980 -0.1861  0.0910 -1.6249
 8065SOL    HW225095   5.028   1.255   0.926  1.0381  0.8511  0.7767
 8066SOL     OW25096   1.031   0.680   2.604 -0.2282 -0.3641 -0.2444
 8066SOL    HW125097   1.028   0.582   2.587 -0.9480 -0.2739 -0.6806
 8066SOL    HW225098   1.033   0.729   2.517  1.1881 -0.0011 -0.0371
 8067SOL     OW25099   5.145   1.776   6.599  0.5496  0.0610 -0.4048
 8067SOL    HW125100   5.213   1.717   6.555  0.1565 -0.5870 -0.1646
 8067SOL    HW225101   5.114   1.734   6.684 -0.2491  0.2658 -0.5786
 8068SOL     OW25102   1.076   2.728   4.622  0.0140  0.0249 -0.4185
 8068SOL    HW125103   1.082   2.797   4.550 -0.5329  0.1832 -0.3240
 8068SOL    HW225104   0.982   2.692   4.625 -0.1282  0.4356  0.5815
 8069SOL     OW25105   0.729   6.831   0.638  0.5713 -0.1342  0.5235
 8069SOL    HW125106   0.695   6.743   0.671  0.3839  0.0878  0.9215
 8069SOL    HW225107   0.725   6.832   0.538  0.3645 -0.4940  0.5265
 8070SOL     OW25108   3.385   5.365   1.466 -0.3508 -0.0383 -0.2869
 8070SOL    HW125109   3.419   5.347   1.374 -1.1375  0.9660 -0.7916
 8070SOL    HW225110   3.408   5.289   1.526  0.4368 -0.5660 -1.2399
 8071SOL     OW25111   4.651   5.049   1.000  0.3226 -0.2728  0.0079
 8071SOL    HW125112   4.656   4.976   0.932  1.3673  0.0680 -0.3104
 8071SOL    HW225113   4.626   5.135   0.956 -0.7323 -0.3893  0.3532
 8072SOL     OW25114   6.218   1.131   1.289 -0.3007 -0.5708 -0.1423
 8072SOL    HW125115   6.150   1.155   1.219 -3.0408  2.0457  3.0480
 8072SOL    HW225116   6.201   1.037   1.320  0.0110 -1.2403 -1.9062
 8073SOL     OW25117   5.427   0.531   1.020 -0.4871  0.4607  0.4082
 8073SOL    HW125118   5.375   0.609   1.054  0.8821  2.4404 -1.7591
 8073SOL    HW225119   5.495   0.562   0.954 -0.7186 -2.7037 -1.5489
 8074SOL     OW25120   3.473   4.637   6.643 -0.3362  0.8498  0.1444
 8074SOL    HW125121   3.518   4.613   6.558 -3.0073 -0.1072 -1.1102
 8074SOL    HW225122   3.537   4.685   6.703  2.3415 -0.6861 -1.3283
 8075SOL     OW25123   5.989   0.254   2.368  0.3317  0.0650 -0.1018
 8075SOL    HW125124   6.073   0.237   2.317  0.2584 -1.7056  0.3067
 8075SOL    HW225125   5.912   0.254   2.305  0.3612 -1.0226 -0.1555
 8076SOL     OW25126   4.196   1.522   6.198  0.0765 -0.2111  0.4067
 8076SOL    HW125127   4.122   1.542   6.263 -0.9672 -1.1945 -0.4279
 8076SOL    HW225128   4.230   1.608   6.159 -2.1768  0.2217 -0.8230
 8077SOL     OW25129   0.226   6.565   5.151 -0.1727 -0.5896 -0.0545
 8077SOL    HW125130   0.178   6.594   5.068  2.5418  1.2997 -1.1315
 8077SOL    HW225131   0.299   6.501   5.126  0.0412 -0.7799  1.0382
 8078SOL     OW25132   5.264   4.589   5.835  0.3351 -0.0734 -0.3261
 8078SOL    HW125133   5.298   4.681   5.816 -0.6096  0.2477 -0.5347
 8078SOL    HW225134   5.164   4.589   5.833  0.3185 -1.2897 -1.2278
 8079SOL     OW25135   4.623   1.071   2.960  0.3182  0.1440  0.1411
 8079SOL    HW125136   4.718   1.041   2.952  0.7012  0.8031  1.6941
 8079SOL    HW225137   4.619   1.170   2.954  0.3970  0.5817  4.1428
 8080SOL     OW25138   2.220   4.991   6.670  0.0023 -0.7220 -0.0844
 8080SOL    HW125139   2.177   4.926   6.607 -0.1012 -1.8168  1.0920
 8080SOL    HW225140   2.312   4.960   6.692  1.4078  1.4178 -2.3040
 8081SOL     OW25141   4.831   1.555   3.691  0.4864  0.1191  0.1112
 8081SOL    HW125142   4.754   1.593   3.743  0.3014  0.7145 -0.5836
 8081SOL    HW225143   4.801   1.473   3.644 -0.3871  1.5157 -1.9114
 8082SOL     OW25144   0.560   2.225   2.647 -0.3147  0.1102 -0.5271
 8082SOL    HW125145   0.542   2.160   2.721  0.9534 -1.8728 -1.8711
 8082SOL    HW225146   0.621   2.297   2.681 -0.7386 -0.0582  0.6608
 8083SOL     OW25147   4.978   3.229   4.859 -0.0447  0.1876  0.2123
 8083SOL    HW125148   4.931   3.261   4.941  2.2012  1.8405  0.9431
 8083SOL    HW225149   4.947   3.283   4.780 -1.1483 -0.4311  0.2021
 8084SOL     OW25150   6.573   1.349   2.092  0.5177  0.2139  0.1901
 8084SOL    HW125151   6.641   1.322   2.024 -0.7124  0.4677 -1.2159
 8084SOL    HW225152   6.511   1.416   2.051 -1.2310 -0.8197  1.0134
 8085SOL     OW25153   6.824   2.577   6.268 -0.6431 -0.0556  0.3104
 8085SOL    HW125154   6.766   2.574   6.186 -1.0512 -1.4043  0.6233
 8085SOL    HW225155   6.874   2.490   6.276  0.7430  0.7317  0.5534
 8086SOL     OW25156   3.322   0.122   4.092  0.3068  0.0011 -0.3872
 8086SOL    HW125157   3.418   0.133   4.119  0.2587  0.3922 -0.3706
 8086SOL    HW225158   3.265   0.111   4.173  0.3662 -0.4953 -0.4078
 8087SOL     OW25159   2.642   2.356   2.137  0.2124 -0.2444  0.3894
 8087SOL    HW125160   2.674   2.372   2.230  1.6921 -0.6082 -0.0320
 8087SOL    HW225161   2.719   2.361   2.074 -0.4951 -1.6247 -0.6266
 8088SOL     OW25162   4.481   0.763   1.995 -0.4514 -0.4745 -0.5555
 8088SOL    HW125163   4.516   0.689   2.051 -1.2356 -1.5168 -1.3807
 8088SOL    HW225164   4.433   0.829   2.052  2.2452  0.6923  0.5123
 8089SOL     OW25165   6.677   2.854   1.573  0.4799  0.1803 -0.1993
 8089SOL    HW125166   6.595   2.846   1.516 -2.3316  0.7202  3.4043
 8089SOL    HW225167   6.694   2.768   1.620  0.5899  0.6981  0.7455
 8090SOL     OW25168   4.492   1.650   5.588  0.8950 -0.2968 -0.5648
 8090SOL    HW125169   4.430   1.615   5.658 -0.1905  3.4404  0.5523
 8090SOL    HW225170   4.445   1.653   5.500 -0.4010  1.9119  0.1448
 8091SOL     OW25171   1.895   5.343   6.169 -0.1702 -0.7388  0.2679
 8091SOL    HW125172   1.962   5.418   6.164  0.2915 -1.2323 -1.3607
 8091SOL    HW225173   1.941   5.256   6.151 -0.8086 -1.3865  1.6320
 8092SOL     OW25174   0.027   2.831   3.183 -0.1513 -0.1014  0.1191
 8092SOL    HW125175   0.016   2.926   3.211  1.9231  0.7023 -1.5542
 8092SOL    HW225176  -0.051   2.803   3.127 -1.2481  0.2478  1.4043
 8093SOL     OW25177   5.683   6.627   1.542  0.6739  0.4447  0.1659
 8093SOL    HW125178   5.721   6.569   1.469  1.3505  1.3081 -0.1890
 8093SOL    HW225179   5.697   6.582   1.630 -0.2341 -0.6522 -0.2273
 8094SOL     OW25180   1.141   4.774   4.226 -0.3618 -0.3587 -0.0527
 8094SOL    HW125181   1.065   4.772   4.291 -0.6128 -0.8202 -0.3572
 8094SOL    HW225182   1.178   4.681   4.216  3.2123  0.3702  3.5637
 8095SOL     OW25183   4.575   4.707   2.119  0.0690 -0.1831 -0.0849
 8095SOL    HW125184   4.476   4.694   2.122  0.1741 -0.9759  0.1479
 8095SOL    HW225185   4.619   4.622   2.089  0.7481 -0.1643  0.8298
 8096SOL     OW25186   2.929   5.821   3.060  0.2043  0.5183  0.1201
 8096SOL    HW125187   2.924   5.722   3.075  1.1770  0.5146  0.4912
 8096SOL    HW225188   3.019   5.854   3.088 -0.1938  1.5499  0.2098
 8097SOL     OW25189   4.883   6.614   2.828 -0.0288 -0.5097  0.6957
 8097SOL    HW125190   4.818   6.555   2.876 -1.5143  2.1763  2.2502
 8097SOL    HW225191   4.941   6.660   2.895  1.0699 -0.2008 -0.4437
 8098SOL     OW25192   3.194   6.967   3.014 -0.3323 -0.5911  0.2535
 8098SOL    HW125193   3.126   6.912   2.965 -0.5251 -0.4007  0.3058
 8098SOL    HW225194   3.279   6.970   2.962 -1.1895  1.3635 -1.1305
 8099SOL     OW25195   6.565   0.674   6.180 -0.1318  0.1559  0.8376
 8099SOL    HW125196   6.500   0.599   6.196  1.0852 -1.2567 -0.5187
 8099SOL    HW225197   6.604   0.703   6.267 -1.8516  0.3889  1.5696
 8100SOL     OW25198   1.915   0.194   0.198  0.6374 -0.1544 -0.0719
 8100SOL    HW125199   1.845   0.144   0.147 -0.7220  2.1698 -0.6216
 8100SOL    HW225200   1.888   0.200   0.294  2.6966 -3.6310  0.9258
 8101SOL     OW25201   1.231   4.652   2.626 -0.2863 -0.4789  0.5417
 8101SOL    HW125202   1.318   4.693   2.598 -0.5479 -0.8777 -0.9296
 8101SOL    HW225203   1.233   4.553   2.609 -1.6784 -0.2373 -1.3370
 8102SOL     OW25204   5.833   5.083   4.758 -0.2970 -0.3455 -0.1498
 8102SOL    HW125205   5.915   5.071   4.703 -0.1621 -0.5076  0.0882
 8102SOL    HW225206   5.754   5.045   4.709 -0.0809 -1.0429  0.0312
 8103SOL     OW25207   2.071   2.717   3.462 -0.8753 -0.2723  0.5223
 8103SOL    HW125208   2.081   2.692   3.365  0.9904  1.6928  0.1226
 8103SOL    HW225209   1.997   2.783   3.471 -1.1980 -0.6271  0.4652
 8104SOL     OW25210   2.311   5.280   4.927  0.3184 -0.6825 -0.0616
 8104SOL    HW125211   2.297   5.183   4.947 -0.2493 -0.3791  1.1160
 8104SOL    HW225212   2.226   5.320   4.891 -0.3091 -0.0539  1.9796
 8105SOL     OW25213   6.094   1.908   3.161 -0.6929 -0.4749  0.7584
 8105SOL    HW125214   6.034   1.928   3.238 -0.7399  1.0649  0.3418
 8105SOL    HW225215   6.179   1.961   3.170 -0.6031 -0.4644 -0.1303
 8106SOL     OW25216   0.560   2.581   4.851  0.1348  0.0104  0.4038
 8106SOL    HW125217   0.626   2.651   4.878 -1.3540  1.5287  0.2859
 8106SOL    HW225218   0.567   2.564   4.753 -0.9420  1.6454  0.0060
 8107SOL     OW25219   2.029   6.474   6.515  0.1977 -0.1598 -0.2728
 8107SOL    HW125220   1.947   6.532   6.520  0.0608 -0.4083  0.7480
 8107SOL    HW225221   2.008   6.384   6.552  0.7754 -0.4130 -0.5564
 8108SOL     OW25222   1.094   4.065   3.902 -0.3369 -0.0603 -0.1631
 8108SOL    HW125223   1.101   4.144   3.841 -1.2135  1.8883  2.0961
 8108SOL    HW225224   1.185   4.034   3.927  0.0290 -0.5792 -2.0054
 8109SOL     OW25225   1.429   5.891   6.169 -0.0873  0.7773 -0.3160
 8109SOL    HW125226   1.399   5.927   6.081 -0.3165  0.0739 -0.5359
 8109SOL    HW225227   1.517   5.930   6.194 -0.0691  1.0539 -0.8111
 8110SOL     OW25228   1.457   3.433   1.369  0.1042  0.2823 -0.1895
 8110SOL    HW125229   1.405   3.456   1.451 -0.3696 -2.3343  0.3348
 8110SOL    HW225230   1.418   3.480   1.290 -2.8973 -1.2547  0.2399
 8111SOL     OW25231   2.816   5.762   5.047 -0.1267 -0.2479 -0.2836
 8111SOL    HW125232   2.875   5.685   5.069  2.0838  2.2722  3.9245
 8111SOL    HW225233   2.738   5.764   5.109  0.0294  1.0152 -0.0857
 8112SOL     OW25234   2.616   0.945   2.875 -0.0886 -0.0478  0.3299
 8112SOL    HW125235   2.584   1.033   2.838  2.3313 -0.5919 -3.7554
 8112SOL    HW225236   2.539   0.881   2.878 -1.0560  0.9583 -1.0732
 8113SOL     OW25237   3.717   3.088   6.249 -0.2390  0.1020 -0.0199
 8113SOL    HW125238   3.662   3.018   6.202 -0.8740  0.6381 -0.0920
 8113SOL    HW225239   3.720   3.068   6.347  0.9568 -0.9344 -0.2488
 8114SOL     OW25240   2.336   3.893   1.823 -0.3166  0.1369 -0.0136
 8114SOL    HW125241   2.288   3.839   1.892 -0.1718 -0.4221 -0.3427
 8114SOL    HW225242   2.331   3.990   1.847 -0.5609 -0.0224  0.5974
 8115SOL     OW25243   2.880   1.616   6.895  0.1689 -0.0408 -0.2105
 8115SOL    HW125244   2.972   1.656   6.892 -0.3592  1.1940 -0.6058
 8115SOL    HW225245   2.839   1.619   6.804 -0.3804 -0.3235  0.0216
 8116SOL     OW25246   5.769   0.581   6.295 -0.1897 -0.1704 -0.1569
 8116SOL    HW125247   5.809   0.664   6.256 -0.6647  1.2983  2.3020
 8116SOL    HW225248   5.669   0.583   6.283 -0.1945 -0.4365 -0.1717
 8117SOL     OW25249   4.096   1.356   4.852 -0.9882  0.5092 -0.1168
 8117SOL    HW125250   4.176   1.305   4.885 -0.9346 -0.1993 -1.2961
 8117SOL    HW225251   4.034   1.293   4.805 -0.9575  1.5199 -1.5556
 8118SOL     OW25252   1.557   4.410   3.862  0.7080 -0.0111 -0.7685
 8118SOL    HW125253   1.559   4.365   3.772  0.2833  0.0639 -0.8174
 8118SOL    HW225254   1.650   4.413   3.899  0.9087  0.0689 -1.2597
 8119SOL     OW25255   1.194   5.004   1.411 -0.5788 -0.3500  0.1698
 8119SOL    HW125256   1.253   4.969   1.338 -1.2702 -0.2385 -0.4647
 8119SOL    HW225257   1.212   4.954   1.496 -1.3864 -2.1566 -0.6444
 8120SOL     OW25258   3.732   4.250   1.759  0.1226 -0.2547 -0.1753
 8120SOL    HW125259   3.647   4.212   1.795 -0.3829 -1.1934 -2.1576
 8120SOL    HW225260   3.810   4.211   1.807 -0.5235  1.0877  2.0922
 8121SOL     OW25261   0.905   5.347   1.264  0.0390 -0.5455 -0.4742
 8121SOL    HW125262   0.851   5.428   1.287 -2.0732 -2.1619  0.6270
 8121SOL    HW225263   0.862   5.299   1.188  2.8480  0.7690 -3.0472
 8122SOL     OW25264   6.176   4.798   1.824  0.4512  0.0941 -0.3576
 8122SOL    HW125265   6.259   4.844   1.795  0.8298 -0.2498  0.1702
 8122SOL    HW225266   6.188   4.761   1.916  0.2242 -1.1833 -0.8101
 8123SOL     OW25267   0.819   3.609   1.906 -0.2321 -0.0038 -0.1882
 8123SOL    HW125268   0.756   3.574   1.836  0.0723 -1.1868  0.1077
 8123SOL    HW225269   0.792   3.573   1.996  0.6720 -0.2771 -0.0131
 8124SOL     OW25270   1.484   4.086   3.477  0.9003 -0.4047  0.2439
 8124SOL    HW125271   1.415   4.024   3.440 -0.3414  1.5686 -0.9374
 8124SOL    HW225272   1.552   4.106   3.407  2.3483 -1.8158  1.1954
 8125SOL     OW25273   4.481   5.808   1.755 -0.0010 -0.1334  0.0174
 8125SOL    HW125274   4.402   5.793   1.696  0.0440 -0.2559 -0.0114
 8125SOL    HW225275   4.507   5.905   1.752  1.2401 -0.4697 -1.7479
 8126SOL     OW25276   5.822   5.532   1.711  1.0514 -0.1100  0.0543
 8126SOL    HW125277   5.763   5.571   1.640  0.4518  0.8771  1.0735
 8126SOL    HW225278   5.887   5.601   1.743  1.0110 -0.4065  0.7967
 8127SOL     OW25279   3.306   5.002   0.201 -0.0395 -0.3241 -0.0631
 8127SOL    HW125280   3.403   4.988   0.182  0.2849  0.0463  1.2463
 8127SOL    HW225281   3.294   5.082   0.260 -1.2755  0.5908 -1.4639
 8128SOL     OW25282   2.364   2.428   4.670 -0.3118  0.3320  0.5864
 8128SOL    HW125283   2.403   2.473   4.750  0.4919  0.4777  0.1296
 8128SOL    HW225284   2.266   2.447   4.665 -0.5830 -0.4864  2.0709
 8129SOL     OW25285   4.684   0.542   6.739  0.1196  0.3315  0.2465
 8129SOL    HW125286   4.773   0.523   6.697  0.3499  3.0807 -0.6852
 8129SOL    HW225287   4.638   0.455   6.758  0.7949 -1.1777 -3.9251
 8130SOL     OW25288   1.513   0.617   4.967 -0.1204 -0.3195  0.2854
 8130SOL    HW125289   1.579   0.556   4.922 -0.4271 -0.6803  0.3152
 8130SOL    HW225290   1.442   0.643   4.901 -0.2855 -0.4322  0.4166
 8131SOL     OW25291   6.153   2.404   1.870  0.0266 -0.1858 -0.0450
 8131SOL    HW125292   6.077   2.451   1.916 -0.9900 -1.9084  0.1541
 8131SOL    HW225293   6.150   2.307   1.893  1.0393 -0.6643 -1.7564
 8132SOL     OW25294   5.740   3.578   1.429  0.3534  0.5641 -0.3797
 8132SOL    HW125295   5.653   3.531   1.444  0.6446  0.3174  0.6120
 8132SOL    HW225296   5.790   3.533   1.355 -0.3755  0.7404 -0.9932
 8133SOL     OW25297   0.948   4.198   2.910 -0.4820 -0.3207  0.3437
 8133SOL    HW125298   0.926   4.101   2.925  1.5310 -1.0798 -1.2655
 8133SOL    HW225299   0.892   4.233   2.835 -0.7704 -0.3872  0.5225
 8134SOL     OW25300   1.558   0.238   3.372  0.0803  0.5675 -0.1083
 8134SOL    HW125301   1.645   0.265   3.413  2.2131 -2.1225 -2.4844
 8134SOL    HW225302   1.545   0.288   3.286  0.3960 -0.5773 -0.8382
 8135SOL     OW25303   3.842   1.309   2.045  1.0757 -0.0363  0.0101
 8135SOL    HW125304   3.881   1.217   2.036  1.4494  0.0345  0.7776
 8135SOL    HW225305   3.880   1.353   2.126 -2.9999 -1.2146  2.8799
 8136SOL     OW25306   4.450   6.848   6.743 -0.3416  0.0320 -0.0569
 8136SOL    HW125307   4.522   6.862   6.675 -1.5389  0.6148 -1.2347
 8136SOL    HW225308   4.480   6.778   6.809  1.2480  0.1927 -0.5674
 8137SOL     OW25309   1.950   4.550   5.348 -0.3615 -0.1795 -0.1773
 8137SOL    HW125310   1.859   4.507   5.352 -0.6384  0.2963 -1.0807
 8137SOL    HW225311   2.017   4.491   5.393 -0.5964 -1.9474 -2.0048
 8138SOL     OW25312   3.840   2.523   5.616 -0.3548 -0.0804  0.5337
 8138SOL    HW125313   3.851   2.563   5.525 -0.4440  0.5142  0.7787
 8138SOL    HW225314   3.910   2.560   5.677  0.7127 -1.6677  0.3252
 8139SOL     OW25315   2.058   2.847   5.779  0.3593  0.0827  0.0224
 8139SOL    HW125316   2.062   2.915   5.705  2.4261  0.1365  0.1235
 8139SOL    HW225317   1.963   2.833   5.806 -0.1971  2.4523 -0.4489
 8140SOL     OW25318   4.138   0.956   2.390 -0.5926  0.0454 -0.4828
 8140SOL    HW125319   4.178   0.865   2.388 -0.3685  0.0992  0.7552
 8140SOL    HW225320   4.134   0.989   2.484  1.6113  2.3175 -1.0677
 8141SOL     OW25321   6.153   0.847   5.153 -0.0338  0.5774 -0.1541
 8141SOL    HW125322   6.150   0.797   5.239 -0.6244  0.4164 -0.2643
 8141SOL    HW225323   6.208   0.930   5.164 -2.4659  2.1241  1.2204
 8142SOL     OW25324   1.736   5.085   2.478  0.2469 -0.0001 -0.3894
 8142SOL    HW125325   1.658   5.052   2.425  0.2874 -0.5125 -0.1415
 8142SOL    HW225326   1.756   5.020   2.552  0.6085  0.3671 -0.1585
 8143SOL     OW25327   5.254   4.988   1.805 -0.4064  0.2982 -0.0904
 8143SOL    HW125328   5.254   5.076   1.757 -1.0454  0.9034  0.9768
 8143SOL    HW225329   5.167   4.977   1.854  0.1340 -0.3932  0.7316
 8144SOL     OW25330   0.611   6.592   6.654 -0.3030 -0.1696 -0.2363
 8144SOL    HW125331   0.686   6.525   6.648  0.8917  1.0400  0.6175
 8144SOL    HW225332   0.607   6.644   6.569  1.2230  1.1468  0.4462
 8145SOL     OW25333   5.668   5.809   0.153 -0.0825  0.4339 -0.3715
 8145SOL    HW125334   5.605   5.821   0.076 -0.2136 -0.2937 -0.3845
 8145SOL    HW225335   5.616   5.787   0.236  0.1570 -0.4464 -0.4412
 8146SOL     OW25336   6.344   0.163   4.460  0.2992 -0.3318 -0.4551
 8146SOL    HW125337   6.250   0.195   4.472  0.4761  0.4172 -0.9757
 8146SOL    HW225338   6.398   0.186   4.541  0.2757  0.1536 -0.5754
 8147SOL     OW25339   0.178   5.407   5.995 -0.2150 -0.3529 -0.1194
 8147SOL    HW125340   0.105   5.341   6.012  1.1547 -1.4403  1.8493
 8147SOL    HW225341   0.245   5.368   5.932 -0.8628  0.3417 -1.2879
 8148SOL     OW25342   6.829   3.970   0.339  0.4803  0.4308 -0.4519
 8148SOL    HW125343   6.752   3.906   0.337  0.4332  0.4560  0.2764
 8148SOL    HW225344   6.814   4.044   0.273 -0.5480  0.9185  0.3064
 8149SOL     OW25345   6.954   0.896   4.557  0.5123 -0.2932 -0.1197
 8149SOL    HW125346   6.864   0.902   4.601  1.3269  0.1530  1.5903
 8149SOL    HW225347   6.972   0.802   4.529 -0.4007 -0.4174 -0.3142
 8150SOL     OW25348   1.310   4.526   6.911 -0.0653  0.0150  0.3846
 8150SOL    HW125349   1.355   4.478   6.987 -0.8888 -0.4964  0.5608
 8150SOL    HW225350   1.312   4.624   6.928  1.5908  0.0587  0.0566
 8151SOL     OW25351   4.515   5.776   2.705  0.0788 -0.1401 -0.2947
 8151SOL    HW125352   4.564   5.818   2.628 -1.0437  1.6263 -0.0925
 8151SOL    HW225353   4.513   5.840   2.782 -1.0441 -0.8607  0.2927
 8152SOL     OW25354   4.331   1.048   2.083  0.3778  0.1485 -0.6076
 8152SOL    HW125355   4.387   1.045   2.000  2.8996 -0.3453  0.9910
 8152SOL    HW225356   4.382   1.007   2.159 -1.8045  0.6283  1.2305
 8153SOL     OW25357   6.982   1.220   0.278  0.5660  0.1365 -0.1518
 8153SOL    HW125358   6.940   1.266   0.200  1.3468 -1.3861 -1.5458
 8153SOL    HW225359   7.073   1.259   0.294  0.4156  0.4349 -0.0238
 8154SOL     OW25360   2.585   1.011   2.545  0.0016 -0.0694 -0.4445
 8154SOL    HW125361   2.552   1.095   2.502 -0.0338  0.8402  1.2758
 8154SOL    HW225362   2.685   1.010   2.546  0.0055 -0.3427 -1.0075
 8155SOL     OW25363   6.804   3.855   4.260 -0.6436  0.0167  0.1001
 8155SOL    HW125364   6.857   3.816   4.335 -0.6546 -0.6839 -0.2431
 8155SOL    HW225365   6.856   3.929   4.216  0.1805 -0.8387 -0.4056
 8156SOL     OW25366   0.787   3.218   0.969 -0.0004  0.0183  0.4443
 8156SOL    HW125367   0.691   3.231   0.943  0.2668 -0.0492 -0.6602
 8156SOL    HW225368   0.843   3.213   0.886  0.7376 -1.6625  1.0077
 8157SOL     OW25369   6.083   4.370   3.851  0.3918 -0.5687  0.2618
 8157SOL    HW125370   6.000   4.372   3.796 -0.0168 -1.1645  0.8520
 8157SOL    HW225371   6.140   4.449   3.827 -0.4371 -0.0352  0.0060
 8158SOL     OW25372   6.158   3.866   4.693  0.2342 -0.3008  0.4568
 8158SOL    HW125373   6.172   3.924   4.614 -1.6057 -1.2264 -0.6206
 8158SOL    HW225374   6.094   3.910   4.756  1.5892  0.3736  1.4175
 8159SOL     OW25375   4.935   0.309   0.469  0.3655 -0.0394 -0.4118
 8159SOL    HW125376   4.918   0.389   0.412  0.2889  0.2699  0.0374
 8159SOL    HW225377   4.887   0.319   0.556 -1.6900 -1.7051 -1.2865
 8160SOL     OW25378   4.664   1.757   0.063  0.6139 -0.0495  0.1489
 8160SOL    HW125379   4.591   1.773  -0.003 -0.0110 -1.0504  0.5845
 8160SOL    HW225380   4.676   1.659   0.078 -0.1210  0.1572  2.4460
 8161SOL     OW25381   4.688   4.004   1.233  0.0995  0.3723  0.0865
 8161SOL    HW125382   4.632   4.082   1.204  0.3287  0.6045  0.2538
 8161SOL    HW225383   4.770   4.038   1.280 -0.3877  0.0043  1.2313
 8162SOL     OW25384   1.074   4.330   6.709  0.2989  0.4429 -0.3501
 8162SOL    HW125385   1.008   4.259   6.736  2.7919 -1.9646 -0.1322
 8162SOL    HW225386   1.092   4.389   6.787 -1.3389  0.9770 -0.3354
 8163SOL     OW25387   3.381   4.414   5.408 -0.5231  0.5946  0.5250
 8163SOL    HW125388   3.295   4.375   5.376  0.3856  0.1467 -1.5259
 8163SOL    HW225389   3.453   4.344   5.402 -0.0214  0.9047  2.3718
 8164SOL     OW25390   6.479   1.187   1.213 -0.2113 -0.0575 -0.3260
 8164SOL    HW125391   6.380   1.182   1.225 -0.2102 -1.1850 -0.7124
 8164SOL    HW225392   6.500   1.226   1.123 -0.2618  2.1893  0.5730
 8165SOL     OW25393   1.759   2.220   1.081  1.0958 -0.6299  0.2727
 8165SOL    HW125394   1.709   2.265   1.007 -0.5068 -0.9124  1.1483
 8165SOL    HW225395   1.823   2.286   1.122  1.6715 -0.3407 -1.0203
 8166SOL     OW25396   0.927   0.704   5.888 -0.1244  0.1545  0.0910
 8166SOL    HW125397   0.880   0.728   5.804  0.5805  2.4103  0.2723
 8166SOL    HW225398   0.974   0.785   5.925 -0.4328 -0.7367  2.6701
 8167SOL     OW25399   1.145   4.223   5.787  0.3987  0.2336  0.0413
 8167SOL    HW125400   1.059   4.257   5.749  0.5666  1.1032  0.4053
 8167SOL    HW225401   1.212   4.298   5.789  1.0434 -0.3377  0.1075
 8168SOL     OW25402   0.429   1.563   2.301  0.3949  0.6305 -0.1323
 8168SOL    HW125403   0.353   1.501   2.319 -0.1530  0.7402 -1.8804
 8168SOL    HW225404   0.511   1.510   2.277  0.5242  0.5434  0.4918
 8169SOL     OW25405   3.311   1.296   0.345 -0.3450 -0.7089  0.0636
 8169SOL    HW125406   3.289   1.361   0.273 -1.7081  0.9471  1.8667
 8169SOL    HW225407   3.291   1.203   0.314 -2.2162  0.0735 -1.2349
 8170SOL     OW25408   5.581   5.746   2.856  0.0514  0.1111  0.0075
 8170SOL    HW125409   5.609   5.716   2.947 -1.2138  1.2973  0.8240
 8170SOL    HW225410   5.483   5.727   2.843 -0.1636  1.4267 -0.4508
 8171SOL     OW25411   1.811   3.710   1.967  0.0570 -0.1230  0.4841
 8171SOL    HW125412   1.717   3.688   1.941  0.5769  0.6346 -2.3067
 8171SOL    HW225413   1.811   3.798   2.015 -0.8463 -1.1660  2.5230
 8172SOL     OW25414   0.583   1.314   0.822 -0.0379 -0.2132  0.2182
 8172SOL    HW125415   0.599   1.234   0.764  1.8360 -1.8562  2.7650
 8172SOL    HW225416   0.670   1.359   0.840 -1.0424  2.3570 -0.9587
 8173SOL     OW25417   6.376   0.289   1.456 -0.3262 -0.3378 -0.2311
 8173SOL    HW125418   6.325   0.375   1.451  0.1029  0.1238  2.1560
 8173SOL    HW225419   6.473   0.308   1.467 -0.4003 -1.0035  2.2327
 8174SOL     OW25420   3.971   5.299   1.505 -0.0058  0.3093 -0.1009
 8174SOL    HW125421   3.906   5.266   1.437  1.1335  0.2828 -1.2102
 8174SOL    HW225422   3.981   5.231   1.578  0.4345 -0.6810 -1.0658
 8175SOL     OW25423   1.063   2.635   6.408  0.4896 -0.0100  0.0387
 8175SOL    HW125424   1.111   2.702   6.464 -1.3754  0.7456  0.8304
 8175SOL    HW225425   1.129   2.583   6.354  2.1809  0.7172  1.3072
 8176SOL     OW25426   0.045   3.907   0.450 -0.0060 -0.2841  0.2153
 8176SOL    HW125427   0.078   3.825   0.401  0.2995  0.2034 -0.4104
 8176SOL    HW225428  -0.042   3.936   0.410  0.0692 -0.0884  0.1973
 8177SOL     OW25429   3.366   0.452   4.331 -0.1311  0.3998 -0.3800
 8177SOL    HW125430   3.336   0.451   4.235  0.2280  2.2814 -0.5454
 8177SOL    HW225431   3.308   0.514   4.384 -0.4687 -0.7899  0.7095
 8178SOL     OW25432   3.251   6.159   2.647 -0.4121 -0.2529  0.4684
 8178SOL    HW125433   3.249   6.195   2.554 -1.2789 -1.8179 -0.1445
 8178SOL    HW225434   3.251   6.235   2.712  1.3463  0.8979 -0.7858
 8179SOL     OW25435   4.571   0.078   3.352 -0.2530  0.2247 -0.4673
 8179SOL    HW125436   4.513   0.002   3.381  0.8819 -1.3160 -1.9844
 8179SOL    HW225437   4.534   0.119   3.269  0.3476 -0.2136 -0.9625
 8180SOL     OW25438   0.340   0.387   0.332 -0.1626 -0.0157 -0.2118
 8180SOL    HW125439   0.338   0.391   0.432 -2.6858 -0.4062 -0.1869
 8180SOL    HW225440   0.323   0.293   0.302 -0.2068  0.2356 -1.0039
 8181SOL     OW25441   6.661   0.424   0.921  0.3195 -0.2370  0.0352
 8181SOL    HW125442   6.643   0.473   1.006 -0.2651 -1.2973  0.5477
 8181SOL    HW225443   6.575   0.402   0.876  0.5664 -0.6795 -0.2353
 8182SOL     OW25444   3.312   2.864   5.125  0.5784 -0.3669 -0.3002
 8182SOL    HW125445   3.306   2.831   5.030 -0.0000 -0.4309 -0.2461
 8182SOL    HW225446   3.230   2.916   5.147  0.1006 -1.4531  0.5786
 8183SOL     OW25447   6.070   1.464   0.006 -0.5969 -0.2123  0.0190
 8183SOL    HW125448   6.136   1.515  -0.049  1.0065 -2.7583 -0.5935
 8183SOL    HW225449   6.114   1.382   0.043 -2.4293 -0.0692  2.7924
 8184SOL     OW25450   6.625   5.630   0.426 -0.2174  0.2865 -0.5748
 8184SOL    HW125451   6.555   5.664   0.363  0.6252  1.3812 -0.9428
 8184SOL    HW225452   6.704   5.690   0.424  1.6368 -2.0074 -1.7169
 8185SOL     OW25453   2.437   4.517   5.725  0.8125 -0.2089 -0.5152
 8185SOL    HW125454   2.436   4.537   5.627  0.6373 -2.9767 -1.1767
 8185SOL    HW225455   2.514   4.456   5.746  0.2512 -0.4892  0.8657
 8186SOL     OW25456   0.553   4.398   5.554  0.6775  0.1219 -0.4611
 8186SOL    HW125457   0.613   4.456   5.610 -0.4361  0.6897  0.1912
 8186SOL    HW225458   0.560   4.426   5.459  0.4140  1.1360 -0.1998
 8187SOL     OW25459   3.720   1.187   6.851  0.1915 -0.4117  0.2589
 8187SOL    HW125460   3.736   1.088   6.856  0.7376 -0.3037  0.9011
 8187SOL    HW225461   3.629   1.208   6.885  1.1138 -0.4488  3.0257
 8188SOL     OW25462   2.044   4.085   4.633  0.0107 -0.4729 -0.4706
 8188SOL    HW125463   2.101   4.098   4.714  3.2779  0.2979 -2.7225
 8188SOL    HW225464   1.949   4.109   4.656  1.1449  1.8438  2.5466
 8189SOL     OW25465   5.534   3.532   0.778  0.2985 -0.5375 -0.3956
 8189SOL    HW125466   5.568   3.594   0.849  1.0347  0.9669 -1.9757
 8189SOL    HW225467   5.441   3.504   0.801 -0.7983  2.6534 -0.4519
 8190SOL     OW25468   1.148   2.138   3.232  0.0206  0.0116 -0.1384
 8190SOL    HW125469   1.127   2.208   3.164  1.2025 -0.3445 -0.9100
 8190SOL    HW225470   1.247   2.135   3.247  0.1867 -2.4016 -1.1871
 8191SOL     OW25471   3.537   3.990   0.914 -0.0215  0.2683  0.2438
 8191SOL    HW125472   3.454   3.989   0.859  0.3011 -0.0938 -0.2393
 8191SOL    HW225473   3.616   3.969   0.857  0.4804  1.1641  0.5812
 8192SOL     OW25474   6.930   0.327   3.681 -0.1454  0.3354  0.7629
 8192SOL    HW125475   6.967   0.379   3.604 -1.5151  0.6895  0.3141
 8192SOL    HW225476   6.985   0.245   3.696  1.4171  1.3440  0.7911
 8193SOL     OW25477   6.483   5.678   3.500 -0.1151  0.6945 -0.1327
 8193SOL    HW125478   6.430   5.607   3.454  1.4650  0.0419 -1.0247
 8193SOL    HW225479   6.422   5.753   3.527 -1.3408  0.4186 -1.9559
 8194SOL     OW25480   3.526   0.686   1.315 -0.2006  0.0472 -0.4969
 8194SOL    HW125481   3.439   0.732   1.332 -0.5173 -0.9099  0.6198
 8194SOL    HW225482   3.601   0.750   1.328 -0.7342  1.1011 -2.2681
 8195SOL     OW25483   5.304   6.595   1.979 -0.1579  0.3714 -0.0624
 8195SOL    HW125484   5.332   6.532   2.051  0.7892 -0.5314 -1.1890
 8195SOL    HW225485   5.297   6.688   2.017 -0.5644 -0.2200  1.3724
 8196SOL     OW25486   5.404   1.698   1.064  0.2509 -0.4650  0.1015
 8196SOL    HW125487   5.397   1.614   1.118  1.6607 -0.4141  0.4035
 8196SOL    HW225488   5.443   1.770   1.121  0.2531  0.0351 -0.5258
 8197SOL     OW25489   4.706   2.646   2.394  0.2324  0.6302 -0.0026
 8197SOL    HW125490   4.678   2.740   2.412  0.4367  0.9820 -1.3743
 8197SOL    HW225491   4.801   2.634   2.421 -0.0250  0.5968  0.8926
 8198SOL     OW25492   0.852   5.300   2.229 -0.2730 -0.1986 -0.5770
 8198SOL    HW125493   0.939   5.285   2.180  1.0734 -1.1217  1.9027
 8198SOL    HW225494   0.849   5.393   2.264  0.3757 -0.5489  0.4572
 8199SOL     OW25495   6.871   1.820   6.804  0.0570  0.7101 -0.1726
 8199SOL    HW125496   6.861   1.741   6.864 -1.0659 -0.2685 -1.5756
 8199SOL    HW225497   6.969   1.836   6.787  0.3109 -0.4111  0.1127
 8200SOL     OW25498   5.127   4.191   0.719  0.2035  0.0361  0.2145
 8200SOL    HW125499   5.221   4.199   0.753 -0.1955 -1.4862  1.8187
 8200SOL    HW225500   5.064   4.183   0.796 -1.3577  1.6458 -0.8034
 8201SOL     OW25501   5.020   6.737   4.972 -0.0368  0.2736  0.2233
 8201SOL    HW125502   5.098   6.755   5.032  1.1697 -0.7722 -0.9652
 8201SOL    HW225503   4.990   6.823   4.930  0.8931  0.6089  0.2223
 8202SOL     OW25504   0.723   0.032   2.580  0.8181 -0.2930 -0.4355
 8202SOL    HW125505   0.810   0.069   2.546  1.9512 -0.1466  2.3416
 8202SOL    HW225506   0.734   0.004   2.676 -1.5636 -2.6094 -0.7443
 8203SOL     OW25507   2.041   1.869   1.838 -0.1349  0.0047 -0.3088
 8203SOL    HW125508   1.991   1.818   1.768 -4.1097  0.4239  1.9134
 8203SOL    HW225509   2.004   1.847   1.928  1.5577  2.9076  1.2481
 8204SOL     OW25510   3.914   2.895   1.661  0.1184 -0.1040 -0.2350
 8204SOL    HW125511   3.871   2.806   1.644 -0.5311  0.2934 -0.7438
 8204SOL    HW225512   3.894   2.924   1.755 -0.1822 -0.2273 -0.2584
 8205SOL     OW25513   1.431   5.789   1.394 -0.0661  0.1148  0.1391
 8205SOL    HW125514   1.523   5.807   1.359 -0.4044  0.0474 -0.8243
 8205SOL    HW225515   1.425   5.694   1.425 -0.1826 -0.2977 -1.0802
 8206SOL     OW25516   3.707   2.173   1.035  0.0719  0.2003 -0.0297
 8206SOL    HW125517   3.806   2.174   1.045  0.0121 -0.3787  0.7375
 8206SOL    HW225518   3.670   2.092   1.081 -0.6359 -0.3071 -1.4267
 8207SOL     OW25519   3.204   3.652   4.436  0.4952 -0.4971  0.1912
 8207SOL    HW125520   3.127   3.597   4.404  0.6118 -0.7565  0.3529
 8207SOL    HW225521   3.187   3.680   4.531 -0.4825  1.4031 -0.4935
 8208SOL     OW25522   1.473   0.623   0.993  0.8726 -0.6680  0.4664
 8208SOL    HW125523   1.516   0.699   0.944  1.0645 -0.9915  0.1250
 8208SOL    HW225524   1.544   0.568   1.039  0.5556  0.9480  3.0911
 8209SOL     OW25525   7.019   1.830   4.659  0.2586  0.4183  0.5060
 8209SOL    HW125526   6.966   1.789   4.734 -1.0179  0.8105 -0.1641
 8209SOL    HW225527   7.012   1.772   4.578  2.1307 -0.3186  0.8143
 8210SOL     OW25528   2.620   1.998   0.306 -0.6904  0.0528 -0.4789
 8210SOL    HW125529   2.681   1.999   0.227 -1.5081  2.2632 -1.1692
 8210SOL    HW225530   2.673   2.008   0.390  0.2124 -2.6147 -0.6540
 8211SOL     OW25531   2.457   4.593   0.494 -0.4771 -0.0792  0.2838
 8211SOL    HW125532   2.540   4.607   0.546  0.3600 -0.1272 -0.9965
 8211SOL    HW225533   2.474   4.529   0.419 -1.5209  0.3125 -0.3223
 8212SOL     OW25534   1.726   4.058   5.502  0.4321 -0.3896  0.1812
 8212SOL    HW125535   1.760   3.974   5.461 -0.5914 -1.0379  0.6208
 8212SOL    HW225536   1.640   4.040   5.549  0.7803  0.6623  1.2726
 8213SOL     OW25537   5.735   5.805   0.993 -0.2506 -0.2103 -0.4774
 8213SOL    HW125538   5.813   5.781   0.936  0.2524 -0.8323  0.4298
 8213SOL    HW225539   5.722   5.904   0.992 -0.9896 -0.2896 -2.5687
 8214SOL     OW25540   6.360   3.290   2.934 -0.1844  0.1637 -0.1432
 8214SOL    HW125541   6.424   3.307   2.859 -0.5087  1.2372 -0.2005
 8214SOL    HW225542   6.348   3.374   2.987 -0.7352 -0.3121  0.5029
 8215SOL     OW25543   3.442   5.232   2.675 -0.4983  0.3574  0.1094
 8215SOL    HW125544   3.480   5.273   2.758  1.3454  0.2197 -0.6310
 8215SOL    HW225545   3.398   5.145   2.698  1.9444 -0.8118  0.6963
 8216SOL     OW25546   5.751   4.731   3.184  0.5989  0.0203  0.5647
 8216SOL    HW125547   5.807   4.650   3.205  1.1102 -0.3716 -1.9377
 8216SOL    HW225548   5.683   4.707   3.115  0.5331  1.6403  0.0299
 8217SOL     OW25549   2.322   0.849   1.932  0.4241  0.3030 -0.7838
 8217SOL    HW125550   2.330   0.944   1.902 -2.4444  0.5443 -1.0325
 8217SOL    HW225551   2.338   0.843   2.030 -0.1327  1.1778 -0.6317
 8218SOL     OW25552   5.167   1.736   5.213  0.0464  0.2425  0.2930
 8218SOL    HW125553   5.157   1.736   5.313  0.7880 -1.0737  0.3872
 8218SOL    HW225554   5.087   1.780   5.172 -0.6035  0.1791  1.4328
 8219SOL     OW25555   6.384   1.769   1.077 -0.1189 -0.6454 -0.2131
 8219SOL    HW125556   6.453   1.745   1.009  0.7666  0.3759  0.2992
 8219SOL    HW225557   6.378   1.695   1.145 -0.5379 -1.3654 -1.0037
 8220SOL     OW25558   3.834   2.950   1.918 -0.1889 -0.0703 -0.2207
 8220SOL    HW125559   3.779   2.899   1.984 -1.7355  1.9112  0.1190
 8220SOL    HW225560   3.899   3.009   1.968 -0.3278  0.3312 -0.5112
 8221SOL     OW25561   6.072   4.944   3.003  0.3327 -0.6161 -0.4165
 8221SOL    HW125562   6.150   4.892   2.968  1.1097 -0.0864  0.5003
 8221SOL    HW225563   6.057   4.920   3.099 -0.0143  0.0229 -0.3079
 8222SOL     OW25564   0.666   2.081   2.413  0.4585  0.3705 -0.2366
 8222SOL    HW125565   0.620   2.135   2.483  0.3834 -0.5835  0.4698
 8222SOL    HW225566   0.742   2.031   2.454  1.3094  0.9024 -1.1340
 8223SOL     OW25567   0.992   6.139   0.477 -0.0658  0.1233  0.1668
 8223SOL    HW125568   0.944   6.189   0.405 -0.3233 -0.6900 -0.2469
 8223SOL    HW225569   1.074   6.190   0.504 -1.6909  2.0951  1.6740
 8224SOL     OW25570   1.130   2.736   3.240  0.3177  0.1734  0.1019
 8224SOL    HW125571   1.153   2.732   3.338  2.9636  0.1725 -0.4391
 8224SOL    HW225572   1.192   2.800   3.194 -1.8250  1.2868 -1.3864
 8225SOL     OW25573   4.688   1.033   1.028  0.6096 -0.2354 -0.8814
 8225SOL    HW125574   4.594   1.006   1.050  0.9912  0.4457  2.0283
 8225SOL    HW225575   4.698   1.132   1.040  1.9523 -0.4512  0.0158
 8226SOL     OW25576   4.282   1.220   2.311  0.0744  0.6915  0.0801
 8226SOL    HW125577   4.231   1.272   2.242 -1.0872  0.7224  0.9511
 8226SOL    HW225578   4.247   1.127   2.315 -0.2755  0.8541  1.0415
 8227SOL     OW25579   1.499   1.513   4.132  0.4803 -0.0983 -0.1447
 8227SOL    HW125580   1.498   1.517   4.032  0.0345  1.8069 -0.0980
 8227SOL    HW225581   1.559   1.585   4.167 -0.4620  0.1512  0.9904
 8228SOL     OW25582   4.964   2.399   4.386 -0.2065 -0.4120 -0.5646
 8228SOL    HW125583   4.921   2.397   4.295 -0.3169  0.3925 -0.5357
 8228SOL    HW225584   5.043   2.460   4.383 -1.3513  1.1806  0.3688
 8229SOL     OW25585   2.587   4.495   6.826 -0.0574  0.2646  0.4960
 8229SOL    HW125586   2.530   4.425   6.869  0.1813  0.5875  1.3446
 8229SOL    HW225587   2.670   4.452   6.789 -0.3414 -0.0368  0.2037
 8230SOL     OW25588   6.764   6.732   3.830 -0.0498  0.1867 -0.4103
 8230SOL    HW125589   6.861   6.744   3.808 -0.0009  1.8662  0.5268
 8230SOL    HW225590   6.749   6.755   3.926 -1.0166 -2.4151  0.1247
 8231SOL     OW25591   5.801   6.469   1.345 -0.1834 -0.5886 -0.4596
 8231SOL    HW125592   5.741   6.408   1.397 -0.9364 -1.3889 -2.1902
 8231SOL    HW225593   5.815   6.432   1.253  1.6690  0.4314 -0.6308
 8232SOL     OW25594   3.305   2.696   5.787  0.4010  0.5033 -0.1661
 8232SOL    HW125595   3.219   2.744   5.801  0.3172 -0.0240  1.2556
 8232SOL    HW225596   3.312   2.667   5.691 -2.0414 -1.4095  0.1282
 8233SOL     OW25597   0.977   5.220   6.907 -0.0125  1.0397  0.4345
 8233SOL    HW125598   1.017   5.142   6.954  0.0264  0.2524 -0.8478
 8233SOL    HW225599   0.933   5.281   6.973  2.7101  1.6140  1.8266
 8234SOL     OW25600   3.280   1.548   1.011 -0.3551 -0.1041 -0.0861
 8234SOL    HW125601   3.302   1.584   0.921 -0.4460 -0.9743 -0.4651
 8234SOL    HW225602   3.328   1.601   1.081  0.3413  0.0837 -0.6939
 8235SOL     OW25603   3.593   2.830   1.498 -0.0504 -0.2527 -0.0064
 8235SOL    HW125604   3.598   2.860   1.593 -0.6215  0.9662 -0.3415
 8235SOL    HW225605   3.510   2.776   1.485 -0.0966 -0.2147  0.1280
 8236SOL     OW25606   6.842   5.130   6.523  0.7090  0.0018 -0.2537
 8236SOL    HW125607   6.940   5.151   6.519  1.1545 -0.8049  3.1596
 8236SOL    HW225608   6.830   5.032   6.541 -0.5880  0.4619  1.6875
 8237SOL     OW25609   4.185   6.828   5.319 -0.5787  0.4416  0.4467
 8237SOL    HW125610   4.130   6.876   5.251  1.1175  0.7008 -0.8043
 8237SOL    HW225611   4.229   6.749   5.278 -0.3598 -0.0143  1.5231
 8238SOL     OW25612   2.921   2.013   1.223 -0.6143 -0.4313  0.1333
 8238SOL    HW125613   2.927   2.002   1.124 -0.5851  0.4463  0.0326
 8238SOL    HW225614   2.998   1.966   1.267  0.4084  0.7141 -0.3825
 8239SOL     OW25615   0.833   1.620   0.121 -0.2889  0.5249 -0.3548
 8239SOL    HW125616   0.932   1.617   0.107 -0.4852 -1.0845 -1.8216
 8239SOL    HW225617   0.795   1.701   0.076  0.1694  0.2096 -1.3216
 8240SOL     OW25618   3.248   3.700   3.613 -0.2421 -0.0664  0.2954
 8240SOL    HW125619   3.239   3.614   3.663 -0.1858  0.8581  1.9693
 8240SOL    HW225620   3.246   3.682   3.515 -1.4913 -1.8319  0.6040
 8241SOL     OW25621   4.034   6.313   1.192  0.0425 -0.5456  0.2115
 8241SOL    HW125622   4.041   6.411   1.174 -0.8789 -0.7185 -1.2450
 8241SOL    HW225623   4.121   6.269   1.168  0.2744 -0.1587  0.3318
 8242SOL     OW25624   1.705   5.655   5.258  0.5724 -0.0017 -0.3593
 8242SOL    HW125625   1.738   5.668   5.165  0.1638 -1.2032 -0.6892
 8242SOL    HW225626   1.646   5.575   5.262  0.0010  0.4476  0.7970
 8243SOL     OW25627   0.906   4.112   4.339 -0.2868  0.5289 -0.1257
 8243SOL    HW125628   0.973   4.045   4.370 -0.1683  0.6402 -0.1413
 8243SOL    HW225629   0.918   4.129   4.241 -0.3321  0.5554 -0.1272
 8244SOL     OW25630   3.304   5.195   4.730 -0.0804  0.4033  0.2705
 8244SOL    HW125631   3.239   5.132   4.772 -0.6233  1.0623  0.4333
 8244SOL    HW225632   3.326   5.268   4.794  1.8626 -0.5131  0.7186
 8245SOL     OW25633   4.535   2.779   1.785  0.7770 -0.3764  1.0294
 8245SOL    HW125634   4.619   2.761   1.734 -0.3271  1.3016 -1.6142
 8245SOL    HW225635   4.530   2.876   1.808 -1.6125  0.1788 -1.3590
 8246SOL     OW25636   4.565   3.302   6.470 -0.3973 -0.1298  0.1110
 8246SOL    HW125637   4.492   3.366   6.492  1.3745  1.4950  1.5843
 8246SOL    HW225638   4.594   3.255   6.553  0.0098 -1.0299 -0.5193
 8247SOL     OW25639   6.602   0.596   1.118 -0.1578  0.5838  0.3466
 8247SOL    HW125640   6.598   0.695   1.105 -0.4980  0.6538  0.9434
 8247SOL    HW225641   6.642   0.576   1.207  3.7489  0.0897 -1.2939
 8248SOL     OW25642   5.413   2.658   5.432 -0.0114  0.2722  0.3370
 8248SOL    HW125643   5.489   2.723   5.425 -0.4293  0.7795  0.4208
 8248SOL    HW225644   5.327   2.706   5.412 -0.4200 -0.0551  1.2648
 8249SOL     OW25645   3.977   5.582   4.974  0.1015  0.0702  0.1401
 8249SOL    HW125646   3.963   5.677   5.002  1.2781  0.7509 -1.4326
 8249SOL    HW225647   4.075   5.563   4.968 -0.1031 -1.4812  1.0707
 8250SOL     OW25648   3.617   2.859   2.596 -0.3720 -0.4504 -0.1804
 8250SOL    HW125649   3.519   2.882   2.593 -0.2256  0.1704 -0.3306
 8250SOL    HW225650   3.634   2.781   2.536 -0.6614 -0.1183 -0.7067
 8251SOL     OW25651   6.149   1.043   5.551 -0.3042  0.3217 -0.3526
 8251SOL    HW125652   6.232   1.038   5.605 -1.5853  0.7923  1.7807
 8251SOL    HW225653   6.170   1.079   5.460  1.5973  1.9217  0.6504
 8252SOL     OW25654   2.672   3.943   5.295 -0.3368 -0.0151 -0.0214
 8252SOL    HW125655   2.667   4.002   5.376  1.3406 -1.1320  0.9721
 8252SOL    HW225656   2.580   3.919   5.265 -1.0019  0.9409  1.1469
 8253SOL     OW25657   4.117   3.348   4.279  0.6448  0.0339 -0.3003
 8253SOL    HW125658   4.057   3.277   4.242 -0.3754  0.7362 -0.0515
 8253SOL    HW225659   4.178   3.381   4.206 -0.0027  0.0397 -0.8541
 8254SOL     OW25660   2.261   6.096   6.141 -0.4426 -0.2058  0.4665
 8254SOL    HW125661   2.360   6.086   6.149  0.3607  2.7999 -2.9284
 8254SOL    HW225662   2.222   6.120   6.231  1.5970 -2.6243  2.1269
 8255SOL     OW25663   6.512   5.848   2.425 -0.1174  0.2314  0.0142
 8255SOL    HW125664   6.514   5.768   2.366 -0.1741  2.2518 -2.9066
 8255SOL    HW225665   6.582   5.914   2.395 -1.3467  2.1063  1.0409
 8256SOL     OW25666   0.287   1.349   5.457  0.2241 -0.1498  0.0892
 8256SOL    HW125667   0.349   1.279   5.424 -0.8486 -0.5664 -1.1258
 8256SOL    HW225668   0.301   1.434   5.405 -0.7376 -0.4913 -0.7833
 8257SOL     OW25669   5.263   3.793   2.984  0.0170 -0.0434 -0.0087
 8257SOL    HW125670   5.223   3.824   3.070 -0.0669  0.5182 -0.2475
 8257SOL    HW225671   5.195   3.797   2.911  0.1111 -0.4344 -0.1231
 8258SOL     OW25672   6.038   0.496   6.433 -0.6948 -0.4527 -0.4509
 8258SOL    HW125673   5.945   0.533   6.430  0.0599  1.8335  1.1849
 8258SOL    HW225674   6.091   0.531   6.356 -0.0018  2.0414  1.0579
 8259SOL     OW25675   2.691   0.649   0.396  0.7087  0.4120  0.2149
 8259SOL    HW125676   2.599   0.688   0.398  1.1960  1.6478 -0.3551
 8259SOL    HW225677   2.746   0.688   0.470  0.5735 -0.8936  1.0298
 8260SOL     OW25678   0.320   1.321   0.868  0.3276 -0.0798 -0.2435
 8260SOL    HW125679   0.283   1.389   0.931 -1.3885 -1.2682  0.0953
 8260SOL    HW225680   0.419   1.333   0.860  0.3014  1.3471  1.1155
 8261SOL     OW25681   5.804   1.040   0.302 -0.0689 -0.2948  0.0214
 8261SOL    HW125682   5.750   1.007   0.379 -0.7465 -0.7415 -0.6316
 8261SOL    HW225683   5.900   1.022   0.318 -0.0556  0.7818  1.3445
 8262SOL     OW25684   6.880   3.202   1.092  0.3219  0.2030 -0.6025
 8262SOL    HW125685   6.900   3.164   1.182 -2.3592  0.4338  0.1668
 8262SOL    HW225686   6.879   3.129   1.024 -0.8417 -0.5017  0.1513
 8263SOL     OW25687   6.640   2.273   5.597 -0.1633  0.1513 -0.0675
 8263SOL    HW125688   6.647   2.176   5.621  1.1097  0.3325  0.3648
 8263SOL    HW225689   6.669   2.286   5.502  1.8108  0.3621  0.5159
 8264SOL     OW25690   2.090   5.960   3.310 -0.3956 -0.1212  0.4082
 8264SOL    HW125691   2.170   5.942   3.253  1.0836  1.4283  1.8741
 8264SOL    HW225692   2.089   6.057   3.335 -3.3814  0.1726 -0.4620
 8265SOL     OW25693   1.161   6.157   1.680 -0.0408  0.0423  0.2808
 8265SOL    HW125694   1.068   6.121   1.691  0.2635 -0.3072  2.1102
 8265SOL    HW225695   1.224   6.081   1.662  0.1714 -0.0086  1.1690
 8266SOL     OW25696   3.342   6.309   1.055 -0.3133 -0.4779 -0.6765
 8266SOL    HW125697   3.369   6.347   0.967 -0.8621 -0.7238 -0.9506
 8266SOL    HW225698   3.388   6.221   1.069  0.5091 -0.0053 -0.2934
 8267SOL     OW25699   0.661   2.996   3.238 -0.1996  0.3218  0.1522
 8267SOL    HW125700   0.756   2.973   3.258 -0.3089 -0.7806 -0.5006
 8267SOL    HW225701   0.603   2.917   3.255 -0.6190  0.0665 -2.0876
 8268SOL     OW25702   3.652   6.140   4.800  0.1966  0.1884 -0.6280
 8268SOL    HW125703   3.708   6.149   4.718  0.0535 -4.4455 -1.4992
 8268SOL    HW225704   3.557   6.166   4.779  0.4762  0.5873 -1.4497
 8269SOL     OW25705   5.651   0.239   1.861 -0.2002  0.0543  0.0274
 8269SOL    HW125706   5.661   0.164   1.796 -0.5487 -0.6170  0.7362
 8269SOL    HW225707   5.741   0.271   1.889 -0.0123 -1.3527  1.1291
 8270SOL     OW25708   2.807   6.809   1.895  0.1829  0.6063  0.0315
 8270SOL    HW125709   2.768   6.818   1.803  0.6916  2.3007 -0.0480
 8270SOL    HW225710   2.756   6.739   1.945 -0.4844  0.0649 -1.3280
 8271SOL     OW25711   1.136   3.982   2.047  0.1212 -0.0260 -0.1466
 8271SOL    HW125712   1.092   3.895   2.025 -0.3647 -0.0095  0.7128
 8271SOL    HW225713   1.106   4.052   1.982 -2.9827  0.5401  1.7029
 8272SOL     OW25714   4.375   2.020   1.909 -0.1130 -0.2368 -0.2222
 8272SOL    HW125715   4.358   2.093   1.843  0.1880  1.2388  1.2607
 8272SOL    HW225716   4.434   2.054   1.982 -1.0614 -1.5515  1.2341
 8273SOL     OW25717   2.018   6.178   0.464 -0.1879  0.0145  0.3936
 8273SOL    HW125718   1.998   6.218   0.553  0.9531 -1.9836  1.6234
 8273SOL    HW225719   2.103   6.217   0.429 -0.6584  0.8312  0.1238
 8274SOL     OW25720   6.256   3.373   2.602 -0.3417 -0.6082  0.1475
 8274SOL    HW125721   6.302   3.453   2.641  0.8796  0.3064 -2.8263
 8274SOL    HW225722   6.183   3.404   2.542 -0.3721 -1.7613 -0.4224
 8275SOL     OW25723   6.081   2.623   4.225  0.2504  0.1856  0.1164
 8275SOL    HW125724   6.040   2.711   4.200 -1.7984 -1.3461 -2.5384
 8275SOL    HW225725   6.181   2.630   4.222  0.1321  2.3087 -0.3959
 8276SOL     OW25726   0.098   1.611   3.629 -0.1661 -0.2177  0.7833
 8276SOL    HW125727   0.086   1.590   3.726  1.3936  0.6038  1.1768
 8276SOL    HW225728   0.088   1.709   3.614  0.8037 -0.1743  0.3257
 8277SOL     OW25729   2.445   6.853   0.936 -0.3257 -0.2144 -0.1807
 8277SOL    HW125730   2.402   6.890   0.853 -0.2676 -0.7642 -0.4648
 8277SOL    HW225731   2.517   6.915   0.967  0.2957 -0.4608 -1.0962
 8278SOL     OW25732   3.330   2.367   1.700 -0.1361 -0.0832  0.2140
 8278SOL    HW125733   3.404   2.435   1.691  1.6197 -1.4642  2.8530
 8278SOL    HW225734   3.370   2.279   1.725 -2.7060 -0.8339  2.0066
 8279SOL     OW25735   4.533   6.369   4.288  0.4006  0.4543 -0.1178
 8279SOL    HW125736   4.502   6.313   4.211  1.3109 -1.1982  0.6646
 8279SOL    HW225737   4.633   6.378   4.283  0.6446 -0.8606  1.5827
 8280SOL     OW25738   2.949   3.381   5.516  0.2521 -0.1339  0.2162
 8280SOL    HW125739   2.940   3.286   5.484  0.3456 -0.2568  0.5573
 8280SOL    HW225740   2.858   3.417   5.536  0.1122  0.2298 -1.0125
 8281SOL     OW25741   0.436   5.216   1.492  0.0229 -0.2204  0.0101
 8281SOL    HW125742   0.522   5.243   1.448  1.3698 -0.5870  2.2640
 8281SOL    HW225743   0.421   5.274   1.573 -1.2063 -0.9922  0.3577
 8282SOL     OW25744   6.246   1.434   5.463  0.8016 -0.1803 -0.1185
 8282SOL    HW125745   6.265   1.530   5.443  1.0351  0.1444  1.5393
 8282SOL    HW225746   6.184   1.398   5.393 -1.1465  1.8311  0.4599
 8283SOL     OW25747   1.055   4.542   0.721 -0.9181 -0.0122 -0.0745
 8283SOL    HW125748   1.139   4.564   0.671 -0.2301  0.2267  1.1491
 8283SOL    HW225749   1.051   4.444   0.739 -1.5779 -0.2327 -1.2703
 8284SOL     OW25750   5.575   4.554   0.592 -0.0824 -0.6679  0.5938
 8284SOL    HW125751   5.610   4.618   0.523  1.7843 -2.4501 -0.2191
 8284SOL    HW225752   5.481   4.528   0.569 -0.5903  1.1080  0.5018
 8285SOL     OW25753   3.274   3.364   0.050 -0.3580 -0.5462 -0.1829
 8285SOL    HW125754   3.253   3.444   0.107 -0.9759 -1.5323  1.0326
 8285SOL    HW225755   3.353   3.316   0.088 -0.7237 -1.1721 -0.2035
 8286SOL     OW25756   6.993   3.715   6.336 -0.0832  0.2207  0.8323
 8286SOL    HW125757   6.929   3.640   6.354  0.7457  0.0568  3.5997
 8286SOL    HW225758   6.942   3.799   6.320 -1.0912 -1.0091 -3.7834
 8287SOL     OW25759   2.980   6.217   5.358  0.6272 -0.2771  0.7618
 8287SOL    HW125760   3.025   6.282   5.296  1.3511  1.3842  2.8950
 8287SOL    HW225761   2.887   6.248   5.377 -0.7717 -2.4945 -1.8598
 8288SOL     OW25762   2.153   2.016   4.040  0.3752 -0.5297  0.2106
 8288SOL    HW125763   2.193   2.102   4.073  0.8260 -0.7313  0.1897
 8288SOL    HW225764   2.101   2.034   3.956 -0.5196 -0.0697  0.8486
 8289SOL     OW25765   0.837   0.487   1.217 -0.0737 -0.7682 -0.2276
 8289SOL    HW125766   0.822   0.573   1.168  0.1632  0.2699  1.4670
 8289SOL    HW225767   0.899   0.502   1.293 -1.1102 -2.1392  0.9470
 8290SOL     OW25768   5.227   3.250   4.024  0.7301 -0.3441  0.3506
 8290SOL    HW125769   5.324   3.245   4.000  0.2933 -1.0869 -1.3959
 8290SOL    HW225770   5.205   3.175   4.087  0.9419 -1.2818 -0.6618
 8291SOL     OW25771   4.374   1.197   0.075  0.4413  0.1932 -0.1762
 8291SOL    HW125772   4.294   1.161   0.123  0.3484 -0.0955 -0.5516
 8291SOL    HW225773   4.443   1.126   0.068  0.1426 -0.0009 -1.1818
 8292SOL     OW25774   2.717   5.888   0.816  0.4220 -0.2381  0.4707
 8292SOL    HW125775   2.672   5.916   0.731  0.9701  0.5466  0.4300
 8292SOL    HW225776   2.791   5.824   0.795  0.2165 -0.4603  0.4123
 8293SOL     OW25777   6.095   6.267   6.507  0.3150  0.0393 -0.0432
 8293SOL    HW125778   6.154   6.186   6.507  0.2423 -0.0946  2.1809
 8293SOL    HW225779   6.029   6.260   6.432 -0.8116 -2.8712  1.0442
 8294SOL     OW25780   6.613   1.213   6.334  0.4975 -0.1772  0.0586
 8294SOL    HW125781   6.517   1.183   6.336  0.0543  1.2251  0.9819
 8294SOL    HW225782   6.648   1.221   6.427  0.7055  1.7098 -0.1419
 8295SOL     OW25783   4.269   3.243   6.821  0.0834  0.0478  0.3569
 8295SOL    HW125784   4.234   3.307   6.889 -1.3451 -1.5608  1.2249
 8295SOL    HW225785   4.315   3.167   6.868  1.6824  0.3622 -0.6350
 8296SOL     OW25786   2.494   4.898   6.030 -0.4954  0.2531 -0.6087
 8296SOL    HW125787   2.495   4.956   6.111 -0.2857 -1.8765  1.0135
 8296SOL    HW225788   2.581   4.905   5.983 -0.1973  0.6638 -0.0080
 8297SOL     OW25789   5.773   2.768   3.913  0.5017 -0.5627 -0.1683
 8297SOL    HW125790   5.827   2.765   3.829 -0.4130 -1.2067 -0.7485
 8297SOL    HW225791   5.828   2.731   3.988  1.7995  1.2355 -0.1780
 8298SOL     OW25792   5.423   6.089   2.058 -0.1482 -0.2976  0.3467
 8298SOL    HW125793   5.515   6.064   2.027  0.1284 -1.6383  2.0974
 8298SOL    HW225794   5.367   6.115   1.979  2.0256  1.6990 -0.6445
 8299SOL     OW25795   0.729   2.410   2.762  1.1315 -0.1884  0.0455
 8299SOL    HW125796   0.790   2.336   2.734 -0.9060 -1.2856 -1.8221
 8299SOL    HW225797   0.777   2.471   2.824  3.7562 -1.5520 -0.5029
 8300SOL     OW25798   6.155   4.299   4.497  0.0183 -0.4453 -0.1816
 8300SOL    HW125799   6.104   4.214   4.486 -2.4674  0.8325  0.6306
 8300SOL    HW225800   6.091   4.373   4.521  2.0124  1.7290 -1.1668
 8301SOL     OW25801   3.815   3.633   5.860  0.3212 -0.0341  0.4623
 8301SOL    HW125802   3.899   3.688   5.856 -0.0527  0.5479  0.4181
 8301SOL    HW225803   3.807   3.577   5.777  0.9029 -0.4506  0.6842
 8302SOL     OW25804   6.937   5.960   6.728 -0.0855  0.8568 -0.4664
 8302SOL    HW125805   6.895   5.911   6.804 -1.0293  3.2996  0.7013
 8302SOL    HW225806   6.867   5.986   6.662  0.3761  0.7331 -1.0136
 8303SOL     OW25807   6.147   0.683   5.385 -0.9468  0.1930 -0.0068
 8303SOL    HW125808   6.189   0.668   5.475 -1.3939  1.3821  0.4105
 8303SOL    HW225809   6.134   0.595   5.340  0.6586 -0.3189  0.4615
 8304SOL     OW25810   0.528   3.026   5.433 -0.2147  0.1035  0.7119
 8304SOL    HW125811   0.570   2.950   5.384 -3.0532 -0.6098 -0.8275
 8304SOL    HW225812   0.500   2.996   5.524 -1.3320 -0.7552  0.1077
 8305SOL     OW25813   3.687   5.721   3.729  0.3867  0.6287 -0.1455
 8305SOL    HW125814   3.777   5.697   3.765  0.1000 -2.4653 -1.2329
 8305SOL    HW225815   3.662   5.659   3.655 -4.0549 -0.9518  2.3009
 8306SOL     OW25816   2.738   3.565   5.648 -0.1232 -0.1276  0.3190
 8306SOL    HW125817   2.652   3.554   5.598  0.8418 -2.1597 -1.0149
 8306SOL    HW225818   2.731   3.523   5.738 -1.3419  2.1286  1.3732
 8307SOL     OW25819   3.405   6.237   0.457 -0.5705  0.3285 -0.6308
 8307SOL    HW125820   3.377   6.168   0.390  0.1189  1.1849 -1.8493
 8307SOL    HW225821   3.381   6.206   0.549  1.0913 -2.2202 -0.9738
 8308SOL     OW25822   4.012   2.233   2.447 -0.2179  0.5169  0.3799
 8308SOL    HW125823   3.991   2.231   2.544 -0.2489 -0.3829  0.3614
 8308SOL    HW225824   4.100   2.277   2.432  1.3927 -2.2280  1.1384
 8309SOL     OW25825   3.914   5.356   2.463  0.9755  0.6220  0.1893
 8309SOL    HW125826   3.837   5.295   2.446  0.7613  0.4752  1.5851
 8309SOL    HW225827   3.965   5.324   2.543  2.3287  0.8756 -0.5574
 8310SOL     OW25828   6.194   4.096   6.446 -0.0261  0.0380 -0.1444
 8310SOL    HW125829   6.191   4.040   6.529  0.4582  1.3308  0.7718
 8310SOL    HW225830   6.116   4.159   6.445  0.1574  0.2636 -0.5032
 8311SOL     OW25831   6.119   1.277   3.059  0.5896 -0.5696  0.2948
 8311SOL    HW125832   6.103   1.270   3.158 -0.4525  0.4854  0.2204
 8311SOL    HW225833   6.032   1.287   3.012  1.1550  0.0962 -0.6290
 8312SOL     OW25834   4.813   4.814   2.108 -0.1897 -0.6347 -0.0266
 8312SOL    HW125835   4.861   4.815   2.196  0.2481 -0.9004 -0.2556
 8312SOL    HW225836   4.715   4.809   2.123 -0.2610  1.4786  0.4831
 8313SOL     OW25837   2.541   1.855   1.539  0.1128  0.0474  0.3911
 8313SOL    HW125838   2.596   1.933   1.511  0.2894  0.8131  2.6686
 8313SOL    HW225839   2.447   1.867   1.508 -0.0964  1.6919  1.5799
 8314SOL     OW25840   5.499   6.846   1.542  0.6944 -0.2579 -0.3807
 8314SOL    HW125841   5.585   6.795   1.551  0.5016 -0.2275  2.6638
 8314SOL    HW225842   5.449   6.812   1.462  1.8461 -2.9221 -0.0911
 8315SOL     OW25843   5.172   4.101   7.003 -0.6231 -0.0722 -0.3173
 8315SOL    HW125844   5.201   4.062   7.090  1.0075  0.5857 -0.5183
 8315SOL    HW225845   5.197   4.198   7.001  0.0469 -0.2501 -1.7876
 8316SOL     OW25846   1.412   2.032   0.691  0.2110 -0.6047 -0.1354
 8316SOL    HW125847   1.505   2.040   0.656 -0.1267 -0.0183 -0.9113
 8316SOL    HW225848   1.414   1.988   0.781  1.2067 -0.8562 -0.2721
 8317SOL     OW25849   3.120   5.377   1.913 -0.1793 -0.2678  0.3986
 8317SOL    HW125850   3.055   5.453   1.911  0.5742  0.3772 -0.0464
 8317SOL    HW225851   3.141   5.348   1.820  1.5857  0.7896  0.4104
 8318SOL     OW25852   4.457   1.182   3.508 -0.5112 -0.5146 -0.5757
 8318SOL    HW125853   4.450   1.281   3.524  3.8163 -0.3340  1.5359
 8318SOL    HW225854   4.423   1.133   3.589 -1.1136 -0.7085 -0.9418
 8319SOL     OW25855   4.674   2.298   5.543 -0.6232  0.3234 -0.2849
 8319SOL    HW125856   4.765   2.322   5.578  0.7476 -0.7732 -2.8491
 8319SOL    HW225857   4.646   2.210   5.581 -0.4782  0.4918  0.2283
 8320SOL     OW25858   1.898   3.897   1.523  0.2964 -0.0187 -0.4815
 8320SOL    HW125859   1.880   3.953   1.604 -0.4769 -1.4137  0.3460
 8320SOL    HW225860   1.993   3.866   1.525 -0.0348 -1.0298  0.5521
 8321SOL     OW25861   0.389   6.923   6.581  0.0130 -0.0327  0.4083
 8321SOL    HW125862   0.368   6.901   6.677 -0.4808 -2.4065 -0.1788
 8321SOL    HW225863   0.342   7.007   6.555  0.6628  1.0307  2.3861
 8322SOL     OW25864   6.146   0.527   6.200 -0.3650  0.8534 -0.0260
 8322SOL    HW125865   6.090   0.512   6.118  0.0033 -2.1413  0.1876
 8322SOL    HW225866   6.240   0.502   6.181 -0.1930  0.5344  1.2147
 8323SOL     OW25867   6.613   1.215   2.755  0.1446  0.3710  0.0117
 8323SOL    HW125868   6.597   1.176   2.846 -0.5423  0.5577 -0.0218
 8323SOL    HW225869   6.600   1.144   2.686  0.7553  0.2070  0.0606
 8324SOL     OW25870   5.852   1.358   4.488 -0.2720  0.0752  0.0747
 8324SOL    HW125871   5.891   1.269   4.465  0.3253 -0.0946  1.6332
 8324SOL    HW225872   5.840   1.365   4.587 -0.5541  1.6295 -0.0416
 8325SOL     OW25873   4.020   3.475   3.652  0.2470  0.1117 -0.2060
 8325SOL    HW125874   3.957   3.539   3.695 -0.6840 -0.8583 -0.0911
 8325SOL    HW225875   4.034   3.500   3.557 -1.1553 -0.2663 -0.5240
 8326SOL     OW25876   5.419   5.520   4.998  0.0042  0.4102  0.5413
 8326SOL    HW125877   5.462   5.440   5.039  0.3698 -0.6064 -1.6805
 8326SOL    HW225878   5.328   5.533   5.037 -0.3631 -1.5729  0.4490
 8327SOL     OW25879   6.049   2.564   5.317  0.0428 -0.0545  0.1118
 8327SOL    HW125880   6.077   2.608   5.232 -1.9847  0.3295 -0.4190
 8327SOL    HW225881   6.036   2.466   5.300 -0.9159  0.1152 -0.1998
 8328SOL     OW25882   0.950   2.194   5.610  1.2226 -0.4743  0.2595
 8328SOL    HW125883   0.992   2.175   5.521  0.3007 -2.9431  0.2769
 8328SOL    HW225884   0.923   2.290   5.614  2.4002 -0.0057 -1.6162
 8329SOL     OW25885   6.252   3.412   6.266  0.5402  0.6322  0.0186
 8329SOL    HW125886   6.260   3.425   6.365 -0.4132  0.7969  0.0851
 8329SOL    HW225887   6.322   3.467   6.220  0.9390  0.6201  0.5945
 8330SOL     OW25888   0.477   0.609   0.830  0.3895  0.0152 -0.4311
 8330SOL    HW125889   0.506   0.513   0.836  0.5502  0.1422  1.4198
 8330SOL    HW225890   0.383   0.618   0.862  0.2040  0.4115 -1.0747
 8331SOL     OW25891   2.439   5.675   0.870 -0.4407  0.0478  0.2445
 8331SOL    HW125892   2.421   5.761   0.918 -0.5532  0.9430 -1.3442
 8331SOL    HW225893   2.353   5.642   0.829 -0.2601 -0.4612  0.2726
 8332SOL     OW25894   6.392   2.506   1.322 -0.5224 -0.0196  0.1535
 8332SOL    HW125895   6.486   2.476   1.340 -0.9566 -0.5127  1.7498
 8332SOL    HW225896   6.357   2.458   1.241  0.2721 -0.5622  0.1126
 8333SOL     OW25897   0.778   6.618   0.356  0.3479  0.1614  0.0572
 8333SOL    HW125898   0.689   6.583   0.385 -0.7143  2.6727  0.0411
 8333SOL    HW225899   0.767   6.710   0.318  3.1669  1.2472  1.6175
 8334SOL     OW25900   4.986   2.189   3.549  0.0966  0.6945 -0.0980
 8334SOL    HW125901   4.953   2.279   3.522 -1.7809  0.7935  2.1616
 8334SOL    HW225902   5.050   2.197   3.625  1.3398  0.1900 -1.0632
 8335SOL     OW25903   0.228   0.618   0.228 -0.1173 -0.0059 -0.0671
 8335SOL    HW125904   0.236   0.702   0.282  0.0763  0.9501 -1.4966
 8335SOL    HW225905   0.308   0.561   0.242  0.6641  0.9550 -0.5040
 8336SOL     OW25906   6.731   1.652   2.475 -0.1158  0.2145  0.1056
 8336SOL    HW125907   6.728   1.639   2.574  0.4969 -3.3843 -0.2216
 8336SOL    HW225908   6.679   1.579   2.430 -1.1811  2.2888 -2.2774
 8337SOL     OW25909   1.867   6.025   3.007 -0.6109 -0.1819  0.5510
 8337SOL    HW125910   1.851   6.124   2.999 -0.9198 -0.1465  1.4366
 8337SOL    HW225911   1.950   6.000   2.957 -0.8075  0.4441 -0.0974
 8338SOL     OW25912   2.124   4.443   3.173  0.6009 -0.3675  0.7216
 8338SOL    HW125913   2.042   4.491   3.143  0.2388 -1.0648  0.5662
 8338SOL    HW225914   2.184   4.427   3.094  1.2956  0.8752  0.9651
 8339SOL     OW25915   6.291   0.849   2.303 -0.2614 -0.3591 -0.4016
 8339SOL    HW125916   6.334   0.799   2.379 -2.1369 -1.2772  0.1094
 8339SOL    HW225917   6.362   0.888   2.245  1.2452 -0.2475  1.4081
 8340SOL     OW25918   5.106   5.072   6.972  0.4551 -0.7760  0.7306
 8340SOL    HW125919   5.098   5.171   6.978  2.6495 -0.5230  0.2804
 8340SOL    HW225920   5.015   5.031   6.982 -0.3123  1.1649  2.6115
 8341SOL     OW25921   2.601   6.487   0.250  0.2204 -0.0838 -0.0801
 8341SOL    HW125922   2.656   6.527   0.176  1.0343 -1.0810 -0.0394
 8341SOL    HW225923   2.509   6.525   0.247  1.0971  2.2142  0.3255
 8342SOL     OW25924   5.713   1.843   2.530  0.0471  0.2079 -0.2714
 8342SOL    HW125925   5.770   1.835   2.448 -2.1721  1.0239 -2.0268
 8342SOL    HW225926   5.766   1.884   2.604  2.0989 -0.4137 -1.3329
 8343SOL     OW25927   6.784   4.439   4.981 -0.3557 -0.3544  0.2997
 8343SOL    HW125928   6.801   4.379   4.903  1.7887  1.3817 -0.6884
 8343SOL    HW225929   6.731   4.518   4.952 -0.6561 -0.3213  0.9094
 8344SOL     OW25930   4.306   5.582   5.177 -0.2612 -0.4133  0.2675
 8344SOL    HW125931   4.275   5.487   5.175  0.7903 -0.7705  0.1718
 8344SOL    HW225932   4.340   5.608   5.087  0.4347 -0.2902  0.5610
 8345SOL     OW25933   5.713   6.654   2.988  0.1250 -0.1672  0.5578
 8345SOL    HW125934   5.666   6.591   3.051  0.4894 -1.9624 -0.8844
 8345SOL    HW225935   5.787   6.701   3.037  0.6470 -1.7992  1.4043
 8346SOL     OW25936   3.591   4.909   1.665  0.6227 -0.1686  0.1242
 8346SOL    HW125937   3.541   4.832   1.703 -2.2491  1.7213  0.5236
 8346SOL    HW225938   3.559   4.994   1.708  0.6672  1.6353 -3.1101
 8347SOL     OW25939   4.914   6.066   3.771  1.0037 -0.7675 -0.5299
 8347SOL    HW125940   4.818   6.070   3.797  1.5274 -0.1297  1.4853
 8347SOL    HW225941   4.936   5.974   3.739  0.2262 -1.5815  1.1625
 8348SOL     OW25942   0.984   1.962   6.661 -0.3088  0.2352 -0.0634
 8348SOL    HW125943   1.002   1.897   6.736 -0.7731  0.3039  0.1128
 8348SOL    HW225944   0.956   1.911   6.580  1.5240  0.0606 -0.6199
 8349SOL     OW25945   0.609   4.518   0.955 -0.6442 -0.4820  0.5425
 8349SOL    HW125946   0.684   4.566   1.000 -0.4502 -0.1763 -0.1009
 8349SOL    HW225947   0.626   4.512   0.857 -1.3147 -0.6775  0.4286
 8350SOL     OW25948   0.575   1.374   4.324  0.4091 -0.3933 -0.8500
 8350SOL    HW125949   0.546   1.462   4.361 -0.1208 -0.3128 -1.4348
 8350SOL    HW225950   0.496   1.312   4.317  1.0962 -1.6337  1.4309
 8351SOL     OW25951   6.572   5.639   3.123 -0.1369  0.1258  0.4001
 8351SOL    HW125952   6.488   5.685   3.095 -0.3868 -0.5900 -0.0597
 8351SOL    HW225953   6.581   5.553   3.073 -0.1149 -0.7475  1.8478
 8352SOL     OW25954   6.661   6.505   3.071 -0.3090 -0.0530  0.3097
 8352SOL    HW125955   6.652   6.420   3.020 -1.9682  1.2587 -1.7800
 8352SOL    HW225956   6.723   6.567   3.022  2.1241 -0.5040  2.5861
 8353SOL     OW25957   0.253   4.336   3.173 -0.1193  0.3557 -0.0101
 8353SOL    HW125958   0.257   4.355   3.075  1.9383 -0.0559 -0.0704
 8353SOL    HW225959   0.280   4.418   3.224 -1.2931  0.6028  0.2365
 8354SOL     OW25960   2.257   1.136   5.980 -0.0766 -0.0424 -0.0066
 8354SOL    HW125961   2.315   1.217   5.973 -1.6641  1.0284 -2.2973
 8354SOL    HW225962   2.251   1.092   5.890 -2.8549 -0.0039  0.0610
 8355SOL     OW25963   3.313   7.020   1.786 -0.1835  0.6093 -0.3160
 8355SOL    HW125964   3.264   6.937   1.813 -0.7555  0.8299 -0.6581
 8355SOL    HW225965   3.306   7.087   1.860  1.5650 -0.1639  0.6098
 8356SOL     OW25966   1.673   6.726   6.323 -0.0474 -0.6688 -0.0358
 8356SOL    HW125967   1.684   6.641   6.271 -0.7101 -0.2591 -0.8834
 8356SOL    HW225968   1.595   6.717   6.386 -0.8415 -0.3296 -0.9385
 8357SOL     OW25969   3.877   5.969   5.889  0.1050 -0.3077  0.0274
 8357SOL    HW125970   3.820   5.979   5.808  3.1678  2.0627 -2.0871
 8357SOL    HW225971   3.946   5.899   5.873  0.4787 -0.1244  0.7918
 8358SOL     OW25972   3.009   4.008   5.464 -0.1201 -0.0489 -0.4615
 8358SOL    HW125973   2.956   3.933   5.505  1.5601 -0.6915  0.6600
 8358SOL    HW225974   3.079   3.970   5.404 -1.4856  0.8283 -2.7545
 8359SOL     OW25975   3.119   6.695   4.577 -0.4697  0.5300 -0.1740
 8359SOL    HW125976   3.115   6.785   4.533 -0.2453  0.4121 -0.4360
 8359SOL    HW225977   3.121   6.707   4.676  0.8313  0.8662 -0.2214
 8360SOL     OW25978   5.947   6.570   3.132 -0.1774  0.1787  0.1125
 8360SOL    HW125979   6.031   6.551   3.183 -0.7914 -0.4282  0.9333
 8360SOL    HW225980   5.877   6.505   3.160 -1.2763  1.4246  0.3138
 8361SOL     OW25981   0.995   0.275   1.989  0.4139 -0.1720  0.0348
 8361SOL    HW125982   1.006   0.176   2.001  0.0619 -0.4558 -1.7910
 8361SOL    HW225983   0.937   0.311   2.062  0.6731 -1.2743  0.8072
 8362SOL     OW25984   4.898   2.279   1.236  0.0844  0.3598 -0.2091
 8362SOL    HW125985   4.960   2.282   1.158  1.6296  0.1976  0.9591
 8362SOL    HW225986   4.816   2.332   1.215  0.2244 -0.1131 -2.1129
 8363SOL     OW25987   0.823   2.608   0.154  0.3101 -0.0876  0.3337
 8363SOL    HW125988   0.850   2.659   0.072 -2.0233  0.3262 -0.2359
 8363SOL    HW225989   0.830   2.510   0.135  2.2716 -0.0468  0.5654
 8364SOL     OW25990   6.190   3.170   3.289 -0.0809 -0.0293  0.1193
 8364SOL    HW125991   6.157   3.121   3.370 -0.3592  0.7224  0.4736
 8364SOL    HW225992   6.117   3.229   3.255  0.4478  0.5953  0.0660
 8365SOL     OW25993   3.069   2.834   5.847 -0.2067 -0.3387  0.4178
 8365SOL    HW125994   3.006   2.826   5.769  0.8769 -0.0268 -0.5118
 8365SOL    HW225995   3.095   2.930   5.859 -0.2900 -0.3997  1.1097
 8366SOL     OW25996   3.713   5.170   5.027  0.1937  0.2514 -0.1385
 8366SOL    HW125997   3.723   5.144   4.931 -2.2925  0.0756 -0.4269
 8366SOL    HW225998   3.756   5.259   5.042 -0.8283  1.0803 -1.8608
 8367SOL     OW25999   5.603   5.545   4.272  0.4977  0.4804  0.0667
 8367SOL    HW126000   5.528   5.501   4.321 -0.0775  1.8998  0.5185
 8367SOL    HW226001   5.566   5.591   4.191  0.9984  0.6053 -0.0922
 8368SOL     OW26002   3.348   3.285   6.113  0.0798  0.4325 -0.3530
 8368SOL    HW126003   3.429   3.299   6.057  0.4728  3.1747  0.7209
 8368SOL    HW226004   3.341   3.360   6.179 -1.4095 -1.5964  1.9575
 8369SOL     OW26005   2.069   3.293   0.806 -0.1434 -0.0218  0.5951
 8369SOL    HW126006   2.094   3.349   0.885  1.3107  1.0890 -0.5794
 8369SOL    HW226007   2.063   3.351   0.724  0.6824 -1.4650 -0.5437
 8370SOL     OW26008   1.921   0.346   6.286  0.7989  0.7853  0.4702
 8370SOL    HW126009   1.987   0.327   6.213  0.7478  1.3006  0.2870
 8370SOL    HW226010   1.929   0.442   6.314 -1.7945  1.6814 -1.5209
 8371SOL     OW26011   1.562   2.218   6.217 -0.6729  0.0882 -0.3070
 8371SOL    HW126012   1.516   2.271   6.288 -0.2651 -0.4425  0.3632
 8371SOL    HW226013   1.655   2.253   6.204  0.0670 -1.2360  1.0633
 8372SOL     OW26014   0.921   0.080   2.888  0.2445 -0.2352 -0.2280
 8372SOL    HW126015   0.982   0.005   2.863  0.5011 -0.9504  2.3473
 8372SOL    HW226016   0.967   0.167   2.870  0.9465 -0.7196 -0.8380
 8373SOL     OW26017   3.729   6.520   5.261  0.2019  0.0611  0.0900
 8373SOL    HW126018   3.772   6.451   5.320  2.4793  1.0467 -0.3118
 8373SOL    HW226019   3.755   6.502   5.166 -1.3450 -0.0190 -0.3416
 8374SOL     OW26020   6.676   1.127   0.031 -0.2825 -0.3924  0.2041
 8374SOL    HW126021   6.678   1.101   0.128  1.1027 -2.0506 -0.2174
 8374SOL    HW226022   6.665   1.044  -0.024  1.3070  0.2416 -1.1370
 8375SOL     OW26023   4.691   5.773   0.262  0.1761  0.3169  0.2569
 8375SOL    HW126024   4.657   5.727   0.344 -0.3698  1.1510  0.5144
 8375SOL    HW226025   4.766   5.834   0.287  0.4689  0.0548  0.0219
 8376SOL     OW26026   3.490   5.582   4.488  0.0336 -0.1153  0.4433
 8376SOL    HW126027   3.446   5.650   4.547  2.0495  0.6302  1.1885
 8376SOL    HW226028   3.512   5.624   4.400  2.4542  0.7029  1.3569
 8377SOL     OW26029   0.057   5.912   1.419  0.6604 -0.2657 -0.4887
 8377SOL    HW126030   0.068   6.011   1.434 -0.4187 -0.4943  2.7181
 8377SOL    HW226031  -0.034   5.895   1.380  1.4101  0.0421 -2.4622
 8378SOL     OW26032   5.960   2.685   4.475  0.1536  0.2282  0.2942
 8378SOL    HW126033   6.008   2.662   4.559 -0.7081  1.4936  1.1704
 8378SOL    HW226034   6.012   2.651   4.396  1.5318 -0.0149  1.2762
 8379SOL     OW26035   6.908   5.541   0.747 -0.0978 -0.5744  0.6036
 8379SOL    HW126036   6.978   5.474   0.771  0.5157 -0.3106 -0.4117
 8379SOL    HW226037   6.918   5.568   0.652 -0.9325  0.2580  0.7333
 8380SOL     OW26038   3.299   1.892   3.604  0.0934 -0.9877  0.0700
 8380SOL    HW126039   3.348   1.940   3.677  0.2753 -1.8277  0.5084
 8380SOL    HW226040   3.305   1.794   3.618 -1.0885 -1.1275 -0.2929
 8381SOL     OW26041   1.307   4.642   5.235 -0.5527 -0.1757 -0.0994
 8381SOL    HW126042   1.246   4.567   5.261 -1.2291  0.4968  0.2708
 8381SOL    HW226043   1.342   4.687   5.318  1.5578 -1.4025 -0.2355
 8382SOL     OW26044   0.994   1.631   2.365 -0.5071 -0.0226 -0.0734
 8382SOL    HW126045   0.909   1.579   2.361 -0.0519 -0.7614 -0.3144
 8382SOL    HW226046   1.034   1.637   2.274  1.2587 -2.3521  0.4387
 8383SOL     OW26047   2.211   3.327   6.548 -0.3213 -0.1859  0.1825
 8383SOL    HW126048   2.260   3.283   6.623  0.0324 -0.2717 -0.0997
 8383SOL    HW226049   2.113   3.314   6.560 -0.3337  0.7526  1.2422
 8384SOL     OW26050   1.472   5.024   2.389  0.6701  0.8581  0.1247
 8384SOL    HW126051   1.432   4.964   2.320  0.2653  2.3753 -1.0341
 8384SOL    HW226052   1.420   5.017   2.474 -0.5135  0.9333 -0.5730
 8385SOL     OW26053   5.090   1.354   2.672 -0.4009 -0.6543 -0.7517
 8385SOL    HW126054   5.132   1.359   2.581 -2.1378 -0.2690 -1.5762
 8385SOL    HW226055   5.086   1.446   2.712 -0.2959 -0.7174 -0.5945
 8386SOL     OW26056   1.402   3.834   3.196 -0.3453  0.8286  0.1130
 8386SOL    HW126057   1.410   3.910   3.130  0.6473  1.2749  0.7276
 8386SOL    HW226058   1.493   3.808   3.227 -0.7214 -0.2885  0.3012
 8387SOL     OW26059   6.757   3.548   1.370 -0.5883 -0.3701  0.1051
 8387SOL    HW126060   6.733   3.642   1.348 -0.8152 -0.5456 -0.4006
 8387SOL    HW226061   6.781   3.499   1.287  0.3352 -0.5430  0.4534
 8388SOL     OW26062   1.498   2.279   2.347  0.3032 -0.2327 -0.5706
 8388SOL    HW126063   1.447   2.354   2.388  0.4060 -0.8496  0.7329
 8388SOL    HW226064   1.587   2.312   2.314  0.0106  0.3688 -0.7618
 8389SOL     OW26065   0.839   2.442   3.404 -0.1379  0.1120  0.0956
 8389SOL    HW126066   0.793   2.425   3.317  0.3357 -3.2367  0.3380
 8389SOL    HW226067   0.936   2.420   3.396  0.5373  2.5322  0.8091
 8390SOL     OW26068   5.149   4.077   4.904  0.1085  0.2975  0.3392
 8390SOL    HW126069   5.050   4.087   4.888 -0.2180 -1.7565  0.8008
 8390SOL    HW226070   5.175   3.982   4.888  1.9239  0.6935  0.8112
 8391SOL     OW26071   6.275   0.538   1.457 -0.6460  0.0061 -0.3297
 8391SOL    HW126072   6.215   0.549   1.377  0.0501 -0.4444 -0.9171
 8391SOL    HW226073   6.346   0.609   1.455 -1.9165  1.4158  1.0928
 8392SOL     OW26074   4.173   3.642   5.625  0.4902 -0.2273 -0.0835
 8392SOL    HW126075   4.136   3.729   5.592  0.5219  0.1139  0.7596
 8392SOL    HW226076   4.265   3.629   5.587  0.1699 -0.2830 -0.8559
 8393SOL     OW26077   5.828   6.710   1.009 -0.2914 -0.0814  0.2998
 8393SOL    HW126078   5.864   6.706   1.102  1.5108  2.0321 -0.2367
 8393SOL    HW226079   5.897   6.677   0.945 -0.6869  0.5094 -0.4525
 8394SOL     OW26080   6.734   3.420   6.189 -0.0929  0.1074 -0.5122
 8394SOL    HW126081   6.832   3.418   6.167  0.2745 -0.5681  1.0814
 8394SOL    HW226082   6.688   3.345   6.140  0.1000  0.6562 -1.5608
 8395SOL     OW26083   0.419   0.359   5.025 -0.2154  0.4328 -0.5100
 8395SOL    HW126084   0.343   0.412   4.987  0.2344  0.8581 -0.8357
 8395SOL    HW226085   0.394   0.263   5.030 -0.2739  0.3518 -1.9579
 8396SOL     OW26086   4.703   5.986   5.727  0.4961 -0.1999 -0.0348
 8396SOL    HW126087   4.698   5.916   5.656 -0.8048  0.0193 -0.1824
 8396SOL    HW226088   4.660   5.953   5.811 -0.1121  0.3898 -0.0999
 8397SOL     OW26089   5.856   1.047   3.577 -0.2530 -0.3219  1.2282
 8397SOL    HW126090   5.800   0.966   3.561  0.7133 -0.8511  0.4257
 8397SOL    HW226091   5.854   1.106   3.497  0.6481 -0.5424  1.0368
 8398SOL     OW26092   4.352   0.977   6.121  0.7573 -0.8712  0.3049
 8398SOL    HW126093   4.379   1.067   6.087  1.3187 -0.4481  1.7858
 8398SOL    HW226094   4.433   0.918   6.127  0.3977 -1.5030 -0.6408
 8399SOL     OW26095   4.924   6.254   0.815  0.8567 -0.3852 -0.4194
 8399SOL    HW126096   4.965   6.172   0.774  2.2895 -0.5318  1.1827
 8399SOL    HW226097   4.928   6.247   0.915 -1.1152  0.6418 -0.2228
 8400SOL     OW26098   1.127   1.600   6.660 -0.1479  0.1652  0.3391
 8400SOL    HW126099   1.185   1.540   6.716 -0.2601  0.9090  1.2614
 8400SOL    HW226100   1.031   1.586   6.684 -0.4510 -1.3521 -1.4593
 8401SOL     OW26101   2.670   6.487   0.759  0.1874 -0.0304 -0.0022
 8401SOL    HW126102   2.719   6.402   0.776  0.3116 -0.3055 -1.5769
 8401SOL    HW226103   2.619   6.480   0.673  0.0530  1.4128 -0.0784
 8402SOL     OW26104   5.211   6.032   6.166 -0.0821 -0.3895  0.2826
 8402SOL    HW126105   5.139   6.059   6.102  0.0292 -1.4494 -0.3229
 8402SOL    HW226106   5.185   6.057   6.259 -1.4554 -1.1384  0.1293
 8403SOL     OW26107   6.599   5.069   4.646 -0.3832 -0.0555  0.2784
 8403SOL    HW126108   6.621   5.044   4.552  1.4590 -0.7288  0.8414
 8403SOL    HW226109   6.677   5.118   4.686 -2.2024  2.8069  0.5997
 8404SOL     OW26110   0.727   1.729   0.773 -0.7533  0.5207  0.0166
 8404SOL    HW126111   0.715   1.698   0.867  1.0034  0.1168  0.1467
 8404SOL    HW226112   0.701   1.826   0.767 -0.5471  0.6539  0.9967
 8405SOL     OW26113   2.626   0.415   5.322  0.0310 -0.3669  0.0566
 8405SOL    HW126114   2.688   0.405   5.400 -0.6664  0.3968  0.7245
 8405SOL    HW226115   2.646   0.501   5.274 -0.6681  0.0005  0.4208
 8406SOL     OW26116   5.696   4.886   6.149  0.9033 -0.1378 -0.1826
 8406SOL    HW126117   5.647   4.881   6.062 -2.3255  0.5014  1.4463
 8406SOL    HW226118   5.700   4.981   6.179 -0.2815 -0.5938  1.5052
 8407SOL     OW26119   3.465   5.320   4.480 -0.0469  0.2989  0.2105
 8407SOL    HW126120   3.436   5.284   4.568  3.6163  1.0327  1.9019
 8407SOL    HW226121   3.477   5.419   4.485  0.5757  0.3136 -1.0022
 8408SOL     OW26122   4.489   2.099   3.388 -0.2445  0.0489 -0.4615
 8408SOL    HW126123   4.393   2.125   3.380 -0.2537 -0.2525 -1.4268
 8408SOL    HW226124   4.512   2.031   3.319  0.4471 -0.5588  0.3300
 8409SOL     OW26125   4.103   1.859   0.352 -0.6211  0.1666 -0.2613
 8409SOL    HW126126   4.164   1.834   0.276  0.7256  1.0827  0.4917
 8409SOL    HW226127   4.065   1.775   0.392  1.1757 -0.5323  0.0746
 8410SOL     OW26128   0.202   1.569   2.872  0.4809 -0.0276 -0.2898
 8410SOL    HW126129   0.162   1.510   2.802  0.5360  0.8816 -1.0970
 8410SOL    HW226130   0.235   1.512   2.948 -1.3336 -0.8820 -0.0846
 8411SOL     OW26131   0.914   3.523   5.640 -0.0727 -0.0816  0.0646
 8411SOL    HW126132   0.933   3.569   5.727 -0.9246 -1.6952  1.1729
 8411SOL    HW226133   0.951   3.577   5.565  3.6987 -0.2625  1.6042
 8412SOL     OW26134   3.720   2.651   6.784 -0.0592 -0.4657 -0.5420
 8412SOL    HW126135   3.757   2.589   6.715 -2.0775 -0.6446 -1.5362
 8412SOL    HW226136   3.734   2.612   6.875  1.2454 -0.9745 -0.9341
 8413SOL     OW26137   3.295   4.673   5.294  0.5283  0.8183  0.2670
 8413SOL    HW126138   3.323   4.635   5.383  0.7586  0.0981 -0.1075
 8413SOL    HW226139   3.243   4.604   5.244 -0.1003  1.4285  0.0807
 8414SOL     OW26140   0.464   0.630   0.022  0.3066  0.7882  0.5348
 8414SOL    HW126141   0.426   0.538   0.026  1.6534  0.1273 -0.9410
 8414SOL    HW226142   0.473   0.667   0.114  0.3835 -0.8207  1.1968
 8415SOL     OW26143   2.703   6.057   4.004 -0.9061  0.1407 -0.3318
 8415SOL    HW126144   2.801   6.041   3.990 -0.8303  0.6714 -0.4274
 8415SOL    HW226145   2.651   6.013   3.930 -0.5472  2.3395 -1.9835
 8416SOL     OW26146   0.075   2.813   6.084  0.3404  0.6628 -0.5213
 8416SOL    HW126147   0.126   2.730   6.105 -2.5491 -1.3079 -0.6788
 8416SOL    HW226148   0.035   2.850   6.168 -0.7719  0.1476 -0.8029
 8417SOL     OW26149   0.342   5.169   4.272  0.3762 -0.4168 -0.4252
 8417SOL    HW126150   0.424   5.128   4.233  2.0273  1.0813  1.2640
 8417SOL    HW226151   0.275   5.097   4.292  1.1039 -1.6382 -2.1359
 8418SOL     OW26152   2.675   5.987   2.673 -0.2040 -0.1194 -0.0578
 8418SOL    HW126153   2.723   5.997   2.760  0.2456  0.1185 -0.3329
 8418SOL    HW226154   2.711   5.907   2.625  0.0736  0.1901 -0.3654
 8419SOL     OW26155   0.022   2.740   2.801 -0.5295 -0.1263  0.2361
 8419SOL    HW126156  -0.001   2.780   2.712  1.5963  0.9430  0.1009
 8419SOL    HW226157  -0.009   2.802   2.873  3.0558  2.2008  0.0228
 8420SOL     OW26158   3.354   6.827   3.530 -0.3114 -0.2561  0.0425
 8420SOL    HW126159   3.300   6.888   3.472  0.3692  0.1865 -0.1459
 8420SOL    HW226160   3.400   6.758   3.474 -0.2219 -0.2704  0.1327
 8421SOL     OW26161   4.193   5.733   6.701 -0.3913 -0.1615  0.4859
 8421SOL    HW126162   4.144   5.670   6.640  2.7465 -1.8243 -0.5252
 8421SOL    HW226163   4.271   5.685   6.742  1.3685  2.7305  0.7671
 8422SOL     OW26164   4.584   2.502   3.574  0.2330  0.3394  0.4071
 8422SOL    HW126165   4.567   2.532   3.668 -0.4169  0.2499  0.3188
 8422SOL    HW226166   4.500   2.466   3.534  0.6333 -0.1315 -0.0281
 8423SOL     OW26167   6.308   4.960   5.176  0.7231 -0.8911 -0.1819
 8423SOL    HW126168   6.283   4.990   5.084  2.3129  0.1203 -0.3372
 8423SOL    HW226169   6.338   5.039   5.230 -1.7202 -1.1800  1.7994
 8424SOL     OW26170   3.552   1.278   4.259  0.0725 -0.3072  0.3502
 8424SOL    HW126171   3.512   1.304   4.172  1.0537 -0.5754 -0.1870
 8424SOL    HW226172   3.646   1.310   4.265 -0.4444  1.0753  1.9619
 8425SOL     OW26173   4.002   3.824   2.547 -0.6064  0.4435  0.2624
 8425SOL    HW126174   3.979   3.921   2.539  0.0095  0.7065  1.5277
 8425SOL    HW226175   3.930   3.769   2.503  0.9746  1.5183 -4.2639
 8426SOL     OW26176   4.319   4.131   1.433  0.7197 -0.0868 -0.6420
 8426SOL    HW126177   4.395   4.196   1.433  1.6443 -1.0475  1.9514
 8426SOL    HW226178   4.353   4.039   1.410  0.4462 -0.5814  0.8216
 8427SOL     OW26179   3.417   3.812   4.336 -0.3155 -0.0293  0.3950
 8427SOL    HW126180   3.500   3.756   4.346 -0.6877 -1.2066 -2.2874
 8427SOL    HW226181   3.342   3.770   4.388  0.1240 -0.3825  0.7565
 8428SOL     OW26182   6.237   5.729   2.250 -0.5487  0.1802 -0.1273
 8428SOL    HW126183   6.272   5.787   2.177  0.1012  0.7249  0.6052
 8428SOL    HW226184   6.140   5.750   2.266 -1.0296 -0.7579 -1.5985
 8429SOL     OW26185   4.088   0.533   6.143 -0.7530 -0.1290  0.3053
 8429SOL    HW126186   4.025   0.476   6.090 -0.6434 -0.3846  0.4476
 8429SOL    HW226187   4.180   0.494   6.140 -0.8631 -0.4834  1.1739
 8430SOL     OW26188   5.362   1.199   4.204 -0.5509  0.1269  0.6588
 8430SOL    HW126189   5.448   1.173   4.160 -0.6071  1.2601 -0.1790
 8430SOL    HW226190   5.286   1.175   4.144 -0.5835  2.4351 -0.3249
 8431SOL     OW26191   1.198   4.079   0.697  0.3083  0.2528  0.2744
 8431SOL    HW126192   1.188   4.010   0.769  2.1095 -0.4856 -0.1139
 8431SOL    HW226193   1.220   4.033   0.610  0.7183  1.2683 -0.1695
 8432SOL     OW26194   5.709   6.095   0.143  0.9958 -0.1037 -0.7084
 8432SOL    HW126195   5.709   6.111   0.044  0.1990  0.0746 -0.6808
 8432SOL    HW226196   5.699   5.997   0.162 -1.5161  0.0752 -0.7915
 8433SOL     OW26197   5.186   1.939   0.670  0.4388  0.2917 -0.6427
 8433SOL    HW126198   5.186   1.870   0.597  0.8962  0.1700 -0.5316
 8433SOL    HW226199   5.114   2.006   0.653 -1.6627 -1.5451  0.5363
 8434SOL     OW26200   2.446   6.126   5.917  0.1456 -0.0233  0.1313
 8434SOL    HW126201   2.417   6.222   5.920 -2.2450 -0.6443 -0.7980
 8434SOL    HW226202   2.377   6.069   5.961  0.1288 -1.5943 -1.8050
 8435SOL     OW26203   2.842   1.134   3.771 -0.1117 -0.0255  0.0703
 8435SOL    HW126204   2.852   1.043   3.810  2.2412  1.1990  2.6604
 8435SOL    HW226205   2.880   1.135   3.678  1.6557 -1.2556  0.7259
 8436SOL     OW26206   2.242   6.718   2.125 -0.5513 -0.1343 -0.2329
 8436SOL    HW126207   2.287   6.795   2.079  0.1976  0.0242  0.7314
 8436SOL    HW226208   2.143   6.725   2.111 -0.6598  1.9079  1.1098
 8437SOL     OW26209   0.002   5.792   2.759 -0.1783  0.0099  0.0058
 8437SOL    HW126210  -0.014   5.888   2.734  2.3001 -0.1878 -3.1306
 8437SOL    HW226211   0.086   5.786   2.813  0.1708 -0.4030 -0.5654
 8438SOL     OW26212   5.998   3.505   2.074 -0.0212  0.4384 -0.0339
 8438SOL    HW126213   6.040   3.511   1.984 -0.7312  1.1258 -0.3346
 8438SOL    HW226214   5.900   3.485   2.064 -0.6355  2.8832  0.4468
 8439SOL     OW26215   6.018   5.679   1.860  0.2574 -0.2600 -0.8753
 8439SOL    HW126216   6.026   5.610   1.933 -0.3524  2.0154  1.5169
 8439SOL    HW226217   6.108   5.697   1.821  0.8280 -0.6375  0.2236
 8440SOL     OW26218   0.417   0.914   0.582 -0.8839 -0.4855 -0.0823
 8440SOL    HW126219   0.417   1.004   0.538  0.8890 -1.0821 -1.3838
 8440SOL    HW226220   0.412   0.927   0.682  0.4079  1.1084 -0.1827
 8441SOL     OW26221   6.491   0.588   3.897  0.0562 -0.6487 -0.0322
 8441SOL    HW126222   6.529   0.533   3.823  1.4814  2.1384 -1.5436
 8441SOL    HW226223   6.561   0.605   3.966 -0.9363 -2.2664  1.4462
 8442SOL     OW26224   3.493   0.055   6.170 -0.0003  0.0077  0.2003
 8442SOL    HW126225   3.585   0.084   6.143  0.0633 -1.0286 -0.7600
 8442SOL    HW226226   3.473  -0.034   6.130 -0.9956 -0.3086  1.3588
 8443SOL     OW26227   6.624   4.414   2.984  0.5489 -0.4899  0.3855
 8443SOL    HW126228   6.591   4.325   2.954  1.8157 -1.0043  0.4536
 8443SOL    HW226229   6.623   4.418   3.084 -2.0327  0.5917  0.3969
 8444SOL     OW26230   3.773   5.320   4.464  0.4570  0.1431 -0.4446
 8444SOL    HW126231   3.686   5.367   4.446 -0.7468  0.1118  4.1814
 8444SOL    HW226232   3.757   5.221   4.467  1.5352 -0.1994 -3.0573
 8445SOL     OW26233   3.266   4.911   0.549 -0.1633  0.8040 -0.6232
 8445SOL    HW126234   3.248   4.860   0.465 -1.6835  0.8577 -0.3599
 8445SOL    HW226235   3.185   4.964   0.573  0.1323  0.5383  1.0507
 8446SOL     OW26236   0.052   6.413   5.292  0.2065 -0.4225  0.7839
 8446SOL    HW126237   0.128   6.470   5.261  1.1527 -1.4591  1.1386
 8446SOL    HW226238   0.037   6.339   5.227 -0.8647  0.0899  0.4390
 8447SOL     OW26239   3.317   1.252   3.702  0.1490 -0.4709 -0.2118
 8447SOL    HW126240   3.242   1.314   3.681 -1.0954 -2.3425 -1.5873
 8447SOL    HW226241   3.391   1.304   3.746  0.1181  2.4290 -3.1676
 8448SOL     OW26242   3.510   6.717   3.125 -0.7251  0.0298  0.6410
 8448SOL    HW126243   3.421   6.690   3.088  0.3847 -0.9583 -1.4292
 8448SOL    HW226244   3.527   6.669   3.211 -0.1933 -3.5966 -1.3281
 8449SOL     OW26245   1.438   2.998   4.252  0.4331  0.8197  0.1287
 8449SOL    HW126246   1.353   2.947   4.243  1.5113 -1.2868  1.0999
 8449SOL    HW226247   1.450   3.057   4.172 -2.5325  2.2240  0.5828
 8450SOL     OW26248   6.264   2.979   1.128 -0.1763 -0.1082 -0.1272
 8450SOL    HW126249   6.304   2.925   1.055 -2.2324  0.1419 -1.5241
 8450SOL    HW226250   6.176   3.016   1.098 -0.6781  0.7418  2.1781
 8451SOL     OW26251   4.418   2.417   2.137  0.1722  0.4016  0.0757
 8451SOL    HW126252   4.384   2.510   2.127 -0.7276  0.0469 -0.2171
 8451SOL    HW226253   4.354   2.352   2.095  1.4944 -0.2368 -1.0695
 8452SOL     OW26254   0.713   2.139   4.744 -0.3129 -0.1098  0.3373
 8452SOL    HW126255   0.769   2.214   4.781 -0.6695 -0.1433  0.9592
 8452SOL    HW226256   0.756   2.104   4.661 -0.5497  1.3143 -0.4245
 8453SOL     OW26257   1.878   5.919   0.458 -0.0355 -0.2042  0.0479
 8453SOL    HW126258   1.907   6.011   0.431  0.5264  0.0362  1.3549
 8453SOL    HW226259   1.885   5.857   0.380 -0.6281  0.8998 -0.9156
 8454SOL     OW26260   0.793   5.162   6.714 -0.1917  0.2171  0.1825
 8454SOL    HW126261   0.865   5.181   6.782 -0.2848 -0.1862  0.4001
 8454SOL    HW226262   0.821   5.084   6.658  0.4328  1.2934 -1.0610
 8455SOL     OW26263   0.914   1.382   5.459 -0.1759  0.0675  0.5232
 8455SOL    HW126264   0.939   1.393   5.555 -2.5596  2.5783  0.9816
 8455SOL    HW226265   0.914   1.472   5.414 -0.8397 -0.8251 -1.3610
 8456SOL     OW26266   5.701   0.774   2.989 -0.1484  0.7026 -0.1733
 8456SOL    HW126267   5.733   0.686   2.954 -0.7321  1.5141 -3.0766
 8456SOL    HW226268   5.643   0.759   3.069  1.4305 -1.3445  0.6734
 8457SOL     OW26269   0.128   0.469   5.012 -0.6131 -0.1314  0.3399
 8457SOL    HW126270   0.103   0.381   5.053  1.0616 -0.9029 -0.1883
 8457SOL    HW226271   0.201   0.511   5.067 -0.8883  0.5707  0.1737
 8458SOL     OW26272   0.661   5.889   6.592  0.5163 -0.5288 -0.6737
 8458SOL    HW126273   0.705   5.950   6.526  0.5397 -0.1331 -0.2941
 8458SOL    HW226274   0.650   5.798   6.551  1.3744 -0.5390 -0.8905
 8459SOL     OW26275   1.550   5.946   2.407  0.7555 -0.5906  0.1729
 8459SOL    HW126276   1.498   6.002   2.342  1.5963  1.3047  1.0429
 8459SOL    HW226277   1.491   5.918   2.482  1.2245  3.1873  2.1856
 8460SOL     OW26278   3.825   2.875   4.908  0.0299 -0.5324  0.6431
 8460SOL    HW126279   3.920   2.896   4.931  0.4335 -1.0329 -0.4904
 8460SOL    HW226280   3.793   2.799   4.966  0.3725 -0.4795  0.9032
 8461SOL     OW26281   6.512   4.125   4.823  0.1920  0.0384  0.6047
 8461SOL    HW126282   6.534   4.031   4.798 -1.5786 -0.3419  0.3121
 8461SOL    HW226283   6.537   4.141   4.918  2.9142  0.1256 -0.0586
 8462SOL     OW26284   2.101   2.724   4.105  0.4083  0.2380  0.1081
 8462SOL    HW126285   2.178   2.677   4.063 -0.9820 -1.6609 -0.4790
 8462SOL    HW226286   2.065   2.668   4.180 -1.9148 -0.2215 -1.2463
 8463SOL     OW26287   5.464   3.827   3.298 -0.2750 -0.1170  0.2735
 8463SOL    HW126288   5.463   3.920   3.261  2.1896 -0.2263 -0.2092
 8463SOL    HW226289   5.557   3.803   3.326 -1.2255 -1.7424  2.2911
 8464SOL     OW26290   0.293   1.533   4.195  0.1004 -0.1505  0.2777
 8464SOL    HW126291   0.280   1.626   4.159  0.0373  0.4422  1.7791
 8464SOL    HW226292   0.349   1.481   4.131  1.0536  1.2541 -0.0931
 8465SOL     OW26293   3.294   2.376   0.732  0.0026 -0.0901 -0.2010
 8465SOL    HW126294   3.294   2.277   0.747 -0.6988 -0.1887 -0.7501
 8465SOL    HW226295   3.321   2.395   0.637 -0.2392  0.2178 -0.2105
 8466SOL     OW26296   6.740   6.845   4.078  0.4772  0.1070  0.2226
 8466SOL    HW126297   6.656   6.896   4.098 -1.0300 -1.9250 -0.5532
 8466SOL    HW226298   6.730   6.751   4.111  1.5174 -0.8233 -1.9284
 8467SOL     OW26299   0.669   4.117   1.968  0.0529  0.4917  0.0653
 8467SOL    HW126300   0.645   4.037   1.913 -2.0519  1.0216  0.1262
 8467SOL    HW226301   0.747   4.163   1.927  0.6312 -0.9976 -0.5636
 8468SOL     OW26302   4.218   1.799   0.106 -0.3828  0.0987  0.4805
 8468SOL    HW126303   4.239   1.735   0.032 -1.2153 -0.3478  0.6130
 8468SOL    HW226304   4.185   1.886   0.067 -1.9252 -0.5264  0.3052
 8469SOL     OW26305   3.622   1.752   6.195  0.3192 -0.3283 -0.3100
 8469SOL    HW126306   3.543   1.699   6.166  0.3494 -0.1756 -0.6789
 8469SOL    HW226307   3.661   1.800   6.116 -1.1724  2.2088  0.3915
 8470SOL     OW26308   3.448   1.262   5.657 -0.5740  0.0519  0.3559
 8470SOL    HW126309   3.527   1.200   5.656 -0.1934  0.4905 -1.8194
 8470SOL    HW226310   3.479   1.356   5.663 -0.8089  0.2973 -1.5989
 8471SOL     OW26311   3.617   1.145   4.594  0.4260  0.3349 -0.4274
 8471SOL    HW126312   3.583   1.053   4.574  1.5645 -0.1924 -0.0317
 8471SOL    HW226313   3.671   1.143   4.678 -1.0922  1.7634  0.6502
 8472SOL     OW26314   2.395   0.011   2.544  0.4171  0.3554 -0.1866
 8472SOL    HW126315   2.298  -0.011   2.535  0.6984 -0.9090 -0.2935
 8472SOL    HW226316   2.406   0.110   2.554 -1.0528  0.3820  1.9528
 8473SOL     OW26317   0.124   5.442   0.122  0.1407 -0.7992 -0.1411
 8473SOL    HW126318   0.062   5.363   0.126  0.6527 -1.2486 -0.9128
 8473SOL    HW226319   0.215   5.412   0.093  0.9262 -0.2452  1.6006
 8474SOL     OW26320   3.902   2.449   6.712  0.1428  0.1082  0.2699
 8474SOL    HW126321   3.935   2.482   6.801  0.0143 -0.5777  0.5762
 8474SOL    HW226322   3.972   2.466   6.643 -0.1047  1.4657  0.3096
 8475SOL     OW26323   3.337   6.914   3.965  0.1068 -0.1213 -0.0978
 8475SOL    HW126324   3.405   6.924   3.893  1.3672  0.1907  1.0988
 8475SOL    HW226325   3.320   7.003   4.008  0.4558 -0.5400  0.9400
 8476SOL     OW26326   3.478   2.082   3.792  0.2789  0.1075 -0.0751
 8476SOL    HW126327   3.554   2.145   3.777  2.1969 -1.6955  1.5709
 8476SOL    HW226328   3.480   2.048   3.886 -0.8871 -2.1225 -0.7782
 8477SOL     OW26329   2.254   1.102   2.611  0.3670 -0.1042 -0.3556
 8477SOL    HW126330   2.211   1.068   2.527  0.4405  0.3909 -0.5994
 8477SOL    HW226331   2.279   1.025   2.669 -0.0146 -0.4361 -0.6259
 8478SOL     OW26332   1.293   6.629   5.760  0.3350 -0.0678 -0.0733
 8478SOL    HW126333   1.305   6.620   5.661  0.3364  2.1493 -0.3343
 8478SOL    HW226334   1.340   6.711   5.792  0.0056 -0.5299  1.7229
 8479SOL     OW26335   3.744   0.872   1.210 -0.2794 -0.0524 -0.1015
 8479SOL    HW126336   3.777   0.954   1.256  1.0580  0.3216 -1.6302
 8479SOL    HW226337   3.693   0.898   1.128 -0.2182 -0.7295 -0.3604
 8480SOL     OW26338   0.272   1.828   1.089 -0.0556  0.2098 -0.2695
 8480SOL    HW126339   0.185   1.853   1.048 -0.7180  1.3460  1.7275
 8480SOL    HW226340   0.347   1.869   1.036 -0.9027  1.9986 -0.1505
 8481SOL     OW26341   3.792   0.664   2.817 -0.8929 -0.0508  0.2349
 8481SOL    HW126342   3.693   0.658   2.809 -0.8000  0.2347 -1.7337
 8481SOL    HW226343   3.831   0.686   2.727  1.0078 -0.9244  0.7956
 8482SOL     OW26344   1.209   5.745   2.318  0.1558  0.1871  0.2290
 8482SOL    HW126345   1.189   5.689   2.237  0.9122  0.3159 -0.0511
 8482SOL    HW226346   1.247   5.832   2.289  0.7574  0.1009  0.7381
 8483SOL     OW26347   6.242   5.792   1.433  0.1705  0.0172  0.3684
 8483SOL    HW126348   6.281   5.765   1.345 -0.7974 -0.3363  0.0345
 8483SOL    HW226349   6.232   5.711   1.491  0.8658  0.2588  0.8355
 8484SOL     OW26350   1.626   4.860   5.200  0.3442  0.4839  0.2940
 8484SOL    HW126351   1.719   4.856   5.236 -0.0493  1.3988  1.5227
 8484SOL    HW226352   1.562   4.828   5.270 -0.3419  0.9312 -0.1134
 8485SOL     OW26353   3.023   2.463   0.424 -0.1839  0.2340 -0.5342
 8485SOL    HW126354   3.103   2.407   0.401  0.1142  1.3374 -2.3304
 8485SOL    HW226355   2.977   2.423   0.504  1.8607 -0.6994  0.2522
 8486SOL     OW26356   6.590   1.149   3.113 -0.1126 -0.1595 -0.2414
 8486SOL    HW126357   6.627   1.152   3.206  0.7165 -0.9199 -0.5385
 8486SOL    HW226358   6.637   1.079   3.060 -1.3831 -0.5429 -0.9017
 8487SOL     OW26359   3.854   0.491   0.802 -0.0765 -0.1181  0.0247
 8487SOL    HW126360   3.893   0.575   0.766 -1.2274  0.6709  0.5387
 8487SOL    HW226361   3.794   0.512   0.880 -1.4705 -1.2527 -0.6834
 8488SOL     OW26362   4.363   2.301   4.523 -0.2615  0.9625 -0.2030
 8488SOL    HW126363   4.426   2.258   4.458  0.2671 -0.7373  1.3566
 8488SOL    HW226364   4.389   2.397   4.535 -0.4890  1.3872 -2.5700
 8489SOL     OW26365   3.754   5.546   1.842  0.3635 -0.3275 -0.4784
 8489SOL    HW126366   3.677   5.603   1.871  0.8676 -0.0936  0.4501
 8489SOL    HW226367   3.800   5.590   1.764  1.5180  1.2409  1.0294
 8490SOL     OW26368   2.029   5.167   2.885  0.7984 -0.2809 -0.1437
 8490SOL    HW126369   2.093   5.239   2.910  0.7216  0.3508 -1.6616
 8490SOL    HW226370   2.080   5.087   2.853  0.8623 -0.5059  0.5164
 8491SOL     OW26371   2.562   1.037   3.780  0.4219 -0.0713  0.1335
 8491SOL    HW126372   2.639   1.097   3.759  0.2140  0.1972  0.1421
 8491SOL    HW226373   2.597   0.947   3.805  0.8761  0.6545  2.3204
 8492SOL     OW26374   4.932   3.643   4.820  0.1069 -0.1429  0.1303
 8492SOL    HW126375   4.900   3.562   4.771  0.0063 -0.5507  0.8619
 8492SOL    HW226376   4.875   3.657   4.901  0.1035  0.6799 -0.0062
 8493SOL     OW26377   2.815   2.093   0.501 -0.6409 -0.1863 -0.0822
 8493SOL    HW126378   2.812   2.116   0.598 -0.3328  2.6619 -0.6430
 8493SOL    HW226379   2.908   2.066   0.476 -0.5788 -0.3278  0.2973
 8494SOL     OW26380   3.046   5.833   0.581  0.8596  0.1800  0.4584
 8494SOL    HW126381   2.971   5.836   0.514  0.5112 -3.9286  0.4350
 8494SOL    HW226382   3.131   5.864   0.537 -0.1544  1.7389 -0.4942
 8495SOL     OW26383   0.981   1.742   0.922 -1.1231  0.0032  0.5093
 8495SOL    HW126384   1.032   1.658   0.904 -2.1206 -0.3452 -0.8800
 8495SOL    HW226385   0.897   1.742   0.868 -2.5299  0.6485  2.5779
 8496SOL     OW26386   5.150   1.244   2.916 -0.5724 -0.0444  0.5739
 8496SOL    HW126387   5.118   1.275   2.827 -0.9239  0.4666  0.8742
 8496SOL    HW226388   5.074   1.203   2.967 -0.3115 -0.5983  0.5340
 8497SOL     OW26389   5.642   4.565   3.528 -0.0477  0.3036 -0.0740
 8497SOL    HW126390   5.631   4.633   3.456 -0.1596  1.5513  1.0750
 8497SOL    HW226391   5.572   4.581   3.599  0.1106 -0.8289  0.3532
 8498SOL     OW26392   0.731   0.605   6.999 -0.3863  0.1663 -0.0592
 8498SOL    HW126393   0.748   0.667   6.922  0.4325 -0.7792 -0.6608
 8498SOL    HW226394   0.636   0.616   7.030 -0.1191  2.0788  0.1993
 8499SOL     OW26395   1.727   5.988   1.483  0.0342 -0.0193 -0.2373
 8499SOL    HW126396   1.727   6.065   1.419 -0.4091  0.4233  0.2858
 8499SOL    HW226397   1.721   5.902   1.432 -0.9422  0.3524 -0.7697
 8500SOL     OW26398   2.355   0.936   6.136 -0.3566  0.0895 -0.5103
 8500SOL    HW126399   2.274   0.877   6.131 -0.2178 -0.2023  0.5036
 8500SOL    HW226400   2.337   1.020   6.085 -1.1345 -0.1616 -0.6756
 8501SOL     OW26401   1.323   4.322   1.616 -0.3023  0.2196 -0.0838
 8501SOL    HW126402   1.331   4.311   1.715 -0.7190  1.0737  0.0539
 8501SOL    HW226403   1.304   4.418   1.594  1.1396  0.3127 -1.0854
 8502SOL     OW26404   0.967   0.742   2.112  0.1830  0.1665  0.1443
 8502SOL    HW126405   0.959   0.837   2.142 -0.1654 -0.5615  2.5097
 8502SOL    HW226406   1.028   0.692   2.173 -0.7380 -1.4624 -0.2008
 8503SOL     OW26407   4.392   6.071   0.877  0.1482  0.8411 -1.4904
 8503SOL    HW126408   4.430   6.059   0.969 -2.2944 -0.1013 -0.5378
 8503SOL    HW226409   4.430   6.002   0.816 -1.9240 -1.9059  0.1131
 8504SOL     OW26410   3.112   5.594   3.322  0.6235  0.0980 -0.2971
 8504SOL    HW126411   3.075   5.684   3.346  1.6722  0.5572 -0.3455
 8504SOL    HW226412   3.139   5.546   3.406  0.8567  0.1820 -0.3236
 8505SOL     OW26413   5.925   5.451   3.904 -0.2913  0.4122 -0.5287
 8505SOL    HW126414   6.021   5.424   3.909 -0.6889 -1.0815 -0.3947
 8505SOL    HW226415   5.883   5.441   3.994 -1.2998 -2.0048 -1.1805
 8506SOL     OW26416   5.925   1.001   0.859  0.0670  0.9667  0.3375
 8506SOL    HW126417   5.873   0.931   0.907  1.1438  0.2860  0.5388
 8506SOL    HW226418   5.865   1.051   0.796 -0.2806 -1.7326 -1.6467
 8507SOL     OW26419   3.133   1.571   4.754 -0.2840 -0.2101  0.4504
 8507SOL    HW126420   3.106   1.644   4.692  0.9704  0.4527  0.6477
 8507SOL    HW226421   3.160   1.490   4.701 -1.3070 -0.4153  0.2215
 8508SOL     OW26422   0.546   2.877   5.145 -0.4583  0.0833  0.0627
 8508SOL    HW126423   0.554   2.931   5.061 -3.0616 -0.6461 -0.7381
 8508SOL    HW226424   0.460   2.828   5.145  0.8204 -2.3798  1.7847
 8509SOL     OW26425   0.837   2.453   5.709 -0.7338 -0.4607  0.1109
 8509SOL    HW126426   0.820   2.414   5.799 -0.4444  0.0330  0.3851
 8509SOL    HW226427   0.918   2.512   5.713 -2.2012  1.6629  0.1617
 8510SOL     OW26428   5.049   0.312   3.534 -0.3756 -0.4656 -0.1209
 8510SOL    HW126429   4.978   0.301   3.465 -1.4434 -2.1137  1.1720
 8510SOL    HW226430   5.104   0.228   3.539 -0.8042 -0.6725  1.5379
 8511SOL     OW26431   6.582   5.638   1.758  1.0966  0.1535  0.9824
 8511SOL    HW126432   6.511   5.707   1.773  1.2689  0.3089  1.0996
 8511SOL    HW226433   6.625   5.615   1.845  1.9237  0.8706  0.7858
 8512SOL     OW26434   4.883   0.884   6.890 -0.4584 -0.2292  0.0390
 8512SOL    HW126435   4.803   0.833   6.922 -1.3234  0.9427 -0.1972
 8512SOL    HW226436   4.895   0.966   6.945 -1.8576  1.7267 -2.3702
 8513SOL     OW26437   6.492   3.961   0.789 -0.2105  0.1828  0.6540
 8513SOL    HW126438   6.429   3.929   0.860 -0.3743 -0.2695  0.3108
 8513SOL    HW226439   6.519   3.884   0.731 -0.0996  0.5495  0.2109
 8514SOL     OW26440   2.014   3.279   5.313 -0.6555  0.0500  0.2009
 8514SOL    HW126441   1.994   3.324   5.226  0.1634  1.5459  0.7404
 8514SOL    HW226442   2.113   3.273   5.325 -0.7588 -1.1010  0.5725
 8515SOL     OW26443   2.441   2.673   5.977 -0.0426  0.6128  0.3966
 8515SOL    HW126444   2.399   2.682   6.067 -1.3540 -0.0431 -0.1227
 8515SOL    HW226445   2.536   2.703   5.982  0.1087 -0.0158  2.1338
 8516SOL     OW26446   6.296   1.590   3.141 -0.0901  0.3499 -0.0689
 8516SOL    HW126447   6.203   1.554   3.146 -0.9734  1.8126 -3.3222
 8516SOL    HW226448   6.356   1.523   3.099 -0.5630  0.7301 -1.3895
 8517SOL     OW26449   1.985   1.428   5.087 -0.7915  0.0619  0.2343
 8517SOL    HW126450   1.932   1.513   5.078 -0.0618  0.3803 -1.4899
 8517SOL    HW226451   2.045   1.434   5.167  1.0911  2.2754 -1.2082
 8518SOL     OW26452   6.283   5.108   0.037 -0.0346 -0.1196  0.1614
 8518SOL    HW126453   6.211   5.038   0.037  0.6608 -0.8651 -1.0710
 8518SOL    HW226454   6.345   5.092   0.113 -1.0688  0.4509  1.1631
 8519SOL     OW26455   1.300   2.906   1.379  0.1823 -0.0738 -0.0255
 8519SOL    HW126456   1.379   2.967   1.371  0.3795 -0.4000 -0.6260
 8519SOL    HW226457   1.221   2.949   1.337  0.4587 -0.4611 -0.9621
 8520SOL     OW26458   5.607   4.843   5.502 -0.7113  0.4752  0.1586
 8520SOL    HW126459   5.652   4.755   5.517  0.8825  1.0213 -1.1053
 8520SOL    HW226460   5.675   4.911   5.475 -2.0800  1.7974 -0.0962
 8521SOL     OW26461   1.965   0.033   5.067 -0.0696 -0.1074  0.0279
 8521SOL    HW126462   1.918   0.121   5.064 -0.0643 -0.1328 -1.1391
 8521SOL    HW226463   1.905  -0.038   5.030  0.1699 -0.4770  0.3454
 8522SOL     OW26464   0.855   0.076   0.098 -0.7774 -0.5549 -0.6165
 8522SOL    HW126465   0.814   0.146   0.041 -3.4404 -1.0501  0.5063
 8522SOL    HW226466   0.821  -0.014   0.070  0.9687 -1.2021 -0.7349
 8523SOL     OW26467   2.778   0.861   6.444  0.1895  0.1624  0.1501
 8523SOL    HW126468   2.678   0.865   6.449  0.2424  0.0725  2.9116
 8523SOL    HW226469   2.817   0.912   6.521  2.3394  1.2694 -1.5609
 8524SOL     OW26470   3.417   4.923   4.844 -0.6214  0.5561 -0.3794
 8524SOL    HW126471   3.453   4.902   4.935 -1.4877 -0.3851 -0.2361
 8524SOL    HW226472   3.320   4.945   4.850 -1.1190 -1.2234 -1.2473
 8525SOL     OW26473   5.523   4.755   6.861 -0.4789 -0.6547  0.3501
 8525SOL    HW126474   5.594   4.826   6.853 -0.2787 -0.8126  0.7189
 8525SOL    HW226475   5.433   4.797   6.849 -0.5426  0.1312  3.0140
 8526SOL     OW26476   1.974   0.373   0.627 -0.0354 -0.0442 -0.2498
 8526SOL    HW126477   1.940   0.323   0.547 -2.1429 -0.2290  0.6841
 8526SOL    HW226478   1.987   0.469   0.603 -0.8515 -0.0547 -0.7808
 8527SOL     OW26479   3.639   0.782   4.789  0.3502 -0.3047  0.0152
 8527SOL    HW126480   3.604   0.805   4.881  0.8628  0.0275  0.1287
 8527SOL    HW226481   3.705   0.708   4.797 -0.0435 -0.6784 -0.1583
 8528SOL     OW26482   5.323   2.054   3.262 -0.5278 -0.4970  0.6944
 8528SOL    HW126483   5.234   2.012   3.278 -1.7048  1.4565 -0.2610
 8528SOL    HW226484   5.352   2.103   3.344 -0.3324 -1.1063  0.9957
 8529SOL     OW26485   1.328   0.448   5.076  0.0081 -0.4737 -0.0988
 8529SOL    HW126486   1.347   0.430   5.173 -0.3281  0.1693  0.0902
 8529SOL    HW226487   1.404   0.497   5.036  1.4088 -3.0921 -0.8823
 8530SOL     OW26488   3.363   3.078   3.769 -0.8147 -0.3465  0.2306
 8530SOL    HW126489   3.352   3.064   3.671 -0.8733 -1.2620  0.3517
 8530SOL    HW226490   3.387   3.173   3.788 -0.8911 -0.1477 -0.6604
 8531SOL     OW26491   6.701   6.061   2.359  0.1724  0.1036 -0.6192
 8531SOL    HW126492   6.639   6.097   2.428 -0.6184  2.0338 -2.2627
 8531SOL    HW226493   6.717   6.129   2.288  1.0557 -1.7335 -2.3125
 8532SOL     OW26494   3.386   6.232   4.722  0.0985 -0.0748 -0.3905
 8532SOL    HW126495   3.346   6.224   4.630 -0.2646 -1.0169 -0.1636
 8532SOL    HW226496   3.335   6.300   4.775  1.1325  1.4574 -1.2997
 8533SOL     OW26497   0.243   5.462   5.216  0.3903 -0.2694  0.3787
 8533SOL    HW126498   0.267   5.505   5.303 -0.4525  0.4816  0.2679
 8533SOL    HW226499   0.255   5.363   5.222  0.9273 -0.1635  1.1441
 8534SOL     OW26500   2.304   3.265   5.242  0.2046  0.0695  0.1783
 8534SOL    HW126501   2.370   3.195   5.219 -0.6327 -0.2469 -1.3484
 8534SOL    HW226502   2.308   3.284   5.341  3.2945  0.8518 -0.0193
 8535SOL     OW26503   6.972   6.859   2.804 -0.0286  0.3628 -0.2010
 8535SOL    HW126504   7.056   6.890   2.759  2.0287 -2.4209  1.3244
 8535SOL    HW226505   6.992   6.838   2.900 -2.4112 -0.6836  0.1480
 8536SOL     OW26506   0.957   0.780   5.228 -0.0383  0.1168  0.3011
 8536SOL    HW126507   1.023   0.712   5.258  1.6046  0.7511 -1.6123
 8536SOL    HW226508   0.883   0.736   5.177  1.8734 -0.2523 -2.3904
 8537SOL     OW26509   5.795   7.011   3.102  0.1022 -0.2541  0.8540
 8537SOL    HW126510   5.829   6.926   3.061 -0.5457  0.2201 -0.7354
 8537SOL    HW226511   5.702   6.997   3.136 -0.0129 -0.1621  0.5713
 8538SOL     OW26512   2.269   3.355   0.099 -0.2910 -0.1571 -0.7230
 8538SOL    HW126513   2.255   3.402   0.186  0.4839 -1.9625  0.4380
 8538SOL    HW226514   2.344   3.399   0.049 -0.3858  0.5717 -0.2391
 8539SOL     OW26515   5.777   2.030   3.745 -0.0094 -0.3042  0.2722
 8539SOL    HW126516   5.753   1.934   3.760  1.5896 -0.8010 -0.0619
 8539SOL    HW226517   5.865   2.049   3.790  0.2659  0.6821 -0.6356
 8540SOL     OW26518   2.798   6.092   1.285 -0.5712  0.4760  0.2933
 8540SOL    HW126519   2.784   6.156   1.361 -0.4340  0.7716  0.0735
 8540SOL    HW226520   2.845   6.140   1.210 -0.4733  0.1172  0.1262
 8541SOL     OW26521   0.501   3.058   4.628 -0.2560  0.5210 -0.6561
 8541SOL    HW126522   0.445   3.130   4.587  0.1397  1.3533  0.2184
 8541SOL    HW226523   0.596   3.089   4.634 -0.1257  0.0268 -0.0306
 8542SOL     OW26524   4.464   2.030   0.488  0.6576 -0.7118 -0.7302
 8542SOL    HW126525   4.503   1.959   0.429 -1.0556 -0.9947 -1.5969
 8542SOL    HW226526   4.382   1.994   0.533  1.1764 -0.0522  0.7915
 8543SOL     OW26527   1.725   4.041   6.422 -0.3300 -0.0325  0.4826
 8543SOL    HW126528   1.809   4.092   6.440 -0.1081 -0.5094  0.8145
 8543SOL    HW226529   1.646   4.099   6.444 -0.1012  0.5716 -0.2493
 8544SOL     OW26530   6.791   2.355   3.517  0.1384  0.0494  0.1524
 8544SOL    HW126531   6.705   2.375   3.470 -0.1889 -0.0783  0.6903
 8544SOL    HW226532   6.819   2.435   3.571  1.1326  0.6305 -1.1799
 8545SOL     OW26533   4.876   6.152   4.043  0.0892  0.0290 -0.0030
 8545SOL    HW126534   4.939   6.083   4.079  0.7062 -0.1544 -1.3778
 8545SOL    HW226535   4.810   6.108   3.982  0.9092  0.7059 -1.4357
 8546SOL     OW26536   4.043   2.914   5.648 -0.0938 -0.0697 -0.1339
 8546SOL    HW126537   4.053   2.815   5.660  0.1510 -0.2153 -1.3568
 8546SOL    HW226538   4.113   2.961   5.702  0.7040 -0.6427 -0.6326
 8547SOL     OW26539   1.653   4.135   2.196 -0.2937 -0.6131  0.0795
 8547SOL    HW126540   1.556   4.111   2.205 -0.7227  1.0133  0.0675
 8547SOL    HW226541   1.695   4.137   2.287 -0.0134 -2.2397  0.0115
 8548SOL     OW26542   5.764   1.985   5.834  0.1214  0.2010 -0.6031
 8548SOL    HW126543   5.722   2.071   5.804  1.4745  1.3484  0.5938
 8548SOL    HW226544   5.707   1.941   5.902 -0.6984 -0.0007 -1.4012
 8549SOL     OW26545   3.166   3.002   4.734  0.6662 -0.2802 -0.1612
 8549SOL    HW126546   3.126   3.053   4.810  3.0402  3.1547 -0.9740
 8549SOL    HW226547   3.235   2.939   4.769  1.7667  1.2920  0.6243
 8550SOL     OW26548   0.052   2.536   6.987  0.0079  0.4016  0.0584
 8550SOL    HW126549   0.130   2.596   7.003  0.3618 -0.0222 -0.0590
 8550SOL    HW226550   0.056   2.499   6.894 -0.7878  1.0313 -0.2353
 8551SOL     OW26551   1.995   3.503   2.195  0.2499 -0.3954  0.7873
 8551SOL    HW126552   2.043   3.567   2.255  1.6872 -0.5867 -0.1090
 8551SOL    HW226553   2.054   3.479   2.118 -1.7841  0.3858 -1.1126
 8552SOL     OW26554   4.623   6.510   3.460 -0.0597  0.2579 -0.1340
 8552SOL    HW126555   4.697   6.511   3.526 -0.9962 -1.6436  1.0194
 8552SOL    HW226556   4.652   6.460   3.378  0.1096 -0.0426  0.1070
 8553SOL     OW26557   6.478   5.928   0.576  0.0139 -0.5720 -0.6031
 8553SOL    HW126558   6.474   6.005   0.639 -1.0492  0.1389 -1.5088
 8553SOL    HW226559   6.573   5.911   0.549  0.3738 -0.3100  0.4632
 8554SOL     OW26560   6.563   2.846   5.254 -0.3152  0.5327 -0.5465
 8554SOL    HW126561   6.620   2.918   5.293 -1.5912  1.2321  0.0747
 8554SOL    HW226562   6.467   2.873   5.258 -0.9577 -1.6639  0.7555
 8555SOL     OW26563   0.677   1.077   4.095  0.5367  0.3290 -0.3167
 8555SOL    HW126564   0.730   1.149   4.140 -0.4530  0.7584  0.2127
 8555SOL    HW226565   0.717   0.988   4.116  0.2470  0.5377  1.2379
 8556SOL     OW26566   1.013   6.641   3.049  0.5286 -0.0501 -0.0906
 8556SOL    HW126567   1.003   6.660   3.147 -1.9331 -0.3293 -0.2311
 8556SOL    HW226568   1.045   6.548   3.036  0.4191 -0.1665  0.4535
 8557SOL     OW26569   0.371   2.109   0.546 -0.5840  0.1800 -0.2794
 8557SOL    HW126570   0.333   2.200   0.533 -1.1979  0.1288  0.9595
 8557SOL    HW226571   0.446   2.094   0.481 -1.2957  1.0775 -1.3353
 8558SOL     OW26572   6.511   3.709   1.820 -0.0122 -0.0858  0.2229
 8558SOL    HW126573   6.472   3.688   1.910 -0.2378 -0.9431 -0.0694
 8558SOL    HW226574   6.536   3.806   1.817 -0.3914  0.0494  1.0617
 8559SOL     OW26575   6.943   0.515   6.118  0.7766  0.3635  0.3032
 8559SOL    HW126576   6.910   0.602   6.082  0.5590 -0.6957 -2.2618
 8559SOL    HW226577   6.910   0.504   6.212 -1.9202  1.6204 -0.3707
 8560SOL     OW26578   6.704   3.094   0.381 -0.3171  0.2685 -0.2373
 8560SOL    HW126579   6.653   3.175   0.351 -0.7098  0.0277 -0.2214
 8560SOL    HW226580   6.653   3.047   0.452  0.3173  0.4834  0.3664
 8561SOL     OW26581   5.279   6.765   5.144  0.3759 -0.3607  0.0837
 8561SOL    HW126582   5.305   6.694   5.210 -3.0949 -0.9262  1.0033
 8561SOL    HW226583   5.249   6.847   5.194  2.1037  0.9832 -0.9553
 8562SOL     OW26584   5.139   0.465   2.374 -0.8031 -0.1815 -0.1148
 8562SOL    HW126585   5.228   0.480   2.332 -0.7146  0.7425  0.3792
 8562SOL    HW226586   5.111   0.547   2.424 -1.8245 -0.5397 -0.0675
 8563SOL     OW26587   3.064   3.026   5.211 -0.7041  0.4331 -0.2562
 8563SOL    HW126588   2.985   3.046   5.270 -1.0212 -0.1079 -0.4854
 8563SOL    HW226589   3.053   3.073   5.124  0.9898  3.3200  0.9694
 8564SOL     OW26590   1.680   1.186   4.846 -0.0888 -0.4562  0.1391
 8564SOL    HW126591   1.610   1.237   4.896 -0.3146 -1.2410  0.6398
 8564SOL    HW226592   1.640   1.147   4.763  0.1617  0.4247 -0.4105
 8565SOL     OW26593   4.892   6.819   2.332 -0.0731 -0.6317  0.0678
 8565SOL    HW126594   4.975   6.796   2.383  0.0544 -0.6861 -0.1618
 8565SOL    HW226595   4.872   6.916   2.344 -1.2077 -1.0368  1.9121
 8566SOL     OW26596   1.322   2.561   3.966 -0.5624  0.2965 -0.7653
 8566SOL    HW126597   1.235   2.591   4.003 -1.2655 -0.6261 -1.6243
 8566SOL    HW226598   1.379   2.524   4.040  0.2167  3.2956  0.2774
 8567SOL     OW26599   5.042   0.458   6.150  0.0087  0.5598 -1.0943
 8567SOL    HW126600   4.954   0.458   6.103 -0.8235  2.2102  0.3525
 8567SOL    HW226601   5.093   0.541   6.126  1.0156 -0.1906 -1.6150
 8568SOL     OW26602   4.687   1.736   5.780 -0.0016  0.1116 -0.3727
 8568SOL    HW126603   4.630   1.714   5.702  0.0732 -0.0844 -0.3721
 8568SOL    HW226604   4.777   1.694   5.769  1.3061  3.0152 -1.9551
 8569SOL     OW26605   4.729   1.557   4.592  0.0875  0.2757  0.5268
 8569SOL    HW126606   4.696   1.649   4.616 -0.4586 -0.3028  2.0886
 8569SOL    HW226607   4.688   1.490   4.653 -0.3419 -1.1613 -1.2768
 8570SOL     OW26608   0.485   5.597   6.915 -0.7119  0.1957 -0.1276
 8570SOL    HW126609   0.560   5.634   6.860 -0.7866  0.1714 -0.2468
 8570SOL    HW226610   0.517   5.580   7.008 -0.3457 -0.5994 -0.3978
 8571SOL     OW26611   1.564   4.834   3.148  0.2892 -0.4553 -0.2915
 8571SOL    HW126612   1.654   4.814   3.187 -0.2228  0.3628  1.4104
 8571SOL    HW226613   1.556   4.933   3.133  0.2471 -0.6847 -1.9960
 8572SOL     OW26614   3.349   5.379   4.971  0.0736  0.0397 -0.6531
 8572SOL    HW126615   3.378   5.300   5.026  0.7354 -0.5487 -1.7988
 8572SOL    HW226616   3.269   5.421   5.013  1.3630  0.4774  1.5208
 8573SOL     OW26617   1.996   6.122   4.186 -0.5405  0.4904  0.5005
 8573SOL    HW126618   1.981   6.108   4.088 -4.3033  0.9317  0.8516
 8573SOL    HW226619   1.914   6.095   4.236  2.1701 -2.3304  3.9433
 8574SOL     OW26620   0.756   3.735   4.827 -0.3407  0.3489  0.3406
 8574SOL    HW126621   0.825   3.808   4.820 -0.7455  0.7616  0.6247
 8574SOL    HW226622   0.669   3.775   4.855 -0.7151 -0.1627 -0.0846
 8575SOL     OW26623   4.196   3.966   5.668  0.1174  0.2819  0.0685
 8575SOL    HW126624   4.260   3.991   5.596  1.8950  2.1517  2.1391
 8575SOL    HW226625   4.247   3.938   5.750 -1.7427  0.5320  1.3907
 8576SOL     OW26626   4.328   2.396   3.534 -0.8359 -0.4940  0.2013
 8576SOL    HW126627   4.276   2.408   3.619 -0.8490  0.4237  0.0662
 8576SOL    HW226628   4.280   2.332   3.475 -0.6089 -1.4983  1.0618
 8577SOL     OW26629   0.994   6.416   5.276  0.1863  0.3575  0.4424
 8577SOL    HW126630   1.070   6.478   5.253  0.4348 -0.0993  0.0064
 8577SOL    HW226631   0.921   6.427   5.209  0.3752 -0.0629  0.1646
 8578SOL     OW26632   5.681   0.033   2.075  0.3988  0.6467 -0.3887
 8578SOL    HW126633   5.629  -0.045   2.042 -0.0922  0.2274  1.2828
 8578SOL    HW226634   5.779   0.015   2.064  0.2656  0.2468 -0.9673
 8579SOL     OW26635   2.146   5.413   4.098  0.0856  0.0471  0.3660
 8579SOL    HW126636   2.236   5.422   4.055 -0.3906  0.0485 -0.6591
 8579SOL    HW226637   2.135   5.485   4.167  0.4637  0.7031 -0.2418
 8580SOL     OW26638   2.067   5.570   6.687 -0.0550 -0.3175  0.5312
 8580SOL    HW126639   2.050   5.481   6.730 -0.6031 -0.5786 -0.2007
 8580SOL    HW226640   2.155   5.568   6.641 -0.5458 -0.8778 -0.4273
 8581SOL     OW26641   3.060   1.409   2.469  0.0605 -0.2416  0.1314
 8581SOL    HW126642   3.039   1.342   2.541 -0.0898  0.1875  0.4891
 8581SOL    HW226643   3.156   1.437   2.477  0.2580 -0.7689 -0.3171
 8582SOL     OW26644   4.477   4.719   2.586 -0.0583  0.0940  0.0718
 8582SOL    HW126645   4.557   4.761   2.542  1.4109 -1.8001  0.7844
 8582SOL    HW226646   4.434   4.654   2.522  0.9372 -1.2443  0.7056
 8583SOL     OW26647   5.639   0.784   5.744  0.0523 -0.4840 -0.3474
 8583SOL    HW126648   5.731   0.820   5.729 -0.2462  0.1308 -0.7405
 8583SOL    HW226649   5.572   0.852   5.716 -0.5288 -1.1225 -0.5233
 8584SOL     OW26650   6.973   4.580   6.268  0.5773 -0.5061 -0.1509
 8584SOL    HW126651   6.929   4.491   6.283 -0.2347 -0.3225 -1.3598
 8584SOL    HW226652   7.036   4.599   6.344 -0.9043 -1.0871  1.2850
 8585SOL     OW26653   6.525   2.661   6.363 -0.1269 -0.1536 -0.4127
 8585SOL    HW126654   6.591   2.735   6.374 -1.8099  1.2283  0.9508
 8585SOL    HW226655   6.525   2.604   6.445  0.5431 -1.1784 -1.1046
 8586SOL     OW26656   3.323   5.048   5.822  0.1490 -0.3284  0.1432
 8586SOL    HW126657   3.233   5.037   5.780  0.6907 -0.4980 -1.0243
 8586SOL    HW226658   3.379   4.968   5.803  0.4173 -0.4133  1.2337
 8587SOL     OW26659   0.271   2.016   1.892  0.0863 -0.1888 -0.2364
 8587SOL    HW126660   0.178   1.989   1.918 -0.9124  1.4988 -1.8401
 8587SOL    HW226661   0.267   2.097   1.834  2.7405  1.7198  1.9980
 8588SOL     OW26662   6.136   1.910   1.210  0.1430 -0.2590  0.2656
 8588SOL    HW126663   6.209   1.872   1.154 -0.5902 -3.3024  1.1890
 8588SOL    HW226664   6.167   1.919   1.305  0.2163  1.3136  0.1150
 8589SOL     OW26665   5.224   2.559   5.748  0.0327 -0.3182  0.0307
 8589SOL    HW126666   5.318   2.591   5.740  0.4446 -0.7877  2.2827
 8589SOL    HW226667   5.164   2.619   5.695  1.3019  1.6350  0.6753
 8590SOL     OW26668   6.535   5.033   4.943 -0.4476 -0.0712  0.0623
 8590SOL    HW126669   6.435   5.044   4.950 -0.3556  0.7479  0.1333
 8590SOL    HW226670   6.559   5.011   4.849 -0.5374  1.5958 -0.3799
 8591SOL     OW26671   2.489   4.591   1.680 -0.3902  0.6519  0.0027
 8591SOL    HW126672   2.412   4.544   1.637 -0.3956 -0.1250  0.8333
 8591SOL    HW226673   2.575   4.547   1.654 -0.2845  1.0098 -0.2688
 8592SOL     OW26674   6.654   1.496   6.709  0.3603  0.0434 -0.2769
 8592SOL    HW126675   6.575   1.546   6.673  0.5396  0.3301 -0.2762
 8592SOL    HW226676   6.733   1.513   6.650  0.8083  0.9856  0.5655
 8593SOL     OW26677   1.559   7.018   1.972  0.2316  0.1531  0.0518
 8593SOL    HW126678   1.548   7.115   1.947  0.9902  0.3066  0.3053
 8593SOL    HW226679   1.527   6.961   1.896  0.7336  0.6076 -0.5108
 8594SOL     OW26680   3.340   3.750   5.142  0.4516 -0.0999 -0.2170
 8594SOL    HW126681   3.435   3.764   5.115  0.7786  0.1449  1.0045
 8594SOL    HW226682   3.333   3.671   5.202 -0.5126 -1.6608 -2.2451
 8595SOL     OW26683   1.068   3.030   1.677 -0.0139 -0.2274 -0.0552
 8595SOL    HW126684   1.051   2.974   1.595  1.6308 -1.5063  0.4173
 8595SOL    HW226685   1.043   2.978   1.758  1.0983 -0.1204  0.3708
 8596SOL     OW26686   0.264   4.921   2.015  0.3461  0.3375 -0.2333
 8596SOL    HW126687   0.213   4.905   2.099  0.7074  0.7267  0.0650
 8596SOL    HW226688   0.201   4.947   1.942 -0.0435 -0.6534 -0.2594
 8597SOL     OW26689   0.936   6.368   0.942  0.1595  0.0086 -0.5066
 8597SOL    HW126690   0.919   6.335   1.035 -0.5053 -0.4126 -0.7711
 8597SOL    HW226691   0.936   6.291   0.879 -0.2271  0.3920 -0.9742
 8598SOL     OW26692   4.465   6.284   5.398 -0.2962  0.5460  0.5204
 8598SOL    HW126693   4.494   6.291   5.494 -0.5192 -1.5146  0.7744
 8598SOL    HW226694   4.377   6.238   5.393 -1.9130  3.4641 -0.5183
 8599SOL     OW26695   1.163   1.742   2.096 -0.2073  0.4861 -0.4044
 8599SOL    HW126696   1.141   1.829   2.051 -1.4338  0.9080  0.9486
 8599SOL    HW226697   1.087   1.678   2.085  0.7394 -0.5032 -1.5039
 8600SOL     OW26698   0.078   5.442   6.665  1.0781 -0.1115 -0.4528
 8600SOL    HW126699   0.160   5.484   6.704  0.3451  1.5747 -0.6097
 8600SOL    HW226700   0.008   5.433   6.736 -0.0798  2.4925 -1.1392
 8601SOL     OW26701   3.827   6.714   4.391 -0.1912  0.1503  0.6861
 8601SOL    HW126702   3.924   6.712   4.368 -0.3579 -0.3067 -0.0186
 8601SOL    HW226703   3.812   6.774   4.469  0.3720  1.9730 -0.5541
 8602SOL     OW26704   3.974   1.162   1.664 -0.0620  0.8119  0.3373
 8602SOL    HW126705   4.039   1.141   1.592  0.8375  0.3305  1.2585
 8602SOL    HW226706   3.929   1.078   1.695 -0.0636  0.9330  0.6763
 8603SOL     OW26707   5.956   3.241   1.573 -0.0056 -0.3908  1.0029
 8603SOL    HW126708   6.004   3.178   1.511  0.8526  1.9664 -0.8612
 8603SOL    HW226709   5.862   3.208   1.588  0.3186 -1.9446 -0.1384
 8604SOL     OW26710   6.504   0.555   2.245 -0.6021 -0.0441 -0.2253
 8604SOL    HW126711   6.518   0.637   2.190  2.0531  0.0792  0.5244
 8604SOL    HW226712   6.471   0.481   2.186 -0.4427  0.8155 -1.4257
 8605SOL     OW26713   2.859   0.381   2.881 -0.7326  0.2146 -0.1530
 8605SOL    HW126714   2.944   0.366   2.830  0.0176 -3.3645  1.7830
 8605SOL    HW226715   2.844   0.479   2.892  3.7020  1.1020  0.2012
 8606SOL     OW26716   4.435   4.310   5.365  0.0452 -0.0580 -0.4745
 8606SOL    HW126717   4.534   4.314   5.350  0.0724 -1.9650 -0.9691
 8606SOL    HW226718   4.388   4.321   5.277 -0.1335 -0.5716 -0.4432
 8607SOL     OW26719   4.305   6.536   2.056  0.1346 -0.2001 -0.2601
 8607SOL    HW126720   4.344   6.454   2.014 -0.5787 -1.3358  1.1981
 8607SOL    HW226721   4.205   6.532   2.050  0.0795  0.3385  0.2032
 8608SOL     OW26722   5.298   4.520   2.136 -0.1954 -0.2614 -1.1537
 8608SOL    HW126723   5.338   4.430   2.154 -0.0102 -0.2853 -1.6755
 8608SOL    HW226724   5.342   4.560   2.056 -0.5722  0.1154 -1.1714
 8609SOL     OW26725   4.308   6.731   2.856  0.3422  0.4587  0.2946
 8609SOL    HW126726   4.379   6.667   2.825  0.0659  0.3150 -0.0471
 8609SOL    HW226727   4.222   6.682   2.866 -0.3096  1.1172 -1.7022
 8610SOL     OW26728   6.184   5.379   3.923 -0.2369  0.0948  0.2809
 8610SOL    HW126729   6.208   5.307   3.857 -2.8823 -1.1083  0.4668
 8610SOL    HW226730   6.195   5.469   3.880  0.1410 -0.5644 -1.0545
 8611SOL     OW26731   2.451   0.468   3.829 -0.1179 -0.5420 -0.2490
 8611SOL    HW126732   2.548   0.453   3.808  0.3349  0.5021  0.9811
 8611SOL    HW226733   2.435   0.565   3.841 -1.2931 -0.7311 -0.2389
 8612SOL     OW26734   0.472   2.058   5.710  0.0274 -0.2319 -0.2640
 8612SOL    HW126735   0.469   1.977   5.768 -0.2896 -0.3828 -0.4933
 8612SOL    HW226736   0.516   2.036   5.623  1.0812  0.1462  0.1546
 8613SOL     OW26737   1.754   2.885   6.092 -0.2992 -0.2775 -0.0785
 8613SOL    HW126738   1.854   2.890   6.090 -0.3304  0.3250 -0.1387
 8613SOL    HW226739   1.725   2.852   6.182 -0.0536 -0.4375 -0.0543
 8614SOL     OW26740   0.884   1.016   3.694  0.8583  0.0897  0.4453
 8614SOL    HW126741   0.911   0.932   3.740  2.4398  0.1925 -0.2424
 8614SOL    HW226742   0.842   0.994   3.606  0.5296  0.0029  0.6216
 8615SOL     OW26743   5.834   3.119   4.927  0.1756 -0.0469 -0.1684
 8615SOL    HW126744   5.825   3.193   4.860  1.6923 -0.3216 -0.7242
 8615SOL    HW226745   5.766   3.131   4.999 -0.9753  0.7053 -1.3350
 8616SOL     OW26746   0.992   1.223   0.746  0.0824  0.2620  0.0865
 8616SOL    HW126747   1.051   1.177   0.812 -1.0317  1.0852  1.7185
 8616SOL    HW226748   0.927   1.158   0.708  1.4973 -0.4878 -1.1831
 8617SOL     OW26749   6.925   3.099   1.365  0.3371 -0.4836  0.3287
 8617SOL    HW126750   6.962   3.070   1.453 -0.4688 -1.2813  0.4199
 8617SOL    HW226751   6.827   3.080   1.362 -0.1095  1.5927  0.0932
 8618SOL     OW26752   4.707   5.955   4.429 -0.1846 -0.0517  0.2089
 8618SOL    HW126753   4.654   5.939   4.346  0.1952  1.0107 -0.2655
 8618SOL    HW226754   4.802   5.929   4.414 -0.2320 -0.4140  0.5146
 8619SOL     OW26755   5.227   4.015   0.499  0.2518 -0.4987  0.1624
 8619SOL    HW126756   5.323   4.001   0.524 -0.4157 -1.6425  2.3101
 8619SOL    HW226757   5.183   4.075   0.566 -0.7547 -0.6965 -0.2971
 8620SOL     OW26758   6.521   0.008   3.980 -0.3373  0.0591 -0.5184
 8620SOL    HW126759   6.510   0.027   3.882  1.7442 -0.9380 -0.9950
 8620SOL    HW226760   6.551   0.091   4.027  1.3162 -0.1002 -1.2378
 8621SOL     OW26761   4.495   1.990   3.060 -0.1601 -0.5944  0.3927
 8621SOL    HW126762   4.512   2.088   3.053  1.5968 -0.8128  0.9463
 8621SOL    HW226763   4.407   1.967   3.018  0.6994  0.8116 -2.4282
 8622SOL     OW26764   6.398   3.628   6.846  0.2284  0.1850 -0.1920
 8622SOL    HW126765   6.326   3.559   6.849 -0.5621  1.0211  2.3421
 8622SOL    HW226766   6.402   3.667   6.754 -0.2460 -2.1859 -1.3075
 8623SOL     OW26767   5.615   4.471   2.627 -0.0722  0.2395 -0.0505
 8623SOL    HW126768   5.683   4.538   2.659 -1.1850  1.5429 -0.3042
 8623SOL    HW226769   5.656   4.414   2.556  1.3751 -0.4113  1.2532
 8624SOL     OW26770   0.942   4.925   1.353  0.1170 -0.8792 -0.7054
 8624SOL    HW126771   1.036   4.955   1.371 -0.1017 -1.3036  1.4089
 8624SOL    HW226772   0.933   4.899   1.257  2.6420 -2.4378 -0.5993
 8625SOL     OW26773   5.387   2.104   3.993  0.4867  0.0735 -0.5784
 8625SOL    HW126774   5.373   2.178   4.059  1.3708  0.1015 -0.4068
 8625SOL    HW226775   5.332   2.025   4.019  0.6052  0.1857  0.0364
 8626SOL     OW26776   4.023   3.525   3.353 -0.0755  0.2489  0.0369
 8626SOL    HW126777   3.986   3.532   3.260  2.9384 -0.7321 -1.3720
 8626SOL    HW226778   4.062   3.434   3.366  1.2774  0.9846  1.5357
 8627SOL     OW26779   2.520   6.802   6.852  0.1612 -0.0235 -0.3806
 8627SOL    HW126780   2.454   6.855   6.800  0.7736  0.7095 -0.4420
 8627SOL    HW226781   2.484   6.785   6.944 -0.0538  0.4983 -0.3633
 8628SOL     OW26782   5.779   1.788   1.821  0.7558  0.3733 -0.2424
 8628SOL    HW126783   5.706   1.800   1.889  1.4151  0.5164  0.4478
 8628SOL    HW226784   5.765   1.853   1.747 -0.4364 -0.3295 -0.6769
 8629SOL     OW26785   6.567   5.731   2.661 -0.1367  0.3739 -0.0687
 8629SOL    HW126786   6.557   5.753   2.564 -0.6930 -0.6606 -0.2673
 8629SOL    HW226787   6.506   5.789   2.714 -0.5477  0.2915 -0.4414
 8630SOL     OW26788   4.240   4.753   4.155 -0.2056  0.4009  0.9399
 8630SOL    HW126789   4.312   4.685   4.141  0.7142  1.8160 -1.8172
 8630SOL    HW226790   4.216   4.795   4.068 -3.6265  0.8156  1.9289
 8631SOL     OW26791   2.892   6.530   5.655 -0.3648  0.1562  0.2707
 8631SOL    HW126792   2.873   6.443   5.701  0.2305  0.5849  1.3795
 8631SOL    HW226793   2.970   6.519   5.594 -0.5600 -0.1953  0.0834
 8632SOL     OW26794   4.572   2.267   3.778 -0.5934 -0.0330 -0.5429
 8632SOL    HW126795   4.601   2.266   3.682 -0.1378 -1.0990 -0.4099
 8632SOL    HW226796   4.474   2.286   3.784 -0.7924 -0.7703 -1.2789
 8633SOL     OW26797   6.418   6.242   5.081 -0.0168 -0.2146 -0.1220
 8633SOL    HW126798   6.362   6.205   5.007 -0.8606 -1.1713  0.9543
 8633SOL    HW226799   6.358   6.277   5.153  0.7821  1.5999 -0.2915
 8634SOL     OW26800   5.605   3.778   0.638 -0.3869 -0.0692 -0.1549
 8634SOL    HW126801   5.538   3.852   0.648  0.1185  0.7810 -2.5380
 8634SOL    HW226802   5.566   3.693   0.675 -1.6060  1.0051  1.1698
 8635SOL     OW26803   5.419   3.553   3.972 -0.0467  0.0243  0.1727
 8635SOL    HW126804   5.435   3.638   3.923  0.3544 -0.7887 -1.1716
 8635SOL    HW226805   5.408   3.478   3.906  0.6477 -1.1377  1.3219
 8636SOL     OW26806   5.331   4.507   1.136 -0.0949 -0.4361  0.4092
 8636SOL    HW126807   5.322   4.408   1.126  1.1638 -0.4329 -1.2238
 8636SOL    HW226808   5.308   4.551   1.049  2.8215  0.3854 -0.0561
 8637SOL     OW26809   2.635   0.570   0.946 -0.0645 -0.4485 -0.3661
 8637SOL    HW126810   2.679   0.530   1.026 -0.1417 -0.7428 -0.4677
 8637SOL    HW226811   2.539   0.592   0.967 -0.2077 -0.9280 -0.5054
 8638SOL     OW26812   4.401   0.257   1.938  0.0656 -0.3267 -0.6819
 8638SOL    HW126813   4.321   0.197   1.943 -1.2916  1.5240  2.4244
 8638SOL    HW226814   4.384   0.329   1.871 -0.6183 -0.2742 -0.4569
 8639SOL     OW26815   5.664   4.278   3.926  0.0372 -0.3118  0.4969
 8639SOL    HW126816   5.656   4.195   3.871 -0.5956 -0.2559  0.4962
 8639SOL    HW226817   5.751   4.279   3.973  0.4968 -0.4761 -0.3312
 8640SOL     OW26818   3.871   0.663   1.994 -0.3590 -0.3024 -0.2237
 8640SOL    HW126819   3.852   0.627   2.085  0.1859  1.0824  0.4792
 8640SOL    HW226820   3.806   0.737   1.974  0.7841  0.7892 -0.0646
 8641SOL     OW26821   5.027   3.170   2.682 -0.0116 -0.0078 -0.0555
 8641SOL    HW126822   5.100   3.204   2.742  0.6446 -0.0882 -0.7974
 8641SOL    HW226823   4.976   3.247   2.644 -0.5641  0.0391  0.7523
 8642SOL     OW26824   4.931   3.043   2.197  0.2067 -0.5661 -0.9526
 8642SOL    HW126825   4.888   3.047   2.287  0.8934 -1.8620 -0.5350
 8642SOL    HW226826   4.860   3.033   2.127 -0.3920  1.4018 -0.6847
 8643SOL     OW26827   4.586   1.537   4.202 -0.4910 -0.1524 -0.5493
 8643SOL    HW126828   4.517   1.566   4.136 -0.6838 -0.4158 -0.4672
 8643SOL    HW226829   4.566   1.579   4.291  0.4841  1.2092 -0.9442
 8644SOL     OW26830   5.594   2.268   6.078  0.6827  0.3886 -0.0446
 8644SOL    HW126831   5.571   2.182   6.032  2.1438  0.2506 -0.5762
 8644SOL    HW226832   5.517   2.332   6.069  0.3083 -0.1956 -1.3146
 8645SOL     OW26833   6.833   6.305   1.608  0.1043 -0.2517 -0.3593
 8645SOL    HW126834   6.839   6.238   1.534  1.3607  1.4978 -1.9525
 8645SOL    HW226835   6.855   6.396   1.572 -2.0104  1.1478  1.5876
 8646SOL     OW26836   6.048   0.808   0.679 -0.5310  0.4980  0.0500
 8646SOL    HW126837   6.015   0.874   0.746  2.0994  1.5858  0.3921
 8646SOL    HW226838   6.097   0.857   0.606 -0.2989 -0.9444 -0.8014
 8647SOL     OW26839   4.116   4.310   0.908 -0.2728  0.4351  0.2053
 8647SOL    HW126840   4.188   4.355   0.961 -0.1108  0.2819  0.1150
 8647SOL    HW226841   4.098   4.220   0.947 -1.2195  0.9203  0.9372
 8648SOL     OW26842   5.490   2.072   3.008  0.3270  0.4377 -0.0002
 8648SOL    HW126843   5.426   2.025   2.947  0.2797 -0.8664  0.9975
 8648SOL    HW226844   5.442   2.096   3.093  0.5598  1.6237 -0.1885
 8649SOL     OW26845   0.204   6.272   5.479  1.0305  0.6654 -0.0656
 8649SOL    HW126846   0.122   6.313   5.438  0.4657 -0.7324 -0.4335
 8649SOL    HW226847   0.189   6.259   5.577  1.4336  1.8183  0.1597
 8650SOL     OW26848   0.900   5.847   2.754 -0.1303 -0.4688  0.2514
 8650SOL    HW126849   0.885   5.855   2.852 -1.3679 -0.9347  0.1209
 8650SOL    HW226850   0.823   5.888   2.705  0.3180 -0.5206 -0.5198
 8651SOL     OW26851   3.389   1.645   0.742 -0.5386 -0.7621  0.5407
 8651SOL    HW126852   3.309   1.706   0.748 -0.2606 -0.2865 -0.3949
 8651SOL    HW226853   3.470   1.693   0.774 -0.1428 -0.2684 -1.0771
 8652SOL     OW26854   2.195   2.984   3.223 -0.0891  0.5366  0.3162
 8652SOL    HW126855   2.211   3.079   3.195 -0.5551  0.6526  0.4300
 8652SOL    HW226856   2.133   2.982   3.301 -0.9656  0.0904 -0.3748
 8653SOL     OW26857   5.356   3.755   5.929  0.0889  0.1807  0.2241
 8653SOL    HW126858   5.277   3.773   5.988  0.0591 -0.1365  0.2813
 8653SOL    HW226859   5.434   3.808   5.961  0.0773  0.0012  0.5601
 8654SOL     OW26860   1.761   6.613   3.628 -0.3229 -0.1412 -0.1073
 8654SOL    HW126861   1.678   6.625   3.575  0.1552  0.8579 -0.6466
 8654SOL    HW226862   1.753   6.663   3.715 -0.4060 -0.3040 -0.0209
 8655SOL     OW26863   5.855   5.638   4.360  0.2364 -0.5761  0.4361
 8655SOL    HW126864   5.783   5.572   4.337 -1.2335 -0.2366  3.5416
 8655SOL    HW226865   5.934   5.588   4.398  0.6397 -0.7774 -0.6510
 8656SOL     OW26866   5.868   4.222   1.711 -0.2659 -0.4253  0.0168
 8656SOL    HW126867   5.946   4.162   1.726  3.1473  3.6699  0.7207
 8656SOL    HW226868   5.865   4.248   1.614  0.7706  1.0992  0.3525
 8657SOL     OW26869   3.349   4.100   0.212  0.3041  0.5720  0.0275
 8657SOL    HW126870   3.342   4.199   0.221 -1.6817  0.4959 -0.1933
 8657SOL    HW226871   3.299   4.070   0.131 -1.5240 -0.8125  1.5421
 8658SOL     OW26872   5.155   5.095   1.391  0.3561  0.3624 -0.3468
 8658SOL    HW126873   5.145   4.999   1.417 -1.1543  0.5036 -0.3250
 8658SOL    HW226874   5.251   5.122   1.397  0.8563 -1.2639 -0.7892
 8659SOL     OW26875   5.213   6.554   3.074 -0.0209  0.2604  0.5321
 8659SOL    HW126876   5.159   6.527   3.154 -1.3042  0.4434 -0.2505
 8659SOL    HW226877   5.235   6.473   3.020  0.7866  0.1463  1.0052
 8660SOL     OW26878   6.080   3.767   0.248 -0.2334  0.2516  0.1287
 8660SOL    HW126879   6.046   3.842   0.304 -0.1209  0.4393 -0.0530
 8660SOL    HW226880   6.109   3.802   0.159  2.0757  0.4042  0.8639
 8661SOL     OW26881   5.726   4.292   1.917  0.3658  0.2853  0.1117
 8661SOL    HW126882   5.793   4.258   1.851 -0.4664 -1.6291  0.1809
 8661SOL    HW226883   5.635   4.264   1.888 -0.1791  0.8703  1.2205
 8662SOL     OW26884   6.793   0.840   5.804  0.2286 -0.5702  0.1219
 8662SOL    HW126885   6.747   0.761   5.844  0.4095 -1.0535 -0.5990
 8662SOL    HW226886   6.840   0.812   5.720 -1.2487  0.6391 -1.1911
 8663SOL     OW26887   1.863   6.268   1.759 -0.5833  0.3305  0.3852
 8663SOL    HW126888   1.822   6.294   1.846 -1.0561 -0.8544  0.5409
 8663SOL    HW226889   1.825   6.181   1.729 -0.1762  0.5544 -0.8468
 8664SOL     OW26890   3.984   2.796   0.848 -0.3001 -0.2649 -0.4015
 8664SOL    HW126891   4.030   2.866   0.903 -0.6325 -0.7847  0.5710
 8664SOL    HW226892   3.887   2.795   0.869 -0.2637 -1.1861 -0.2011
 8665SOL     OW26893   6.063   6.037   4.127 -0.1025 -0.2811  0.1662
 8665SOL    HW126894   6.088   5.952   4.081  1.6293  0.7782 -0.9393
 8665SOL    HW226895   6.144   6.081   4.164 -1.1486  0.2022  2.0251
 8666SOL     OW26896   6.187   3.028   4.044  0.0684 -0.0697 -0.4786
 8666SOL    HW126897   6.187   3.039   3.944  2.6502 -0.3393 -0.5705
 8666SOL    HW226898   6.174   3.117   4.087 -0.0887  0.1911 -1.0528
 8667SOL     OW26899   4.385   1.472   4.598 -0.4040  0.4106 -0.1645
 8667SOL    HW126900   4.313   1.542   4.595  0.2110  1.0491 -3.6740
 8667SOL    HW226901   4.473   1.514   4.577  0.1745 -1.2082 -1.1333
 8668SOL     OW26902   4.184   2.073   5.435  0.1810 -0.2300  0.0268
 8668SOL    HW126903   4.237   2.047   5.515  0.7912 -0.2074 -0.3640
 8668SOL    HW226904   4.147   2.165   5.448  0.9940  0.1201 -0.0657
 8669SOL     OW26905   3.381   0.705   6.695  0.4422 -0.2765 -0.1261
 8669SOL    HW126906   3.453   0.687   6.762 -0.7845  0.4582  1.4846
 8669SOL    HW226907   3.302   0.646   6.715  1.0423 -2.1167 -2.7340
 8670SOL     OW26908   2.164   4.760   3.771 -0.2257  0.4033  0.6042
 8670SOL    HW126909   2.133   4.767   3.866 -0.3067 -1.1019  0.7172
 8670SOL    HW226910   2.095   4.710   3.718  0.5855 -0.2391  0.1456
 8671SOL     OW26911   5.802   5.133   4.276  0.0722  0.0715  0.3488
 8671SOL    HW126912   5.769   5.038   4.269 -0.8725  0.3474  0.8218
 8671SOL    HW226913   5.782   5.168   4.367  0.4101  0.7339  0.1726
 8672SOL     OW26914   3.200   5.722   4.440  0.5722  0.0746 -0.0603
 8672SOL    HW126915   3.141   5.802   4.433  0.5280 -0.0727 -4.5227
 8672SOL    HW226916   3.260   5.731   4.519 -1.7414  2.7534  1.5750
 8673SOL     OW26917   6.286   3.004   2.142  0.7095 -0.0463  0.0556
 8673SOL    HW126918   6.361   2.957   2.189  0.1889  0.0757  1.0214
 8673SOL    HW226919   6.316   3.030   2.050  1.7851 -0.1654  0.3586
 8674SOL     OW26920   0.660   6.144   1.750 -0.0531  0.0456  0.1378
 8674SOL    HW126921   0.577   6.167   1.801  0.9248 -0.9305  2.2971
 8674SOL    HW226922   0.730   6.213   1.768  0.8375 -1.1666  1.5446
 8675SOL     OW26923   6.150   0.902   1.403 -0.1994  0.2419 -0.1811
 8675SOL    HW126924   6.134   0.842   1.325  0.5505  1.0157 -0.9621
 8675SOL    HW226925   6.083   0.883   1.474 -1.2930 -0.0765 -1.2594
 8676SOL     OW26926   4.802   5.843   2.913 -0.4348 -0.1880 -0.0043
 8676SOL    HW126927   4.809   5.893   2.827 -1.5272 -0.4246 -0.2448
 8676SOL    HW226928   4.766   5.903   2.984  1.3038  0.2681  0.5453
 8677SOL     OW26929   2.114   5.844   6.152 -0.3933 -0.0184  0.0985
 8677SOL    HW126930   2.170   5.927   6.157 -0.0246 -0.1385 -1.6235
 8677SOL    HW226931   2.104   5.806   6.244  3.0364 -0.4224  0.4553
 8678SOL     OW26932   3.274   6.956   6.666 -0.4919 -0.0206 -0.5365
 8678SOL    HW126933   3.317   6.975   6.754  0.2595  1.2799 -1.1567
 8678SOL    HW226934   3.179   6.989   6.667 -0.2602  0.6591 -0.4445
 8679SOL     OW26935   0.256   1.913   4.791 -0.8728 -0.5798 -0.0814
 8679SOL    HW126936   0.168   1.867   4.797 -0.6216 -0.8465  2.6889
 8679SOL    HW226937   0.328   1.846   4.772 -1.0794 -0.5422 -1.0639
 8680SOL     OW26938   1.783   2.983   2.330 -0.0624  0.2118 -0.2279
 8680SOL    HW126939   1.732   3.030   2.403  0.4995 -1.6031  1.4374
 8680SOL    HW226940   1.862   3.039   2.304 -1.1809  1.6515 -0.6768
 8681SOL     OW26941   2.904   4.058   1.549 -0.0540  0.2200  0.0594
 8681SOL    HW126942   2.827   3.995   1.562 -0.0797  0.0841 -0.6987
 8681SOL    HW226943   2.926   4.101   1.636  0.0199 -0.8940  0.6186
 8682SOL     OW26944   3.959   5.011   2.946  0.4085  0.6362 -0.0107
 8682SOL    HW126945   3.881   5.034   2.889  0.4067 -1.3690 -0.8969
 8682SOL    HW226946   3.953   5.061   3.033 -1.5022  0.9834 -0.3036
 8683SOL     OW26947   6.822   3.523   0.288 -0.0637 -1.0232 -0.0584
 8683SOL    HW126948   6.726   3.522   0.315  0.5714 -1.3779  2.5200
 8683SOL    HW226949   6.839   3.598   0.224 -2.1396 -1.3812 -1.0988
 8684SOL     OW26950   0.315   4.118   4.328  0.3912  0.2349  0.0572
 8684SOL    HW126951   0.224   4.096   4.364  0.8078 -0.0245  0.9558
 8684SOL    HW226952   0.361   4.034   4.300 -0.3942  0.4951 -2.3174
 8685SOL     OW26953   2.344   1.843   6.415 -1.5422 -0.4193 -0.4896
 8685SOL    HW126954   2.341   1.801   6.325  0.2036 -0.3506 -0.6172
 8685SOL    HW226955   2.346   1.943   6.405  0.8493 -0.4168 -0.5369
 8686SOL     OW26956   5.761   3.191   4.027 -0.0593  0.0908  0.5094
 8686SOL    HW126957   5.768   3.124   4.101  0.2326 -0.5969 -0.1283
 8686SOL    HW226958   5.802   3.277   4.056 -0.5939  0.0532  1.3991
 8687SOL     OW26959   4.379   0.967   2.959  0.2033 -0.1127  0.0347
 8687SOL    HW126960   4.470   0.996   2.988  1.3754 -3.0715 -0.3578
 8687SOL    HW226961   4.334   0.920   3.035 -0.9380  1.0725  0.1323
 8688SOL     OW26962   1.356   1.001   2.785 -0.3126 -0.2137 -0.4019
 8688SOL    HW126963   1.260   0.972   2.788 -0.3047 -0.3208 -1.1889
 8688SOL    HW226964   1.379   1.032   2.693  0.4355 -0.2683 -0.2363
 8689SOL     OW26965   4.090   0.882   2.089  0.5119  0.3670 -0.6037
 8689SOL    HW126966   4.132   0.903   2.178  1.6495  1.0268 -1.2726
 8689SOL    HW226967   4.161   0.854   2.025 -0.2666  0.1706 -1.3950
 8690SOL     OW26968   5.446   2.210   1.780 -0.3431  0.3078  0.2030
 8690SOL    HW126969   5.520   2.164   1.829 -1.7680 -1.3071  0.9364
 8690SOL    HW226970   5.483   2.289   1.731  1.5954  0.4257  1.7216
 8691SOL     OW26971   5.370   2.448   6.011 -0.3391  0.5393 -0.2777
 8691SOL    HW126972   5.315   2.426   6.091 -1.6891  1.9978 -0.7689
 8691SOL    HW226973   5.314   2.494   5.943  1.0370  0.2934 -1.6397
 8692SOL     OW26974   2.558   6.937   3.414  0.2435  0.1135 -0.3543
 8692SOL    HW126975   2.463   6.909   3.425  0.3471 -0.8151 -1.5904
 8692SOL    HW226976   2.593   6.971   3.501 -0.9991 -0.2336  0.3006
 8693SOL     OW26977   4.817   1.820   0.909 -0.2957 -0.3048  0.0882
 8693SOL    HW126978   4.826   1.835   0.811  0.0401  1.4107  0.3443
 8693SOL    HW226979   4.904   1.786   0.946 -0.4438 -1.0192 -0.1975
 8694SOL     OW26980   0.160   5.813   5.630 -0.1569  0.4611 -0.2245
 8694SOL    HW126981   0.111   5.898   5.611  2.7637  2.4591  0.4826
 8694SOL    HW226982   0.242   5.808   5.574  0.7098 -1.0025  1.0779
 8695SOL     OW26983   4.492   5.087   5.835 -0.0464  0.1913  0.1597
 8695SOL    HW126984   4.529   5.164   5.887 -1.0049  1.2396 -0.6703
 8695SOL    HW226985   4.487   5.006   5.894  5.0175 -0.5872 -0.0039
 8696SOL     OW26986   1.839   6.546   0.532  0.6058 -0.0104  0.5271
 8696SOL    HW126987   1.837   6.524   0.435  0.9075 -2.4068  1.0086
 8696SOL    HW226988   1.746   6.563   0.564  0.4382  0.1658 -0.0317
 8697SOL     OW26989   5.014   4.324   0.497 -0.3739  0.2238  0.1483
 8697SOL    HW126990   5.062   4.263   0.560  1.8864  0.2537 -1.4237
 8697SOL    HW226991   4.951   4.271   0.441 -0.7235 -0.1537  0.8833
 8698SOL     OW26992   4.466   5.057   3.834 -0.1301  0.0991 -0.6381
 8698SOL    HW126993   4.491   5.147   3.798  0.1674  0.7340  1.0749
 8698SOL    HW226994   4.501   5.047   3.927  2.8654 -3.1349 -1.8967
 8699SOL     OW26995   2.544   1.955   3.661  0.1647  0.0739 -0.6012
 8699SOL    HW126996   2.483   2.033   3.672 -0.3106 -0.4141  0.3811
 8699SOL    HW226997   2.539   1.921   3.567  0.3005  1.1466 -1.0126
 8700SOL     OW26998   1.652   1.190   4.341 -0.0231  0.2148 -0.0864
 8700SOL    HW126999   1.652   1.169   4.244 -2.7835  2.3417 -0.6897
 8700SOL    HW227000   1.737   1.236   4.366  0.1644  0.8779 -1.8386
 8701SOL     OW27001   5.645   1.142   4.988  0.5811  0.0126 -0.5246
 8701SOL    HW127002   5.575   1.080   5.021 -0.2017  1.2318  0.1499
 8701SOL    HW227003   5.735   1.107   5.013  0.1612 -0.9806 -0.3892
 8702SOL     OW27004   4.781   0.181   6.877  0.5335  0.6896 -0.0552
 8702SOL    HW127005   4.746   0.217   6.964  0.7268  1.0480 -0.1220
 8702SOL    HW227006   4.788   0.082   6.882  0.0228  0.6611  0.1501
 8703SOL     OW27007   2.539   6.006   1.255  0.1708 -0.1722 -0.1272
 8703SOL    HW127008   2.497   6.051   1.335  1.1496  0.0854  0.2645
 8703SOL    HW227009   2.637   6.023   1.257  0.5594 -2.2280 -0.0497
 8704SOL     OW27010   1.388   2.678   2.415 -0.0284 -0.7279 -0.3364
 8704SOL    HW127011   1.460   2.632   2.363  0.2301  1.1773 -1.7736
 8704SOL    HW227012   1.414   2.773   2.430 -3.0640  0.6500 -2.7816
 8705SOL     OW27013   6.251   0.552   4.278  0.1978 -0.0362 -0.4490
 8705SOL    HW127014   6.201   0.489   4.218 -0.5159  0.2612 -0.1819
 8705SOL    HW227015   6.201   0.639   4.283  0.6620  0.2081 -0.0423
 8706SOL     OW27016   6.559   2.085   2.232  0.1805  0.4925  0.1748
 8706SOL    HW127017   6.486   2.122   2.174  0.5041 -0.6412 -0.9907
 8706SOL    HW227018   6.640   2.143   2.224 -0.0020  0.7297  0.0313
 8707SOL     OW27019   4.058   2.423   5.883 -0.3440  0.0628  0.5744
 8707SOL    HW127020   3.978   2.364   5.889  0.2631 -0.6878  1.6792
 8707SOL    HW227021   4.100   2.431   5.974 -0.4633  2.2876  0.5011
 8708SOL     OW27022   4.568   1.848   1.329  0.0607  0.0748 -0.0413
 8708SOL    HW127023   4.639   1.883   1.389 -0.8208  1.4225  0.2690
 8708SOL    HW227024   4.478   1.877   1.362 -0.5864 -0.8446 -0.9070
 8709SOL     OW27025   6.732   5.659   3.355  0.5728 -0.2278  0.5624
 8709SOL    HW127026   6.658   5.669   3.422 -0.5702  1.1991 -0.8467
 8709SOL    HW227027   6.702   5.696   3.267  2.4041 -1.1354 -0.4835
 8710SOL     OW27028   1.094   2.913   5.845 -0.2256 -0.0377 -0.6789
 8710SOL    HW127029   1.108   2.896   5.748 -2.1589 -0.1053 -0.9889
 8710SOL    HW227030   1.109   3.010   5.865  2.2981 -0.4036 -0.5932
 8711SOL     OW27031   6.600   1.962   3.127  0.0973  0.0747  0.1462
 8711SOL    HW127032   6.646   2.044   3.092 -0.9551  0.1863 -1.0648
 8711SOL    HW227033   6.666   1.903   3.173  1.3277  0.5176 -0.9996
 8712SOL     OW27034   3.588   1.388   6.522 -0.0682 -0.2025  0.1971
 8712SOL    HW127035   3.517   1.324   6.551 -0.4677 -0.1022 -0.5429
 8712SOL    HW227036   3.666   1.382   6.585 -0.4814 -0.7463  0.6647
 8713SOL     OW27037   6.805   4.602   3.391  0.2996  0.2274 -0.1533
 8713SOL    HW127038   6.825   4.674   3.458 -0.5736 -0.0615  0.4268
 8713SOL    HW227039   6.855   4.621   3.307  0.9039  0.9497  0.3493
 8714SOL     OW27040   1.537   1.711   4.949  0.3990  0.2438 -0.3323
 8714SOL    HW127041   1.621   1.719   4.895  0.7787 -0.5113  0.1206
 8714SOL    HW227042   1.542   1.773   5.027  0.2061  0.7387 -0.7071
 8715SOL     OW27043   0.216   0.690   0.523  0.2861  0.4331  0.4322
 8715SOL    HW127044   0.172   0.768   0.479  0.1447  0.0445 -0.1330
 8715SOL    HW227045   0.315   0.706   0.529  0.4307  0.1336 -0.8270
 8716SOL     OW27046   1.136   1.708   1.417  0.2162  0.1044  0.3472
 8716SOL    HW127047   1.183   1.626   1.451  2.1698  0.1726 -1.9831
 8716SOL    HW227048   1.089   1.753   1.494 -0.3673 -2.7796  1.8155
 8717SOL     OW27049   3.025   3.371   1.110 -0.5861  0.5474  0.3613
 8717SOL    HW127050   3.011   3.312   1.189 -0.7414  0.4055  0.2271
 8717SOL    HW227051   3.117   3.358   1.074 -1.5729 -1.9976 -1.6195
 8718SOL     OW27052   6.501   3.224   5.817 -0.0500 -0.1493 -0.0256
 8718SOL    HW127053   6.477   3.312   5.776  0.6028  0.5227  0.9741
 8718SOL    HW227054   6.519   3.157   5.745 -0.1974  0.6353 -0.8090
 8719SOL     OW27055   6.567   6.535   5.917 -0.1684 -0.6894  0.0171
 8719SOL    HW127056   6.484   6.583   5.945 -0.6198 -1.4277 -0.0156
 8719SOL    HW227057   6.549   6.485   5.832  0.4639 -0.4454 -0.2643
 8720SOL     OW27058   4.498   2.320   0.016  0.2171  0.2509 -0.3145
 8720SOL    HW127059   4.511   2.337   0.113  1.0880  1.1849 -0.5731
 8720SOL    HW227060   4.548   2.238  -0.012  3.4267  2.1507 -0.7075
 8721SOL     OW27061   1.085   0.958   4.072 -0.0239  0.1248 -0.0826
 8721SOL    HW127062   1.120   1.019   4.001 -0.7576 -0.2473 -0.7776
 8721SOL    HW227063   0.996   0.922   4.045  0.9421 -2.3013 -0.3082
 8722SOL     OW27064   4.224   3.177   5.452  0.1682  0.3655 -0.3894
 8722SOL    HW127065   4.193   3.101   5.394 -2.2886  1.1227 -0.1782
 8722SOL    HW227066   4.232   3.260   5.396 -1.2130  0.8652  0.1189
 8723SOL     OW27067   6.296   4.589   0.483 -0.4557 -0.2742 -0.1247
 8723SOL    HW127068   6.322   4.644   0.562 -1.5700  0.5406 -0.3065
 8723SOL    HW227069   6.339   4.499   0.489  0.7165  0.3182  0.6030
 8724SOL     OW27070   4.094   6.921   6.076  0.1875  1.3599  0.4025
 8724SOL    HW127071   4.008   6.958   6.111 -0.3578  1.7150 -1.2326
 8724SOL    HW227072   4.093   6.822   6.083 -1.8819  1.0390 -2.7277
 8725SOL     OW27073   3.034   4.713   6.121  0.2392 -0.1506  0.5428
 8725SOL    HW127074   3.133   4.703   6.132  0.1237 -0.4236  1.3883
 8725SOL    HW227075   3.015   4.797   6.070  0.9703 -1.0959 -1.4097
 8726SOL     OW27076   5.411   0.024   6.746  0.0571 -0.1830 -0.3331
 8726SOL    HW127077   5.459  -0.013   6.825  0.9772 -0.5171 -1.0409
 8726SOL    HW227078   5.373   0.114   6.769 -0.1196 -0.4958  0.6331
 8727SOL     OW27079   5.757   6.304   0.453 -0.0809  0.3339 -0.4399
 8727SOL    HW127080   5.808   6.285   0.370 -1.2373  2.4785 -1.7548
 8727SOL    HW227081   5.781   6.395   0.487  1.4071 -1.0133  2.4704
 8728SOL     OW27082   1.636   6.132   4.542 -0.5932  0.0397  0.0408
 8728SOL    HW127083   1.611   6.173   4.630  1.5326  0.2651  0.5991
 8728SOL    HW227084   1.574   6.057   4.522 -0.8331 -0.3578  2.0022
 8729SOL     OW27085   5.330   5.317   4.695  0.2364 -0.1160  0.0683
 8729SOL    HW127086   5.376   5.300   4.608  3.2747  1.3475  1.2598
 8729SOL    HW227087   5.329   5.232   4.749 -0.0053 -0.5620 -0.6116
 8730SOL     OW27088   5.787   0.287   2.200  0.2076 -0.0528  0.8839
 8730SOL    HW127089   5.768   0.229   2.121 -0.2022 -0.0881  1.0065
 8730SOL    HW227090   5.703   0.304   2.250  0.4628 -0.0120  1.3034
 8731SOL     OW27091   3.311   6.644   3.970  0.2790  0.6353 -0.5963
 8731SOL    HW127092   3.330   6.740   3.993 -1.3956  0.8390  0.0776
 8731SOL    HW227093   3.230   6.613   4.020  1.0980 -1.3254 -0.3726
 8732SOL     OW27094   5.237   3.458   1.699  0.2923  0.1687 -0.1516
 8732SOL    HW127095   5.187   3.523   1.756  0.4571  1.2699 -1.2263
 8732SOL    HW227096   5.334   3.483   1.697  0.0076  1.2966 -2.3920
 8733SOL     OW27097   1.415   0.091   1.671 -0.2097  0.3407  0.1142
 8733SOL    HW127098   1.482   0.152   1.714  1.5314 -1.2286 -0.2167
 8733SOL    HW227099   1.405   0.117   1.575 -0.0456  0.5752  0.1580
 8734SOL     OW27100   5.056   4.582   0.743 -0.5335 -0.2095 -0.0366
 8734SOL    HW127101   5.094   4.620   0.659  2.4533 -1.4397  0.6462
 8734SOL    HW227102   5.006   4.498   0.722  0.8533 -0.9374 -0.5624
 8735SOL     OW27103   1.215   2.393   5.585  0.3369  0.3450  0.2655
 8735SOL    HW127104   1.244   2.302   5.615  0.2179 -0.0049 -0.6529
 8735SOL    HW227105   1.137   2.422   5.641 -0.4416 -0.6694 -0.2440
 8736SOL     OW27106   1.233   6.641   5.475 -0.5241 -0.9002  0.0230
 8736SOL    HW127107   1.253   6.607   5.384 -1.2649 -1.7559  0.1640
 8736SOL    HW227108   1.225   6.741   5.472  1.5751 -0.7082 -0.4107
 8737SOL     OW27109   3.128   5.348   5.595 -0.7831  0.1333  0.2957
 8737SOL    HW127110   3.222   5.335   5.626 -1.4921 -0.9493  2.1741
 8737SOL    HW227111   3.093   5.262   5.559 -1.4043  0.2159  0.6822
 8738SOL     OW27112   0.348   3.012   3.974 -0.0796 -0.3135 -0.1906
 8738SOL    HW127113   0.259   2.968   3.967  0.1711 -1.0308  0.7687
 8738SOL    HW227114   0.405   2.960   4.039  0.2147  1.4652  1.0409
 8739SOL     OW27115   1.906   2.421   4.248  0.0590  0.2017 -0.1741
 8739SOL    HW127116   1.884   2.519   4.248 -0.8997  0.0332  1.7587
 8739SOL    HW227117   1.982   2.404   4.310  1.3407 -0.1210 -1.7477
 8740SOL     OW27118   2.664   5.337   1.947  0.8186  0.0868 -0.3771
 8740SOL    HW127119   2.745   5.395   1.954  0.6038  0.7436 -2.4886
 8740SOL    HW227120   2.633   5.335   1.852 -0.2301 -2.1094 -0.0652
 8741SOL     OW27121   1.520   3.519   2.059 -0.8461 -0.3553  0.6761
 8741SOL    HW127122   1.598   3.459   2.041 -0.9632  0.0691 -1.5958
 8741SOL    HW227123   1.453   3.471   2.116  1.1578 -0.6088  2.9591
 8742SOL     OW27124   5.123   6.964   3.311 -0.2439 -0.0320  0.1295
 8742SOL    HW127125   5.210   6.925   3.341 -0.0286 -0.0176 -0.4633
 8742SOL    HW227126   5.052   6.944   3.378 -0.0475 -1.0906  0.0384
 8743SOL     OW27127   1.809   3.627   2.393 -0.6932 -0.3108 -0.5861
 8743SOL    HW127128   1.863   3.567   2.334 -1.6772 -0.9689 -0.8326
 8743SOL    HW227129   1.784   3.710   2.343  0.2658  0.1168 -0.3945
 8744SOL     OW27130   1.778   1.843   3.986  0.3287 -0.2039  0.2296
 8744SOL    HW127131   1.792   1.931   4.031  1.5617  0.7620 -1.8944
 8744SOL    HW227132   1.768   1.771   4.055 -0.7852  1.5723  2.0180
 8745SOL     OW27133   5.219   1.286   6.156  0.0457  0.5049 -0.2510
 8745SOL    HW127134   5.230   1.189   6.180 -0.1232  0.7875  1.0292
 8745SOL    HW227135   5.267   1.304   6.070 -0.2710 -0.8010 -0.7252
 8746SOL     OW27136   5.973   5.248   5.216 -0.7302 -0.0743  0.2226
 8746SOL    HW127137   5.916   5.174   5.180 -1.8652  0.5653  0.6579
 8746SOL    HW227138   5.937   5.336   5.184  1.1044  0.2893 -1.0128
 8747SOL     OW27139   3.025   0.435   3.906 -0.1943  0.4878  0.9462
 8747SOL    HW127140   3.089   0.373   3.861 -0.7869  0.8820 -0.4827
 8747SOL    HW227141   2.974   0.386   3.976  1.6605  0.1696  2.1316
 8748SOL     OW27142   1.104   0.876   5.674  0.0646 -0.3253 -0.2044
 8748SOL    HW127143   1.172   0.886   5.601 -1.2232  0.9277 -1.2768
 8748SOL    HW227144   1.136   0.923   5.756  0.2691  0.7495 -0.8792
 8749SOL     OW27145   4.534   6.128   2.171  0.0630 -0.0761 -0.2349
 8749SOL    HW127146   4.603   6.057   2.156 -0.5760 -0.3427 -2.2630
 8749SOL    HW227147   4.481   6.140   2.087 -2.4062  0.0695  1.2606
 8750SOL     OW27148   2.769   6.299   6.165  0.2878 -0.1943 -0.6089
 8750SOL    HW127149   2.686   6.247   6.187 -0.2607 -0.0556 -2.2375
 8750SOL    HW227150   2.816   6.256   6.088  2.2588 -0.7893  0.8382
 8751SOL     OW27151   2.110   5.512   2.688 -0.4097  0.3090 -0.2454
 8751SOL    HW127152   2.061   5.596   2.664 -1.3132 -0.6133 -1.7813
 8751SOL    HW227153   2.087   5.440   2.622  0.9189 -0.9419  0.6033
 8752SOL     OW27154   0.393   2.708   0.726 -0.1906 -0.2128 -0.3367
 8752SOL    HW127155   0.434   2.711   0.635  1.0269  2.5961  0.2210
 8752SOL    HW227156   0.300   2.743   0.723  0.1904  0.8233 -0.3764
 8753SOL     OW27157   5.856   2.006   5.136  0.0489  0.2607 -0.0074
 8753SOL    HW127158   5.762   2.021   5.167  0.0722 -1.3389  0.9673
 8753SOL    HW227159   5.917   2.073   5.178 -0.3740  0.0344  1.0044
 8754SOL     OW27160   0.966   1.815   5.471  0.3991  0.1327 -0.2507
 8754SOL    HW127161   0.904   1.893   5.465 -0.6838 -0.6959 -0.1178
 8754SOL    HW227162   1.028   1.826   5.548  0.7115  1.1750 -0.6407
 8755SOL     OW27163   2.462   1.514   3.180  0.0800 -0.0963 -0.4933
 8755SOL    HW127164   2.484   1.424   3.143  0.2611 -0.4763  0.5066
 8755SOL    HW227165   2.522   1.534   3.258 -0.0860  0.8105 -0.5826
 8756SOL     OW27166   1.762   3.735   5.398 -0.1013  0.1459  0.6794
 8756SOL    HW127167   1.819   3.679   5.337  1.5054  2.5255 -0.1279
 8756SOL    HW227168   1.800   3.731   5.491  0.4346  0.4611  0.4767
 8757SOL     OW27169   6.193   1.847   0.147 -0.8807  0.7300 -0.1319
 8757SOL    HW127170   6.171   1.904   0.067 -0.6909  0.3936 -0.4274
 8757SOL    HW227171   6.284   1.870   0.180 -0.0369 -0.6571 -1.3808
 8758SOL     OW27172   5.985   5.924   1.359 -0.0425 -0.3656 -0.3118
 8758SOL    HW127173   5.969   5.977   1.442  0.7817 -2.5258  1.3100
 8758SOL    HW227174   6.074   5.879   1.365  0.3239 -0.1014 -2.6737
 8759SOL     OW27175   4.745   1.036   6.309 -0.2223 -0.0250 -0.8008
 8759SOL    HW127176   4.692   0.964   6.266 -0.4179 -0.4335  0.0961
 8759SOL    HW227177   4.685   1.113   6.333  0.1445  0.8939 -2.6421
 8760SOL     OW27178   2.829   2.040   2.812  0.2016 -0.3294  0.4772
 8760SOL    HW127179   2.739   2.020   2.773 -0.6699 -0.3677  2.3873
 8760SOL    HW227180   2.883   1.956   2.816 -0.2343 -0.6053  0.6404
 8761SOL     OW27181   4.662   6.663   1.016 -0.5481 -0.3022 -0.5562
 8761SOL    HW127182   4.665   6.669   1.116 -1.4987  1.7368 -0.5939
 8761SOL    HW227183   4.567   6.663   0.985 -0.2620  0.3186 -1.4835
 8762SOL     OW27184   2.593   4.886   1.706  0.1526 -0.1055  0.1988
 8762SOL    HW127185   2.676   4.835   1.727 -0.6340 -1.2632  0.6013
 8762SOL    HW227186   2.557   4.928   1.789  0.5546  0.7511 -0.0521
 8763SOL     OW27187   6.029   0.259   1.468  0.1277 -0.0686 -0.4313
 8763SOL    HW127188   6.054   0.259   1.371 -1.2678  2.6966 -0.8962
 8763SOL    HW227189   6.061   0.344   1.510 -1.1301 -0.2598  0.9770
 8764SOL     OW27190   5.092   1.123   4.333  0.4333  0.4181 -0.5516
 8764SOL    HW127191   5.010   1.082   4.375 -0.6670  2.1075 -0.9626
 8764SOL    HW227192   5.172   1.101   4.389 -0.1658 -1.7346 -0.4195
 8765SOL     OW27193   0.235   6.728   4.906 -1.2837 -0.4145 -0.0693
 8765SOL    HW127194   0.315   6.763   4.857 -1.3296  1.0020  0.8182
 8765SOL    HW227195   0.227   6.630   4.889  0.6082 -0.5947 -0.2249
 8766SOL     OW27196   2.704   5.229   2.196  0.0387  0.4130  0.1702
 8766SOL    HW127197   2.727   5.137   2.165  0.2464  0.6974 -0.5597
 8766SOL    HW227198   2.698   5.290   2.116 -0.5447  0.9314  0.5998
 8767SOL     OW27199   4.117   0.286   4.698 -0.3348 -0.2697  0.6298
 8767SOL    HW127200   4.183   0.211   4.685 -1.1541 -0.8211 -0.5237
 8767SOL    HW227201   4.037   0.252   4.747 -0.2693  0.1172  1.0106
 8768SOL     OW27202   1.197   1.876   6.298 -0.2037 -0.2871 -0.1438
 8768SOL    HW127203   1.161   1.867   6.205 -0.7156 -2.5754  0.1960
 8768SOL    HW227204   1.200   1.785   6.340 -0.9423  0.8075  2.4278
 8769SOL     OW27205   1.776   6.093   5.170  0.3142 -0.1740 -0.0832
 8769SOL    HW127206   1.738   6.170   5.222 -1.0762 -1.2374  0.5494
 8769SOL    HW227207   1.710   6.064   5.101  2.0414  1.0547 -2.3764
 8770SOL     OW27208   6.676   2.883   3.284 -0.1415  0.0556 -0.3178
 8770SOL    HW127209   6.671   2.788   3.255 -1.3868 -0.2590  0.8133
 8770SOL    HW227210   6.590   2.930   3.261 -0.3359  0.3414  0.9266
 8771SOL     OW27211   1.577   2.684   0.070  0.2704 -0.0629 -0.0156
 8771SOL    HW127212   1.647   2.755   0.067  1.4134 -1.1451  0.3255
 8771SOL    HW227213   1.617   2.598   0.102 -0.9343 -1.0445 -1.0040
 8772SOL     OW27214   4.192   0.888   0.700 -0.5512  0.2542 -0.1798
 8772SOL    HW127215   4.281   0.859   0.734 -0.9720 -0.2915  0.4738
 8772SOL    HW227216   4.204   0.941   0.616  0.4946  1.5035  0.7144
 8773SOL     OW27217   2.635   1.379   3.675 -0.0471 -0.0924  0.4944
 8773SOL    HW127218   2.621   1.378   3.774  1.2607 -1.1562  0.6976
 8773SOL    HW227219   2.733   1.376   3.655 -0.3175 -2.4952 -0.8173
 8774SOL     OW27220   2.679   2.044   1.090  0.3102  0.5687  0.0191
 8774SOL    HW127221   2.689   1.989   1.007  0.9072  1.0224 -0.2202
 8774SOL    HW227222   2.766   2.047   1.139  0.7544  2.5308 -0.7654
 8775SOL     OW27223   5.880   1.187   3.347  0.1872  0.3881  0.1426
 8775SOL    HW127224   5.966   1.239   3.345 -0.8147  2.1271 -0.9559
 8775SOL    HW227225   5.866   1.144   3.258 -0.1017  0.1471  0.3043
 8776SOL     OW27226   2.962   3.186   3.693  0.2517  0.2248 -0.3977
 8776SOL    HW127227   2.911   3.270   3.712 -0.3668  0.0607 -1.3149
 8776SOL    HW227228   3.002   3.191   3.602  0.2255 -0.4772 -0.4534
 8777SOL     OW27229   6.513   5.923   2.880 -0.0109  0.0926  0.2034
 8777SOL    HW127230   6.608   5.929   2.849  0.6858  0.1529  2.2166
 8777SOL    HW227231   6.483   6.013   2.913 -0.2623 -0.2585  0.9408
 8778SOL     OW27232   0.538   2.299   2.992  0.1715  0.1369  0.2824
 8778SOL    HW127233   0.615   2.351   2.956 -0.6822  1.2352 -0.0293
 8778SOL    HW227234   0.523   2.218   2.936  0.2194  0.6781 -0.5260
 8779SOL     OW27235   0.128   4.615   1.606  0.5677  0.5019 -0.3830
 8779SOL    HW127236   0.062   4.552   1.565 -0.6911  0.9824  0.8275
 8779SOL    HW227237   0.200   4.636   1.539  1.7762 -3.1553 -0.4445
 8780SOL     OW27238   0.733   6.115   4.862 -0.5814 -0.1202 -0.0510
 8780SOL    HW127239   0.712   6.206   4.898 -0.5293 -0.0361 -0.2331
 8780SOL    HW227240   0.824   6.088   4.893 -1.5054 -1.1113  1.9840
 8781SOL     OW27241   1.938   6.299   2.222  0.4150  0.4314  0.4115
 8781SOL    HW127242   1.919   6.234   2.294  0.2275 -0.3326 -0.3125
 8781SOL    HW227243   2.011   6.263   2.163 -1.8166 -0.6463 -1.8547
 8782SOL     OW27244   3.259   1.381   3.226  0.7173  0.0046  0.5978
 8782SOL    HW127245   3.173   1.393   3.177  1.4884 -2.3302 -1.4951
 8782SOL    HW227246   3.270   1.285   3.252  1.9563  0.5588  2.3388
 8783SOL     OW27247   6.332   3.280   5.389 -0.2862  0.1719  0.4235
 8783SOL    HW127248   6.285   3.218   5.453  0.1110  0.0559  0.6069
 8783SOL    HW227249   6.319   3.247   5.296 -1.5097  0.7661  0.3734
 8784SOL     OW27250   6.010   4.337   6.535 -0.6216  0.5057 -0.2562
 8784SOL    HW127251   6.089   4.391   6.506 -0.1477  0.4972  0.9622
 8784SOL    HW227252   5.933   4.353   6.472  0.6047 -0.1888 -2.0002
 8785SOL     OW27253   5.732   5.954   5.577 -0.6726  0.2478  0.3725
 8785SOL    HW127254   5.642   5.968   5.537 -1.4118 -0.8326  1.5816
 8785SOL    HW227255   5.780   5.882   5.526 -0.8524  0.1983  0.2728
 8786SOL     OW27256   4.243   5.822   0.270 -0.2455  0.4213  0.7214
 8786SOL    HW127257   4.188   5.902   0.294  0.0454  1.0051 -0.5056
 8786SOL    HW227258   4.308   5.846   0.198  0.3114 -0.7556  0.8075
 8787SOL     OW27259   0.295   4.243   1.739  0.1903  0.5523  0.5343
 8787SOL    HW127260   0.307   4.156   1.692  2.1889  0.3420  1.3637
 8787SOL    HW227261   0.335   4.317   1.683 -0.0336  0.7099  0.5809
 8788SOL     OW27262   1.987   2.210   5.176 -0.2647 -0.0797 -0.4949
 8788SOL    HW127263   2.033   2.284   5.226  0.4938 -0.7919 -0.1180
 8788SOL    HW227264   1.995   2.228   5.078 -2.1231  1.5395 -0.4031
 8789SOL     OW27265   0.461   6.545   6.872  0.0857  0.3294 -0.1027
 8789SOL    HW127266   0.510   6.574   6.789 -0.4865  0.3322 -0.4442
 8789SOL    HW227267   0.433   6.450   6.862  1.1079 -0.0607  0.6131
 8790SOL     OW27268   5.457   1.858   1.796 -0.5906 -0.4513  0.8487
 8790SOL    HW127269   5.387   1.860   1.725  0.5277  3.5860 -0.3792
 8790SOL    HW227270   5.419   1.895   1.881 -0.5221 -0.2297  0.7839
 8791SOL     OW27271   5.007   6.632   6.548  0.1731 -0.2379 -0.2874
 8791SOL    HW127272   5.005   6.648   6.450 -3.9239  0.0643 -0.3249
 8791SOL    HW227273   4.994   6.534   6.566 -1.8360  0.0090 -0.1471
 8792SOL     OW27274   5.016   6.579   2.244 -0.2677  0.2297 -0.3418
 8792SOL    HW127275   5.012   6.539   2.153  1.4483  2.0446 -1.2894
 8792SOL    HW227276   5.111   6.581   2.275 -0.5211  1.7937  0.4495
 8793SOL     OW27277   3.530   6.414   3.620  0.2434 -0.3843  0.1986
 8793SOL    HW127278   3.627   6.408   3.646  0.4872 -0.6075 -0.7314
 8793SOL    HW227279   3.484   6.481   3.678  0.7923 -0.7768  1.1138
 8794SOL     OW27280   3.694   0.142   1.814  0.3676  0.3285 -0.0891
 8794SOL    HW127281   3.692   0.202   1.734  1.6637  3.5315  2.0689
 8794SOL    HW227282   3.789   0.127   1.842  0.0026 -1.8584  0.1398
 8795SOL     OW27283   2.304   6.693   5.584  0.2232  0.7946  0.0753
 8795SOL    HW127284   2.352   6.714   5.670 -1.0861  1.2504  0.7277
 8795SOL    HW227285   2.206   6.707   5.597 -0.0475  0.3742 -1.3689
 8796SOL     OW27286   4.884   2.736   5.750  0.2448  0.5807  0.0860
 8796SOL    HW127287   4.832   2.788   5.683 -0.6924 -0.7141 -0.2423
 8796SOL    HW227288   4.823   2.702   5.822  1.2428  2.0047  1.6788
 8797SOL     OW27289   6.137   6.835   6.193  0.6167 -0.4685 -0.4420
 8797SOL    HW127290   6.170   6.910   6.250  1.2861 -0.9106 -0.2362
 8797SOL    HW227291   6.206   6.813   6.123  0.5303 -1.0486 -0.3501
 8798SOL     OW27292   6.054   4.924   4.264 -0.4218 -0.0922 -0.4115
 8798SOL    HW127293   6.150   4.896   4.270 -0.4582 -0.0635  0.4249
 8798SOL    HW227294   6.046   5.005   4.205 -0.1901 -1.1938 -2.0413
 8799SOL     OW27295   3.510   5.145   3.042 -0.0399  0.0447  0.2652
 8799SOL    HW127296   3.425   5.176   3.086 -0.3457  0.1989 -0.4274
 8799SOL    HW227297   3.579   5.127   3.112 -0.6611 -0.1262  0.8385
 8800SOL     OW27298   4.868   5.110   6.650 -0.0635 -0.4034 -1.2136
 8800SOL    HW127299   4.837   5.196   6.690 -0.4907 -0.8835 -0.4958
 8800SOL    HW227300   4.925   5.062   6.715 -0.2090 -0.8799 -1.4358
 8801SOL     OW27301   2.713   0.554   4.443 -0.1901  0.2084 -0.5552
 8801SOL    HW127302   2.719   0.616   4.365 -0.9714  0.1673 -0.6521
 8801SOL    HW227303   2.617   0.538   4.466 -0.0115  1.9691  1.8076
 8802SOL     OW27304   2.543   1.423   1.740 -0.2042 -0.2459  0.1945
 8802SOL    HW127305   2.460   1.461   1.780  1.2511  2.7005  0.7220
 8802SOL    HW227306   2.581   1.488   1.673  0.9104 -2.1617 -1.1325
 8803SOL     OW27307   3.314   4.690   6.093  0.2103 -0.5450 -0.3352
 8803SOL    HW127308   3.401   4.723   6.131  1.3363 -3.0864 -0.4638
 8803SOL    HW227309   3.306   4.720   5.998  0.5303  0.4196 -0.0674
 8804SOL     OW27310   4.201   2.213   0.955  0.0799  0.3177  0.4224
 8804SOL    HW127311   4.250   2.234   0.871  1.6915 -0.5626  1.1016
 8804SOL    HW227312   4.259   2.235   1.034 -0.0170 -2.0874  1.2464
 8805SOL     OW27313   1.072   6.049   3.659 -0.1696 -0.5582 -0.0027
 8805SOL    HW127314   1.101   5.955   3.639 -0.3999 -0.7665  0.5957
 8805SOL    HW227315   1.058   6.058   3.758 -0.7232 -0.0565 -0.1265
 8806SOL     OW27316   3.963   6.927   0.965  0.6336  0.0669 -0.1871
 8806SOL    HW127317   3.932   6.984   0.889  1.5747 -0.6933 -1.1754
 8806SOL    HW227318   3.888   6.915   1.030  0.7480  3.4112  0.7273
 8807SOL     OW27319   0.707   5.673   6.810  0.3612  0.1482  0.4888
 8807SOL    HW127320   0.745   5.630   6.729 -4.0632 -0.5501 -1.4673
 8807SOL    HW227321   0.699   5.772   6.795  0.5760  0.1815  0.5806
 8808SOL     OW27322   6.897   6.834   1.659  0.0773  0.5048 -0.5178
 8808SOL    HW127323   6.894   6.882   1.746  2.1428 -0.1538 -0.0347
 8808SOL    HW227324   6.935   6.894   1.588 -0.3076  0.5908 -0.6549
 8809SOL     OW27325   5.984   2.843   0.782 -0.2454  0.3032 -0.2702
 8809SOL    HW127326   5.906   2.801   0.828  1.2587 -0.2466  1.9405
 8809SOL    HW227327   6.036   2.772   0.734  0.1529  0.2626  0.2118
 8810SOL     OW27328   4.676   1.881   5.135  0.4615  0.0112 -0.2181
 8810SOL    HW127329   4.635   1.967   5.103  1.2091  1.3054  2.0161
 8810SOL    HW227330   4.639   1.858   5.225  3.0905  0.2132  1.0378
 8811SOL     OW27331   1.562   2.284   3.321 -0.1537 -0.0042  0.0456
 8811SOL    HW127332   1.559   2.248   3.228  0.1698 -0.0903  0.0653
 8811SOL    HW227333   1.473   2.323   3.346 -0.5088 -0.7951  0.0270
 8812SOL     OW27334   2.562   1.167   1.737  0.5203  0.2853  0.4356
 8812SOL    HW127335   2.571   1.263   1.712 -0.9930  0.5679  0.8449
 8812SOL    HW227336   2.614   1.149   1.820  2.0970  0.3537 -0.5093
 8813SOL     OW27337   1.415   4.261   2.354 -0.5538 -0.5165 -0.3339
 8813SOL    HW127338   1.402   4.327   2.280 -0.8260 -0.8541 -0.5898
 8813SOL    HW227339   1.503   4.279   2.399 -0.9844  0.5287  0.1276
 8814SOL     OW27340   5.048   6.971   5.484  0.5308  0.9891 -0.1848
 8814SOL    HW127341   5.009   6.907   5.550 -1.7670  2.0829 -0.3869
 8814SOL    HW227342   5.077   7.054   5.531  1.3899  0.7121 -0.2171
 8815SOL     OW27343   1.127   5.117   1.796 -0.1258 -0.2337 -0.3744
 8815SOL    HW127344   1.037   5.106   1.840 -0.5881 -1.3463 -1.5453
 8815SOL    HW227345   1.146   5.036   1.740  2.6954 -1.1694  1.7343
 8816SOL     OW27346   2.007   0.117   6.440 -0.0176  0.9899 -0.0753
 8816SOL    HW127347   1.997   0.205   6.394  0.3295  1.6306  1.0332
 8816SOL    HW227348   1.917   0.076   6.452 -0.2429  1.4824 -0.0543
 8817SOL     OW27349   4.078   5.744   5.237  0.1864  0.3172  0.0760
 8817SOL    HW127350   4.147   5.687   5.192  0.4502  1.0659 -0.4899
 8817SOL    HW227351   4.005   5.766   5.173  0.0566  0.5667  0.3070
 8818SOL     OW27352   4.724   4.629   4.878 -0.3148 -0.3635 -0.0886
 8818SOL    HW127353   4.631   4.608   4.849 -0.7272  1.8402 -0.5022
 8818SOL    HW227354   4.724   4.705   4.943  1.2985  1.4673 -2.0619
 8819SOL     OW27355   5.086   2.022   3.865 -0.0238  0.0156 -0.1356
 8819SOL    HW127356   5.111   2.117   3.847 -2.1801  0.7237  0.3597
 8819SOL    HW227357   5.115   1.998   3.958 -0.6048  0.6200  0.2103
 8820SOL     OW27358   0.791   2.924   5.249 -0.1836 -0.6554 -0.8563
 8820SOL    HW127359   0.695   2.904   5.233  0.1885 -2.4121 -1.0357
 8820SOL    HW227360   0.838   2.842   5.281  1.0143  0.4787  0.4500
 8821SOL     OW27361   2.509   0.667   6.327 -0.3055  0.0280  0.1317
 8821SOL    HW127362   2.421   0.662   6.280 -0.1758 -1.4403 -0.0092
 8821SOL    HW227363   2.580   0.689   6.260 -0.3260 -0.6295 -0.1220
 8822SOL     OW27364   1.416   2.702   5.234 -0.3427 -0.0765  0.8043
 8822SOL    HW127365   1.333   2.721   5.182  0.7157 -0.8461 -1.2855
 8822SOL    HW227366   1.478   2.647   5.178  1.9960  1.2829  1.9164
 8823SOL     OW27367   1.156   4.441   1.277  0.1703 -0.5953  0.2899
 8823SOL    HW127368   1.247   4.480   1.265  0.4350 -0.9037  1.2096
 8823SOL    HW227369   1.120   4.410   1.189  0.6438  0.1985 -0.1906
 8824SOL     OW27370   3.022   2.338   1.642 -0.2424 -0.3215  0.3405
 8824SOL    HW127371   2.972   2.389   1.712 -0.1891 -0.8721  0.7808
 8824SOL    HW227372   3.091   2.280   1.685 -1.1722 -1.7547 -0.0345
 8825SOL     OW27373   1.306   2.168   6.892 -0.2401  0.5620  0.5929
 8825SOL    HW127374   1.297   2.268   6.886 -1.6748  0.4357  0.2587
 8825SOL    HW227375   1.253   2.126   6.818 -1.1206 -0.4983  1.8008
 8826SOL     OW27376   4.689   3.803   5.608 -0.6370  0.1819 -0.0262
 8826SOL    HW127377   4.695   3.742   5.687 -2.5374  0.0360  0.0513
 8826SOL    HW227378   4.741   3.764   5.532 -2.8484 -2.3236 -0.4239
 8827SOL     OW27379   0.321   1.217   3.845 -0.9619  0.4340  0.0705
 8827SOL    HW127380   0.397   1.266   3.803 -2.6483  2.8108 -0.3668
 8827SOL    HW227381   0.346   1.190   3.938  0.8605 -0.0337 -0.5207
 8828SOL     OW27382   2.593   7.014   1.080 -0.1756 -0.6477 -0.1024
 8828SOL    HW127383   2.692   7.000   1.070 -0.2607 -0.5948 -1.0527
 8828SOL    HW227384   2.574   7.112   1.088 -0.1129 -0.6863  0.6427
 8829SOL     OW27385   0.120   4.363   5.946 -0.3616  0.1718 -0.2037
 8829SOL    HW127386   0.099   4.460   5.957 -0.5970  0.1265 -0.2386
 8829SOL    HW227387   0.067   4.326   5.870  0.8765  0.3659 -1.1730
 8830SOL     OW27388   0.875   0.107   6.065 -0.1600 -0.1317  0.0926
 8830SOL    HW127389   0.889   0.097   5.966 -0.5999  1.7338 -0.2032
 8830SOL    HW227390   0.877   0.204   6.088 -0.7371 -0.5142  1.8321
 8831SOL     OW27391   1.612   1.493   4.745  0.0536  0.4087  0.4826
 8831SOL    HW127392   1.701   1.534   4.721  1.1656 -1.4512  1.2144
 8831SOL    HW227393   1.551   1.497   4.665  1.3171  0.3683 -0.5222
 8832SOL     OW27394   5.366   1.226   1.729 -0.3339  0.2695  0.4160
 8832SOL    HW127395   5.316   1.300   1.774  0.9711  0.9241  0.8369
 8832SOL    HW227396   5.462   1.228   1.758  0.3940  0.2648 -1.8473
 8833SOL     OW27397   2.846   4.726   3.400 -0.4344 -0.4091  0.3175
 8833SOL    HW127398   2.805   4.653   3.345  0.9765 -1.5502  0.7331
 8833SOL    HW227399   2.821   4.715   3.496  1.7906 -1.8955  0.7939
 8834SOL     OW27400   4.793   4.496   3.916  0.0137 -0.2973 -0.0998
 8834SOL    HW127401   4.854   4.522   3.841  0.2469 -1.3058 -0.2680
 8834SOL    HW227402   4.700   4.485   3.880 -0.1800  0.6859  0.0540
 8835SOL     OW27403   0.165   0.744   6.743  0.0430 -0.2360 -0.0738
 8835SOL    HW127404   0.185   0.680   6.817 -0.5286 -0.6084 -0.2359
 8835SOL    HW227405   0.089   0.710   6.688  1.0350 -0.4120 -1.3881
 8836SOL     OW27406   5.460   1.212   1.480  0.4254  1.4966 -0.2041
 8836SOL    HW127407   5.443   1.227   1.578  1.6965  1.6092  0.0210
 8836SOL    HW227408   5.542   1.263   1.453  1.2385 -0.1253 -0.8704
 8837SOL     OW27409   6.165   1.778   3.895 -0.3282  0.0319  0.4192
 8837SOL    HW127410   6.129   1.801   3.986 -0.5201 -0.2096  0.4058
 8837SOL    HW227411   6.263   1.760   3.901 -0.6144 -1.5404  0.8701
 8838SOL     OW27412   2.360   6.308   5.412  0.1641  0.9212  0.8623
 8838SOL    HW127413   2.396   6.395   5.446  0.6958  0.6053  1.1279
 8838SOL    HW227414   2.433   6.239   5.415  0.5289  1.0936 -1.7967
 8839SOL     OW27415   5.256   5.319   3.407  0.3994  0.2027  0.1662
 8839SOL    HW127416   5.348   5.279   3.409  0.4550  0.3467  0.6670
 8839SOL    HW227417   5.197   5.269   3.471 -0.8494 -2.1909 -2.6532
 8840SOL     OW27418   0.079   2.455   1.474 -0.4539 -0.5142 -0.0598
 8840SOL    HW127419   0.090   2.356   1.483  0.7660 -0.1988  3.1526
 8840SOL    HW227420   0.160   2.501   1.510 -2.2265  1.6850  1.3256
 8841SOL     OW27421   0.781   0.502   4.662 -1.0260 -0.6498  0.0258
 8841SOL    HW127422   0.789   0.586   4.716 -0.7770 -1.6656  1.6248
 8841SOL    HW227423   0.758   0.526   4.567  1.4079  1.3798 -0.1717
 8842SOL     OW27424   1.015   3.603   2.574  0.2759 -0.0075 -0.3704
 8842SOL    HW127425   1.048   3.661   2.648  1.6943  0.1496 -1.0747
 8842SOL    HW227426   1.045   3.642   2.486  0.2921 -1.1971 -0.9077
 8843SOL     OW27427   2.751   3.832   5.821  0.2841  0.1287 -0.2144
 8843SOL    HW127428   2.671   3.890   5.835  0.8907  0.8836  0.1969
 8843SOL    HW227429   2.761   3.814   5.723  0.0041  0.5923 -0.3347
 8844SOL     OW27430   6.903   0.558   6.624 -0.4874  0.3478  0.0137
 8844SOL    HW127431   6.915   0.505   6.540 -1.9389  0.9315 -0.5796
 8844SOL    HW227432   6.845   0.507   6.688  0.5944 -0.0868  0.6865
 8845SOL     OW27433   0.797   5.296   1.796 -0.3367 -0.8885  0.5586
 8845SOL    HW127434   0.884   5.346   1.799 -0.9008  0.0610  1.8665
 8845SOL    HW227435   0.797   5.235   1.716  0.6494  0.6742 -0.7104
 8846SOL     OW27436   1.719   4.602   4.593 -0.4020 -0.0684  0.0389
 8846SOL    HW127437   1.651   4.674   4.585 -1.2902 -1.0378 -1.4853
 8846SOL    HW227438   1.754   4.600   4.687 -0.0800  2.5441  0.0520
 8847SOL     OW27439   3.231   6.973   3.285 -1.0295 -0.0969 -0.3475
 8847SOL    HW127440   3.180   6.895   3.322  1.2776 -1.2000  0.6784
 8847SOL    HW227441   3.217   6.977   3.186 -0.0976 -2.7462 -0.6599
 8848SOL     OW27442   2.930   0.210   0.446  0.1910  0.4317 -0.5893
 8848SOL    HW127443   2.903   0.186   0.353  0.0794  0.0040 -0.4509
 8848SOL    HW227444   3.029   0.198   0.457  0.0131 -0.9410 -0.2534
 8849SOL     OW27445   1.275   0.114   0.896  0.1633 -0.4380 -0.3564
 8849SOL    HW127446   1.267   0.156   0.805 -0.7667  0.7308  0.2238
 8849SOL    HW227447   1.275   0.015   0.887  0.8909 -0.3481 -1.6869
 8850SOL     OW27448   2.505   2.638   0.355 -0.0647 -0.0117  0.1667
 8850SOL    HW127449   2.558   2.592   0.284  0.0061  1.5982 -0.8640
 8850SOL    HW227450   2.554   2.632   0.442 -0.2192 -2.1364  0.1756
 8851SOL     OW27451   1.727   3.115   3.641 -1.0647  0.3488  0.0198
 8851SOL    HW127452   1.800   3.047   3.650 -0.3706  1.0134 -0.4343
 8851SOL    HW227453   1.767   3.203   3.617 -2.2586 -0.0440 -4.0216
 8852SOL     OW27454   2.110   1.651   6.480  0.0671 -0.0134 -0.0694
 8852SOL    HW127455   2.197   1.698   6.468 -0.5002  1.1019  0.0059
 8852SOL    HW227456   2.040   1.694   6.422  0.1336 -2.6463 -2.3360
 8853SOL     OW27457   4.618   1.475   0.938 -0.0299  0.2831 -0.1789
 8853SOL    HW127458   4.617   1.549   1.006 -2.3234 -1.5118  1.9709
 8853SOL    HW227459   4.526   1.463   0.901 -0.2538 -2.6471  1.0427
 8854SOL     OW27460   1.657   1.737   3.741  0.1583  0.8488 -0.1805
 8854SOL    HW127461   1.714   1.731   3.660 -0.0999 -1.1983 -0.2553
 8854SOL    HW227462   1.711   1.772   3.818  1.4242 -0.6962 -0.3425
 8855SOL     OW27463   5.206   6.854   2.062 -0.2149 -0.5940  0.1353
 8855SOL    HW127464   5.111   6.831   2.041  0.2788 -1.7328 -1.0041
 8855SOL    HW227465   5.210   6.906   2.147 -1.8697 -0.3503  0.0965
 8856SOL     OW27466   0.071   1.594   6.420 -0.0363 -0.5670  0.6142
 8856SOL    HW127467   0.060   1.540   6.336 -0.0145  0.2580  0.0680
 8856SOL    HW227468   0.022   1.681   6.410  0.4406 -0.2197  1.2381
 8857SOL     OW27469   0.696   1.387   0.078 -0.7349 -0.3391  0.1048
 8857SOL    HW127470   0.751   1.471   0.082 -1.2917  0.0380 -0.1325
 8857SOL    HW227471   0.755   1.311   0.049 -0.1641 -0.0917  0.5810
 8858SOL     OW27472   5.772   3.566   3.406 -0.1855  0.3876 -0.3698
 8858SOL    HW127473   5.832   3.548   3.484  0.1032 -1.0278 -0.8975
 8858SOL    HW227474   5.767   3.665   3.391  4.0218  0.5906 -1.8039
 8859SOL     OW27475   1.599   6.645   4.301 -0.3154 -0.1975 -0.4763
 8859SOL    HW127476   1.559   6.573   4.243 -0.5662 -2.2294  2.0109
 8859SOL    HW227477   1.674   6.606   4.354 -1.4284  0.9152  2.0850
 8860SOL     OW27478   0.496   5.316   3.425 -0.0598  0.2698 -0.4050
 8860SOL    HW127479   0.482   5.259   3.505  0.6536 -0.3188 -0.6918
 8860SOL    HW227480   0.569   5.383   3.443 -1.3171  1.5499  0.1535
 8861SOL     OW27481   3.635   3.802   5.782 -0.6347 -0.3346 -0.0508
 8861SOL    HW127482   3.553   3.773   5.733 -0.1290 -0.5232 -0.8101
 8861SOL    HW227483   3.692   3.722   5.802 -0.0146 -0.0680 -0.7015
 8862SOL     OW27484   5.052   4.808   5.746  0.3486 -0.0394 -0.0633
 8862SOL    HW127485   5.033   4.711   5.756 -2.3043  0.5163  1.2812
 8862SOL    HW227486   5.001   4.844   5.668 -1.5443  0.8240  1.4652
 8863SOL     OW27487   2.276   4.026   2.950  0.4102 -0.3858 -0.1470
 8863SOL    HW127488   2.341   3.951   2.940  1.6089  0.7479 -1.2723
 8863SOL    HW227489   2.302   4.083   3.027  0.1373 -0.5048  0.0354
 8864SOL     OW27490   5.739   0.318   6.247 -0.4461  0.1261  0.6412
 8864SOL    HW127491   5.751   0.414   6.273 -0.0316 -0.1566  1.5354
 8864SOL    HW227492   5.781   0.303   6.158  0.8677  0.4542  1.1717
 8865SOL     OW27493   3.181   1.828   0.753  0.6647 -0.1603  0.1675
 8865SOL    HW127494   3.112   1.758   0.734 -0.9205  1.2490  0.5320
 8865SOL    HW227495   3.199   1.831   0.851  2.5398 -1.6374 -0.0659
 8866SOL     OW27496   6.444   0.168   2.398  0.5638  0.0701  0.6222
 8866SOL    HW127497   6.366   0.202   2.347  0.3522  0.2428  1.0541
 8866SOL    HW227498   6.522   0.229   2.387  1.1344 -0.8847 -1.0537
 8867SOL     OW27499   6.719   4.374   3.274  0.3857  0.4479 -0.4189
 8867SOL    HW127500   6.801   4.316   3.271  0.2280 -0.0736  2.4980
 8867SOL    HW227501   6.742   4.461   3.317 -0.3608  0.7617 -0.6483
 8868SOL     OW27502   6.931   3.795   4.950 -0.1300 -0.2238 -0.5938
 8868SOL    HW127503   7.013   3.830   4.994 -1.2321  1.5720  0.1041
 8868SOL    HW227504   6.886   3.729   5.010 -0.4218  0.5362  0.0398
 8869SOL     OW27505   4.730   0.737   4.500 -0.3390  0.4036 -0.3276
 8869SOL    HW127506   4.682   0.784   4.573 -1.2714  1.8706 -1.8064
 8869SOL    HW227507   4.678   0.655   4.473 -0.8915  0.7906 -0.4613
 8870SOL     OW27508   1.248   0.724   2.068 -0.1575  0.1334  0.3845
 8870SOL    HW127509   1.220   0.810   2.027 -1.5807 -0.0931  0.8404
 8870SOL    HW227510   1.210   0.648   2.015  2.0604 -0.2768 -0.7236
 8871SOL     OW27511   6.150   0.569   2.511  0.5692 -0.1252 -0.1998
 8871SOL    HW127512   6.123   0.609   2.598  2.7587 -0.6028  0.7563
 8871SOL    HW227513   6.125   0.632   2.437 -0.6775  0.6155  0.8093
 8872SOL     OW27514   6.332   4.277   3.830 -0.3811  0.2501 -0.4008
 8872SOL    HW127515   6.232   4.280   3.833 -0.3656  0.4936 -0.1694
 8872SOL    HW227516   6.370   4.307   3.917 -0.0978  0.5407 -0.6195
 8873SOL     OW27517   2.586   1.998   3.920  0.3307  0.5903  0.2632
 8873SOL    HW127518   2.528   1.940   3.978  1.8097 -2.5394 -1.1196
 8873SOL    HW227519   2.574   1.971   3.824  5.2572 -1.7510 -0.0309
 8874SOL     OW27520   2.071   6.441   1.704  0.1925 -0.4151 -0.0653
 8874SOL    HW127521   2.004   6.401   1.767  0.9620 -1.6193  0.0189
 8874SOL    HW227522   2.155   6.461   1.753 -0.7192  3.0527  0.3103
 8875SOL     OW27523   6.854   3.705   5.505  0.0918  0.1576  0.0524
 8875SOL    HW127524   6.823   3.789   5.461  0.7476  1.8416  2.5943
 8875SOL    HW227525   6.954   3.706   5.512  0.2284 -1.5284 -1.0898
 8876SOL     OW27526   3.791   0.624   6.766 -0.6665  0.3659  0.2524
 8876SOL    HW127527   3.777   0.539   6.715 -0.6777 -0.4852  1.6092
 8876SOL    HW227528   3.887   0.628   6.796 -0.8845  0.3668  0.9683
 8877SOL     OW27529   5.298   3.945   1.582  0.1926  0.6061 -0.3758
 8877SOL    HW127530   5.382   3.982   1.542  0.9644 -0.2612  0.3751
 8877SOL    HW227531   5.320   3.862   1.634 -1.3367 -0.4495 -1.3145
 8878SOL     OW27532   3.794   2.842   0.033 -0.4651 -0.1151 -0.1527
 8878SOL    HW127533   3.750   2.922  -0.010 -0.3931  0.9857  1.7123
 8878SOL    HW227534   3.893   2.850   0.023 -0.4955 -0.5857 -0.9489
 8879SOL     OW27535   5.656   5.656   3.091 -0.1943 -0.0052  0.0333
 8879SOL    HW127536   5.657   5.557   3.083  0.4339 -0.1209  1.2271
 8879SOL    HW227537   5.671   5.682   3.187 -4.5327  1.1604  0.5877
 8880SOL     OW27538   3.114   6.725   1.424  0.7523  0.2225  0.4661
 8880SOL    HW127539   3.138   6.711   1.520 -0.8817  0.8425  0.9904
 8880SOL    HW227540   3.049   6.801   1.417 -0.9477 -1.2706 -0.8583
 8881SOL     OW27541   4.885   5.299   4.667 -0.6559  0.6236 -0.5956
 8881SOL    HW127542   4.884   5.380   4.726 -0.1456 -0.3072  0.7466
 8881SOL    HW227543   4.915   5.220   4.720 -1.2144 -0.4724 -1.8572
 8882SOL     OW27544   4.114   1.315   0.953 -0.8906 -0.0967 -0.0967
 8882SOL    HW127545   4.076   1.394   0.904  0.0585  1.2484  1.2717
 8882SOL    HW227546   4.051   1.238   0.944 -2.3293  1.0913 -0.6356
 8883SOL     OW27547   0.594   0.013   1.861 -0.3968 -0.6406 -0.5123
 8883SOL    HW127548   0.590  -0.070   1.917  0.3439 -0.6938 -0.5255
 8883SOL    HW227549   0.573   0.093   1.917 -0.2580 -0.7531 -0.2993
 8884SOL     OW27550   4.459   4.284   5.643  0.1259  0.1622 -0.1753
 8884SOL    HW127551   4.479   4.186   5.647  1.4307  0.3078 -1.8646
 8884SOL    HW227552   4.398   4.302   5.566 -0.7866  0.5971  0.6339
 8885SOL     OW27553   5.640   5.387   1.480  0.0389 -0.6685 -0.2318
 8885SOL    HW127554   5.680   5.302   1.513  1.3408  0.5708  1.5405
 8885SOL    HW227555   5.703   5.431   1.416  0.8019  0.4450  1.2411
 8886SOL     OW27556   4.466   5.543   0.133 -0.0700 -0.7442  0.3502
 8886SOL    HW127557   4.409   5.620   0.106 -0.9295 -1.0140  1.2997
 8886SOL    HW227558   4.559   5.574   0.151  0.0052 -0.2295 -0.8760
 8887SOL     OW27559   5.228   6.208   2.361  0.3110 -0.3059 -0.4565
 8887SOL    HW127560   5.129   6.200   2.350 -0.0347  0.3681  1.7585
 8887SOL    HW227561   5.252   6.203   2.458  2.4984 -0.7271 -0.9493
 8888SOL     OW27562   2.544   1.422   3.936 -0.2222 -0.0305 -0.4021
 8888SOL    HW127563   2.472   1.354   3.933 -1.2605  0.9557  0.9477
 8888SOL    HW227564   2.508   1.511   3.905 -0.1798  0.9052  2.0062
 8889SOL     OW27565   2.194   4.972   5.485  0.0839 -0.1339 -0.4891
 8889SOL    HW127566   2.256   5.040   5.524 -0.4265 -0.4391  0.9136
 8889SOL    HW227567   2.191   4.892   5.544 -1.8320 -0.0154 -0.3684
 8890SOL     OW27568   6.921   5.805   0.922  0.2388  0.0454  0.0285
 8890SOL    HW127569   6.827   5.782   0.947  0.2469 -1.2902 -1.0417
 8890SOL    HW227570   6.922   5.841   0.829  1.0123 -2.2821 -0.9299
 8891SOL     OW27571   0.720   2.478   4.130  0.6096  1.1427  0.5670
 8891SOL    HW127572   0.628   2.478   4.090  0.6010  0.1190  0.5731
 8891SOL    HW227573   0.778   2.414   4.081  1.2188  1.4826  0.8269
 8892SOL     OW27574   2.888   5.814   6.290  0.0049  0.2993 -0.3677
 8892SOL    HW127575   2.972   5.866   6.304  1.1233 -1.5538  0.1509
 8892SOL    HW227576   2.866   5.810   6.193  0.0465  1.4485 -0.4409
 8893SOL     OW27577   2.221   6.193   4.904 -0.1868 -0.3053 -0.0080
 8893SOL    HW127578   2.160   6.114   4.898  0.1071 -0.4772 -0.9491
 8893SOL    HW227579   2.316   6.163   4.891 -0.2221  0.4199 -2.6351
 8894SOL     OW27580   4.523   2.171   1.182  0.3276 -0.2446 -0.1770
 8894SOL    HW127581   4.488   2.077   1.188  0.3035 -0.3114 -1.2005
 8894SOL    HW227582   4.599   2.174   1.117  0.3767  0.4377 -0.0962
 8895SOL     OW27583   5.574   3.152   6.316  0.6487 -0.6279 -0.5381
 8895SOL    HW127584   5.654   3.110   6.359  0.1405 -0.0238  1.0843
 8895SOL    HW227585   5.498   3.087   6.315  0.5156 -0.4837 -0.0510
 8896SOL     OW27586   1.559   1.053   3.527 -0.1470  0.0665 -0.2217
 8896SOL    HW127587   1.615   1.135   3.524  0.0713 -0.0912 -0.5407
 8896SOL    HW227588   1.596   0.989   3.595 -0.8813  0.6282  0.7355
 8897SOL     OW27589   1.826   6.019   4.369 -0.2847 -0.1558  0.0956
 8897SOL    HW127590   1.792   5.939   4.318  1.1179 -0.9701  0.3811
 8897SOL    HW227591   1.761   6.041   4.442  0.0032 -2.0064  0.9796
 8898SOL     OW27592   5.283   4.606   0.887 -0.0027  0.2765 -0.3030
 8898SOL    HW127593   5.289   4.706   0.897  0.5828  0.1509  0.6644
 8898SOL    HW227594   5.197   4.583   0.841 -1.2859  1.1068  1.5586
 8899SOL     OW27595   1.172   2.887   4.184  0.2802  0.2228  0.4259
 8899SOL    HW127596   1.158   2.814   4.252  1.1518  1.0382  1.5196
 8899SOL    HW227597   1.154   2.851   4.093 -0.4761 -1.0344  1.0423
 8900SOL     OW27598   4.906   3.672   4.067 -0.2044 -1.0125  0.0211
 8900SOL    HW127599   4.913   3.631   4.157  0.3699  0.1604  0.5316
 8900SOL    HW227600   4.937   3.607   3.998 -0.5750 -1.8887  0.6598
 8901SOL     OW27601   0.600   4.840   4.381 -0.2616 -0.0992 -0.1088
 8901SOL    HW127602   0.652   4.757   4.398 -0.5448 -0.1172  0.7067
 8901SOL    HW227603   0.548   4.865   4.463 -0.4405  0.6970 -0.4493
 8902SOL     OW27604   0.417   4.794   0.422 -0.0373  0.6903 -0.1297
 8902SOL    HW127605   0.492   4.783   0.488 -1.4958  0.5716  1.5803
 8902SOL    HW227606   0.421   4.721   0.355  0.5771 -0.1306  0.7634
 8903SOL     OW27607   0.611   0.008   5.026 -0.3108  0.1612  0.0729
 8903SOL    HW127608   0.534   0.050   5.074 -1.1381 -0.5214 -0.6349
 8903SOL    HW227609   0.697   0.034   5.071 -1.0627 -0.7529  2.1383
 8904SOL     OW27610   0.309   6.943   1.835 -0.1385 -0.4732  0.3468
 8904SOL    HW127611   0.319   6.843   1.831  2.1761 -0.2921  0.0061
 8904SOL    HW227612   0.314   6.981   1.742  0.2241  0.0184  0.5591
 8905SOL     OW27613   1.314   5.183   4.357 -0.4285 -0.0011 -0.0216
 8905SOL    HW127614   1.348   5.200   4.264 -1.2583  1.7918 -0.0504
 8905SOL    HW227615   1.240   5.248   4.377  1.2211  1.2095  2.6836
 8906SOL     OW27616   6.455   5.937   6.849 -0.0575  0.1144  0.5882
 8906SOL    HW127617   6.374   5.992   6.869  1.0066  3.5293 -3.0748
 8906SOL    HW227618   6.532   5.971   6.902 -0.2818 -0.9653  1.6494
 8907SOL     OW27619   2.488   4.590   5.470  0.2364  0.5181 -0.1395
 8907SOL    HW127620   2.410   4.638   5.429  0.1159  0.1144 -0.3940
 8907SOL    HW227621   2.538   4.541   5.399 -0.7420 -1.2761  0.3162
 8908SOL     OW27622   1.054   6.336   6.262 -0.2975 -0.4766 -0.1267
 8908SOL    HW127623   0.981   6.335   6.193  0.3554  0.2782 -0.8421
 8908SOL    HW227624   1.138   6.369   6.221  0.3179 -0.8029  0.8432
 8909SOL     OW27625   1.162   0.448   6.848 -0.2729  0.0043  0.4990
 8909SOL    HW127626   1.207   0.523   6.897 -0.6369  1.0660 -0.7535
 8909SOL    HW227627   1.229   0.377   6.828  0.2016  0.2376  1.1960
 8910SOL     OW27628   0.590   0.646   5.754 -0.1486 -0.6226 -0.1360
 8910SOL    HW127629   0.647   0.718   5.714 -1.5103  0.6070  0.0458
 8910SOL    HW227630   0.497   0.652   5.716 -0.2559 -2.3915 -0.2237
 8911SOL     OW27631   4.031   2.327   5.400  0.0445  0.2121  0.2391
 8911SOL    HW127632   3.935   2.352   5.405 -0.0994  0.0885 -1.4018
 8911SOL    HW227633   4.073   2.370   5.320  1.2294 -0.1398  0.6494
 8912SOL     OW27634   4.049   3.788   3.348 -0.6098 -0.4893 -0.7860
 8912SOL    HW127635   4.047   3.689   3.354  1.4094 -0.6461 -1.6583
 8912SOL    HW227636   4.143   3.818   3.327 -1.1578  1.6000 -0.4897
 8913SOL     OW27637   4.668   0.405   4.668  0.1361 -0.2753 -0.2928
 8913SOL    HW127638   4.635   0.339   4.735  1.2679 -1.1749 -0.6008
 8913SOL    HW227639   4.725   0.473   4.715  0.2502 -0.4237 -0.2140
 8914SOL     OW27640   5.244   5.214   0.698 -0.0789 -0.0115 -0.7908
 8914SOL    HW127641   5.192   5.285   0.651  0.2112  1.1458  0.5772
 8914SOL    HW227642   5.192   5.181   0.777 -0.4456 -1.7355 -1.7006
 8915SOL     OW27643   2.824   6.014   2.036  0.3581 -0.5125 -0.0388
 8915SOL    HW127644   2.887   6.000   2.112  0.7395 -0.9314 -0.4309
 8915SOL    HW227645   2.838   5.943   1.967  1.0246  0.6792 -1.1757
 8916SOL     OW27646   4.634   6.420   1.791 -0.4179  0.1462 -0.0066
 8916SOL    HW127647   4.727   6.440   1.759 -0.3450  1.3577  0.8857
 8916SOL    HW227648   4.584   6.506   1.804 -2.4035 -0.5198 -2.4713
 8917SOL     OW27649   6.260   2.372   1.121  0.2703  0.6241  0.2969
 8917SOL    HW127650   6.188   2.309   1.153  0.6488  0.3609  0.6411
 8917SOL    HW227651   6.322   2.323   1.060  1.3345  0.2835  1.5975
 8918SOL     OW27652   5.275   4.920   4.194 -0.0205 -0.0725  0.0877
 8918SOL    HW127653   5.281   4.932   4.095  0.3057 -0.1705  0.0917
 8918SOL    HW227654   5.243   5.004   4.237 -0.5516 -0.1594 -0.1381
 8919SOL     OW27655   0.255   3.744   0.920 -0.9817  0.3921  0.3630
 8919SOL    HW127656   0.156   3.728   0.927 -0.8286 -1.3502 -0.8819
 8919SOL    HW227657   0.273   3.799   0.838 -0.8437 -0.3162 -0.0908
 8920SOL     OW27658   6.760   1.930   6.099 -0.7104 -0.2534 -0.2174
 8920SOL    HW127659   6.858   1.916   6.086 -1.0131 -1.4514 -1.5219
 8920SOL    HW227660   6.736   2.023   6.073 -0.2823 -0.7392 -2.6330
 8921SOL     OW27661   2.145   3.303   3.730  0.0450  0.6820  0.4547
 8921SOL    HW127662   2.138   3.224   3.668  1.4432  1.8103 -1.2344
 8921SOL    HW227663   2.170   3.271   3.821  0.7227 -0.8378 -0.2289
 8922SOL     OW27664   4.130   0.139   5.070  0.1157  0.1931  0.2421
 8922SOL    HW127665   4.213   0.166   5.021  2.3366 -0.7805  3.2203
 8922SOL    HW227666   4.103   0.213   5.132 -1.0006  0.2896 -0.3303
 8923SOL     OW27667   2.030   0.766   4.273  0.3825 -0.5298 -0.5418
 8923SOL    HW127668   2.026   0.689   4.209  2.1913 -1.2321  0.1102
 8923SOL    HW227669   1.979   0.742   4.356  2.0261 -1.6293  0.2005
 8924SOL     OW27670   1.346   3.015   6.082 -0.2171  0.6380  0.1969
 8924SOL    HW127671   1.272   3.035   6.017 -1.2803  0.9352  1.4617
 8924SOL    HW227672   1.364   3.095   6.138 -0.3348 -0.0575  1.2586
 8925SOL     OW27673   1.507   4.441   3.280  0.6472  0.2479 -0.7174
 8925SOL    HW127674   1.499   4.454   3.378  1.0796  1.3921 -0.8063
 8925SOL    HW227675   1.451   4.510   3.233  1.3932  0.5015 -1.2575
 8926SOL     OW27676   3.905   2.511   0.145 -0.8297 -0.3078 -0.0131
 8926SOL    HW127677   3.960   2.519   0.228 -1.6085 -1.2649  0.6105
 8926SOL    HW227678   3.963   2.529   0.065 -0.1141  0.7829  0.7353
 8927SOL     OW27679   1.321   1.117   6.408  0.2538 -0.6404  0.2289
 8927SOL    HW127680   1.265   1.035   6.417  1.4191 -1.3169  1.6874
 8927SOL    HW227681   1.278   1.192   6.458  1.4348 -1.6193  2.8614
 8928SOL     OW27682   1.610   5.840   4.656  0.3442  0.2700 -0.2687
 8928SOL    HW127683   1.572   5.785   4.732  0.3561  0.6278 -0.0028
 8928SOL    HW227684   1.710   5.840   4.662  0.3350  0.5335 -0.1192
 8929SOL     OW27685   6.643   0.913   3.986  0.4888  0.2902  0.0835
 8929SOL    HW127686   6.722   0.973   3.976  0.0024  1.2191  1.4559
 8929SOL    HW227687   6.562   0.968   4.009 -0.4448 -0.6936 -0.7098
 8930SOL     OW27688   4.095   5.240   3.128  0.0968 -0.7769  0.1908
 8930SOL    HW127689   4.189   5.227   3.096 -0.0311 -0.5029 -0.3210
 8930SOL    HW227690   4.055   5.319   3.081 -0.9607 -1.9155 -0.9290
 8931SOL     OW27691   3.045   2.514   6.844 -0.2323  0.6596  0.5492
 8931SOL    HW127692   3.017   2.580   6.913 -1.1572  1.5317 -0.6329
 8931SOL    HW227693   2.974   2.445   6.833 -0.5905  1.1567 -0.3085
 8932SOL     OW27694   1.791   3.665   4.762 -0.3401 -0.8077  0.3860
 8932SOL    HW127695   1.860   3.700   4.699 -0.6733  0.1777  0.5513
 8932SOL    HW227696   1.702   3.664   4.717 -0.3175 -1.5555  0.3504
 8933SOL     OW27697   3.880   1.481   5.414  0.1977 -0.0881 -0.0190
 8933SOL    HW127698   3.905   1.563   5.465 -0.8882  0.3403 -0.1541
 8933SOL    HW227699   3.960   1.447   5.364  0.8140  0.5117  0.5422
 8934SOL     OW27700   4.668   6.312   0.869 -0.4213  0.2856  0.2052
 8934SOL    HW127701   4.747   6.274   0.821  0.2059  0.5774  0.9906
 8934SOL    HW227702   4.684   6.307   0.968 -1.5427  0.0154  0.3868
 8935SOL     OW27703   0.340   3.663   2.858 -0.3311  0.2896  0.1921
 8935SOL    HW127704   0.411   3.603   2.821  0.1022  0.1449  1.2390
 8935SOL    HW227705   0.250   3.619   2.847  0.1220 -1.3729  2.4513
 8936SOL     OW27706   2.300   2.029   1.807  0.0041  0.2093 -0.1091
 8936SOL    HW127707   2.220   1.981   1.843  0.0342  0.5739  0.4419
 8936SOL    HW227708   2.315   2.001   1.712  0.8948 -2.0339  0.6247
 8937SOL     OW27709   0.924   5.856   5.653  0.2485  0.3552  0.0988
 8937SOL    HW127710   0.859   5.780   5.651  0.9180 -0.2438  0.2173
 8937SOL    HW227711   1.015   5.821   5.628  1.2362  0.4281  3.1709
 8938SOL     OW27712   3.139   6.603   1.691 -0.7017 -0.5106  0.4459
 8938SOL    HW127713   3.222   6.549   1.676 -0.2432  0.1986  0.3706
 8938SOL    HW227714   3.059   6.544   1.679 -0.2700 -0.8356 -1.1801
 8939SOL     OW27715   4.912   1.941   5.504 -0.4390  0.4559  0.4402
 8939SOL    HW127716   4.954   1.997   5.433  0.3629 -1.0622 -0.3158
 8939SOL    HW227717   4.831   1.895   5.467 -1.6881  1.8299  1.3382
 8940SOL     OW27718   6.050   6.528   1.598  0.2876  0.7018  0.4535
 8940SOL    HW127719   6.117   6.575   1.656  1.1168  0.9933 -0.7280
 8940SOL    HW227720   6.074   6.539   1.502 -1.0559  0.1875  0.0313
 8941SOL     OW27721   4.841   2.360   0.099  0.2853  0.0808  0.6036
 8941SOL    HW127722   4.835   2.264   0.127 -0.1007  0.3615  1.5366
 8941SOL    HW227723   4.883   2.414   0.172 -2.1646  1.1074  1.3576
 8942SOL     OW27724   6.522   3.536   6.316  0.6000 -0.2942 -0.3339
 8942SOL    HW127725   6.588   3.503   6.248 -1.2593 -2.9090 -1.0352
 8942SOL    HW227726   6.553   3.510   6.407  0.8061 -1.0503 -0.6086
 8943SOL     OW27727   3.431   3.313   6.611  0.3486  0.4505  0.1743
 8943SOL    HW127728   3.392   3.302   6.702 -0.7988  0.4497 -0.2902
 8943SOL    HW227729   3.368   3.274   6.543  1.5331 -0.2588 -0.5684
 8944SOL     OW27730   4.469   3.447   0.601  0.1049 -0.1569 -0.4756
 8944SOL    HW127731   4.567   3.437   0.584 -0.5328 -2.5333 -3.6498
 8944SOL    HW227732   4.435   3.526   0.549  0.1683  0.1678 -0.0326
 8945SOL     OW27733   1.883   5.833   4.733 -0.4634 -0.3684 -0.1424
 8945SOL    HW127734   1.942   5.758   4.762 -0.7374 -1.1429 -1.5155
 8945SOL    HW227735   1.928   5.920   4.750  0.5461 -0.9030 -0.0346
 8946SOL     OW27736   5.462   1.041   5.328 -0.2398  0.3056  0.6800
 8946SOL    HW127737   5.392   0.984   5.285  0.4138 -1.3222  1.6496
 8946SOL    HW227738   5.420   1.119   5.373 -1.1607  0.6936 -0.7983
 8947SOL     OW27739   3.527   4.856   5.722 -0.3401  0.1948 -0.0411
 8947SOL    HW127740   3.524   4.769   5.672  0.0068  1.2562 -2.0372
 8947SOL    HW227741   3.556   4.839   5.816 -1.0357 -1.9183 -0.1403
 8948SOL     OW27742   0.027   4.996   3.001 -0.0587  0.1838 -0.2067
 8948SOL    HW127743  -0.056   5.037   2.965  0.1020  0.9757  0.2824
 8948SOL    HW227744   0.091   4.977   2.927 -0.3021  0.4475 -0.4832
 8949SOL     OW27745   2.218   5.583   0.728  0.0860 -0.1264 -0.2847
 8949SOL    HW127746   2.164   5.507   0.765  1.0925 -0.2786  0.9514
 8949SOL    HW227747   2.162   5.665   0.725 -1.0732 -0.9271 -1.8098
 8950SOL     OW27748   4.765   2.514   5.300  0.0814  0.2394 -0.0821
 8950SOL    HW127749   4.710   2.487   5.221  1.3370 -0.2975 -0.8038
 8950SOL    HW227750   4.760   2.442   5.370  0.4300 -0.1409 -0.4444
 8951SOL     OW27751   1.623   1.148   6.361  0.4515  0.5583  0.2657
 8951SOL    HW127752   1.534   1.182   6.391 -0.0811 -1.1056  0.6528
 8951SOL    HW227753   1.666   1.097   6.435  0.2916 -1.3555 -0.8996
 8952SOL     OW27754   0.889   6.705   1.201  0.1426 -0.2588  0.1008
 8952SOL    HW127755   0.889   6.617   1.248  1.8103  0.3634  1.3622
 8952SOL    HW227756   0.821   6.704   1.128 -0.0891 -2.4674  0.2898
 8953SOL     OW27757   0.781   3.725   0.630 -0.4106  0.5390  0.3871
 8953SOL    HW127758   0.857   3.775   0.588 -0.2185  0.5623  0.7582
 8953SOL    HW227759   0.790   3.628   0.609  1.4962  0.0626  3.0137
 8954SOL     OW27760   1.934   6.466   5.049 -0.3256  0.0810 -0.0156
 8954SOL    HW127761   1.981   6.536   4.996  0.9450 -0.8774 -0.2262
 8954SOL    HW227762   1.840   6.457   5.018  0.2630 -0.1457 -1.8218
 8955SOL     OW27763   5.772   4.071   4.216 -0.1578 -0.5826  0.2067
 8955SOL    HW127764   5.833   4.080   4.137 -0.6605  0.7095 -0.0551
 8955SOL    HW227765   5.682   4.042   4.185 -0.4477  0.2489  0.2641
 8956SOL     OW27766   6.544   6.314   3.861 -0.8236  0.1333 -0.1503
 8956SOL    HW127767   6.633   6.288   3.899 -1.0368 -0.4438 -0.0402
 8956SOL    HW227768   6.558   6.382   3.789 -0.4680  1.9455  1.5189
 8957SOL     OW27769   4.120   5.580   2.869  0.2777  0.6962 -0.1649
 8957SOL    HW127770   4.106   5.675   2.842 -0.5944  0.8138  0.6759
 8957SOL    HW227771   4.218   5.565   2.885  0.2252  2.0360  1.7723
 8958SOL     OW27772   1.921   0.958   2.470  0.2271  0.5513 -0.4838
 8958SOL    HW127773   1.952   0.890   2.536  0.6077  1.8638  0.7323
 8958SOL    HW227774   1.892   1.041   2.518  3.4645  2.7740 -1.9691
 8959SOL     OW27775   0.273   3.434   1.538  0.4122 -0.4157 -0.7278
 8959SOL    HW127776   0.315   3.524   1.541 -0.8263  0.1706  0.3865
 8959SOL    HW227777   0.175   3.443   1.519  0.2089 -1.4908 -0.2926
 8960SOL     OW27778   4.187   6.793   1.210 -0.5193 -0.0318 -0.2123
 8960SOL    HW127779   4.116   6.787   1.280 -0.9005 -1.0863 -0.6798
 8960SOL    HW227780   4.227   6.885   1.211  0.4465 -0.3965  2.3306
 8961SOL     OW27781   1.437   2.274   4.561 -0.2588  0.0805  0.2281
 8961SOL    HW127782   1.362   2.335   4.586  0.3728  0.6845  0.7151
 8961SOL    HW227783   1.513   2.328   4.525  0.7699 -0.2640  1.7523
 8962SOL     OW27784   6.606   1.544   4.826 -0.2245 -0.0395  0.2545
 8962SOL    HW127785   6.645   1.574   4.913 -1.9586  2.9218  0.1586
 8962SOL    HW227786   6.538   1.473   4.843  0.0914 -0.1389  1.1971
 8963SOL     OW27787   6.135   6.443   4.010  0.2003  0.4798  0.3418
 8963SOL    HW127788   6.041   6.465   4.038 -0.1198 -1.4267  0.9344
 8963SOL    HW227789   6.195   6.446   4.091  0.2739 -0.0661  0.3142
 8964SOL     OW27790   4.454   3.175   0.600 -0.3126 -0.0635  0.0265
 8964SOL    HW127791   4.427   3.271   0.608 -1.7499 -0.3161 -1.2999
 8964SOL    HW227792   4.399   3.119   0.662 -0.1258 -0.1353  0.1270
 8965SOL     OW27793   1.740   6.317   2.475 -0.4284 -0.6205  0.5044
 8965SOL    HW127794   1.745   6.227   2.432 -0.9020 -0.6896  0.5879
 8965SOL    HW227795   1.695   6.381   2.414 -0.1765 -0.4602  0.4842
 8966SOL     OW27796   2.162   3.266   4.950 -0.2045  0.0853  0.4251
 8966SOL    HW127797   2.238   3.244   5.012 -0.2429  1.2131  0.9001
 8966SOL    HW227798   2.164   3.204   4.872  1.9666  0.8439 -0.2010
 8967SOL     OW27799   3.957   1.137   0.799 -0.0137  0.0303  0.1898
 8967SOL    HW127800   3.879   1.167   0.855  0.9709 -0.4079  1.8608
 8967SOL    HW227801   3.925   1.077   0.726 -1.3640  0.7956  0.1222
 8968SOL     OW27802   4.364   5.699   3.943  0.3302 -0.1589 -0.9369
 8968SOL    HW127803   4.304   5.724   4.018  1.0692 -0.9229 -0.0625
 8968SOL    HW227804   4.371   5.599   3.938  2.3522 -0.0905 -0.3196
 8969SOL     OW27805   4.346   0.080   4.929  0.0249 -0.1430 -0.3481
 8969SOL    HW127806   4.389   0.016   4.992  1.2817  1.8813  0.9721
 8969SOL    HW227807   4.413   0.149   4.901 -1.1381  0.3455 -2.0962
 8970SOL     OW27808   3.300   3.424   1.101 -0.0592 -0.6217  0.5462
 8970SOL    HW127809   3.329   3.428   1.197 -0.4680 -0.9289  0.6831
 8970SOL    HW227810   3.245   3.505   1.079 -0.8814 -1.0821  0.8748
 8971SOL     OW27811   4.331   6.163   3.931 -0.1957  0.5916  0.1435
 8971SOL    HW127812   4.386   6.123   4.005 -0.0926  0.8957  0.2318
 8971SOL    HW227813   4.357   6.258   3.918  0.6180  0.2127 -1.1016
 8972SOL     OW27814   5.225   5.617   2.721 -0.2656  0.1789 -0.3090
 8972SOL    HW127815   5.282   5.535   2.729 -1.8302 -1.1034 -1.4756
 8972SOL    HW227816   5.139   5.603   2.770 -0.3822  1.3095 -0.1625
 8973SOL     OW27817   2.291   5.408   0.246  0.0815  0.6969 -0.4121
 8973SOL    HW127818   2.334   5.440   0.330  3.5332 -0.3866 -1.5721
 8973SOL    HW227819   2.310   5.473   0.172  0.5138 -0.2183 -1.1324
 8974SOL     OW27820   0.801   2.654   4.600 -0.4303  0.2812 -0.4095
 8974SOL    HW127821   0.771   2.716   4.527 -1.5186 -0.4278 -0.5932
 8974SOL    HW227822   0.797   2.560   4.567  0.0402  0.0285  0.2474
 8975SOL     OW27823   5.072   6.442   0.450  0.2443 -0.4870  0.4468
 8975SOL    HW127824   4.985   6.490   0.463  0.4471  0.1933 -0.6051
 8975SOL    HW227825   5.140   6.479   0.514  0.6488  1.3141 -0.9562
 8976SOL     OW27826   6.193   0.325   3.467  0.3597 -0.1647  0.0780
 8976SOL    HW127827   6.135   0.243   3.470 -1.5740  1.1187 -0.5649
 8976SOL    HW227828   6.229   0.344   3.558 -1.1962 -0.3663  0.7686
 8977SOL     OW27829   4.369   0.028   5.284 -0.4816  0.1561 -0.6785
 8977SOL    HW127830   4.448   0.013   5.226 -0.3806 -0.4241 -0.4014
 8977SOL    HW227831   4.329  -0.060   5.310 -0.8601  0.4225 -0.3333
 8978SOL     OW27832   5.400   1.155   6.918 -0.1681  0.2827 -0.5351
 8978SOL    HW127833   5.483   1.210   6.922 -0.1841  0.3042 -0.5000
 8978SOL    HW227834   5.338   1.190   6.848 -0.6474  0.9683  0.2096
 8979SOL     OW27835   1.012   6.550   4.949  0.0302 -0.6052 -0.3507
 8979SOL    HW127836   0.983   6.541   4.853 -0.7091 -1.7691 -0.0367
 8979SOL    HW227837   1.097   6.500   4.963 -0.2537 -1.0570 -0.2345
 8980SOL     OW27838   2.890   3.356   4.336  0.1552  0.2360 -0.3877
 8980SOL    HW127839   2.878   3.287   4.407 -0.3667  0.9781  0.2705
 8980SOL    HW227840   2.919   3.313   4.251 -1.5810 -0.9769 -0.4030
 8981SOL     OW27841   4.455   0.858   3.443 -0.1037 -0.0375 -0.2136
 8981SOL    HW127842   4.408   0.905   3.517  0.0085 -2.5281  1.5447
 8981SOL    HW227843   4.528   0.917   3.407 -1.6196  2.1018  0.0284
 8982SOL     OW27844   1.663   6.074   1.712  0.2802 -0.4687 -0.4956
 8982SOL    HW127845   1.618   6.005   1.769  1.5346 -0.0951  1.0308
 8982SOL    HW227846   1.694   6.031   1.627  1.9887 -2.1651  0.8623
 8983SOL     OW27847   6.303   5.050   1.328 -0.2933 -0.4557 -0.3903
 8983SOL    HW127848   6.248   5.133   1.319  0.6690  0.2042 -0.3164
 8983SOL    HW227849   6.328   5.036   1.424 -1.9106 -1.8228 -0.1134
 8984SOL     OW27850   2.822   6.986   2.836  0.3506  0.2907 -0.4598
 8984SOL    HW127851   2.909   7.015   2.795  0.8886 -0.9972 -0.2753
 8984SOL    HW227852   2.759   6.958   2.764 -1.1965  4.2922 -0.9045
 8985SOL     OW27853   2.475   4.114   0.740  0.1259 -0.1066 -0.7192
 8985SOL    HW127854   2.475   4.176   0.818  0.9386 -0.2997 -0.5536
 8985SOL    HW227855   2.567   4.109   0.702  0.1928 -1.5844 -0.4214
 8986SOL     OW27856   3.663   5.234   3.699 -0.3889  0.1189 -0.7232
 8986SOL    HW127857   3.695   5.148   3.738  2.4840  1.6866  0.7281
 8986SOL    HW227858   3.603   5.280   3.765  0.3438  0.4610 -0.2822
 8987SOL     OW27859   3.728   5.833   4.085 -0.1281  0.4105  0.5923
 8987SOL    HW127860   3.630   5.848   4.088 -0.0301  1.2713 -0.1840
 8987SOL    HW227861   3.747   5.739   4.056 -0.7152  0.6786 -0.7186
 8988SOL     OW27862   0.529   6.168   4.692 -0.4888 -0.3561 -0.0923
 8988SOL    HW127863   0.575   6.182   4.605 -0.5999  1.1677  0.0725
 8988SOL    HW227864   0.596   6.136   4.760 -0.0957 -0.1358 -0.3707
 8989SOL     OW27865   3.087   5.006   6.258 -0.0645  0.1780  0.0627
 8989SOL    HW127866   3.143   4.934   6.300 -0.8547 -0.2824  0.3595
 8989SOL    HW227867   3.068   5.077   6.325  1.5534  1.1862 -0.5127
 8990SOL     OW27868   5.589   6.174   4.104  0.3010  0.6311 -0.3489
 8990SOL    HW127869   5.543   6.146   4.020  0.2830  3.1463 -1.2726
 8990SOL    HW227870   5.686   6.187   4.087  0.1958  1.7496 -0.1591
 8991SOL     OW27871   1.617   1.502   5.522 -0.4177  0.6223 -0.4802
 8991SOL    HW127872   1.649   1.442   5.448 -0.5278 -0.7095  0.5233
 8991SOL    HW227873   1.517   1.498   5.528 -0.5515  2.0248 -1.3066
 8992SOL     OW27874   4.197   2.503   0.706 -0.1876  0.0224 -0.4135
 8992SOL    HW127875   4.162   2.555   0.628  3.1421 -0.0723 -2.1491
 8992SOL    HW227876   4.247   2.564   0.766 -2.4403  0.0248  1.6275
 8993SOL     OW27877   2.363   3.369   0.568 -0.2875 -0.2576 -0.4720
 8993SOL    HW127878   2.455   3.374   0.531 -0.7194  1.0289 -1.4393
 8993SOL    HW227879   2.365   3.392   0.665  0.3148  0.5599 -0.6691
 8994SOL     OW27880   2.341   4.534   5.161  0.8523  0.5656  0.3449
 8994SOL    HW127881   2.302   4.529   5.253  0.7385 -0.3647  0.2564
 8994SOL    HW227882   2.437   4.562   5.168  0.3269  2.4285  0.5901
 8995SOL     OW27883   1.883   0.780   0.723  0.1176  0.0130  0.0617
 8995SOL    HW127884   1.824   0.794   0.645  1.7746  0.5690 -1.1489
 8995SOL    HW227885   1.854   0.839   0.799 -1.5789 -0.6278 -0.0527
 8996SOL     OW27886   4.304   4.144   6.275  0.3428  0.1525 -0.6503
 8996SOL    HW127887   4.317   4.172   6.180 -2.1731 -1.4076 -1.5676
 8996SOL    HW227888   4.278   4.223   6.330 -2.1146  0.5172 -2.1844
 8997SOL     OW27889   5.172   1.495   5.018 -0.3590 -0.2288 -0.1984
 8997SOL    HW127890   5.092   1.474   4.962 -0.0091 -0.2532 -0.6969
 8997SOL    HW227891   5.143   1.540   5.102 -0.9010 -0.2946 -0.3460
 8998SOL     OW27892   6.843   4.200   4.744  0.2867  0.2080 -0.2750
 8998SOL    HW127893   6.816   4.137   4.670  0.1700  0.0475 -0.0992
 8998SOL    HW227894   6.927   4.167   4.787  1.3573  1.2558 -1.4828
 8999SOL     OW27895   4.345   6.345   7.005  0.4211  0.4390 -0.1089
 8999SOL    HW127896   4.386   6.421   7.056  1.7212 -0.0236 -0.4080
 8999SOL    HW227897   4.410   6.313   6.936 -1.5065  1.4605 -2.5269
 9000SOL     OW27898   0.294   5.688   2.646 -0.2136 -0.6303 -0.0681
 9000SOL    HW127899   0.281   5.600   2.691  0.3428 -0.1300  1.1315
 9000SOL    HW227900   0.269   5.761   2.710  0.4975  0.1143 -0.6272
 9001SOL     OW27901   2.478   6.648   2.645 -0.2800 -0.4288 -0.6231
 9001SOL    HW127902   2.409   6.607   2.585 -1.0134 -1.4634  0.8683
 9001SOL    HW227903   2.437   6.666   2.734  1.1690 -0.2257  0.0123
 9002SOL     OW27904   6.045   3.582   2.842 -0.0568  0.3284  0.1543
 9002SOL    HW127905   5.984   3.660   2.824 -0.8577 -0.4188 -0.4756
 9002SOL    HW227906   6.134   3.599   2.800  0.2756  1.5366  1.2721
 9003SOL     OW27907   3.711   0.224   1.178 -0.2281 -0.6124  0.1112
 9003SOL    HW127908   3.613   0.222   1.198 -0.0204 -0.2432  1.2434
 9003SOL    HW227909   3.746   0.318   1.190  0.2427 -0.7237 -0.3610
 9004SOL     OW27910   5.161   5.124   6.558  0.3447  0.5996  0.2074
 9004SOL    HW127911   5.236   5.142   6.622  0.8735  0.3362 -0.3220
 9004SOL    HW227912   5.099   5.202   6.555 -0.1455  0.2988  1.6455
 9005SOL     OW27913   1.182   1.691   5.339  0.4035  0.5044  0.0645
 9005SOL    HW127914   1.103   1.709   5.396  0.5273 -0.5769  0.6095
 9005SOL    HW227915   1.154   1.688   5.243 -0.0996  0.7443  0.2034
 9006SOL     OW27916   3.369   4.158   1.194 -0.5595 -0.2850  0.3948
 9006SOL    HW127917   3.293   4.141   1.131 -0.9617 -3.7718  1.5892
 9006SOL    HW227918   3.334   4.201   1.277 -0.6565  0.8826 -0.2291
 9007SOL     OW27919   3.522   1.361   2.706  0.0444  0.3888 -0.3068
 9007SOL    HW127920   3.533   1.266   2.735  0.0386  0.8388  1.2220
 9007SOL    HW227921   3.545   1.422   2.781 -0.8992  1.5911 -0.9630
 9008SOL     OW27922   1.079   5.887   4.323  0.1069 -0.0841 -0.0732
 9008SOL    HW127923   1.005   5.830   4.289 -0.6775  0.6344  0.3918
 9008SOL    HW227924   1.157   5.830   4.349 -0.6970 -0.9442  0.4838
 9009SOL     OW27925   4.665   5.278   1.445 -0.1445 -0.0594  0.1688
 9009SOL    HW127926   4.634   5.257   1.537  1.0140 -1.4850  0.2533
 9009SOL    HW227927   4.616   5.220   1.379  1.1060 -1.1396  0.1637
 9010SOL     OW27928   2.402   6.159   3.488 -0.0283  0.2283 -0.7695
 9010SOL    HW127929   2.390   6.118   3.578  0.5002 -0.7275 -1.1216
 9010SOL    HW227930   2.314   6.166   3.442 -0.4585  1.7037  0.2173
 9011SOL     OW27931   1.985   1.755   2.680 -0.7819  0.4367  0.0759
 9011SOL    HW127932   2.082   1.737   2.693 -0.6877  0.7708 -0.1523
 9011SOL    HW227933   1.957   1.832   2.737 -0.3149  2.0611 -1.7960
 9012SOL     OW27934   2.062   0.169   6.127 -0.0926  0.1966  0.0728
 9012SOL    HW127935   2.139   0.160   6.064  1.9712 -0.7650  2.5808
 9012SOL    HW227936   2.029   0.078   6.153 -0.3723  0.5474  1.0067
 9013SOL     OW27937   3.574   6.885   5.146  0.3248  0.6001  0.1405
 9013SOL    HW127938   3.624   6.838   5.218  0.3717 -0.8308 -0.7827
 9013SOL    HW227939   3.579   6.832   5.061 -0.4746  1.7878 -0.6942
 9014SOL     OW27940   6.818   1.334   2.604  0.2452  0.0394  0.2478
 9014SOL    HW127941   6.736   1.295   2.645  0.4544 -1.8211 -0.9959
 9014SOL    HW227942   6.811   1.330   2.504  2.1253 -0.8373  0.0983
 9015SOL     OW27943   4.208   2.687   5.369  0.8059  0.6113  0.1282
 9015SOL    HW127944   4.209   2.656   5.464 -2.4435 -0.4814 -0.0526
 9015SOL    HW227945   4.182   2.610   5.310 -0.4608  2.0192 -1.2286
 9016SOL     OW27946   4.198   5.389   0.938  0.6018 -0.5150  0.3536
 9016SOL    HW127947   4.205   5.435   0.850 -1.3764 -0.9441 -0.0864
 9016SOL    HW227948   4.173   5.293   0.924 -0.2853 -0.4568  1.3635
 9017SOL     OW27949   4.707   6.794   4.082 -0.5756 -1.0837 -0.0035
 9017SOL    HW127950   4.637   6.843   4.133  0.7584  0.2649  0.6257
 9017SOL    HW227951   4.792   6.793   4.135  1.1302  1.0862 -2.4011
 9018SOL     OW27952   4.724   3.823   6.230  0.5937  0.1272  0.0531
 9018SOL    HW127953   4.674   3.761   6.170 -1.4613  0.5835  1.1942
 9018SOL    HW227954   4.661   3.893   6.265  2.4885  1.9565  0.0220
 9019SOL     OW27955   5.500   3.154   3.955 -0.2396  0.2588 -0.5196
 9019SOL    HW127956   5.474   3.072   4.006  0.3932 -0.6271 -1.5713
 9019SOL    HW227957   5.595   3.176   3.977 -0.5084  0.9125  0.0050
 9020SOL     OW27958   5.147   0.158   1.310  0.5787 -0.5819 -0.1525
 9020SOL    HW127959   5.221   0.214   1.273 -0.4611  0.0624 -1.3407
 9020SOL    HW227960   5.063   0.177   1.260 -0.6650 -0.5008  1.8656
 9021SOL     OW27961   0.518   0.681   1.440  0.2809 -0.3422  0.7890
 9021SOL    HW127962   0.420   0.693   1.454  0.4003  0.6558  0.8419
 9021SOL    HW227963   0.555   0.621   1.511 -0.2857 -0.7098  0.7780
 9022SOL     OW27964   6.096   1.740   6.244  1.0189 -0.0031 -0.1569
 9022SOL    HW127965   6.098   1.793   6.160  0.7758 -0.9237 -0.7614
 9022SOL    HW227966   6.169   1.671   6.242  2.4558  1.3842  1.3676
 9023SOL     OW27967   3.865   4.376   0.774  0.1699  0.1147 -0.2263
 9023SOL    HW127968   3.873   4.333   0.685 -0.5305 -1.7694  0.5688
 9023SOL    HW227969   3.946   4.355   0.829  0.4511  0.9926 -0.2890
 9024SOL     OW27970   2.706   2.528   6.150 -0.0716 -0.1726 -0.0629
 9024SOL    HW127971   2.647   2.564   6.222  1.9447  1.7181  0.7474
 9024SOL    HW227972   2.735   2.602   6.090  1.3756 -1.0535 -0.5048
 9025SOL     OW27973   0.347   4.620   1.794 -0.4049  0.2252  0.0966
 9025SOL    HW127974   0.256   4.636   1.757 -0.7485  0.4015  1.0067
 9025SOL    HW227975   0.391   4.707   1.813  0.0763  0.1468 -0.6043
 9026SOL     OW27976   2.534   0.736   1.757 -0.6484 -0.4552 -0.5942
 9026SOL    HW127977   2.523   0.721   1.659 -0.7826  1.7137 -0.9633
 9026SOL    HW227978   2.449   0.770   1.796 -0.0034  0.7248 -0.1667
 9027SOL     OW27979   1.316   3.562   4.004 -0.2820  0.3927 -0.1080
 9027SOL    HW127980   1.308   3.545   4.102 -0.6796 -0.0746 -0.2209
 9027SOL    HW227981   1.264   3.644   3.980 -0.5637  0.2440 -0.0037
 9028SOL     OW27982   2.359   3.340   6.322 -0.5966 -0.4662  0.0576
 9028SOL    HW127983   2.457   3.320   6.327 -1.1451 -4.2585 -0.8999
 9028SOL    HW227984   2.316   3.320   6.410 -0.8778 -1.9414 -0.3779
 9029SOL     OW27985   2.886   5.148   4.389 -0.0006 -0.3007  0.4876
 9029SOL    HW127986   2.797   5.101   4.390  0.6249 -1.5142  0.9188
 9029SOL    HW227987   2.955   5.090   4.431  1.0799  0.4893 -0.1404
 9030SOL     OW27988   2.470   1.677   3.833  0.2264 -0.0410 -0.1004
 9030SOL    HW127989   2.460   1.723   3.745  2.0314  0.5854 -0.0224
 9030SOL    HW227990   2.426   1.732   3.905 -0.2344  0.0363 -0.4373
 9031SOL     OW27991   5.014   0.652   4.469 -0.0101  0.0222 -0.0643
 9031SOL    HW127992   5.044   0.682   4.378 -0.4211 -1.5413 -0.7414
 9031SOL    HW227993   4.917   0.672   4.480  0.1460  0.6402  0.2263
 9032SOL     OW27994   5.088   3.250   3.081 -0.4551  0.4248  0.2739
 9032SOL    HW127995   5.008   3.299   3.045 -0.9110  0.4046  1.2450
 9032SOL    HW227996   5.141   3.214   3.004 -1.6824 -0.0573 -0.3929
 9033SOL     OW27997   3.115   5.185   2.113 -0.0107 -0.5580  0.3146
 9033SOL    HW127998   3.101   5.278   2.078 -0.1460 -0.9368 -0.6579
 9033SOL    HW227999   3.090   5.119   2.043  1.7904 -1.3203  0.3385
 9034SOL     OW28000   2.912   5.743   4.338  0.2645 -0.0764  0.7803
 9034SOL    HW128001   2.894   5.744   4.240  1.4165  1.1234  0.5584
 9034SOL    HW228002   2.925   5.649   4.369 -0.2375 -0.4732 -0.1785
 9035SOL     OW28003   1.131   2.948   6.278 -0.4825 -0.0980 -0.0608
 9035SOL    HW128004   1.133   2.851   6.305 -0.1669 -0.7436 -2.2287
 9035SOL    HW228005   1.203   2.965   6.211 -0.1344  1.8177  0.7476
 9036SOL     OW28006   1.577   2.759   6.662 -0.4837  0.4043  0.5333
 9036SOL    HW128007   1.487   2.716   6.671 -0.6386  0.5449 -0.2303
 9036SOL    HW228008   1.590   2.789   6.567  1.5154 -2.1982 -0.1280
 9037SOL     OW28009   0.544   0.629   4.092 -0.0307  0.0727  0.4286
 9037SOL    HW128010   0.531   0.719   4.050  1.7257  0.7794  1.2678
 9037SOL    HW228011   0.595   0.570   4.030 -0.4439 -0.0658  0.2169
 9038SOL     OW28012   4.818   4.033   5.265  0.0135 -0.2594  0.2567
 9038SOL    HW128013   4.867   4.010   5.181 -0.0517  1.0918 -0.1772
 9038SOL    HW228014   4.882   4.072   5.331 -0.0250 -0.8801  0.6684
 9039SOL     OW28015   4.445   6.832   1.525 -0.2574 -0.7769 -0.1895
 9039SOL    HW128016   4.446   6.733   1.514  2.0670 -0.7720 -0.6634
 9039SOL    HW228017   4.478   6.875   1.440 -1.7176  0.4592 -0.1815
 9040SOL     OW28018   3.332   1.682   2.940  0.4856 -0.6958 -1.1811
 9040SOL    HW128019   3.269   1.633   2.879  0.0322  0.4548 -1.6600
 9040SOL    HW228020   3.379   1.754   2.889  1.4199 -0.8495 -0.5719
 9041SOL     OW28021   1.370   1.023   1.689 -0.1116  0.3327  0.2762
 9041SOL    HW128022   1.338   1.117   1.699  1.4305  0.9371 -0.1307
 9041SOL    HW228023   1.469   1.021   1.700  0.2977 -0.7631 -2.6234
 9042SOL     OW28024   3.462   5.585   0.995 -0.3032 -0.1784  0.5583
 9042SOL    HW128025   3.559   5.560   1.000 -0.1550  0.3511  0.3350
 9042SOL    HW228026   3.407   5.516   1.042 -0.0307 -1.7266 -1.2629
 9043SOL     OW28027   3.230   1.373   5.803  0.3540  0.2862 -0.5820
 9043SOL    HW128028   3.159   1.305   5.784  0.9762 -0.4022 -0.4899
 9043SOL    HW228029   3.317   1.342   5.765  0.8718  0.5346  0.3719
 9044SOL     OW28030   0.039   6.079   4.805 -0.4301 -0.5793  0.5430
 9044SOL    HW128031   0.069   5.986   4.827 -0.3532 -0.4303  1.0787
 9044SOL    HW228032  -0.060   6.079   4.787 -0.0571 -1.1826 -1.8357
 9045SOL     OW28033   4.327   1.198   4.375 -0.1474  0.5463 -0.0133
 9045SOL    HW128034   4.253   1.141   4.339 -0.1814  0.7448 -0.2643
 9045SOL    HW228035   4.313   1.214   4.472  0.3976 -0.6952  0.2843
 9046SOL     OW28036   3.493   3.352   2.218  0.0931 -0.6065  0.3584
 9046SOL    HW128037   3.572   3.291   2.222 -0.5399 -1.6146 -1.2726
 9046SOL    HW228038   3.410   3.298   2.207 -0.3382  0.5135 -2.9494
 9047SOL     OW28039   1.334   3.980   6.205 -0.1597 -0.8027  0.2118
 9047SOL    HW128040   1.343   4.037   6.287 -0.2919 -0.8384  0.2518
 9047SOL    HW228041   1.413   3.994   6.146  0.5574 -1.7023  0.9208
 9048SOL     OW28042   7.003   2.532   1.949  0.1481 -0.0746  0.0883
 9048SOL    HW128043   6.982   2.450   1.895 -0.8507  0.9258 -1.1155
 9048SOL    HW228044   7.095   2.524   1.988  0.7061 -1.0633 -1.3420
 9049SOL     OW28045   3.042   7.006   0.897  0.1561 -0.2337 -0.1733
 9049SOL    HW128046   2.984   7.060   0.836  0.9879 -0.5148 -1.2230
 9049SOL    HW228047   3.138   7.020   0.874  0.5626  0.4697  1.7567
 9050SOL     OW28048   0.293   4.264   6.994  0.0017 -0.4204  1.2852
 9050SOL    HW128049   0.370   4.327   6.991 -0.2168 -0.1832  0.3288
 9050SOL    HW228050   0.318   4.178   6.949 -0.5166 -0.0680  0.2919
 9051SOL     OW28051   2.718   2.380   1.162  0.4770  0.5462 -0.4918
 9051SOL    HW128052   2.743   2.302   1.105 -1.1451 -0.0197 -0.4778
 9051SOL    HW228053   2.794   2.404   1.222  0.9402 -1.1353 -0.3639
 9052SOL     OW28054   2.144   1.982   5.116  0.4337  0.0286  0.0000
 9052SOL    HW128055   2.084   2.061   5.129 -0.8629 -0.4991 -2.2861
 9052SOL    HW228056   2.217   2.006   5.052 -0.4045 -0.7908 -1.3042
 9053SOL     OW28057   2.726   2.769   0.026  0.2097  0.1021 -0.3560
 9053SOL    HW128058   2.676   2.688   0.057  0.5747  0.2915  0.7635
 9053SOL    HW228059   2.822   2.762   0.053 -0.0612  1.6013  1.1794
 9054SOL     OW28060   3.131   5.559   3.651 -0.3757  0.0647  0.1378
 9054SOL    HW128061   3.151   5.561   3.749 -1.1011  2.6097  0.2876
 9054SOL    HW228062   3.042   5.600   3.634  0.2966  0.8827 -1.6923
 9055SOL     OW28063   0.178   4.948   4.611 -1.1712 -0.1004 -0.3068
 9055SOL    HW128064   0.182   5.048   4.603 -1.3581 -0.1753 -1.7055
 9055SOL    HW228065   0.254   4.908   4.560 -2.3931 -0.7031 -1.7638
 9056SOL     OW28066   4.273   2.357   2.413 -0.2171 -0.0950  0.3884
 9056SOL    HW128067   4.350   2.420   2.420 -0.3735  0.2719 -0.9510
 9056SOL    HW228068   4.270   2.317   2.321 -0.6537 -1.3769  0.9294
 9057SOL     OW28069   4.700   2.753   4.932 -0.3316 -0.1690 -0.0289
 9057SOL    HW128070   4.645   2.745   5.016 -0.6606 -0.3346 -0.2600
 9057SOL    HW228071   4.739   2.845   4.927 -2.4721  0.7472 -1.0159
 9058SOL     OW28072   1.178   0.574   4.125  0.4814 -0.0342  0.4744
 9058SOL    HW128073   1.086   0.587   4.161  0.7503  1.5241  0.6557
 9058SOL    HW228074   1.173   0.559   4.026  0.1481  3.1793 -0.1165
 9059SOL     OW28075   6.351   0.909   1.813  0.6692  0.5021 -0.8960
 9059SOL    HW128076   6.375   0.912   1.716 -0.5719 -0.8535 -1.2898
 9059SOL    HW228077   6.262   0.864   1.823 -0.3551  2.7237  0.6972
 9060SOL     OW28078   0.863   2.065   5.977  0.1484  0.0962 -0.4824
 9060SOL    HW128079   0.841   2.034   5.885 -0.5921  1.3122 -0.7324
 9060SOL    HW228080   0.843   2.163   5.986  2.0241  0.4569  0.3946
 9061SOL     OW28081   3.446   4.897   3.150  0.7379  0.6040 -0.0767
 9061SOL    HW128082   3.491   4.920   3.064 -0.3549 -0.6743 -1.0244
 9061SOL    HW228083   3.501   4.829   3.199  0.4417 -0.0894 -0.6850
 9062SOL     OW28084   1.656   4.002   1.094 -0.1829 -0.1188 -0.4852
 9062SOL    HW128085   1.713   3.999   1.176  0.5635 -0.9077 -1.0124
 9062SOL    HW228086   1.620   4.094   1.082  2.1326  0.8172 -0.8833
 9063SOL     OW28087   2.910   1.534   4.029  0.1325 -0.5266  0.2331
 9063SOL    HW128088   2.861   1.590   4.096  0.5403 -0.4448  0.4678
 9063SOL    HW228089   2.871   1.442   4.028 -2.0493  0.3414 -1.7802
 9064SOL     OW28090   6.833   4.905   1.570 -0.0749 -0.8319  0.1077
 9064SOL    HW128091   6.817   4.927   1.474 -0.6952 -1.5546  0.0406
 9064SOL    HW228092   6.820   4.807   1.585  1.1358 -0.9214  0.7098
 9065SOL     OW28093   2.885   0.098   0.699  0.3723 -0.0748 -0.2565
 9065SOL    HW128094   2.800   0.045   0.699 -0.3816  1.0745  1.3228
 9065SOL    HW228095   2.881   0.168   0.628 -0.1139  0.1435 -0.0133
 9066SOL     OW28096   3.482   0.565   2.164 -0.6381 -1.1327 -0.3006
 9066SOL    HW128097   3.459   0.645   2.108  1.5335 -0.3647 -0.1590
 9066SOL    HW228098   3.438   0.484   2.125 -1.3955 -0.1790 -1.5088
 9067SOL     OW28099   1.882   5.053   3.080 -0.0848 -0.2118  0.1381
 9067SOL    HW128100   1.956   4.986   3.071 -0.1733 -0.2669 -0.1782
 9067SOL    HW228101   1.899   5.130   3.019  1.0851  1.0475  1.9551
 9068SOL     OW28102   0.364   6.260   0.314  0.1550  0.1056 -0.0155
 9068SOL    HW128103   0.269   6.283   0.291  0.0525 -0.8354 -0.5974
 9068SOL    HW228104   0.376   6.264   0.413 -0.6075 -0.1588  0.0946
 9069SOL     OW28105   1.176   1.560   0.918 -0.4614  0.2150  0.0269
 9069SOL    HW128106   1.195   1.467   0.948  0.2751  0.3492 -0.0097
 9069SOL    HW228107   1.254   1.619   0.939 -1.0255  0.8890  0.3091
 9070SOL     OW28108   5.417   4.677   4.048 -0.1352 -0.0526 -0.2142
 9070SOL    HW128109   5.366   4.591   4.052  1.0763 -0.7530  1.8466
 9070SOL    HW228110   5.374   4.744   4.108 -0.5757  0.5211 -1.1464
 9071SOL     OW28111   5.205   0.012   0.635 -0.4423 -0.0957 -0.2705
 9071SOL    HW128112   5.262   0.083   0.593 -0.4395 -0.9208 -1.7071
 9071SOL    HW228113   5.207   0.023   0.734 -0.3165  1.8107 -0.4386
 9072SOL     OW28114   4.532   6.225   6.850  0.3291  0.4224 -0.0628
 9072SOL    HW128115   4.601   6.288   6.813  0.8373 -0.6715 -1.0409
 9072SOL    HW228116   4.569   6.133   6.851 -0.6800  0.0097  0.6266
 9073SOL     OW28117   2.485   1.878   4.305  0.4321 -0.0018 -0.1385
 9073SOL    HW128118   2.409   1.894   4.369  0.8211 -2.6996  1.1347
 9073SOL    HW228119   2.571   1.905   4.348  0.4364  1.0270 -0.7553
 9074SOL     OW28120   0.552   5.555   2.799  0.3009  0.6024 -0.0331
 9074SOL    HW128121   0.556   5.531   2.702 -0.2640  1.9375 -0.4115
 9074SOL    HW228122   0.475   5.508   2.841  0.0464  0.6613 -0.4224
 9075SOL     OW28123   2.824   6.259   3.792  0.1852  0.4936 -0.1358
 9075SOL    HW128124   2.775   6.223   3.872 -1.1725  0.5635 -0.9142
 9075SOL    HW228125   2.837   6.357   3.802  3.0801  0.0751  1.5595
 9076SOL     OW28126   4.604   1.192   5.447  0.6045  0.1969  0.5223
 9076SOL    HW128127   4.511   1.196   5.483 -0.3066  0.0861 -1.6702
 9076SOL    HW228128   4.629   1.097   5.431  1.0596  0.2354  0.9846
 9077SOL     OW28129   0.500   6.813   0.964 -0.1034  0.2514  0.6731
 9077SOL    HW128130   0.447   6.870   0.902  0.5529 -0.1658 -0.2969
 9077SOL    HW228131   0.440   6.746   1.008 -0.0956 -1.9224 -2.3178
 9078SOL     OW28132   4.193   2.278   5.641 -0.2025 -0.1461  0.2777
 9078SOL    HW128133   4.132   2.321   5.575  1.3314  2.7819  0.6238
 9078SOL    HW228134   4.193   2.331   5.726  0.3453 -1.9665  1.4714
 9079SOL     OW28135   2.970   0.742   4.770  0.0307 -0.0282 -0.1886
 9079SOL    HW128136   2.970   0.657   4.821  0.0539 -0.2873 -0.6124
 9079SOL    HW228137   2.885   0.792   4.787 -0.1836 -0.3557 -0.3030
 9080SOL     OW28138   5.318   1.161   1.183  0.1936 -0.3741  0.3916
 9080SOL    HW128139   5.375   1.195   1.108  0.2753  0.8495  0.9863
 9080SOL    HW228140   5.376   1.147   1.264 -0.0544 -0.8142  0.4944
 9081SOL     OW28141   5.811   0.593   1.998 -0.2868 -0.1593 -0.6938
 9081SOL    HW128142   5.740   0.622   2.062  0.9243  1.3248  0.0668
 9081SOL    HW228143   5.795   0.636   1.909 -1.0486 -0.8806 -0.9117
 9082SOL     OW28144   4.638   6.855   2.234 -0.4922  0.4211  0.0500
 9082SOL    HW128145   4.562   6.795   2.261  0.1157 -0.5484 -0.3394
 9082SOL    HW228146   4.722   6.825   2.281  0.4020 -0.7432 -2.1545
 9083SOL     OW28147   4.149   5.400   4.048  0.4899  0.3628  0.0160
 9083SOL    HW128148   4.139   5.500   4.056  0.1625  0.2973  0.5229
 9083SOL    HW228149   4.233   5.378   4.000  1.0066  0.8759  0.6616
 9084SOL     OW28150   4.096   3.389   3.021 -0.0974  0.3269 -0.9514
 9084SOL    HW128151   4.119   3.440   2.938 -1.0031 -0.5250 -1.7551
 9084SOL    HW228152   4.010   3.423   3.058 -1.2739 -1.2722 -2.1045
 9085SOL     OW28153   1.909   1.672   6.672 -0.7684  0.0004  0.3418
 9085SOL    HW128154   1.981   1.670   6.602 -2.4569 -0.8479 -1.4475
 9085SOL    HW228155   1.908   1.763   6.714  1.0381  0.1804  0.1035
 9086SOL     OW28156   5.174   3.761   0.556 -0.5325  0.7270 -0.2535
 9086SOL    HW128157   5.187   3.855   0.527  2.3734  0.9869  1.5210
 9086SOL    HW228158   5.240   3.702   0.510 -0.3875  0.0511  0.7775
 9087SOL     OW28159   3.356   3.466   1.363  0.0288 -0.2272 -0.0091
 9087SOL    HW128160   3.397   3.375   1.361 -0.2195 -0.3651  0.8622
 9087SOL    HW228161   3.267   3.461   1.407 -0.2687  0.3337 -0.5316
 9088SOL     OW28162   3.030   5.933   2.232 -0.3762  0.3630 -0.5339
 9088SOL    HW128163   3.050   5.902   2.325  0.8209  0.7824 -0.6398
 9088SOL    HW228164   3.065   5.867   2.166 -0.8893  0.2561 -0.7092
 9089SOL     OW28165   3.841   6.340   6.313  0.4204  0.1736 -0.6625
 9089SOL    HW128166   3.863   6.290   6.229  1.4357  1.0816 -0.9545
 9089SOL    HW228167   3.743   6.357   6.317  0.2832 -0.4130 -1.3551
 9090SOL     OW28168   5.874   0.740   5.369 -0.1487 -0.4368 -0.4126
 9090SOL    HW128169   5.971   0.717   5.376 -0.2528 -0.5792  1.0564
 9090SOL    HW228170   5.864   0.833   5.335  0.4632 -0.7618 -1.5021
 9091SOL     OW28171   1.236   3.885   0.954 -1.1314  0.6341 -0.1750
 9091SOL    HW128172   1.306   3.872   1.024  0.5848 -1.6730 -2.1545
 9091SOL    HW228173   1.147   3.899   0.999 -0.6489 -3.3996  2.6586
 9092SOL     OW28174   5.559   2.313   6.514 -0.0416  0.3171  0.2613
 9092SOL    HW128175   5.469   2.302   6.554 -0.3705  2.7993  0.4141
 9092SOL    HW228176   5.569   2.254   6.434 -2.5077  1.2377 -0.8271
 9093SOL     OW28177   0.658   5.674   5.599  0.2596 -0.6826  0.0054
 9093SOL    HW128178   0.566   5.657   5.632  0.2236  0.5660  0.6164
 9093SOL    HW228179   0.723   5.617   5.649 -0.0611 -0.6632  0.4468
 9094SOL     OW28180   6.507   4.211   1.736  0.4284 -0.4868  0.2978
 9094SOL    HW128181   6.487   4.287   1.798  2.3307 -0.8303  1.4370
 9094SOL    HW228182   6.434   4.202   1.669 -0.8951  0.9678  1.4627
 9095SOL     OW28183   6.780   0.627   5.392  0.5592  0.2848 -0.4306
 9095SOL    HW128184   6.691   0.590   5.418  1.1740 -0.5329  0.6110
 9095SOL    HW228185   6.825   0.563   5.330 -0.1932  1.4323 -2.2394
 9096SOL     OW28186   0.304   6.567   3.508 -0.0660 -0.0922 -0.4301
 9096SOL    HW128187   0.205   6.558   3.518 -0.1529  1.5371  0.5213
 9096SOL    HW228188   0.342   6.481   3.474 -1.9641 -0.2757 -2.2533
 9097SOL     OW28189   1.089   1.397   0.351  0.1566 -0.3786 -0.6518
 9097SOL    HW128190   0.998   1.436   0.339 -0.4383 -1.1925  1.0114
 9097SOL    HW228191   1.093   1.307   0.309 -0.3839 -1.0865  0.7351
 9098SOL     OW28192   2.009   4.823   4.707 -0.1931 -0.5357  0.2896
 9098SOL    HW128193   1.926   4.875   4.683 -0.2534 -0.4772  0.6084
 9098SOL    HW228194   1.999   4.788   4.800  1.1220  1.5382  1.3041
 9099SOL     OW28195   0.782   3.110   2.068  0.5049 -0.0279 -0.0332
 9099SOL    HW128196   0.733   3.167   2.135  1.9576  0.8291  0.3644
 9099SOL    HW228197   0.865   3.158   2.039  0.9489 -1.2842 -0.9195
 9100SOL     OW28198   1.878   6.436   4.010  0.5544  0.2722  0.0066
 9100SOL    HW128199   1.855   6.521   3.962  1.5683  1.0157  0.7905
 9100SOL    HW228200   1.977   6.432   4.026  1.0616 -2.5382 -2.7493
 9101SOL     OW28201   6.017   2.074   5.948 -0.4525  0.0962 -0.8310
 9101SOL    HW128202   5.931   2.045   5.907 -1.1771  0.0226  0.6625
 9101SOL    HW228203   6.070   1.994   5.975 -0.0572  0.1448 -1.4471
 9102SOL     OW28204   3.070   6.272   1.801 -0.1372 -0.1140 -0.3146
 9102SOL    HW128205   3.104   6.235   1.714  0.6881 -0.9820  0.3594
 9102SOL    HW228206   2.995   6.336   1.782  1.2908  1.2188 -1.7863
 9103SOL     OW28207   0.030   0.908   1.358  0.1412 -0.4264 -0.3009
 9103SOL    HW128208   0.066   0.987   1.409  1.0148 -0.9425 -0.1035
 9103SOL    HW228209   0.056   0.916   1.262  1.0062 -0.9155 -0.1161
 9104SOL     OW28210   4.517   0.675   5.392 -0.5882  0.5492 -0.7889
 9104SOL    HW128211   4.445   0.740   5.413 -2.3997 -1.4032 -0.6429
 9104SOL    HW228212   4.487   0.582   5.416  1.4664 -0.4904 -1.9440
 9105SOL     OW28213   1.600   1.758   0.034  0.0064 -0.5849 -0.3979
 9105SOL    HW128214   1.557   1.846   0.013  1.1829  0.1350  0.0764
 9105SOL    HW228215   1.589   1.696  -0.044 -0.7193  0.0235 -0.7947
 9106SOL     OW28216   1.386   4.533   0.933  0.1712  0.0162  0.6171
 9106SOL    HW128217   1.379   4.456   0.869  0.6738 -0.2889  0.9245
 9106SOL    HW228218   1.482   4.561   0.941 -0.1419  1.5310 -0.4900
 9107SOL     OW28219   3.289   1.558   2.542  0.0757  0.7082 -0.0416
 9107SOL    HW128220   3.291   1.647   2.497  0.1822  0.4671 -0.5203
 9107SOL    HW228221   3.382   1.520   2.543 -0.1389  0.1335 -0.7969
 9108SOL     OW28222   5.058   6.170   5.978 -0.2079  0.3902  0.3959
 9108SOL    HW128223   4.974   6.176   6.031 -1.6957  0.5934 -1.8152
 9108SOL    HW228224   5.036   6.171   5.880  2.2534 -1.2381 -0.2875
 9109SOL     OW28225   6.643   4.162   2.551 -0.6099 -0.2856 -0.6567
 9109SOL    HW128226   6.656   4.090   2.483  0.6564 -0.2890 -0.4242
 9109SOL    HW228227   6.725   4.170   2.608 -0.9726  0.9242 -0.2759
 9110SOL     OW28228   3.959   6.374   3.482  0.3123  0.1929  0.2334
 9110SOL    HW128229   4.053   6.340   3.480 -0.3778 -1.8428 -0.5218
 9110SOL    HW228230   3.946   6.441   3.409  0.7206 -0.9018 -0.8721
 9111SOL     OW28231   4.602   0.835   6.189 -0.5020 -0.3860  0.8056
 9111SOL    HW128232   4.572   0.792   6.274 -0.1949 -0.0832  1.0693
 9111SOL    HW228233   4.637   0.765   6.127  1.6334 -0.3778  1.9040
 9112SOL     OW28234   0.624   5.657   0.985  0.1596  0.0124  0.1819
 9112SOL    HW128235   0.680   5.720   0.931  0.6061  0.3870  1.0513
 9112SOL    HW228236   0.530   5.693   0.991  0.7812  1.5273  2.0332
 9113SOL     OW28237   5.769   1.505   5.446 -0.0112 -0.3532  0.1879
 9113SOL    HW128238   5.847   1.564   5.423  1.2962 -1.6546  1.1032
 9113SOL    HW228239   5.693   1.525   5.384  1.0131  0.9966 -0.7041
 9114SOL     OW28240   0.461   6.768   3.382  0.2823  0.0340  0.0820
 9114SOL    HW128241   0.511   6.765   3.295 -1.3523 -0.5982 -0.8712
 9114SOL    HW228242   0.486   6.689   3.438 -1.7270 -1.9421 -1.6346
 9115SOL     OW28243   6.291   4.386   5.139  0.7973 -0.4498 -0.0835
 9115SOL    HW128244   6.382   4.361   5.105  0.5127  0.6759 -1.8244
 9115SOL    HW228245   6.291   4.482   5.165  0.6984 -1.0234  2.2309
 9116SOL     OW28246   3.119   6.831   2.132 -0.0799  0.2270 -0.4776
 9116SOL    HW128247   3.132   6.836   2.033  3.1648  0.7512 -0.1138
 9116SOL    HW228248   3.114   6.735   2.159 -1.4349  0.0817 -1.1514
 9117SOL     OW28249   3.767   6.600   5.643 -0.2974  0.1487 -0.1559
 9117SOL    HW128250   3.667   6.598   5.649 -0.3747  1.3025 -0.6571
 9117SOL    HW228251   3.794   6.668   5.575  0.8490  0.3568  0.4913
 9118SOL     OW28252   6.124   5.201   2.334 -0.3174 -0.0527 -0.2715
 9118SOL    HW128253   6.103   5.221   2.238  1.3068 -0.0890 -0.6563
 9118SOL    HW228254   6.221   5.178   2.343 -0.4653 -0.1285  1.3777
 9119SOL     OW28255   4.145   1.124   1.445 -0.1179  0.3430  0.0456
 9119SOL    HW128256   4.207   1.194   1.480 -0.5042  1.6816 -1.8154
 9119SOL    HW228257   4.179   1.033   1.471  2.2696  1.0525 -0.3535
 9120SOL     OW28258   5.406   3.353   3.796 -0.0562 -0.1018  0.3086
 9120SOL    HW128259   5.463   3.398   3.727 -0.0673 -1.1347 -0.4029
 9120SOL    HW228260   5.461   3.287   3.847 -0.0835  0.5589  1.2104
 9121SOL     OW28261   3.567   0.939   5.936 -0.1809  0.1589 -0.4709
 9121SOL    HW128262   3.645   0.999   5.952 -1.8412  2.3328  0.0517
 9121SOL    HW228263   3.587   0.876   5.861  2.6690 -0.5883  0.8040
 9122SOL     OW28264   2.586   4.145   1.595 -0.2271  0.1466  0.4796
 9122SOL    HW128265   2.624   4.210   1.661 -1.9458  1.3157  0.3876
 9122SOL    HW228266   2.619   4.053   1.617  0.4224  0.7057  2.0515
 9123SOL     OW28267   5.491   6.102   3.846  0.1158 -0.2108 -0.5576
 9123SOL    HW128268   5.429   6.030   3.815  0.0014 -1.7577  2.8863
 9123SOL    HW228269   5.438   6.181   3.878 -0.0039 -0.6486  0.3421
 9124SOL     OW28270   2.477   3.641   0.801 -0.5187  0.4933  0.0276
 9124SOL    HW128271   2.520   3.667   0.888  2.9779 -0.3754 -1.2904
 9124SOL    HW228272   2.426   3.719   0.765 -1.5371  1.0776  2.4714
 9125SOL     OW28273   4.641   6.412   2.148 -0.1605  0.1445 -0.2084
 9125SOL    HW128274   4.640   6.494   2.092  1.0065  0.7036  0.5354
 9125SOL    HW228275   4.596   6.337   2.100 -0.6664  1.0454 -1.1618
 9126SOL     OW28276   4.199   2.386   1.342 -0.0086 -0.1680  0.7237
 9126SOL    HW128277   4.178   2.300   1.296  0.5666 -0.0794  0.2811
 9126SOL    HW228278   4.207   2.370   1.440  2.0207 -1.0360  0.4783
 9127SOL     OW28279   0.530   4.113   5.437 -0.3675  0.3091  0.7355
 9127SOL    HW128280   0.557   4.183   5.503 -0.8419  0.9078  0.3099
 9127SOL    HW228281   0.444   4.140   5.393 -0.0715 -0.0776 -0.1153
 9128SOL     OW28282   6.824   4.045   5.050  0.0069  0.0631 -0.1413
 9128SOL    HW128283   6.835   4.088   4.961  0.4917 -0.1199 -0.1722
 9128SOL    HW228284   6.850   3.949   5.044 -0.1775 -0.0069  0.1439
 9129SOL     OW28285   1.311   2.560   1.059  0.1847  0.1092 -0.3298
 9129SOL    HW128286   1.268   2.489   1.116  0.7353  0.2077  0.2136
 9129SOL    HW228287   1.275   2.554   0.966 -0.0693 -0.6301 -0.1904
 9130SOL     OW28288   3.269   3.958   5.751  0.1743 -0.1216 -0.1982
 9130SOL    HW128289   3.273   3.992   5.844 -0.8565  0.5847 -0.3988
 9130SOL    HW228290   3.230   3.866   5.751  0.7496 -0.3715  0.1154
 9131SOL     OW28291   5.180   0.847   0.217 -0.4791 -0.6074 -0.1890
 9131SOL    HW128292   5.241   0.926   0.207 -0.2681 -0.8447 -0.8712
 9131SOL    HW228293   5.190   0.787   0.137 -2.1803 -0.2552 -0.7093
 9132SOL     OW28294   0.918   4.467   4.286 -0.0264 -0.3194 -0.0342
 9132SOL    HW128295   0.968   4.413   4.355  0.0675  1.4305  1.3544
 9132SOL    HW228296   0.982   4.496   4.214  0.2971 -0.6259  0.1253
 9133SOL     OW28297   6.567   0.995   6.762  0.7639  0.1259 -0.1231
 9133SOL    HW128298   6.578   0.934   6.840  0.3242  1.1028  0.7115
 9133SOL    HW228299   6.477   0.983   6.722  1.4450 -1.3152 -1.3223
 9134SOL     OW28300   4.661   6.239   1.394  0.6406  0.2706  0.6285
 9134SOL    HW128301   4.742   6.194   1.430  0.2446  1.3622  3.0581
 9134SOL    HW228302   4.581   6.181   1.411  0.7076 -0.2691 -0.7152
 9135SOL     OW28303   6.360   5.774   3.020  0.2922  0.1719  0.3144
 9135SOL    HW128304   6.428   5.830   2.973 -0.9928  0.5923 -1.0950
 9135SOL    HW228305   6.270   5.816   3.013 -0.4410 -1.2637  0.6186
 9136SOL     OW28306   5.497   4.212   0.404 -0.6048 -0.0773  0.0620
 9136SOL    HW128307   5.428   4.182   0.337 -0.1880  0.0937 -0.4541
 9136SOL    HW228308   5.584   4.227   0.357 -0.4298  0.5257  0.5627
 9137SOL     OW28309   3.297   5.707   6.314 -0.2282  0.2947  0.0841
 9137SOL    HW128310   3.250   5.646   6.250 -1.8967  3.5779 -2.1586
 9137SOL    HW228311   3.352   5.772   6.262 -1.1350  2.7187  1.9862
 9138SOL     OW28312   2.526   3.618   1.230  0.2234 -0.0531 -0.0400
 9138SOL    HW128313   2.450   3.561   1.260  0.5356  0.2984  1.4798
 9138SOL    HW228314   2.607   3.561   1.216  0.5894 -0.0094  1.6707
 9139SOL     OW28315   0.628   0.044   1.149  0.4305  1.1063 -0.1846
 9139SOL    HW128316   0.621   0.117   1.081 -2.3078 -0.7434 -2.0772
 9139SOL    HW228317   0.622  -0.045   1.104 -2.6004 -0.2191  2.4454
 9140SOL     OW28318   2.309   2.766   3.099 -0.5167 -0.5138  0.2198
 9140SOL    HW128319   2.259   2.840   3.143 -1.2456 -2.0350  2.1216
 9140SOL    HW228320   2.380   2.733   3.161 -0.1354 -1.3157 -0.6320
 9141SOL     OW28321   5.610   5.474   0.021 -0.2323 -0.3037  0.4529
 9141SOL    HW128322   5.627   5.450   0.117  0.4127  1.7996  0.9238
 9141SOL    HW228323   5.618   5.392  -0.036  1.4246 -1.2606  1.9520
 9142SOL     OW28324   6.842   3.264   5.481  0.1070 -0.0183 -0.3021
 9142SOL    HW128325   6.776   3.336   5.457  0.7078 -0.0451 -2.2021
 9142SOL    HW228326   6.849   3.199   5.405  2.2910 -0.0457 -0.1315
 9143SOL     OW28327   6.307   5.568   4.807 -0.0341  0.1932 -0.3288
 9143SOL    HW128328   6.218   5.606   4.781  0.3457  0.4592 -1.2584
 9143SOL    HW228329   6.326   5.592   4.902 -1.0033  0.0443 -0.0843
 9144SOL     OW28330   3.334   3.292   0.834 -0.3156  0.7443 -0.4180
 9144SOL    HW128331   3.350   3.389   0.850  2.3427  0.0633  1.7371
 9144SOL    HW228332   3.262   3.259   0.895 -0.0702  1.0441  0.0358
 9145SOL     OW28333   0.593   5.344   5.485 -0.2512  0.2749  0.7835
 9145SOL    HW128334   0.565   5.277   5.416  1.6154 -0.3323  0.5426
 9145SOL    HW228335   0.534   5.424   5.480 -0.6329 -0.0701 -1.0347
 9146SOL     OW28336   6.094   4.249   3.362 -0.1383  0.1103  0.1437
 9146SOL    HW128337   6.185   4.262   3.402  0.7283 -2.2635 -0.8676
 9146SOL    HW228338   6.031   4.217   3.433 -0.0629  1.1866  0.7199
 9147SOL     OW28339   3.077   0.768   5.527  0.2339  0.1314 -0.1136
 9147SOL    HW128340   3.127   0.711   5.463 -0.2273 -0.2920 -0.1028
 9147SOL    HW228341   3.141   0.824   5.580  0.7247 -0.6824  0.1736
 9148SOL     OW28342   6.713   5.522   1.962 -0.3576 -0.1904  0.2541
 9148SOL    HW128343   6.646   5.450   1.981  0.2974 -1.1070 -0.8042
 9148SOL    HW228344   6.795   5.482   1.922  0.2619  1.0841  0.1916
 9149SOL     OW28345   6.628   3.102   1.340 -0.7644  0.2249 -0.1756
 9149SOL    HW128346   6.535   3.067   1.336 -0.4728 -0.5161 -0.8954
 9149SOL    HW228347   6.641   3.154   1.424 -1.3161 -1.1689  0.8053
 9150SOL     OW28348   3.082   3.516   1.411  0.6247 -0.2181  0.2958
 9150SOL    HW128349   3.059   3.419   1.420 -1.8516  0.3732  1.1469
 9150SOL    HW228350   3.084   3.558   1.502  0.7980  0.7103 -0.1288
 9151SOL     OW28351   2.164   2.978   3.814  0.0198 -0.3365 -0.3951
 9151SOL    HW128352   2.181   3.043   3.888  0.7620 -1.9224  0.8833
 9151SOL    HW228353   2.180   3.023   3.726  1.4498  0.9439  0.4702
 9152SOL     OW28354   1.293   5.480   4.203 -0.3750 -0.3681  0.1793
 9152SOL    HW128355   1.212   5.423   4.201 -0.5851 -0.0603 -0.3448
 9152SOL    HW228356   1.340   5.474   4.115  0.6815 -1.2590  0.7795
 9153SOL     OW28357   0.800   2.345   1.195  0.4145 -0.5141 -0.1942
 9153SOL    HW128358   0.785   2.417   1.127 -0.2300  0.7620  1.2263
 9153SOL    HW228359   0.885   2.362   1.244 -1.4240  1.5035  2.6263
 9154SOL     OW28360   5.895   4.016   2.584 -0.6879  0.0654  0.2822
 9154SOL    HW128361   5.805   4.007   2.539  0.0386  1.9710 -1.7293
 9154SOL    HW228362   5.956   3.944   2.551 -1.4498 -1.3382  1.7775
 9155SOL     OW28363   2.381   4.549   2.453 -0.5909  0.3636  0.0874
 9155SOL    HW128364   2.463   4.516   2.407 -0.1992  0.3609  0.7738
 9155SOL    HW228365   2.303   4.544   2.391  0.2467  2.0001 -1.1818
 9156SOL     OW28366   6.598   3.481   6.585 -0.1237 -0.0408 -0.1421
 9156SOL    HW128367   6.584   3.383   6.600  1.4354 -0.5211 -1.4915
 9156SOL    HW228368   6.635   3.522   6.668  0.0877 -0.7817  0.1413
 9157SOL     OW28369   2.485   5.566   5.616 -0.0769 -0.5098 -0.7772
 9157SOL    HW128370   2.561   5.503   5.597 -0.0717 -0.9667  0.6405
 9157SOL    HW228371   2.475   5.630   5.539  0.8885 -1.2697 -1.5727
 9158SOL     OW28372   0.825   5.153   4.066  0.0051  0.4231 -0.1149
 9158SOL    HW128373   0.910   5.128   4.020 -0.0752  0.0062 -0.0361
 9158SOL    HW228374   0.768   5.072   4.077  0.0234  0.5154  0.7246
 9159SOL     OW28375   1.983   2.766   4.481 -0.3454 -0.0219 -0.3325
 9159SOL    HW128376   1.928   2.751   4.399 -2.6790  1.7304  0.8007
 9159SOL    HW228377   2.002   2.864   4.491 -0.6791 -0.1196  1.5477
 9160SOL     OW28378   1.089   5.078   0.880  0.4601  0.0582 -0.1058
 9160SOL    HW128379   1.137   5.002   0.836 -0.5752 -1.5637  1.4155
 9160SOL    HW228380   1.044   5.134   0.811 -2.2170 -3.1211 -1.1868
 9161SOL     OW28381   6.420   4.301   1.165  0.1681  0.0113  0.2886
 9161SOL    HW128382   6.401   4.306   1.067 -2.0590  0.3798  0.7035
 9161SOL    HW228383   6.518   4.288   1.179  0.5742  0.3042 -1.9679
 9162SOL     OW28384   4.558   2.565   1.449  0.1953  0.4458  0.6321
 9162SOL    HW128385   4.475   2.517   1.476  1.5296 -1.4468  1.6372
 9162SOL    HW228386   4.554   2.660   1.480 -1.4901  0.3520  0.7857
 9163SOL     OW28387   1.744   2.766   2.502  0.2035 -0.2046  0.1915
 9163SOL    HW128388   1.662   2.810   2.540 -1.0574 -2.8245  0.7152
 9163SOL    HW228389   1.765   2.808   2.413 -2.2467  0.0015 -0.3746
 9164SOL     OW28390   3.739   5.463   6.193 -0.2153 -0.0148  0.1396
 9164SOL    HW128391   3.764   5.459   6.096 -0.8293 -1.0935  0.0107
 9164SOL    HW228392   3.691   5.549   6.212  0.7559  0.6428 -0.2897
 9165SOL     OW28393   5.344   2.991   6.362  0.1657  0.3587  0.3258
 9165SOL    HW128394   5.327   2.897   6.333  2.0792  0.1862 -0.3804
 9165SOL    HW228395   5.287   3.013   6.441  0.1702 -1.5920  0.9070
 9166SOL     OW28396   4.738   5.513   2.483 -0.2831 -0.1507 -0.0219
 9166SOL    HW128397   4.820   5.458   2.501 -0.1684  0.5536  1.7902
 9166SOL    HW228398   4.740   5.545   2.388  1.0545 -0.9369 -0.2888
 9167SOL     OW28399   0.848   6.621   4.447  0.1620  0.1656 -0.4681
 9167SOL    HW128400   0.830   6.530   4.408 -1.1388  0.1756  0.0659
 9167SOL    HW228401   0.884   6.681   4.375 -1.8608  0.0830 -1.6374
 9168SOL     OW28402   6.460   0.517   4.810  0.0304  0.2241  1.1076
 9168SOL    HW128403   6.552   0.538   4.778 -0.9124  0.1373 -1.8956
 9168SOL    HW228404   6.428   0.593   4.867  1.3309  1.0259  0.8323
 9169SOL     OW28405   4.893   1.481   1.995  0.1147 -0.3328  0.8608
 9169SOL    HW128406   4.926   1.431   1.914  0.4142 -0.1111  0.8493
 9169SOL    HW228407   4.794   1.467   2.003 -0.2613  1.1984 -0.6481
 9170SOL     OW28408   1.546   2.910   5.652  0.4666 -0.3064  0.1327
 9170SOL    HW128409   1.473   2.915   5.720 -1.1244 -0.1190 -1.5225
 9170SOL    HW228410   1.553   2.817   5.617  1.7680 -0.5705  1.0086
 9171SOL     OW28411   3.363   5.532   6.539 -0.1176 -0.1820 -0.1374
 9171SOL    HW128412   3.329   5.598   6.472 -0.6922 -1.3282 -0.9979
 9171SOL    HW228413   3.366   5.441   6.499  2.0873 -0.4808  0.5530
 9172SOL     OW28414   6.759   1.055   6.210 -0.0685  0.1082  0.0708
 9172SOL    HW128415   6.696   1.113   6.261 -2.5412 -2.0862 -0.2682
 9172SOL    HW228416   6.792   1.104   6.129  0.9353  2.2837  1.7049
 9173SOL     OW28417   6.407   3.686   4.158 -0.5888 -0.0728  0.6640
 9173SOL    HW128418   6.321   3.732   4.138 -0.9810 -0.8134  0.6424
 9173SOL    HW228419   6.407   3.653   4.252  0.3340  1.3568  1.2035
 9174SOL     OW28420   0.408   6.258   1.865 -0.3058 -0.2676  0.2485
 9174SOL    HW128421   0.316   6.290   1.841 -0.4944 -1.6218 -0.9508
 9174SOL    HW228422   0.401   6.181   1.928  0.0581  0.1593  0.8276
 9175SOL     OW28423   3.664   1.747   1.500  0.3030  0.1752 -0.3571
 9175SOL    HW128424   3.652   1.657   1.541 -1.3437 -0.4498 -2.0416
 9175SOL    HW228425   3.683   1.815   1.571  0.2229 -1.2607  1.0832
 9176SOL     OW28426   1.476   1.422   2.111 -0.7067  0.3096 -0.2273
 9176SOL    HW128427   1.480   1.342   2.051  0.0023 -1.2157  1.7462
 9176SOL    HW228428   1.538   1.409   2.188  0.1710  3.2332 -0.3236
 9177SOL     OW28429   6.752   1.243   1.900 -0.8912  0.1719 -0.1675
 9177SOL    HW128430   6.784   1.287   1.817 -1.0076 -0.7073 -0.6921
 9177SOL    HW228431   6.767   1.144   1.894 -0.4168  0.1499  1.0783
 9178SOL     OW28432   1.464   3.841   2.614 -0.3866 -0.5130 -0.1029
 9178SOL    HW128433   1.469   3.745   2.641 -2.9114 -0.7145 -0.0767
 9178SOL    HW228434   1.420   3.894   2.687  2.2282  0.9940  0.4844
 9179SOL     OW28435   2.765   5.001   4.029 -0.2805 -0.7713 -0.3977
 9179SOL    HW128436   2.789   5.027   3.936 -1.3949  0.0314 -0.4819
 9179SOL    HW228437   2.666   4.988   4.035 -0.4705  1.0445  1.1147
 9180SOL     OW28438   2.053   1.274   5.558 -0.5086 -0.4510 -0.1122
 9180SOL    HW128439   2.050   1.207   5.484  0.3907 -2.6387  1.6919
 9180SOL    HW228440   2.140   1.266   5.606 -0.3013  2.1953  0.1065
 9181SOL     OW28441   2.947   1.914   3.625 -0.1246 -0.1604 -0.1270
 9181SOL    HW128442   3.022   1.852   3.647 -1.1226 -1.6413 -0.6770
 9181SOL    HW228443   2.860   1.863   3.630 -1.1346  1.5617  0.7951
 9182SOL     OW28444   1.017   0.678   3.519  0.2357 -0.5124  0.0004
 9182SOL    HW128445   1.009   0.666   3.618 -1.5152  2.1403  0.2798
 9182SOL    HW228446   0.945   0.626   3.473 -0.3368 -0.0132  0.3128
 9183SOL     OW28447   1.451   1.167   5.870  0.2393  0.2679  0.1289
 9183SOL    HW128448   1.387   1.101   5.909 -2.0327  2.0988 -0.2698
 9183SOL    HW228449   1.490   1.222   5.943 -0.8720  1.0058  0.1886
 9184SOL     OW28450   3.313   1.538   1.451 -0.0361  0.1161  0.5032
 9184SOL    HW128451   3.262   1.452   1.450 -2.0359  1.2483 -0.6389
 9184SOL    HW228452   3.382   1.536   1.378 -1.2930  0.1426 -0.7137
 9185SOL     OW28453   2.152   0.716   6.837  0.2837  0.3608 -0.4917
 9185SOL    HW128454   2.103   0.684   6.756 -0.5391 -0.1821  0.1877
 9185SOL    HW228455   2.247   0.687   6.833 -0.2496 -1.5529 -0.2846
 9186SOL     OW28456   4.840   1.118   0.030  0.2551  1.0241  0.2667
 9186SOL    HW128457   4.805   1.160   0.115  0.6661 -1.8238  1.9691
 9186SOL    HW228458   4.937   1.140   0.020  0.0919  1.7729  0.2573
 9187SOL     OW28459   3.681   2.661   0.196 -0.3653  0.4336 -0.2229
 9187SOL    HW128460   3.747   2.588   0.211 -0.4587  0.9199  3.7592
 9187SOL    HW228461   3.705   2.713   0.114  2.3064 -1.3064 -0.6441
 9188SOL     OW28462   1.689   2.394   1.636 -0.0213 -0.0439  0.5661
 9188SOL    HW128463   1.649   2.482   1.661  0.4605  0.2101  0.4571
 9188SOL    HW228464   1.732   2.353   1.716 -2.2561 -1.2979  1.2147
 9189SOL     OW28465   4.752   0.966   5.404 -0.4340  0.4840 -0.3620
 9189SOL    HW128466   4.799   0.988   5.319 -0.8408 -0.1742 -0.7691
 9189SOL    HW228467   4.749   0.867   5.416 -1.5635  0.5072 -0.2800
 9190SOL     OW28468   4.436   1.471   5.041 -0.1832 -0.0969 -0.0536
 9190SOL    HW128469   4.483   1.448   5.127 -0.9271  1.4532  0.8066
 9190SOL    HW228470   4.362   1.536   5.060  0.5281  1.3789 -2.0366
 9191SOL     OW28471   4.675   0.265   2.310  0.5123  0.0412  0.2404
 9191SOL    HW128472   4.739   0.311   2.249  0.1723 -0.8565 -0.8356
 9191SOL    HW228473   4.724   0.192   2.359  0.4790 -0.1804 -0.0507
 9192SOL     OW28474   5.194   4.999   3.028 -0.2120  0.1458 -0.8463
 9192SOL    HW128475   5.128   5.035   3.094 -0.1161  1.5219 -1.4695
 9192SOL    HW228476   5.175   5.037   2.938  1.4174  0.5566 -1.0431
 9193SOL     OW28477   3.435   3.881   2.936 -0.7019  0.0311  0.6435
 9193SOL    HW128478   3.438   3.783   2.953  0.0045  0.0917  0.8966
 9193SOL    HW228479   3.528   3.918   2.936 -1.0049  0.8416  1.3835
 9194SOL     OW28480   4.378   4.484   1.776  0.1099 -0.0629  0.4955
 9194SOL    HW128481   4.410   4.493   1.681 -2.0582  0.7328 -0.2166
 9194SOL    HW228482   4.409   4.396   1.813 -0.2035 -1.0679 -1.4595
 9195SOL     OW28483   1.888   2.281   3.232 -1.0328 -0.6024 -0.2114
 9195SOL    HW128484   1.840   2.258   3.317  1.7170  0.9226  1.8987
 9195SOL    HW228485   1.886   2.380   3.218 -0.4113 -0.7227 -1.2733
 9196SOL     OW28486   5.658   0.564   5.340  0.5729 -0.2125 -0.2607
 9196SOL    HW128487   5.617   0.571   5.431  0.6239  0.9791 -0.3165
 9196SOL    HW228488   5.746   0.612   5.338 -0.6103  2.1328 -1.5766
 9197SOL     OW28489   4.948   1.152   6.148  0.4927 -0.4748 -0.4871
 9197SOL    HW128490   4.920   1.142   6.244  0.4673 -0.6722 -0.5158
 9197SOL    HW228491   4.995   1.240   6.137 -0.7681  0.2090 -0.5954
 9198SOL     OW28492   4.682   4.833   5.833 -0.1473 -0.1548  0.0133
 9198SOL    HW128493   4.726   4.795   5.914  1.4583  0.5343 -0.4863
 9198SOL    HW228494   4.682   4.765   5.760  0.5311 -0.0204 -0.1214
 9199SOL     OW28495   2.006   2.857   6.106  0.3582  0.0066 -1.1753
 9199SOL    HW128496   1.999   2.758   6.091 -0.2882 -0.0502 -0.5486
 9199SOL    HW228497   2.048   2.874   6.195 -0.8484  0.2630 -0.6276
 9200SOL     OW28498   5.625   1.508   6.257 -0.1782 -0.2954 -0.4916
 9200SOL    HW128499   5.713   1.540   6.290 -0.4773 -0.0194  0.0504
 9200SOL    HW228500   5.573   1.467   6.333 -0.4741 -0.5506 -0.8257
 9201SOL     OW28501   5.796   3.591   2.699 -0.2089  0.0988  0.4163
 9201SOL    HW128502   5.805   3.688   2.723  0.9977 -0.2578  1.5471
 9201SOL    HW228503   5.883   3.557   2.664 -0.6770 -0.5323 -0.1476
 9202SOL     OW28504   0.628   0.271   3.618  0.7609 -0.6871  0.1605
 9202SOL    HW128505   0.719   0.286   3.657  1.9270  0.5977 -2.7066
 9202SOL    HW228506   0.634   0.206   3.543 -0.6413 -0.4307 -0.2077
 9203SOL     OW28507   4.735   1.575   0.631  0.2847  0.7677  0.0211
 9203SOL    HW128508   4.679   1.567   0.713  1.0942  0.3576  0.5499
 9203SOL    HW228509   4.831   1.560   0.655  0.6389  1.5864 -0.8426
 9204SOL     OW28510   4.442   3.165   1.633  0.7553  0.2637 -0.2982
 9204SOL    HW128511   4.480   3.097   1.570  1.2281  0.7330 -0.5227
 9204SOL    HW228512   4.479   3.150   1.725 -0.2533 -0.6862 -0.0132
 9205SOL     OW28513   5.986   2.205   3.012  0.2248 -0.4388 -0.0938
 9205SOL    HW128514   5.924   2.127   3.021  0.4028 -0.4293  1.2979
 9205SOL    HW228515   6.078   2.172   2.991  0.7689 -0.7951  2.5537
 9206SOL     OW28516   0.149   0.257   3.278  0.1057  0.0687 -0.5385
 9206SOL    HW128517   0.187   0.169   3.248 -0.7447 -0.0302 -1.3710
 9206SOL    HW228518   0.175   0.328   3.212  0.1820  0.3125 -0.2491
 9207SOL     OW28519   4.202   6.585   0.322 -0.0956 -0.4577 -0.1232
 9207SOL    HW128520   4.138   6.511   0.342 -0.0471 -0.1887  1.1032
 9207SOL    HW228521   4.249   6.612   0.406  0.9207  0.0119 -0.8260
 9208SOL     OW28522   3.754   3.892   0.765  0.0439  0.7032  0.3923
 9208SOL    HW128523   3.790   3.940   0.684  0.8753  0.2934  0.5045
 9208SOL    HW228524   3.827   3.838   0.806 -1.0343 -1.2684 -0.1612
 9209SOL     OW28525   3.475   1.739   2.213  0.3189  0.4649  0.1460
 9209SOL    HW128526   3.570   1.760   2.237  0.4976  0.9776 -0.9888
 9209SOL    HW228527   3.416   1.760   2.291  1.0462  0.8097  0.6143
 9210SOL     OW28528   0.694   6.271   6.392  0.2198 -0.1366 -0.1028
 9210SOL    HW128529   0.647   6.323   6.321 -1.5143 -0.4791  0.7510
 9210SOL    HW228530   0.632   6.255   6.469  2.1248  0.4183  1.6130
 9211SOL     OW28531   4.734   2.637   5.970  0.1271 -0.2390 -0.0464
 9211SOL    HW128532   4.639   2.638   5.938  0.7780 -1.1168 -2.1300
 9211SOL    HW228533   4.769   2.544   5.968  1.4662  0.2538 -0.6369
 9212SOL     OW28534   5.687   4.479   4.595 -0.6779 -0.5744  0.7679
 9212SOL    HW128535   5.615   4.545   4.613 -0.2909 -0.3201  1.4164
 9212SOL    HW228536   5.685   4.453   4.498 -1.9623 -0.9720  0.8789
 9213SOL     OW28537   4.581   0.580   2.183  0.3859  0.4344  0.3386
 9213SOL    HW128538   4.519   0.502   2.179 -0.9393  1.5203 -1.0820
 9213SOL    HW228539   4.676   0.547   2.182 -0.0563 -1.2698  3.0351
 9214SOL     OW28540   4.596   0.645   5.969  0.3641 -0.0958  0.7125
 9214SOL    HW128541   4.497   0.636   5.959  0.4818 -4.0509  1.4950
 9214SOL    HW228542   4.634   0.687   5.886 -1.8305  0.8400  0.0954
 9215SOL     OW28543   0.412   6.113   4.318  0.0745  0.2593  0.0482
 9215SOL    HW128544   0.389   6.061   4.401  0.0866 -0.7218 -0.5466
 9215SOL    HW228545   0.329   6.153   4.279 -0.3471 -1.4175 -0.8616
 9216SOL     OW28546   2.912   5.826   4.763 -0.0881  0.2039  0.1366
 9216SOL    HW128547   2.970   5.891   4.812  0.8252  0.5318 -1.3344
 9216SOL    HW228548   2.842   5.791   4.825  0.0005  1.8517  1.2151
 9217SOL     OW28549   5.212   2.271   5.661  0.4385  0.0279  0.7322
 9217SOL    HW128550   5.228   2.362   5.698  0.2057 -0.4649  2.1114
 9217SOL    HW228551   5.188   2.278   5.565  2.5076  1.2612  0.2340
 9218SOL     OW28552   6.443   0.146   6.692  0.4393  0.2284 -0.0047
 9218SOL    HW128553   6.492   0.130   6.607  0.4833 -1.4598  0.2905
 9218SOL    HW228554   6.345   0.133   6.677  0.1683  2.2724 -0.2919
 9219SOL     OW28555   2.349   3.095   5.732 -0.0238  0.0705 -0.0021
 9219SOL    HW128556   2.319   3.046   5.815 -0.5584 -1.8210 -1.2402
 9219SOL    HW228557   2.288   3.072   5.656  0.9206  1.1511 -1.1225
 9220SOL     OW28558   2.014   4.980   3.454  0.1891  0.1511 -0.1096
 9220SOL    HW128559   2.086   4.966   3.522  0.3938 -2.7794 -0.7779
 9220SOL    HW228560   2.055   4.986   3.363 -0.3112 -0.7473 -0.4117
 9221SOL     OW28561   2.262   1.513   2.817 -0.1938  0.0233  0.1793
 9221SOL    HW128562   2.215   1.590   2.859  0.0903 -0.5498  1.5871
 9221SOL    HW228563   2.357   1.511   2.847 -0.1340 -0.7422 -0.0251
 9222SOL     OW28564   2.295   4.423   2.952 -0.0840  0.0301 -0.1424
 9222SOL    HW128565   2.246   4.459   2.872 -1.1619 -1.6349 -0.2829
 9222SOL    HW228566   2.388   4.462   2.954  0.3996 -0.7566 -2.8776
 9223SOL     OW28567   0.819   3.609   6.187 -0.6459 -0.5924 -0.6138
 9223SOL    HW128568   0.775   3.683   6.136 -1.8973 -0.8959 -0.0038
 9223SOL    HW228569   0.759   3.529   6.189 -0.4325 -0.7344  0.9581
 9224SOL     OW28570   1.319   4.203   3.106 -0.0684 -0.1602 -0.0903
 9224SOL    HW128571   1.230   4.197   3.059  0.8333 -2.9689 -1.7060
 9224SOL    HW228572   1.305   4.232   3.200 -2.6904 -0.4276 -0.3152
 9225SOL     OW28573   4.078   6.217   4.102 -0.2744  0.6086  0.0465
 9225SOL    HW128574   4.003   6.157   4.075 -0.5443  1.4352 -1.1297
 9225SOL    HW228575   4.156   6.201   4.042  0.1994  0.3410  0.7323
 9226SOL     OW28576   2.225   1.384   6.272 -0.4852  0.3820  0.0533
 9226SOL    HW128577   2.261   1.471   6.303  1.0576  0.5758 -2.0582
 9226SOL    HW228578   2.144   1.399   6.215 -1.6742  0.2138  1.6321
 9227SOL     OW28579   1.848   2.593   1.055 -0.4325 -0.8178 -0.5484
 9227SOL    HW128580   1.840   2.643   1.141  0.1335 -4.1081  1.6113
 9227SOL    HW228581   1.759   2.591   1.009 -1.3086 -0.7517  1.0578
 9228SOL     OW28582   4.014   3.290   5.581  0.5148 -0.3351  0.1627
 9228SOL    HW128583   4.049   3.350   5.509 -0.8985 -1.4802 -1.5751
 9228SOL    HW228584   4.072   3.208   5.587  0.6479 -0.2283  0.3787
 9229SOL     OW28585   0.749   0.295   1.068 -0.4660 -0.0314 -0.6952
 9229SOL    HW128586   0.819   0.228   1.043 -0.4881  0.2992 -1.7004
 9229SOL    HW228587   0.788   0.362   1.130  0.9038  1.6011 -3.1558
 9230SOL     OW28588   4.096   0.516   5.454  0.1847  0.6106 -0.8261
 9230SOL    HW128589   4.177   0.467   5.486 -0.6553 -0.4750 -0.2721
 9230SOL    HW228590   4.102   0.612   5.481  1.3400  0.5865 -0.9241
 9231SOL     OW28591   6.503   5.639   2.254  0.0279 -0.1404  0.0858
 9231SOL    HW128592   6.413   5.678   2.231 -0.7693 -2.4071 -0.8606
 9231SOL    HW228593   6.494   5.541   2.269  2.3123 -0.3446  0.4432
 9232SOL     OW28594   2.032   4.865   2.354  0.0617 -1.0455 -0.1207
 9232SOL    HW128595   2.048   4.788   2.293  1.3586  0.0059 -1.1682
 9232SOL    HW228596   1.941   4.902   2.338 -0.4461 -2.1374  0.1688
 9233SOL     OW28597   1.650   0.634   1.628 -0.4299 -0.3127 -0.5450
 9233SOL    HW128598   1.588   0.568   1.584 -1.5533  0.0375  0.4497
 9233SOL    HW228599   1.674   0.600   1.719 -0.4083  0.3092 -0.3210
 9234SOL     OW28600   2.919   2.923   6.296  0.8106  0.4755 -0.9282
 9234SOL    HW128601   2.967   2.920   6.383 -0.1617  0.2116 -0.3921
 9234SOL    HW228602   2.887   2.832   6.272 -0.5736  0.8446 -0.6057
 9235SOL     OW28603   0.283   2.855   2.518 -0.9010  0.5532 -0.5518
 9235SOL    HW128604   0.211   2.808   2.468 -0.0261 -1.4827  0.0060
 9235SOL    HW228605   0.309   2.801   2.598  0.5566  1.7207 -0.1840
 9236SOL     OW28606   1.241   3.526   5.872 -0.1952 -0.1784 -0.5432
 9236SOL    HW128607   1.257   3.470   5.791 -0.2966 -2.6913  1.0602
 9236SOL    HW228608   1.166   3.486   5.926  0.7750  0.5791  1.4814
 9237SOL     OW28609   5.867   6.197   2.504 -0.0252 -0.4431  0.0992
 9237SOL    HW128610   5.934   6.131   2.470 -0.3220 -1.1236  0.7952
 9237SOL    HW228611   5.911   6.259   2.569  0.7168  1.3168 -1.9424
 9238SOL     OW28612   1.740   2.779   5.185  0.6522  0.1402 -0.7990
 9238SOL    HW128613   1.714   2.784   5.281  0.6012  1.9549 -0.8698
 9238SOL    HW228614   1.832   2.814   5.173  0.7962 -0.4173 -1.3710
 9239SOL     OW28615   1.398   4.501   4.495 -0.7050 -0.0250 -0.7293
 9239SOL    HW128616   1.411   4.600   4.489  3.9988 -0.3005  0.6947
 9239SOL    HW228617   1.444   4.456   4.417 -3.5533 -1.1860 -1.8716
 9240SOL     OW28618   5.012   1.620   3.283  0.1705 -0.3664 -0.3827
 9240SOL    HW128619   5.073   1.687   3.325  0.1455 -0.9017  0.5433
 9240SOL    HW228620   4.989   1.550   3.350 -1.5454 -0.1245 -0.6550
 9241SOL     OW28621   4.777   5.756   5.069 -0.3478 -1.0277  0.0506
 9241SOL    HW128622   4.850   5.765   5.002 -0.2309  1.2149  0.3819
 9241SOL    HW228623   4.693   5.725   5.024 -0.5724  1.4446 -1.4468
 9242SOL     OW28624   2.770   1.283   2.799  0.1393 -0.2232 -0.2771
 9242SOL    HW128625   2.853   1.252   2.752  1.1010 -0.5983  1.5859
 9242SOL    HW228626   2.793   1.352   2.867 -1.0937 -0.2919  0.2465
 9243SOL     OW28627   2.069   6.726   1.076  0.2356  0.2323 -0.2856
 9243SOL    HW128628   2.126   6.795   1.120  2.3407 -0.8627 -1.1003
 9243SOL    HW228629   2.110   6.701   0.988 -2.4173  0.5025 -1.6993
 9244SOL     OW28630   4.104   5.869   6.382  0.0243  0.6328  0.1470
 9244SOL    HW128631   4.074   5.885   6.288  0.1326  2.5413  0.4048
 9244SOL    HW228632   4.025   5.872   6.443  0.0940  0.4891  0.2447
 9245SOL     OW28633   2.844   5.207   2.507 -0.0140 -0.7155 -0.4357
 9245SOL    HW128634   2.848   5.268   2.427 -1.7380  0.9356  0.6452
 9245SOL    HW228635   2.750   5.176   2.520  0.5660 -2.3818 -0.0173
 9246SOL     OW28636   6.226   6.628   0.110 -0.2359  0.2493 -0.2449
 9246SOL    HW128637   6.244   6.533   0.084  0.8653  0.8593 -1.8723
 9246SOL    HW228638   6.134   6.635   0.148 -0.0537 -1.5879  0.6634
 9247SOL     OW28639   3.460   0.603   2.459 -0.0978  0.3099 -0.1171
 9247SOL    HW128640   3.448   0.581   2.362 -1.4366  1.1837 -0.1756
 9247SOL    HW228641   3.557   0.612   2.480  0.2004  3.5043 -2.1922
 9248SOL     OW28642   3.311   5.845   6.650  0.1670  0.6166 -0.6794
 9248SOL    HW128643   3.378   5.831   6.577  0.8316 -1.1229  0.2132
 9248SOL    HW228644   3.352   5.900   6.722  0.7474 -0.6089 -0.0448
 9249SOL     OW28645   4.617   1.782   2.176 -0.0927 -0.2561 -0.2444
 9249SOL    HW128646   4.524   1.802   2.206 -0.1759 -1.2507  0.2282
 9249SOL    HW228647   4.647   1.695   2.217  1.1095  0.1352 -0.2446
 9250SOL     OW28648   3.588   0.417   4.028 -0.5423  0.4441  0.7933
 9250SOL    HW128649   3.557   0.374   3.944 -0.9569 -0.9258  1.6116
 9250SOL    HW228650   3.529   0.496   4.048 -0.7896  0.4436  0.0953
 9251SOL     OW28651   2.814   1.009   2.313 -0.0134  0.0487  0.2519
 9251SOL    HW128652   2.781   1.103   2.309  0.2090  0.1660  1.1154
 9251SOL    HW228653   2.831   0.976   2.220 -2.0307  0.1594 -0.2126
 9252SOL     OW28654   7.015   1.074   4.395  0.0944 -0.5652 -0.6172
 9252SOL    HW128655   6.966   1.045   4.312  2.1079 -0.2066 -2.0200
 9252SOL    HW228656   6.996   1.009   4.469 -2.5429 -0.3472 -1.0186
 9253SOL     OW28657   1.940   6.128   5.606  0.2947 -0.1253  0.6222
 9253SOL    HW128658   2.013   6.196   5.600  1.2228 -0.9369  2.1073
 9253SOL    HW228659   1.866   6.153   5.544  0.4155  2.4650  1.3937
 9254SOL     OW28660   5.692   6.014   2.598  0.1516  0.8948 -0.4487
 9254SOL    HW128661   5.748   5.975   2.671 -2.1235  1.1279  1.5189
 9254SOL    HW228662   5.743   6.087   2.553  1.2035  1.5353  1.6641
 9255SOL     OW28663   5.523   2.564   6.819 -0.3616 -0.0426 -0.0477
 9255SOL    HW128664   5.512   2.663   6.823 -0.7487  0.2376 -3.9459
 9255SOL    HW228665   5.451   2.520   6.873 -0.4083  1.7615  1.4325
 9256SOL     OW28666   3.817   5.860   6.641  0.6522 -0.0593 -0.5951
 9256SOL    HW128667   3.723   5.863   6.608  0.3888  1.9539  0.2123
 9256SOL    HW228668   3.844   5.951   6.674  2.1754 -1.0707  1.1336
 9257SOL     OW28669   0.448   5.531   3.683 -0.1336 -0.1817  0.2371
 9257SOL    HW128670   0.394   5.581   3.614 -0.7578 -1.1340  0.0045
 9257SOL    HW228671   0.539   5.512   3.646 -0.7595 -1.5025 -0.7580
 9258SOL     OW28672   4.752   4.311   1.856  0.1641 -0.2413 -0.1685
 9258SOL    HW128673   4.656   4.283   1.863  0.0741  0.0650 -0.1520
 9258SOL    HW228674   4.804   4.271   1.931 -0.2197  0.6776  0.6288
 9259SOL     OW28675   2.617   3.227   6.299 -0.2972 -0.2945 -0.1222
 9259SOL    HW128676   2.686   3.197   6.364 -0.5724 -1.0278 -0.1666
 9259SOL    HW228677   2.640   3.193   6.208  0.5274  1.4014 -0.5855
 9260SOL     OW28678   6.721   3.577   3.579 -0.2100  0.1870  0.2483
 9260SOL    HW128679   6.807   3.559   3.532 -1.1951  0.7062 -1.8862
 9260SOL    HW228680   6.736   3.645   3.651  1.4274 -0.9044  0.9926
 9261SOL     OW28681   0.210   2.100   1.172 -0.1940  0.1363  0.3834
 9261SOL    HW128682   0.161   2.187   1.162  0.9866  0.8293  0.4584
 9261SOL    HW228683   0.213   2.054   1.083 -0.3995  0.3977  0.2372
 9262SOL     OW28684   6.381   6.218   5.502 -0.3327  0.1330  0.0666
 9262SOL    HW128685   6.401   6.152   5.574  0.1170  1.0450  0.8138
 9262SOL    HW228686   6.308   6.183   5.443 -3.2935  0.7843  3.0365
 9263SOL     OW28687   1.999   4.623   3.579  0.3073 -0.4005 -0.3364
 9263SOL    HW128688   2.017   4.562   3.502  0.2651  1.1990 -1.6850
 9263SOL    HW228689   1.916   4.677   3.560  0.8371  0.7055  0.3667
 9264SOL     OW28690   5.578   4.994   6.534  0.4395 -0.6276  0.1486
 9264SOL    HW128691   5.523   4.913   6.515  0.9956 -0.4595 -2.7083
 9264SOL    HW228692   5.523   5.061   6.584 -1.7256 -0.8301 -1.7810
 9265SOL     OW28693   4.751   1.271   1.072 -0.0422  0.6615 -0.1667
 9265SOL    HW128694   4.770   1.292   1.168 -1.8725 -0.1981  0.4326
 9265SOL    HW228695   4.696   1.345   1.033  0.1008  0.6710 -0.3493
 9266SOL     OW28696   6.997   4.852   0.759 -0.0913 -0.2820 -0.2341
 9266SOL    HW128697   6.942   4.788   0.813  1.6165 -1.0740  0.6511
 9266SOL    HW228698   7.041   4.803   0.684 -0.3983  0.2998 -0.8036
 9267SOL     OW28699   0.790   1.154   5.951 -0.0574 -0.1094  0.0420
 9267SOL    HW128700   0.710   1.139   5.893 -2.3802 -1.8751  3.3518
 9267SOL    HW228701   0.818   1.250   5.945 -0.3221 -0.1231 -3.5779
 9268SOL     OW28702   1.106   5.484   6.853 -0.0582  0.6639 -0.0820
 9268SOL    HW128703   1.203   5.459   6.861 -0.0758  0.3796 -0.6673
 9268SOL    HW228704   1.050   5.402   6.859 -0.2621  0.8237  0.2018
 9269SOL     OW28705   2.715   1.867   5.091  0.2588 -0.2995 -0.1250
 9269SOL    HW128706   2.758   1.880   5.181 -0.3839 -0.9513  0.2835
 9269SOL    HW228707   2.754   1.787   5.047 -1.5197 -1.8286  0.8979
 9270SOL     OW28708   3.943   0.454   5.773  0.1713 -0.1395 -0.0132
 9270SOL    HW128709   4.040   0.446   5.793  0.6773  0.6335 -1.9128
 9270SOL    HW228710   3.920   0.396   5.695 -1.0195 -0.7026  0.7256
 9271SOL     OW28711   2.273   5.081   6.198  0.2074  0.2170 -0.3412
 9271SOL    HW128712   2.275   5.129   6.110  0.8949 -1.5233 -1.3251
 9271SOL    HW228713   2.331   5.128   6.264 -0.9883  2.0321 -0.5264
 9272SOL     OW28714   4.103   5.122   6.918  0.6125  0.0622 -0.3953
 9272SOL    HW128715   4.105   5.111   7.017 -1.1461 -2.6118 -0.5510
 9272SOL    HW228716   4.018   5.169   6.891  0.7434  0.1458 -0.6667
 9273SOL     OW28717   6.062   4.259   4.882  0.5338  0.1551  0.1584
 9273SOL    HW128718   6.147   4.298   4.849  0.1825  0.9120  0.1299
 9273SOL    HW228719   6.040   4.296   4.972  1.1396 -1.3896  0.9749
 9274SOL     OW28720   0.005   2.577   0.876 -0.3894 -0.1403  0.5783
 9274SOL    HW128721   0.036   2.654   0.820 -1.2151 -0.5985 -0.5303
 9274SOL    HW228722  -0.091   2.591   0.900  0.1670  0.5060  2.6908
 9275SOL     OW28723   0.851   0.862   0.406 -0.0697 -0.0610  0.1023
 9275SOL    HW128724   0.865   0.787   0.341 -0.0981 -0.3701  0.4504
 9275SOL    HW228725   0.781   0.836   0.472  0.6405 -0.1307  0.8428
 9276SOL     OW28726   4.635   6.423   0.416  0.4805  0.3080 -0.1577
 9276SOL    HW128727   4.654   6.370   0.334 -0.2167 -1.2168  0.6187
 9276SOL    HW228728   4.560   6.380   0.467 -1.4471  3.1197 -0.4357
 9277SOL     OW28729   4.448   3.430   0.891  0.5384  0.0378 -0.1777
 9277SOL    HW128730   4.443   3.447   0.792  0.0934  0.2558 -0.1168
 9277SOL    HW228731   4.511   3.496   0.932 -0.8697  1.3187 -0.0069
 9278SOL     OW28732   1.328   6.134   0.017 -0.0579 -0.2398  0.0893
 9278SOL    HW128733   1.270   6.169  -0.056  0.3070 -1.4654 -0.8202
 9278SOL    HW228734   1.298   6.042   0.042  2.4514 -1.6072 -1.5660
 9279SOL     OW28735   1.992   5.995   1.104  0.6490 -0.3444 -0.7053
 9279SOL    HW128736   1.903   5.950   1.105  0.5161 -0.0967  0.7067
 9279SOL    HW228737   1.980   6.092   1.126  1.0238  0.2337 -2.8713
 9280SOL     OW28738   2.395   5.044   3.418 -0.3031  0.0620  0.0234
 9280SOL    HW128739   2.328   5.074   3.351  0.4732  1.0988 -0.3053
 9280SOL    HW228740   2.355   5.046   3.510 -1.2307 -0.9472 -0.3361
 9281SOL     OW28741   3.287   6.919   0.463 -0.4573 -0.3545 -0.5225
 9281SOL    HW128742   3.273   7.013   0.434 -2.3061 -1.2663 -2.8982
 9281SOL    HW228743   3.202   6.882   0.501 -0.0859 -1.3800 -0.6359
 9282SOL     OW28744   2.355   6.995   4.172  0.2083  0.5847 -0.6032
 9282SOL    HW128745   2.434   6.950   4.130 -0.3579  1.2084 -2.4825
 9282SOL    HW228746   2.341   7.085   4.129 -2.3972 -0.1234 -1.4497
 9283SOL     OW28747   5.170   1.478   6.985  0.3525  0.6329  0.0951
 9283SOL    HW128748   5.114   1.560   6.996  1.1702  1.0534  1.3060
 9283SOL    HW228749   5.144   1.431   6.901 -0.5613  1.7911 -0.2935
 9284SOL     OW28750   2.205   5.586   5.647 -0.1912  0.2605  0.4101
 9284SOL    HW128751   2.302   5.580   5.625 -0.5928 -0.3900 -1.3612
 9284SOL    HW228752   2.187   5.673   5.694  0.9561  1.3464 -1.0308
 9285SOL     OW28753   0.326   5.946   3.703  0.4856  0.0111 -0.3524
 9285SOL    HW128754   0.249   5.891   3.672 -0.7361  1.1151  0.5733
 9285SOL    HW228755   0.409   5.917   3.656 -0.0534 -2.6571  0.1494
 9286SOL     OW28756   3.292   1.294   2.864 -0.1404  0.2924  0.3175
 9286SOL    HW128757   3.262   1.381   2.903 -0.1563  0.4843 -0.1273
 9286SOL    HW228758   3.348   1.310   2.783  0.3520 -0.0942  0.5700
 9287SOL     OW28759   3.844   3.610   0.149  0.2506  0.2069  0.0209
 9287SOL    HW128760   3.882   3.615   0.242  0.1208  0.9869  0.0362
 9287SOL    HW228761   3.791   3.526   0.140  0.3703  0.0566  0.6132
 9288SOL     OW28762   3.719   2.366   1.459 -0.3342  0.8413  0.3458
 9288SOL    HW128763   3.696   2.452   1.414  1.8247  0.3114 -2.0267
 9288SOL    HW228764   3.645   2.340   1.521 -1.9610  3.3387 -0.3833
 9289SOL     OW28765   3.446   0.669   0.999  0.6639 -0.0799 -0.4249
 9289SOL    HW128766   3.541   0.642   1.015 -0.1619 -1.8402  2.1265
 9289SOL    HW228767   3.431   0.760   1.036  1.1959 -0.0779 -0.1969
 9290SOL     OW28768   6.443   0.907   2.703  0.0189 -0.6171 -0.8262
 9290SOL    HW128769   6.467   0.819   2.662 -0.0935 -1.1720  0.2712
 9290SOL    HW228770   6.401   0.892   2.792  1.1927  0.5880 -0.0317
 9291SOL     OW28771   6.852   5.475   5.835  0.0757  0.2802 -0.3313
 9291SOL    HW128772   6.898   5.400   5.882 -0.9467  0.5978  1.2800
 9291SOL    HW228773   6.917   5.522   5.776  0.9019 -1.4335 -0.8512
 9292SOL     OW28774   0.585   1.520   0.501  0.4997  0.1054  0.0330
 9292SOL    HW128775   0.617   1.546   0.592  0.0316  0.2266  0.1664
 9292SOL    HW228776   0.523   1.590   0.466 -0.1055 -0.4172  0.0419
 9293SOL     OW28777   4.871   2.229   6.613 -0.0893 -0.1575 -0.0277
 9293SOL    HW128778   4.911   2.240   6.522  2.3876  2.7057  1.1963
 9293SOL    HW228779   4.775   2.257   6.611  0.3932  1.5916 -1.4856
 9294SOL     OW28780   5.029   6.096   5.077 -0.2863 -0.8234 -0.1450
 9294SOL    HW128781   4.975   6.177   5.052  0.1654 -0.7959 -1.0778
 9294SOL    HW228782   5.105   6.124   5.136  1.0572 -0.2132 -2.0713
 9295SOL     OW28783   0.305   1.665   3.411  0.7291  0.0856 -1.2410
 9295SOL    HW128784   0.235   1.676   3.341  0.6085 -0.0619 -1.1432
 9295SOL    HW228785   0.267   1.619   3.491  1.2369 -1.0649 -1.6460
 9296SOL     OW28786   2.618   5.065   4.331 -0.1368  0.2874  0.3006
 9296SOL    HW128787   2.647   4.974   4.361 -0.9968 -0.3525 -0.7257
 9296SOL    HW228788   2.532   5.057   4.281  0.4425  1.5003 -0.9467
 9297SOL     OW28789   4.953   5.319   1.378 -0.6388  0.3958  0.2070
 9297SOL    HW128790   5.021   5.248   1.360  0.0356  1.8048 -3.5761
 9297SOL    HW228791   4.868   5.276   1.408  0.1063 -1.9167 -0.7493
 9298SOL     OW28792   0.873   2.421   6.801  0.3877 -0.1574 -0.3842
 9298SOL    HW128793   0.926   2.498   6.766  2.7033 -1.5896 -0.2814
 9298SOL    HW228794   0.848   2.360   6.726  0.5728 -0.4486 -0.2149
 9299SOL     OW28795   4.082   2.627   5.721  0.0976 -0.0006  0.3679
 9299SOL    HW128796   4.082   2.559   5.793  0.0707  0.3709  0.7222
 9299SOL    HW228797   4.175   2.647   5.692  0.0506 -1.0718 -0.5880
 9300SOL     OW28798   2.580   5.638   4.001  0.2313 -0.2202  0.1559
 9300SOL    HW128799   2.651   5.579   4.040  1.2021  1.0590  0.3927
 9300SOL    HW228800   2.533   5.686   4.076  1.3564  1.4029 -0.1093
 9301SOL     OW28801   5.608   5.281   5.373 -0.1431  0.0906 -0.1749
 9301SOL    HW128802   5.686   5.259   5.433 -0.6203 -0.6453  0.1873
 9301SOL    HW228803   5.530   5.223   5.397 -0.5733  0.3008 -1.0325
 9302SOL     OW28804   1.180   5.255   5.872  0.4770  0.8833  0.9848
 9302SOL    HW128805   1.218   5.220   5.786 -0.8651 -0.8059  1.0238
 9302SOL    HW228806   1.191   5.354   5.876 -0.5845  1.1911 -1.7325
 9303SOL     OW28807   2.492   4.613   6.336 -0.1755 -0.2619 -0.0060
 9303SOL    HW128808   2.516   4.692   6.392 -0.2078 -0.4313  0.2469
 9303SOL    HW228809   2.572   4.585   6.282 -0.1623 -0.0621 -0.0911
 9304SOL     OW28810   4.802   5.341   6.741 -0.4676  0.2230  0.4592
 9304SOL    HW128811   4.894   5.374   6.719 -0.6410  0.1070 -0.4803
 9304SOL    HW228812   4.735   5.401   6.698 -0.7968 -1.4670 -1.5442
 9305SOL     OW28813   2.555   0.038   1.460 -0.1599 -0.3982 -0.5538
 9305SOL    HW128814   2.614   0.115   1.435 -0.2492 -0.2430 -0.2839
 9305SOL    HW228815   2.555  -0.028   1.385  1.1364 -0.8683 -0.1690
 9306SOL     OW28816   1.996   6.704   4.841  0.2791  0.1443  0.5791
 9306SOL    HW128817   2.079   6.759   4.829 -0.0490  0.6378  0.5450
 9306SOL    HW228818   2.001   6.622   4.784  0.2938  0.6843 -0.1974
 9307SOL     OW28819   1.666   2.765   1.990  0.1489 -0.2699 -0.0556
 9307SOL    HW128820   1.625   2.853   2.013 -1.2064 -1.0745  0.7520
 9307SOL    HW228821   1.711   2.771   1.901  0.6918  1.4111  0.2949
 9308SOL     OW28822   1.791   3.705   2.851 -0.5656 -0.0326  0.2618
 9308SOL    HW128823   1.825   3.798   2.840  1.4459 -0.7719 -0.0735
 9308SOL    HW228824   1.758   3.670   2.763  1.9223 -0.8052 -0.4388
 9309SOL     OW28825   6.506   5.729   6.648  0.2572 -0.1547  0.2757
 9309SOL    HW128826   6.468   5.817   6.675  0.8620 -0.0690  0.8525
 9309SOL    HW228827   6.503   5.721   6.548 -0.1137  0.3691  0.2410
 9310SOL     OW28828   6.383   4.797   6.933 -0.3626 -0.2257 -0.3285
 9310SOL    HW128829   6.323   4.833   7.005  0.2037 -0.1368  0.1036
 9310SOL    HW228830   6.363   4.700   6.919 -0.1377 -0.3679  0.3024
 9311SOL     OW28831   4.604   5.327   0.888  0.3539  0.1505  0.0203
 9311SOL    HW128832   4.552   5.339   0.973  0.6110 -1.7645  0.4931
 9311SOL    HW228833   4.585   5.403   0.826 -1.6311  0.4088  0.8758
 9312SOL     OW28834   7.004   2.104   3.818  0.3658 -0.0945 -0.1258
 9312SOL    HW128835   6.990   2.015   3.860  0.8878  0.4604  1.2770
 9312SOL    HW228836   6.967   2.103   3.725 -0.4084 -1.4962  0.1686
 9313SOL     OW28837   1.320   1.663   2.561  0.3871 -0.1339 -0.5755
 9313SOL    HW128838   1.221   1.657   2.573  0.4256  0.9942  0.3820
 9313SOL    HW228839   1.343   1.751   2.519  1.0013 -0.3565 -0.7151
 9314SOL     OW28840   5.327   2.924   1.330  0.2715 -0.0592 -0.0724
 9314SOL    HW128841   5.283   2.840   1.361 -1.1890 -0.0386 -1.9176
 9314SOL    HW228842   5.283   3.003   1.374  0.2266 -0.1605  0.0652
 9315SOL     OW28843   6.520   0.747   0.257  1.1006  0.7905  0.3387
 9315SOL    HW128844   6.431   0.738   0.302  0.7417  0.6864 -0.3753
 9315SOL    HW228845   6.567   0.658   0.258  0.4015  0.3830 -0.8835
 9316SOL     OW28846   4.688   1.260   0.236 -0.4907 -0.0270  0.3043
 9316SOL    HW128847   4.666   1.178   0.288  0.1251 -0.1085  0.4415
 9316SOL    HW228848   4.617   1.329   0.250 -0.1896  0.0604  1.4834
 9317SOL     OW28849   3.146   6.406   3.636 -0.4828 -0.4566 -0.3393
 9317SOL    HW128850   3.046   6.410   3.643 -0.6005 -2.4258 -0.3063
 9317SOL    HW228851   3.175   6.454   3.553 -1.3558  0.9644  0.1501
 9318SOL     OW28852   4.092   5.898   6.899  0.3492 -0.0903  0.3154
 9318SOL    HW128853   4.107   5.832   6.825  2.5349 -0.6751  1.2030
 9318SOL    HW228854   3.995   5.899   6.924  0.0176 -1.7930 -0.7691
 9319SOL     OW28855   2.862   6.177   6.621  0.1821  0.2151  0.4165
 9319SOL    HW128856   2.823   6.112   6.686  0.2332 -0.6293 -0.3774
 9319SOL    HW228857   2.958   6.155   6.604  0.0370  0.1219 -0.3191
 9320SOL     OW28858   5.720   5.275   6.251  0.1486  0.5851  0.5547
 9320SOL    HW128859   5.626   5.271   6.217  0.0513 -2.0667  0.9772
 9320SOL    HW228860   5.718   5.296   6.349 -0.0245  0.1255  0.6513
 9321SOL     OW28861   1.756   1.812   4.753 -0.3369 -0.4846 -0.2142
 9321SOL    HW128862   1.735   1.860   4.668 -1.7750 -0.8071 -0.0575
 9321SOL    HW228863   1.810   1.871   4.812 -2.1099  1.0047  0.0060
 9322SOL     OW28864   4.527   2.056   0.777  0.3301 -0.1324  0.5577
 9322SOL    HW128865   4.489   2.143   0.745 -1.7006 -0.5816  1.5560
 9322SOL    HW228866   4.581   2.072   0.860 -0.7809  0.0942  1.2545
 9323SOL     OW28867   0.077   2.943   6.929  0.1103 -0.1649 -0.1799
 9323SOL    HW128868   0.058   3.041   6.930 -0.1591 -0.1947 -1.3913
 9323SOL    HW228869   0.086   2.911   6.834  1.5428 -1.0541  0.2162
 9324SOL     OW28870   6.899   4.479   2.900 -0.1822  0.2553 -0.4721
 9324SOL    HW128871   6.952   4.403   2.863  0.2841  1.2656 -1.9656
 9324SOL    HW228872   6.815   4.444   2.941  0.7154 -1.1823  0.2003
 9325SOL     OW28873   0.378   4.802   3.117  0.0057 -0.0687  0.5735
 9325SOL    HW128874   0.474   4.813   3.091 -0.3925 -0.4886 -1.1525
 9325SOL    HW228875   0.337   4.727   3.065 -0.8840 -0.9110  2.3910
 9326SOL     OW28876   3.085   4.082   0.542 -0.2750  0.3373  0.2896
 9326SOL    HW128877   3.129   4.161   0.584 -0.3902  0.0363  0.9911
 9326SOL    HW228878   3.145   4.044   0.471  0.2343  0.4329  0.6628
 9327SOL     OW28879   2.730   1.707   4.176  0.2998  0.2546 -0.2165
 9327SOL    HW128880   2.766   1.796   4.149 -0.3913  0.8895  0.8605
 9327SOL    HW228881   2.632   1.703   4.157  0.1798  0.0162  0.4289
 9328SOL     OW28882   0.836   5.562   2.852  0.4970  0.1797  0.2151
 9328SOL    HW128883   0.879   5.619   2.781  1.2356 -2.0191 -1.2158
 9328SOL    HW228884   0.737   5.561   2.837  0.5349  0.6182 -0.1069
 9329SOL     OW28885   3.873   4.866   1.764  0.0916 -0.0833  0.2824
 9329SOL    HW128886   3.783   4.874   1.807 -0.0989 -0.3774 -0.0670
 9329SOL    HW228887   3.897   4.770   1.755 -0.1371 -0.0460 -0.8380
 9330SOL     OW28888   0.026   5.563   5.688 -0.2618  0.7499  0.1836
 9330SOL    HW128889   0.067   5.491   5.632  0.8353  0.1258  1.7272
 9330SOL    HW228890   0.089   5.641   5.691 -0.2642  0.7341  0.6350
 9331SOL     OW28891   0.305   4.089   3.789  0.3829  0.2560  0.0363
 9331SOL    HW128892   0.242   4.146   3.843  0.2572  0.6016 -0.4646
 9331SOL    HW228893   0.320   4.002   3.836 -1.2074 -0.2126 -0.2950
 9332SOL     OW28894   6.420   6.148   0.749 -0.0796  0.0158  0.4958
 9332SOL    HW128895   6.491   6.150   0.819 -0.7517  2.2916  1.1735
 9332SOL    HW228896   6.333   6.121   0.789 -0.3248  0.6535  0.3961
 9333SOL     OW28897   2.653   2.928   0.586 -0.7640  0.1168 -0.2663
 9333SOL    HW128898   2.742   2.883   0.600 -1.3704 -1.2185 -0.6008
 9333SOL    HW228899   2.586   2.890   0.650 -1.7402 -0.8036 -1.7789
 9334SOL     OW28900   5.375   4.128   5.874  0.4422 -0.2017  0.4391
 9334SOL    HW128901   5.398   4.046   5.927  1.1388 -0.0378  0.3979
 9334SOL    HW228902   5.323   4.102   5.793  0.2086 -0.5476  0.6959
 9335SOL     OW28903   2.172   4.074   3.297  0.3508  0.1027  0.2304
 9335SOL    HW128904   2.208   4.072   3.390 -0.2417 -1.7257  0.4512
 9335SOL    HW228905   2.221   4.143   3.244  1.1536  0.7070  1.7010
 9336SOL     OW28906   5.113   0.092   5.816  0.2234 -0.1199  0.8825
 9336SOL    HW128907   5.160   0.029   5.878 -0.3282 -0.8778  0.5399
 9336SOL    HW228908   5.016   0.069   5.811 -0.3212  1.7398  1.9647
 9337SOL     OW28909   1.359   1.752   5.578  0.8507  0.0117  0.1060
 9337SOL    HW128910   1.457   1.765   5.595  1.1669 -0.7678 -1.0368
 9337SOL    HW228911   1.339   1.654   5.569  0.6172  0.2589 -3.1485
 9338SOL     OW28912   5.896   6.566   0.244  0.2226  0.1934 -0.5052
 9338SOL    HW128913   5.938   6.539   0.331 -0.8759 -2.3975 -0.7065
 9338SOL    HW228914   5.810   6.613   0.262  0.3325  0.2774 -0.1922
 9339SOL     OW28915   0.083   5.129   3.897  0.0651  0.1681 -0.2751
 9339SOL    HW128916   0.153   5.079   3.847  0.4678  1.0285 -0.5932
 9339SOL    HW228917   0.121   5.215   3.932 -0.2967 -0.2546  1.2424
 9340SOL     OW28918   3.346   4.618   1.701  0.2549 -0.2157  0.5026
 9340SOL    HW128919   3.425   4.642   1.758 -0.6507  1.5332  1.0724
 9340SOL    HW228920   3.364   4.646   1.607  0.2566  0.2842  0.6525
 9341SOL     OW28921   5.603   6.768   0.579  0.0005 -0.7906 -0.4439
 9341SOL    HW128922   5.697   6.755   0.549 -0.0097 -0.5209 -0.5951
 9341SOL    HW228923   5.601   6.796   0.675  0.1145 -0.0439 -0.6520
 9342SOL     OW28924   2.927   7.003   3.368  0.3177 -0.1582  0.3742
 9342SOL    HW128925   2.974   7.077   3.416 -2.0913  0.8253  1.4211
 9342SOL    HW228926   2.922   7.025   3.271  2.1406 -0.4027  0.1993
 9343SOL     OW28927   3.761   2.845   0.971 -0.5652 -0.0309 -0.1792
 9343SOL    HW128928   3.668   2.882   0.967 -0.8908 -0.7226  0.7275
 9343SOL    HW228929   3.811   2.888   1.046 -0.5518 -0.5357  0.1037
 9344SOL     OW28930   5.398   1.464   4.865  0.2995  0.3825  0.1674
 9344SOL    HW128931   5.362   1.391   4.807  1.8122 -1.6665  1.6621
 9344SOL    HW228932   5.331   1.487   4.935 -0.4461  0.9303 -0.7083
 9345SOL     OW28933   1.001   4.273   0.736  0.3237  0.0858 -0.0868
 9345SOL    HW128934   1.084   4.227   0.705 -0.0065 -0.2632 -0.4620
 9345SOL    HW228935   0.933   4.205   0.763 -0.2467  0.3392 -0.8570
 9346SOL     OW28936   5.974   5.828   2.278  0.0585 -0.1795  0.2127
 9346SOL    HW128937   5.918   5.813   2.197  1.1318 -1.9741 -0.2551
 9346SOL    HW228938   5.942   5.769   2.352  0.4105 -0.1214  0.4122
 9347SOL     OW28939   4.044   6.877   0.544  0.5730 -0.0142 -0.8289
 9347SOL    HW128940   4.133   6.914   0.517 -0.6068  1.5869 -2.8475
 9347SOL    HW228941   3.971   6.938   0.512 -1.2439 -0.3189  2.3404
 9348SOL     OW28942   1.620   4.580   1.323  0.3855  0.7308 -0.1555
 9348SOL    HW128943   1.621   4.588   1.423 -0.7715  0.8894 -0.1462
 9348SOL    HW228944   1.709   4.548   1.291  0.9601  1.2717  0.8773
 9349SOL     OW28945   5.599   4.999   4.632  0.5842 -0.1868 -0.3877
 9349SOL    HW128946   5.514   4.982   4.682  0.3470 -0.4330 -0.8615
 9349SOL    HW228947   5.603   4.939   4.552  0.3605  1.0731 -1.3752
 9350SOL     OW28948   4.856   1.963   1.221 -0.3178 -0.0576 -0.0797
 9350SOL    HW128949   4.779   1.954   1.284  1.1507 -0.1603  1.7796
 9350SOL    HW228950   4.903   2.050   1.239 -0.1061  0.0944 -1.3216
 9351SOL     OW28951   4.842   3.494   6.740 -0.4290  0.0862  0.5698
 9351SOL    HW128952   4.762   3.491   6.800 -0.1545  1.5421  1.0461
 9351SOL    HW228953   4.888   3.582   6.750 -1.2488  1.0903 -2.9260
 9352SOL     OW28954   2.357   3.913   6.996 -0.1959 -0.3115 -0.2542
 9352SOL    HW128955   2.311   3.826   7.015 -3.4549  1.3163  0.0608
 9352SOL    HW228956   2.288   3.982   6.970  2.1575  2.3401  0.0876
 9353SOL     OW28957   5.749   4.143   0.707  0.4958 -0.0582 -0.4903
 9353SOL    HW128958   5.768   4.088   0.789  2.6206  1.3434  0.0677
 9353SOL    HW228959   5.673   4.103   0.656 -1.5418 -0.4854  2.6286
 9354SOL     OW28960   6.002   0.898   2.605 -0.0503 -0.1612 -0.1708
 9354SOL    HW128961   6.001   0.799   2.614 -2.8772 -0.0145  4.7857
 9354SOL    HW228962   5.931   0.927   2.542 -1.3132 -1.3142  0.6663
 9355SOL     OW28963   0.191   6.592   1.715  0.2447  0.5418 -0.3758
 9355SOL    HW128964   0.249   6.631   1.787  0.3469 -1.3669  0.6309
 9355SOL    HW228965   0.240   6.596   1.627  1.4871 -0.0763  0.2653
 9356SOL     OW28966   5.587   4.633   3.001  0.0961  0.0540 -0.2735
 9356SOL    HW128967   5.500   4.681   3.002  0.6544  1.0999  0.1907
 9356SOL    HW228968   5.629   4.641   2.910  0.2596  0.6263 -0.1585
 9357SOL     OW28969   4.437   1.954   6.528 -0.8131  0.5037  0.7557
 9357SOL    HW128970   4.496   1.876   6.548  1.4138  1.0532 -2.7308
 9357SOL    HW228971   4.384   1.935   6.445 -0.8532  2.3493  0.3115
 9358SOL     OW28972   5.741   4.615   1.025 -0.7350 -0.1460 -0.1149
 9358SOL    HW128973   5.651   4.606   0.981 -0.7228  2.3573 -0.8215
 9358SOL    HW228974   5.742   4.562   1.110 -1.8969 -2.4265 -1.4284
 9359SOL     OW28975   4.160   4.327   5.614 -0.2966  0.2310 -0.5746
 9359SOL    HW128976   4.162   4.268   5.694  1.2092 -1.8513 -2.0448
 9359SOL    HW228977   4.232   4.396   5.621 -0.5093  0.3942  0.0599
 9360SOL     OW28978   2.211   0.916   5.400 -0.1914  0.2409 -0.1395
 9360SOL    HW128979   2.274   0.992   5.411 -0.0738  0.5390 -2.3150
 9360SOL    HW228980   2.259   0.840   5.356 -0.3790 -1.0241  1.7466
 9361SOL     OW28981   1.781   6.809   1.019 -0.4026 -0.1250 -0.1001
 9361SOL    HW128982   1.867   6.759   1.025 -0.7475 -0.9479 -1.4651
 9361SOL    HW228983   1.799   6.902   0.985  0.0374  0.0591  0.6084
 9362SOL     OW28984   0.615   2.334   3.813  0.4905  0.2719 -0.4241
 9362SOL    HW128985   0.711   2.317   3.790  0.1072 -2.8630 -0.1091
 9362SOL    HW228986   0.584   2.266   3.879 -1.8444  1.5565 -0.0816
 9363SOL     OW28987   2.718   1.674   0.657  0.0252 -0.2665  0.4104
 9363SOL    HW128988   2.728   1.648   0.562 -1.2142  2.6262 -0.6406
 9363SOL    HW228989   2.641   1.625   0.698  0.6057 -1.5735 -0.0435
 9364SOL     OW28990   6.842   6.948   0.509 -0.1650  0.2848 -0.7939
 9364SOL    HW128991   6.824   7.025   0.570  0.1677  0.8794 -1.4464
 9364SOL    HW228992   6.890   6.876   0.560 -0.9100  0.2892 -0.0546
 9365SOL     OW28993   2.430   0.431   4.487  0.1545 -0.2826  0.2881
 9365SOL    HW128994   2.439   0.360   4.417 -0.3950 -1.3021  1.2212
 9365SOL    HW228995   2.333   0.449   4.503  0.2722 -0.1806  0.8972
 9366SOL     OW28996   2.526   0.017   3.160 -0.1662  0.0700 -0.3576
 9366SOL    HW128997   2.554  -0.001   3.254  1.4597  1.5292 -0.5078
 9366SOL    HW228998   2.465   0.097   3.158  0.0627  0.2410 -0.5629
 9367SOL     OW28999   6.413   6.443   3.281  0.5363  0.2996  0.4142
 9367SOL    HW129000   6.509   6.445   3.310  0.5475 -1.7508  0.6544
 9367SOL    HW229001   6.408   6.464   3.183  1.2418  0.2743  0.3642
 9368SOL     OW29002   3.568   3.575   1.206 -0.3870  0.3266 -0.1866
 9368SOL    HW129003   3.616   3.659   1.232 -0.1494 -0.1676  1.0075
 9368SOL    HW229004   3.505   3.548   1.278 -2.5728  0.9782 -1.7426
 9369SOL     OW29005   5.128   2.828   6.188  0.1228 -0.0664 -0.6617
 9369SOL    HW129006   5.031   2.842   6.208  0.1176  0.2064 -0.8646
 9369SOL    HW229007   5.171   2.775   6.262 -0.4393 -1.2215 -1.1403
 9370SOL     OW29008   4.692   5.975   3.118  0.4206 -0.3549  0.2258
 9370SOL    HW129009   4.641   5.892   3.140  1.7235 -1.2027  0.1737
 9370SOL    HW229010   4.773   5.981   3.176 -0.0101  1.2728  0.7141
 9371SOL     OW29011   1.322   6.385   6.209 -0.0327 -0.6022 -0.5317
 9371SOL    HW129012   1.387   6.462   6.217 -0.3903 -0.3706  0.2547
 9371SOL    HW229013   1.350   6.326   6.134  2.4620 -1.7821  1.1723
 9372SOL     OW29014   0.245   5.696   5.922  0.0589 -0.0370 -0.0791
 9372SOL    HW129015   0.240   5.597   5.907  1.0531 -0.2913  1.0494
 9372SOL    HW229016   0.165   5.726   5.974 -0.4435 -0.1711 -0.7653
 9373SOL     OW29017   5.012   1.142   3.419  0.4214  0.1607  0.0335
 9373SOL    HW129018   5.025   1.173   3.513 -0.2658 -0.4474  0.3328
 9373SOL    HW229019   5.065   1.058   3.403  0.0429 -0.0859  0.0664
 9374SOL     OW29020   4.618   4.508   6.936  0.2850 -0.0443  0.0635
 9374SOL    HW129021   4.708   4.463   6.940  0.6578  0.5700 -1.0093
 9374SOL    HW229022   4.624   4.589   6.878 -0.6159  0.8389  1.1499
 9375SOL     OW29023   0.443   4.816   4.600  0.1700  0.4175 -0.5694
 9375SOL    HW129024   0.480   4.873   4.673 -0.7475 -1.5103  1.5453
 9375SOL    HW229025   0.457   4.719   4.623 -1.2767 -0.2680 -2.3394
 9376SOL     OW29026   0.475   2.844   3.662 -0.3355 -0.2066 -0.3636
 9376SOL    HW129027   0.417   2.844   3.743 -3.1837  1.1118 -2.2685
 9376SOL    HW229028   0.457   2.925   3.608  3.8703  0.6513 -0.8198
 9377SOL     OW29029   0.192   5.346   3.342  0.4418 -0.1290 -0.8266
 9377SOL    HW129030   0.283   5.306   3.330  0.7502  0.6985 -1.3226
 9377SOL    HW229031   0.123   5.274   3.333  1.0599 -0.8737  0.1561
 9378SOL     OW29032   2.222   4.583   2.752  0.4580  0.4305 -0.0405
 9378SOL    HW129033   2.162   4.635   2.692  0.8989  0.2808 -0.6290
 9378SOL    HW229034   2.289   4.533   2.697 -0.2235 -1.1228  0.4640
 9379SOL     OW29035   5.289   4.555   5.303 -0.2483 -0.1476  1.0866
 9379SOL    HW129036   5.346   4.485   5.344  1.4290  1.3436  1.4190
 9379SOL    HW229037   5.292   4.546   5.203 -2.6421 -2.4694  1.1361
 9380SOL     OW29038   6.337   3.673   0.461 -0.4878  0.5445  0.2361
 9380SOL    HW129039   6.239   3.692   0.459 -1.0439 -2.0276 -0.9194
 9380SOL    HW229040   6.363   3.636   0.550 -1.1649 -1.2927 -0.2885
 9381SOL     OW29041   2.866   0.120   0.215 -0.0648  0.1197 -0.3867
 9381SOL    HW129042   2.777   0.081   0.189 -0.3582 -0.1731  0.9695
 9381SOL    HW229043   2.892   0.190   0.149 -0.4826 -0.9793 -1.7684
 9382SOL     OW29044   4.475   2.110   2.504  0.0023 -0.8231  0.2021
 9382SOL    HW129045   4.440   2.188   2.556 -2.8377 -0.1793 -2.3988
 9382SOL    HW229046   4.552   2.140   2.446  0.0589 -0.3988  0.4955
 9383SOL     OW29047   5.479   5.613   6.822 -0.1685  1.0683 -0.1847
 9383SOL    HW129048   5.502   5.530   6.872  0.0847  1.1004 -0.2458
 9383SOL    HW229049   5.495   5.693   6.880 -1.3148  1.0338  0.2053
 9384SOL     OW29050   4.277   1.963   2.404 -0.1445  0.0607  0.2801
 9384SOL    HW129051   4.249   1.965   2.500 -1.2613 -0.2718 -0.0211
 9384SOL    HW229052   4.358   2.020   2.391 -2.1119  3.2091  0.7690
 9385SOL     OW29053   4.230   0.937   4.660  0.1769  0.0988 -0.2691
 9385SOL    HW129054   4.266   1.030   4.652  0.1511  0.0041 -1.7659
 9385SOL    HW229055   4.138   0.940   4.699  1.1630  0.4514  2.2863
 9386SOL     OW29056   2.441   6.563   3.254 -0.4496  0.4136 -0.0459
 9386SOL    HW129057   2.421   6.646   3.201 -0.1478 -0.4916 -1.6338
 9386SOL    HW229058   2.359   6.507   3.261 -0.5000  0.5439  0.5209
 9387SOL     OW29059   3.804   6.468   5.974 -0.0215 -0.0243  0.4236
 9387SOL    HW129060   3.880   6.512   5.926  0.6126 -0.9052  0.5976
 9387SOL    HW229061   3.820   6.369   5.978 -1.0267 -0.1829  0.7422
 9388SOL     OW29062   0.251   6.181   3.614  0.0288  0.0351 -0.0881
 9388SOL    HW129063   0.312   6.236   3.557  0.4446  1.3483  1.5328
 9388SOL    HW229064   0.301   6.102   3.649  0.9248  1.2076  1.3892
 9389SOL     OW29065   2.367   2.337   0.590 -0.1946 -0.7570  0.0885
 9389SOL    HW129066   2.366   2.436   0.608 -1.6604 -0.7818  0.2824
 9389SOL    HW229067   2.278   2.309   0.553  0.3932 -1.9232 -0.5118
 9390SOL     OW29068   3.130   0.543   1.320  0.4051  0.0121  0.3088
 9390SOL    HW129069   3.189   0.554   1.239 -0.7072 -2.9038 -1.0522
 9390SOL    HW229070   3.187   0.531   1.401  1.6132  0.2167 -0.4767
 9391SOL     OW29071   2.416   1.603   6.286 -0.7254 -0.4861  0.5716
 9391SOL    HW129072   2.464   1.601   6.198 -1.2988  0.3187  0.2311
 9391SOL    HW229073   2.474   1.560   6.356 -0.1299 -0.8487 -0.1254
 9392SOL     OW29074   1.200   0.011   5.190  0.0257  0.1121  0.0557
 9392SOL    HW129075   1.118  -0.027   5.147 -0.4062  1.6536 -0.5572
 9392SOL    HW229076   1.240   0.081   5.130  0.9248  0.4436  1.0093
 9393SOL     OW29077   5.646   2.764   5.791 -0.1859  0.0373 -0.2251
 9393SOL    HW129078   5.661   2.785   5.888  0.3201  0.0133 -0.2974
 9393SOL    HW229079   5.581   2.689   5.783  0.4942 -0.6011  0.1289
 9394SOL     OW29080   5.277   3.436   3.135  0.1775  0.7545  0.5208
 9394SOL    HW129081   5.186   3.413   3.099  0.8882  0.7178 -1.3373
 9394SOL    HW229082   5.331   3.352   3.145  0.6567  0.9635 -0.2542
 9395SOL     OW29083   2.596   2.159   6.555  0.5275 -0.3212  0.2122
 9395SOL    HW129084   2.629   2.069   6.527 -1.8814 -1.0625 -0.5293
 9395SOL    HW229085   2.639   2.230   6.499  0.5391 -1.2570 -1.0093
 9396SOL     OW29086   6.092   1.853   1.676  0.3487  0.0022  0.3818
 9396SOL    HW129087   6.088   1.938   1.729  0.5775 -1.1144  2.2700
 9396SOL    HW229088   6.010   1.847   1.618 -0.5475  0.7065  1.5116
 9397SOL     OW29089   2.197   0.367   0.855  0.4967  0.2414 -0.2484
 9397SOL    HW129090   2.210   0.297   0.784  0.6279  1.5840 -1.5992
 9397SOL    HW229091   2.131   0.334   0.922 -1.2253 -0.3043 -2.1149
 9398SOL     OW29092   3.700   2.399   6.259  0.0785  0.1467 -0.2290
 9398SOL    HW129093   3.649   2.319   6.293  0.2518 -0.6906 -1.8437
 9398SOL    HW229094   3.637   2.462   6.215  0.0908  0.3933  0.1021
 9399SOL     OW29095   1.040   2.651   4.024 -0.1452 -0.2503 -0.1957
 9399SOL    HW129096   0.963   2.713   4.041  0.5555  1.1175 -1.6845
 9399SOL    HW229097   1.013   2.583   3.955 -0.4942 -0.7895  0.4581
 9400SOL     OW29098   5.701   3.376   3.191 -0.4647  0.0319 -0.0651
 9400SOL    HW129099   5.716   3.425   3.277  0.3486  1.4237 -0.9504
 9400SOL    HW229100   5.616   3.325   3.196 -0.6799  0.4796  1.3910
 9401SOL     OW29101   3.262   5.173   1.275  0.5822 -0.0505  0.3774
 9401SOL    HW129102   3.302   5.090   1.314  0.5129 -0.0245  0.5038
 9401SOL    HW229103   3.174   5.190   1.318  0.8646  0.4212  0.7857
 9402SOL     OW29104   1.147   4.119   7.011  0.2181 -0.2370  0.0361
 9402SOL    HW129105   1.170   4.030   6.971 -1.5918 -1.4636  1.5395
 9402SOL    HW229106   1.159   4.115   7.110  2.2035  1.9475 -0.0388
 9403SOL     OW29107   4.940   1.515   4.842  0.0528 -0.4847 -0.0628
 9403SOL    HW129108   4.934   1.430   4.788 -0.5580 -0.6653  0.2797
 9403SOL    HW229109   4.849   1.555   4.851  0.4328  0.6011 -0.8294
 9404SOL     OW29110   1.402   4.140   6.406  0.0103  0.0870  0.1897
 9404SOL    HW129111   1.473   4.181   6.349 -0.5810  1.2532  0.2757
 9404SOL    HW229112   1.432   4.138   6.501  1.2206 -2.3424 -0.1556
 9405SOL     OW29113   6.520   1.329   6.959 -0.7163 -0.2533 -0.4499
 9405SOL    HW129114   6.517   1.326   6.859  0.7846  1.3135 -0.5704
 9405SOL    HW229115   6.556   1.242   6.993  0.2976 -0.2114 -1.3664
 9406SOL     OW29116   0.885   1.670   5.756 -0.6072 -0.4265 -0.3756
 9406SOL    HW129117   0.969   1.701   5.712  0.6464 -1.8693  0.8696
 9406SOL    HW229118   0.874   1.717   5.844  1.6929 -3.6378  1.8740
 9407SOL     OW29119   3.764   6.319   1.984  0.2296 -0.2467  0.1103
 9407SOL    HW129120   3.725   6.409   2.004  0.5507 -0.1501  0.3097
 9407SOL    HW229121   3.691   6.251   1.980  0.1628 -0.3161  1.8722
 9408SOL     OW29122   3.868   0.352   6.363 -0.0338 -0.9420  0.4939
 9408SOL    HW129123   3.884   0.451   6.373 -2.5272 -0.3837 -0.3659
 9408SOL    HW229124   3.847   0.331   6.268  0.0357 -2.2669  0.7512
 9409SOL     OW29125   6.177   4.645   0.923  0.4863 -0.0778 -0.0011
 9409SOL    HW129126   6.161   4.704   1.002  1.9463  0.7775 -0.2933
 9409SOL    HW229127   6.090   4.613   0.886 -0.3129  1.3367  0.5896
 9410SOL     OW29128   3.779   4.942   2.688  0.1950  0.0628 -0.5955
 9410SOL    HW129129   3.705   4.956   2.754  0.7629 -0.9471  0.2750
 9410SOL    HW229130   3.740   4.912   2.601 -0.5547  1.3497 -0.7403
 9411SOL     OW29131   4.172   5.297   2.216 -0.1002  0.4999 -0.0052
 9411SOL    HW129132   4.138   5.269   2.306 -0.6056  0.2480 -0.2713
 9411SOL    HW229133   4.242   5.233   2.186  0.0964  0.6048  0.2210
 9412SOL     OW29134   0.482   2.529   0.899  0.2333 -0.0510  0.2266
 9412SOL    HW129135   0.414   2.456   0.903  0.8729 -0.7205 -0.4745
 9412SOL    HW229136   0.445   2.606   0.847 -0.8099  0.5513  1.8197
 9413SOL     OW29137   3.368   1.050   6.112  0.4522  0.8767  0.5967
 9413SOL    HW129138   3.450   0.997   6.091  0.4542  0.7991  0.7923
 9413SOL    HW229139   3.314   1.063   6.029 -1.2055 -2.2297  1.0260
 9414SOL     OW29140   3.450   1.541   3.136 -0.7818  0.2716 -0.0307
 9414SOL    HW129141   3.408   1.599   3.066  0.0371  0.2797 -0.5284
 9414SOL    HW229142   3.380   1.486   3.181 -1.3922  0.6929 -0.4613
 9415SOL     OW29143   2.630   1.857   2.606  0.0824 -0.2802  0.2222
 9415SOL    HW129144   2.576   1.940   2.598 -0.7347 -0.8491 -0.3699
 9415SOL    HW229145   2.715   1.867   2.553  0.0455  0.2131  0.2534
 9416SOL     OW29146   6.143   1.343   1.532  0.3052  0.3607 -0.7499
 9416SOL    HW129147   6.167   1.304   1.444 -0.7639  1.1592 -1.4229
 9416SOL    HW229148   6.226   1.373   1.579  0.8188  0.8168 -1.9145
 9417SOL     OW29149   2.721   6.546   6.219 -0.4307 -0.1343 -0.0421
 9417SOL    HW129150   2.664   6.524   6.298 -0.9696 -0.1715 -0.4365
 9417SOL    HW229151   2.742   6.463   6.168  2.3126 -0.5514  1.6234
 9418SOL     OW29152   3.955   3.850   1.164 -0.5483  0.3227 -0.4911
 9418SOL    HW129153   3.870   3.896   1.190  0.3332  1.4393  0.5360
 9418SOL    HW229154   3.985   3.791   1.239  0.5861  1.4508 -0.0237
 9419SOL     OW29155   4.965   0.078   6.437 -0.3580  0.0098  0.3630
 9419SOL    HW129156   4.903   0.152   6.461  0.8820  0.8544  1.0636
 9419SOL    HW229157   4.914   0.007   6.387 -1.5231  1.4075 -0.5375
 9420SOL     OW29158   1.539   1.231   3.871 -0.0063 -0.2182  0.1760
 9420SOL    HW129159   1.533   1.322   3.831 -0.8984 -0.8046 -1.1052
 9420SOL    HW229160   1.476   1.169   3.823  0.3712 -1.4465  1.1964
 9421SOL     OW29161   3.422   3.678   5.512  0.0634  0.3365  0.0582
 9421SOL    HW129162   3.367   3.629   5.445  0.1864  0.9113 -0.4805
 9421SOL    HW229163   3.490   3.617   5.552  0.8894  0.3027 -1.3427
 9422SOL     OW29164   7.006   0.772   2.827 -0.1043  0.4051 -0.2428
 9422SOL    HW129165   7.081   0.788   2.763 -1.5863  3.0258 -1.4779
 9422SOL    HW229166   7.011   0.839   2.901 -1.4201  0.8757 -0.5566
 9423SOL     OW29167   5.015   0.399   4.085 -0.5356 -0.7307  0.0333
 9423SOL    HW129168   4.990   0.303   4.094 -1.2533 -0.3881  2.1282
 9423SOL    HW229169   4.932   0.455   4.089 -0.0688  0.0323 -0.6071
 9424SOL     OW29170   4.625   6.735   5.166 -0.1684  0.1698 -0.2298
 9424SOL    HW129171   4.633   6.676   5.246  0.9446  1.3161  0.5584
 9424SOL    HW229172   4.682   6.699   5.092 -0.8877 -0.6774 -0.3839
 9425SOL     OW29173   0.052   2.854   3.542  0.6296  0.3084  0.0816
 9425SOL    HW129174   0.090   2.762   3.534  0.0322  0.0534  0.0978
 9425SOL    HW229175   0.011   2.881   3.455 -1.1595 -0.3458  0.6678
 9426SOL     OW29176   1.880   5.620   5.717  0.0131  0.0374 -0.4023
 9426SOL    HW129177   1.957   5.581   5.666 -0.5029  0.5956 -1.6688
 9426SOL    HW229178   1.908   5.639   5.811  1.6145  0.8014 -0.9976
 9427SOL     OW29179   2.256   4.075   4.445 -0.9599  0.0401 -0.1512
 9427SOL    HW129180   2.312   4.007   4.492 -0.7227 -0.7955 -1.5967
 9427SOL    HW229181   2.179   4.101   4.504 -0.7103 -1.0153  0.6681
 9428SOL     OW29182   4.124   0.580   4.522  0.3451 -0.6525  0.3776
 9428SOL    HW129183   4.055   0.625   4.465  0.2719 -1.2132  0.0255
 9428SOL    HW229184   4.132   0.630   4.609 -0.0262 -0.1942  0.1522
 9429SOL     OW29185   1.872   3.314   3.403  0.4110 -0.0232  0.2744
 9429SOL    HW129186   1.864   3.354   3.494 -1.2130 -2.3568  1.2445
 9429SOL    HW229187   1.788   3.332   3.351 -0.5862 -2.4489  0.9195
 9430SOL     OW29188   0.623   6.521   3.876 -0.1261 -0.3057  0.7287
 9430SOL    HW129189   0.554   6.459   3.915 -1.0906  1.2614  1.6603
 9430SOL    HW229190   0.687   6.549   3.948 -1.4832  2.0457  1.1266
 9431SOL     OW29191   5.411   5.196   1.426 -0.2175 -0.3690 -0.4582
 9431SOL    HW129192   5.467   5.274   1.455 -2.8426  1.0192  1.2694
 9431SOL    HW229193   5.470   5.121   1.396  2.4967  1.1108  0.8790
 9432SOL     OW29194   4.267   6.650   3.982 -0.1627 -0.3352  0.0579
 9432SOL    HW129195   4.210   6.645   3.899 -1.5839 -1.9230  1.0683
 9432SOL    HW229196   4.341   6.716   3.967 -0.4677 -0.4394 -2.4054
 9433SOL     OW29197   2.578   4.663   5.044 -0.3207  0.0340  0.2380
 9433SOL    HW129198   2.675   4.651   5.063  0.0320  2.2227  0.0157
 9433SOL    HW229199   2.565   4.697   4.951 -1.1676  1.2279  0.7611
 9434SOL     OW29200   5.843   4.812   1.789 -0.6618  0.2554 -0.7968
 9434SOL    HW129201   5.940   4.797   1.774 -0.9006  0.0932 -2.3332
 9434SOL    HW229202   5.794   4.725   1.787 -1.0307  0.4708 -1.6793
 9435SOL     OW29203   1.828   6.874   4.963 -0.3172  0.3734 -0.0926
 9435SOL    HW129204   1.885   6.798   4.933 -1.6716 -1.1304  0.9459
 9435SOL    HW229205   1.782   6.915   4.884 -0.8508 -1.0054 -0.5373
 9436SOL     OW29206   2.832   2.320   6.863  0.0275 -0.0196 -0.7282
 9436SOL    HW129207   2.809   2.227   6.834  0.8093 -0.5826  0.3920
 9436SOL    HW229208   2.838   2.324   6.963  0.3696  1.1517 -0.7757
 9437SOL     OW29209   6.987   5.326   2.774  0.0295 -0.5540  0.1654
 9437SOL    HW129210   7.052   5.397   2.747 -0.1416 -1.0889 -1.8418
 9437SOL    HW229211   6.900   5.369   2.800  0.5182  0.0456  0.8562
 9438SOL     OW29212   1.677   5.974   2.692  0.6066  0.7642  0.3573
 9438SOL    HW129213   1.773   5.998   2.681  0.3483  0.7077 -2.8703
 9438SOL    HW229214   1.671   5.886   2.740  2.3017 -0.1640 -0.9967
 9439SOL     OW29215   5.649   3.986   0.019  0.0770  0.1517 -0.0307
 9439SOL    HW129216   5.681   3.944  -0.066  1.6198  1.0520  0.0679
 9439SOL    HW229217   5.727   4.001   0.080 -0.3774  3.0472 -0.0270
 9440SOL     OW29218   5.550   5.657   6.064 -0.3436 -0.1955  0.3309
 9440SOL    HW129219   5.545   5.675   6.163 -0.5220  0.1902  0.2505
 9440SOL    HW229220   5.464   5.615   6.034 -0.2671 -0.3665  0.3497
 9441SOL     OW29221   2.214   4.418   4.932  0.1970  0.1910 -0.0020
 9441SOL    HW129222   2.291   4.435   4.994  0.9622 -1.4467 -0.4329
 9441SOL    HW229223   2.128   4.434   4.981  0.7916  1.1306  0.7769
 9442SOL     OW29224   5.672   2.950   1.609 -0.5265 -0.7053 -0.1551
 9442SOL    HW129225   5.685   3.048   1.595  0.5058 -1.0520 -1.8833
 9442SOL    HW229226   5.632   2.910   1.527 -0.8275 -1.7630  0.4941
 9443SOL     OW29227   1.469   2.605   2.690 -0.0762  0.4480  0.2175
 9443SOL    HW129228   1.457   2.638   2.597 -1.0118 -1.0979 -0.2412
 9443SOL    HW229229   1.504   2.512   2.689 -1.9514 -0.3337  1.3350
 9444SOL     OW29230   6.874   4.380   5.396  0.5964  0.3965 -0.5399
 9444SOL    HW129231   6.877   4.297   5.453  2.2639  1.7232  1.4420
 9444SOL    HW229232   6.781   4.392   5.360 -0.9364  0.1156  2.9307
 9445SOL     OW29233   5.697   3.517   2.059 -0.1018 -0.3192 -0.3916
 9445SOL    HW129234   5.724   3.563   2.144 -0.0122 -0.2617 -0.4508
 9445SOL    HW229235   5.598   3.521   2.049 -0.2349 -1.3695  0.3124
 9446SOL     OW29236   6.702   6.788   2.209  0.3471  0.5193 -0.2235
 9446SOL    HW129237   6.708   6.823   2.302 -1.2863  1.7464 -0.5304
 9446SOL    HW229238   6.695   6.865   2.145  0.7446 -0.3108 -1.2997
 9447SOL     OW29239   6.522   3.168   0.939 -0.0173  0.3893 -0.0994
 9447SOL    HW129240   6.576   3.089   0.968  0.2636  0.8856  0.7433
 9447SOL    HW229241   6.436   3.136   0.897  0.5198 -0.3764 -0.6464
 9448SOL     OW29242   0.182   0.391   6.894  0.3034  0.0512 -0.8273
 9448SOL    HW129243   0.274   0.430   6.884 -0.9153  2.6657 -3.0497
 9448SOL    HW229244   0.168   0.321   6.824  0.1276  0.6816 -1.4274
 9449SOL     OW29245   1.105   5.494   3.549 -0.5869 -0.6100 -0.1343
 9449SOL    HW129246   1.124   5.412   3.604 -0.0252 -0.4017 -0.0120
 9449SOL    HW229247   1.155   5.488   3.463  1.0065  0.4888  0.6853
 9450SOL     OW29248   3.474   5.360   3.859  0.2393 -0.0461 -0.5506
 9450SOL    HW129249   3.522   5.311   3.932 -1.5408  1.0611  1.4750
 9450SOL    HW229250   3.499   5.457   3.862 -1.6467  0.4678  0.2506
 9451SOL     OW29251   3.803   5.416   5.089 -0.2751 -0.3900 -0.4293
 9451SOL    HW129252   3.880   5.458   5.040 -0.3948 -0.3136 -0.5527
 9451SOL    HW229253   3.722   5.473   5.079 -0.1914 -0.1497  0.2277
 9452SOL     OW29254   1.982   6.023   1.981  0.1711 -0.0081  0.1641
 9452SOL    HW129255   1.889   5.993   2.002  0.3495  0.5027  1.8215
 9452SOL    HW229256   2.015   5.975   1.899 -1.1955 -0.8958  0.1080
 9453SOL     OW29257   3.461   5.027   0.883  0.5535 -0.6651 -0.0868
 9453SOL    HW129258   3.394   5.100   0.899  1.7232  0.3188  0.5137
 9453SOL    HW229259   3.414   4.943   0.859 -0.9051 -0.0573  0.5354
 9454SOL     OW29260   1.646   1.044   2.861  0.0111  0.0253 -0.3295
 9454SOL    HW129261   1.554   1.013   2.838 -0.5487  1.9492 -0.8707
 9454SOL    HW229262   1.644   1.141   2.882  1.9742  0.1681 -0.6096
 9455SOL     OW29263   3.740   1.490   3.342  0.0908  0.5370  0.4654
 9455SOL    HW129264   3.681   1.412   3.320  0.9824 -0.4740  1.5584
 9455SOL    HW229265   3.685   1.574   3.339 -1.1343 -0.2319  0.2926
 9456SOL     OW29266   0.571   3.546   0.392 -0.0754  0.4679 -0.1999
 9456SOL    HW129267   0.536   3.603   0.318 -2.2200 -0.4399  0.0597
 9456SOL    HW229268   0.506   3.545   0.468  1.6436  0.6261  1.3371
 9457SOL     OW29269   5.925   3.447   6.946  0.2734 -0.1832 -0.2090
 9457SOL    HW129270   5.961   3.415   6.858  0.0684 -1.5258  0.1811
 9457SOL    HW229271   5.889   3.370   6.997 -2.1007  0.9505 -0.0620
 9458SOL     OW29272   6.468   6.932   4.741  0.1165 -0.2758 -0.0374
 9458SOL    HW129273   6.497   6.883   4.659  1.1388  0.1393  0.0630
 9458SOL    HW229274   6.548   6.952   4.798 -0.6384 -0.9691  1.2928
 9459SOL     OW29275   6.068   5.410   1.936  0.2519  0.0976 -0.1986
 9459SOL    HW129276   6.018   5.354   1.870 -0.6568 -1.7442  1.9431
 9459SOL    HW229277   6.146   5.358   1.972  1.7773  1.7084 -0.9912
 9460SOL     OW29278   0.208   1.010   5.237 -0.0291  0.8320  0.3715
 9460SOL    HW129279   0.274   0.967   5.175  0.8286 -0.0405  1.8360
 9460SOL    HW229280   0.189   1.103   5.205 -1.0686 -0.1808 -2.2280
 9461SOL     OW29281   2.769   6.574   4.542 -0.7691  0.3321  0.1838
 9461SOL    HW129282   2.717   6.586   4.627  0.4058  0.6171  0.8924
 9461SOL    HW229283   2.826   6.492   4.548  1.1206  1.6179  0.6770
 9462SOL     OW29284   0.461   2.281   3.581 -0.7519 -0.1683  0.0607
 9462SOL    HW129285   0.454   2.366   3.529 -0.1726 -1.4515 -2.2585
 9462SOL    HW229286   0.533   2.290   3.650  0.3305  0.7800 -1.1314
 9463SOL     OW29287   4.473   2.289   0.349  0.0420 -0.1777 -0.0197
 9463SOL    HW129288   4.520   2.217   0.400 -0.2129  0.2708  0.8643
 9463SOL    HW229289   4.378   2.262   0.333 -0.3656  0.4178  1.2844
 9464SOL     OW29290   5.618   1.089   1.761  0.7644 -0.3517  0.1729
 9464SOL    HW129291   5.691   1.129   1.706  0.6744  0.0529  0.3452
 9464SOL    HW229292   5.658   1.026   1.828  1.1475  1.2565  1.5123
 9465SOL     OW29293   0.612   0.266   2.477  0.1633 -0.1761  0.0670
 9465SOL    HW129294   0.636   0.173   2.505  1.0629  0.4625  1.5123
 9465SOL    HW229295   0.526   0.264   2.425  0.1128 -1.7864  0.1559
 9466SOL     OW29296   1.540   2.582   6.162 -0.4583  0.3498 -0.3322
 9466SOL    HW129297   1.639   2.582   6.152 -0.4667  0.8240 -0.4643
 9466SOL    HW229298   1.514   2.533   6.246  0.0380  2.2353  0.9866
 9467SOL     OW29299   1.912   4.006   2.428 -0.3990 -0.2644  0.0979
 9467SOL    HW129300   1.970   3.941   2.477 -0.5029 -1.1753 -0.9397
 9467SOL    HW229301   1.823   4.011   2.474 -0.5336 -1.1842 -0.0294
 9468SOL     OW29302   0.306   3.046   6.361  0.2981 -0.0916 -0.3121
 9468SOL    HW129303   0.280   3.096   6.444 -2.1074 -0.4763 -0.7840
 9468SOL    HW229304   0.307   2.948   6.381  2.5452 -0.0653 -0.0478
 9469SOL     OW29305   6.617   3.682   2.364  0.4581 -0.5088  0.0123
 9469SOL    HW129306   6.612   3.651   2.269  0.5166 -0.7132  0.0759
 9469SOL    HW229307   6.674   3.619   2.416 -0.7737 -1.2419  0.5244
 9470SOL     OW29308   3.581   3.372   1.019  0.2473 -0.2127 -0.6330
 9470SOL    HW129309   3.569   3.451   1.081  0.5755 -0.1226 -0.6863
 9470SOL    HW229310   3.491   3.342   0.988  0.1442  0.4487 -0.9944
 9471SOL     OW29311   0.039   1.457   5.289  0.0450 -0.0405 -0.1019
 9471SOL    HW129312  -0.033   1.392   5.313  0.5063 -0.3234  0.5493
 9471SOL    HW229313   0.037   1.535   5.352  0.2030  0.0262 -0.1767
 9472SOL     OW29314   5.276   2.982   4.953 -0.0786 -0.2915 -0.0809
 9472SOL    HW129315   5.267   3.080   4.937  0.9812 -0.0253  0.8523
 9472SOL    HW229316   5.187   2.944   4.979 -0.4033  0.5019 -0.0061
 9473SOL     OW29317   2.969   6.831   5.441  0.2584 -0.8103  0.0363
 9473SOL    HW129318   2.904   6.888   5.493  0.2912 -0.9604  0.2408
 9473SOL    HW229319   3.057   6.878   5.436 -0.5497  0.6543 -2.4834
 9474SOL     OW29320   4.714   4.520   0.380  0.5000 -0.5957  0.5745
 9474SOL    HW129321   4.652   4.561   0.313  0.6804 -0.4820  0.4755
 9474SOL    HW229322   4.666   4.507   0.467 -0.0133 -1.6113  0.1511
 9475SOL     OW29323   0.201   3.979   2.644 -0.1235  0.4935 -0.0255
 9475SOL    HW129324   0.252   3.895   2.625  0.4406  0.9746 -0.6997
 9475SOL    HW229325   0.252   4.058   2.610 -0.2257  1.1981  1.3998
 9476SOL     OW29326   2.947   4.692   5.362  0.6353  0.1670 -0.2906
 9476SOL    HW129327   2.984   4.785   5.358 -2.0873  1.3054 -1.5785
 9476SOL    HW229328   2.908   4.668   5.274 -0.1201 -1.6081  0.4799
 9477SOL     OW29329   0.737   4.043   2.241 -0.1194 -0.2039 -0.2365
 9477SOL    HW129330   0.729   4.078   2.147 -0.3745  1.0647  0.2383
 9477SOL    HW229331   0.834   4.040   2.267 -0.1027  0.4973 -0.1778
 9478SOL     OW29332   5.467   4.496   3.825  0.1774 -0.0679  0.7558
 9478SOL    HW129333   5.460   4.579   3.879 -0.4009  0.2516  0.2100
 9478SOL    HW229334   5.518   4.426   3.875  1.0807  0.7753  1.0234
 9479SOL     OW29335   0.853   5.715   0.046 -0.3206  0.3662  0.2368
 9479SOL    HW129336   0.938   5.767   0.031 -0.6875  1.2352  1.0271
 9479SOL    HW229337   0.821   5.678  -0.041  1.2594 -0.6189  0.0314
 9480SOL     OW29338   5.730   2.465   6.375 -0.0991 -0.0458 -0.6962
 9480SOL    HW129339   5.740   2.554   6.420  1.6742  0.5240 -2.1000
 9480SOL    HW229340   5.666   2.409   6.426 -0.9672  1.8970  0.4434
 9481SOL     OW29341   6.911   4.063   0.988  0.2065 -0.2413 -0.6980
 9481SOL    HW129342   6.969   4.006   1.047  1.0711  1.2385 -0.0710
 9481SOL    HW229343   6.969   4.121   0.930 -0.6575 -0.1356 -1.4867
 9482SOL     OW29344   4.348   1.162   2.596  0.0095  0.4672  0.2586
 9482SOL    HW129345   4.313   1.187   2.506 -0.5193 -1.9797 -0.2934
 9482SOL    HW229346   4.444   1.190   2.604 -0.5073  2.5411 -0.2192
 9483SOL     OW29347   1.130   0.316   0.168 -0.0372 -0.3061  0.4592
 9483SOL    HW129348   1.083   0.357   0.246 -0.1084  2.0747 -0.7492
 9483SOL    HW229349   1.073   0.325   0.086  2.0098  1.8358 -0.8663
 9484SOL     OW29350   2.584   0.274   3.485  0.7146  0.1908 -0.0561
 9484SOL    HW129351   2.497   0.269   3.535  1.2519 -1.1760  0.8076
 9484SOL    HW229352   2.654   0.226   3.537  1.9285  0.9921 -0.9059
 9485SOL     OW29353   2.246   5.015   3.662  0.7512 -0.1396 -0.1215
 9485SOL    HW129354   2.250   4.920   3.693  1.0112 -0.1122 -0.0722
 9485SOL    HW229355   2.243   5.075   3.742  2.6211 -0.0065 -0.0984
 9486SOL     OW29356   2.690   6.823   3.032  0.0779 -0.4894 -0.1266
 9486SOL    HW129357   2.622   6.878   3.080  0.0696  0.6132 -1.3404
 9486SOL    HW229358   2.737   6.879   2.965  2.7965 -1.0107  1.2159
 9487SOL     OW29359   3.472   2.886   4.282 -0.3230 -0.2756 -0.2221
 9487SOL    HW129360   3.413   2.907   4.360 -0.3126 -0.7081 -0.0926
 9487SOL    HW229361   3.417   2.883   4.199 -0.3859 -0.1045 -0.1865
 9488SOL     OW29362   0.419   6.250   6.897  0.0179  0.2166  0.2696
 9488SOL    HW129363   0.320   6.239   6.909 -0.1233  1.8266  0.9170
 9488SOL    HW229364   0.463   6.248   6.987  0.0404  3.5367  0.4515
 9489SOL     OW29365   1.649   3.773   3.281 -0.3519  0.0884  0.5592
 9489SOL    HW129366   1.625   3.773   3.378 -1.1758  0.5220  0.3654
 9489SOL    HW229367   1.704   3.855   3.261  1.1792 -0.8062  0.9639
 9490SOL     OW29368   4.221   0.554   1.165  0.6008  0.2611 -0.4811
 9490SOL    HW129369   4.142   0.613   1.150  0.7441  0.0901 -2.0412
 9490SOL    HW229370   4.305   0.608   1.165  0.6149  0.2393 -0.4876
 9491SOL     OW29371   6.050   5.225   4.889  0.2391 -0.4567  0.5442
 9491SOL    HW129372   5.963   5.214   4.840  1.0662 -2.4622 -0.6430
 9491SOL    HW229373   6.044   5.301   4.953 -1.4366  1.3191 -1.5673
 9492SOL     OW29374   3.280   4.322   1.633  0.3192  0.0883 -0.1564
 9492SOL    HW129375   3.258   4.325   1.535 -0.3016  0.3801 -0.0168
 9492SOL    HW229376   3.287   4.416   1.668  1.9722  0.0138 -0.2174
 9493SOL     OW29377   4.362   5.284   3.014  0.2941 -0.2907 -0.1685
 9493SOL    HW129378   4.418   5.209   3.049  2.3879  0.9661 -0.6989
 9493SOL    HW229379   4.367   5.286   2.914 -0.9790 -0.3348 -0.2538
 9494SOL     OW29380   6.000   2.974   4.403 -0.2757  0.2663  0.2602
 9494SOL    HW129381   5.967   2.880   4.418 -1.9292  1.0293  1.8499
 9494SOL    HW229382   5.947   3.016   4.329  0.5850 -0.0909 -0.5717
 9495SOL     OW29383   0.177   1.953   4.246 -0.0962  0.1161 -0.6540
 9495SOL    HW129384   0.149   1.939   4.341 -0.8791 -0.4513 -0.9568
 9495SOL    HW229385   0.161   2.048   4.219  1.2402  0.5859  0.1291
 9496SOL     OW29386   6.445   4.188   5.917  0.1822  0.2479  0.1183
 9496SOL    HW129387   6.444   4.266   5.980  0.5819 -0.1928  0.6766
 9496SOL    HW229388   6.530   4.137   5.929 -0.6167 -1.0017  0.6531
 9497SOL     OW29389   0.655   3.366   6.716 -0.4404  0.6468 -0.3229
 9497SOL    HW129390   0.710   3.340   6.796 -1.9370  0.7137  0.7636
 9497SOL    HW229391   0.559   3.348   6.735 -0.8299  0.6876 -2.1272
 9498SOL     OW29392   5.615   6.810   0.878 -0.7202 -0.8701  0.2087
 9498SOL    HW129393   5.579   6.894   0.917 -3.2754 -1.5739 -0.4248
 9498SOL    HW229394   5.695   6.779   0.930  0.7752  2.2707  0.0018
 9499SOL     OW29395   5.789   3.446   6.272  0.1659  0.1659 -0.3889
 9499SOL    HW129396   5.872   3.432   6.326  0.0609 -1.0596 -0.5148
 9499SOL    HW229397   5.778   3.370   6.207 -1.7385 -0.4413  0.5533
 9500SOL     OW29398   4.850   1.617   1.639  0.6706 -0.4002 -0.9750
 9500SOL    HW129399   4.793   1.557   1.583  1.8107 -0.3401 -2.2590
 9500SOL    HW229400   4.929   1.566   1.673  0.5827 -0.1356 -0.3535
 9501SOL     OW29401   3.886   2.589   5.315 -0.3397 -0.5665 -0.1757
 9501SOL    HW129402   3.835   2.652   5.256 -0.2941 -1.0094 -0.6883
 9501SOL    HW229403   3.977   2.574   5.278 -0.1188 -0.4275  0.2989
 9502SOL     OW29404   4.437   2.827   5.327  0.6144 -0.1627  0.0061
 9502SOL    HW129405   4.456   2.901   5.392  1.2776 -0.2928 -0.0320
 9502SOL    HW229406   4.348   2.786   5.348  1.3152 -0.9856  1.5766
 9503SOL     OW29407   2.296   1.478   0.880 -0.4010  0.4941 -0.0767
 9503SOL    HW129408   2.278   1.396   0.826  0.3376 -0.2519  0.7720
 9503SOL    HW229409   2.277   1.559   0.825 -1.4253 -0.2369 -0.8397
 9504SOL     OW29410   6.874   1.227   1.350  0.0775 -0.2003  0.3756
 9504SOL    HW129411   6.974   1.218   1.349  0.4613  2.8263  0.3878
 9504SOL    HW229412   6.845   1.275   1.267 -1.4115 -1.2056  0.2862
 9505SOL     OW29413   6.568   4.604   2.640  0.4302  0.4425 -0.1087
 9505SOL    HW129414   6.663   4.573   2.646  0.5976  0.6007 -1.5414
 9505SOL    HW229415   6.545   4.622   2.544 -0.9719  0.6590  0.2476
 9506SOL     OW29416   1.134   6.375   0.582 -0.4119  0.5384 -0.1344
 9506SOL    HW129417   1.165   6.397   0.675  0.8557  0.3054 -0.4717
 9506SOL    HW229418   1.044   6.415   0.566  0.2243  2.3575  0.5185
 9507SOL     OW29419   6.956   4.175   3.939  0.1882  0.3641 -0.3691
 9507SOL    HW129420   6.895   4.204   3.865 -0.3124  0.7417  0.1930
 9507SOL    HW229421   6.938   4.228   4.021  1.8436  1.0882 -0.4256
 9508SOL     OW29422   5.348   2.051   6.956 -0.8166 -0.2758  0.0299
 9508SOL    HW129423   5.383   1.958   6.966 -1.4235 -0.4986  0.1643
 9508SOL    HW229424   5.310   2.063   6.864  0.3372  0.2218 -0.3905
 9509SOL     OW29425   1.396   0.045   5.389 -0.6231 -0.1356 -0.1568
 9509SOL    HW129426   1.374   0.059   5.485 -0.6675 -2.0780  0.1524
 9509SOL    HW229427   1.314   0.014   5.340  0.0306 -1.9129 -0.1876
 9510SOL     OW29428   6.764   3.824   0.932  0.1054 -0.3929  0.0789
 9510SOL    HW129429   6.743   3.824   0.834  0.6953 -0.0790 -0.0473
 9510SOL    HW229430   6.824   3.900   0.954 -0.5658 -0.0530  0.8069
 9511SOL     OW29431   6.756   1.581   6.987 -0.0564 -0.1954 -0.1204
 9511SOL    HW129432   6.709   1.521   6.922  0.3582  1.0494 -1.6186
 9511SOL    HW229433   6.694   1.655   7.015 -0.6019 -1.2990  1.7976
 9512SOL     OW29434   0.467   1.840   5.125  0.1282  0.2052 -0.4733
 9512SOL    HW129435   0.507   1.802   5.209  2.0598  0.4309 -1.2356
 9512SOL    HW229436   0.434   1.932   5.143 -1.2997 -0.4592  0.4973
 9513SOL     OW29437   1.112   5.232   3.655  0.4066 -0.4525 -0.1867
 9513SOL    HW129438   1.143   5.142   3.686  1.3268  0.1298  0.6165
 9513SOL    HW229439   1.016   5.245   3.681  0.0581 -1.4599 -0.9122
 9514SOL     OW29440   2.486   4.142   6.476  0.3123 -0.1332 -0.2757
 9514SOL    HW129441   2.493   4.050   6.514  0.8590  0.3854  0.9317
 9514SOL    HW229442   2.573   4.189   6.486 -0.1384  0.7312 -0.3246
 9515SOL     OW29443   2.454   4.832   6.507  0.4698  0.3741  0.3481
 9515SOL    HW129444   2.458   4.812   6.605 -1.2090 -0.7304  0.2306
 9515SOL    HW229445   2.359   4.844   6.479  0.8558 -0.0616 -1.2833
 9516SOL     OW29446   4.960   2.660   4.886 -0.3398  0.4416 -0.7462
 9516SOL    HW129447   5.009   2.729   4.941 -1.1471 -0.5483  1.2961
 9516SOL    HW229448   4.865   2.687   4.877 -0.2687  0.4617 -1.4716
 9517SOL     OW29449   1.214   6.393   0.861 -0.2183 -0.5329 -0.2335
 9517SOL    HW129450   1.270   6.335   0.921  1.0621  1.2924  0.4282
 9517SOL    HW229451   1.118   6.380   0.884  0.2145 -0.1101  2.1053
 9518SOL     OW29452   0.692   2.816   6.562 -0.1455  1.0718 -0.3211
 9518SOL    HW129453   0.737   2.887   6.616  0.2658  0.3937  0.2320
 9518SOL    HW229454   0.757   2.777   6.497 -0.7357  2.1700 -1.6495
 9519SOL     OW29455   3.019   3.344   2.739  0.3591 -0.5544  0.4059
 9519SOL    HW129456   2.952   3.400   2.692 -0.8720 -2.6470 -0.4739
 9519SOL    HW229457   2.996   3.340   2.837  0.9409  1.0531  0.6379
 9520SOL     OW29458   0.738   0.461   4.384  0.0759  0.4394  0.0475
 9520SOL    HW129459   0.664   0.394   4.390 -0.4757  0.8723 -1.6164
 9520SOL    HW229460   0.826   0.413   4.387 -0.2961 -0.2573 -0.0651
 9521SOL     OW29461   4.540   0.324   2.583 -0.3051 -0.0684  0.2535
 9521SOL    HW129462   4.596   0.387   2.530 -1.1634 -0.1658 -0.8237
 9521SOL    HW229463   4.511   0.368   2.668  0.5999  0.3140  0.3755
 9522SOL     OW29464   3.701   1.374   2.298 -0.5169 -0.5165  0.1208
 9522SOL    HW129465   3.796   1.400   2.285 -1.3553  2.0974 -1.6572
 9522SOL    HW229466   3.653   1.377   2.210 -2.2192 -2.0855  0.9057
 9523SOL     OW29467   1.796   4.993   4.656 -0.3708 -0.6524 -0.7205
 9523SOL    HW129468   1.794   5.004   4.755  0.1237  1.2159 -0.8697
 9523SOL    HW229469   1.704   5.005   4.618 -0.2968  0.3437 -0.6104
 9524SOL     OW29470   2.730   4.360   1.669 -0.0907 -0.6963 -0.2403
 9524SOL    HW129471   2.769   4.438   1.717 -1.4466  0.5408 -1.0676
 9524SOL    HW229472   2.774   4.350   1.580 -0.7980 -0.0185 -0.6865
 9525SOL     OW29473   0.710   4.273   4.474  0.3693  0.2660  0.2601
 9525SOL    HW129474   0.779   4.201   4.479 -1.1103 -1.1203  2.8557
 9525SOL    HW229475   0.698   4.302   4.379  1.5212 -2.4355 -0.7958
 9526SOL     OW29476   4.453   6.801   0.333 -0.8689  0.3793  0.1918
 9526SOL    HW129477   4.428   6.729   0.397 -2.0742  2.2023  1.8803
 9526SOL    HW229478   4.553   6.809   0.329 -0.7517 -0.4423  1.0435
 9527SOL     OW29479   3.960   6.391   1.775 -0.1632  0.0031 -0.5465
 9527SOL    HW129480   3.863   6.369   1.785 -0.4256  0.1444 -2.3446
 9527SOL    HW229481   4.015   6.313   1.806 -0.8978 -0.6613 -0.8703
 9528SOL     OW29482   4.224   2.186   1.730  0.0414 -0.5302 -0.1738
 9528SOL    HW129483   4.162   2.156   1.658  0.8042 -2.1079 -0.2222
 9528SOL    HW229484   4.180   2.172   1.819  0.1860 -1.3721 -0.2210
 9529SOL     OW29485   6.996   1.825   0.757 -0.1093 -0.1646 -1.2473
 9529SOL    HW129486   6.899   1.810   0.736 -0.0331 -2.4119 -0.2756
 9529SOL    HW229487   7.045   1.843   0.672 -0.9924 -1.6369 -2.1235
 9530SOL     OW29488   1.098   5.529   3.923 -0.4637  0.4443 -0.1205
 9530SOL    HW129489   1.076   5.465   3.997 -0.5869  1.0676  0.3949
 9530SOL    HW229490   1.019   5.540   3.863  0.0173 -0.9724 -1.0501
 9531SOL     OW29491   2.293   4.720   3.024  0.3759 -0.7475  0.0316
 9531SOL    HW129492   2.337   4.775   2.953 -0.3686 -0.1713 -0.0039
 9531SOL    HW229493   2.283   4.626   2.992 -0.1392 -0.4484 -0.7296
 9532SOL     OW29494   6.204   6.800   2.472 -0.0678  0.0948  0.5286
 9532SOL    HW129495   6.291   6.836   2.437 -1.3403  0.4838 -2.5850
 9532SOL    HW229496   6.138   6.875   2.479 -0.9928 -0.6308 -0.1336
 9533SOL     OW29497   1.913   5.324   1.473 -0.1493  0.4271  0.3654
 9533SOL    HW129498   1.950   5.387   1.405  1.9219 -0.4795  0.6007
 9533SOL    HW229499   1.893   5.236   1.430  0.5922  0.0417  0.7999
 9534SOL     OW29500   5.041   3.751   3.648  0.2363 -0.7672  0.0509
 9534SOL    HW129501   5.072   3.661   3.677  0.6093 -0.2390  1.3647
 9534SOL    HW229502   4.997   3.798   3.725  3.1876  1.5487  0.5125
 9535SOL     OW29503   1.943   0.408   3.865  0.3851 -0.2468 -0.0074
 9535SOL    HW129504   1.857   0.375   3.904  0.6404 -0.2834  0.5367
 9535SOL    HW229505   1.958   0.503   3.893 -0.3531  0.3666 -1.5768
 9536SOL     OW29506   2.443   4.730   6.798 -0.2845 -0.0759  0.2075
 9536SOL    HW129507   2.504   4.780   6.860  0.3423 -0.5204 -0.0454
 9536SOL    HW229508   2.476   4.637   6.785  0.9112  0.6307 -2.5768
 9537SOL     OW29509   1.341   6.662   3.830 -0.2738 -0.2713 -0.0190
 9537SOL    HW129510   1.263   6.691   3.887  0.9719  1.6995  0.7838
 9537SOL    HW229511   1.400   6.602   3.882 -0.0406  0.1254  0.1753
 9538SOL     OW29512   5.002   7.013   4.356  0.2524  0.2332 -0.1648
 9538SOL    HW129513   4.919   7.037   4.304 -0.1591 -0.6842  0.0421
 9538SOL    HW229514   5.082   7.019   4.297 -0.0159  0.6899 -0.4877
 9539SOL     OW29515   2.466   3.703   1.693  0.1195  0.1817  0.2491
 9539SOL    HW129516   2.403   3.769   1.735  0.5852 -0.7288  2.5042
 9539SOL    HW229517   2.443   3.611   1.724  2.2282 -0.2246  0.7291
 9540SOL     OW29518   3.670   4.967   3.798  0.2552  0.0406  0.3173
 9540SOL    HW129519   3.648   4.951   3.895  1.4125 -0.6538  0.4794
 9540SOL    HW229520   3.749   4.912   3.772 -1.3259 -1.4907 -1.6197
 9541SOL     OW29521   0.846   5.790   5.168  0.3918  0.6169  0.7842
 9541SOL    HW129522   0.794   5.730   5.230 -0.5651 -1.4448 -1.8519
 9541SOL    HW229523   0.794   5.874   5.152  1.4263  2.0328  3.9603
 9542SOL     OW29524   6.202   4.942   2.660 -0.2068 -0.3824 -0.3846
 9542SOL    HW129525   6.132   4.891   2.709 -0.4135  1.2813  1.1605
 9542SOL    HW229526   6.277   4.964   2.722 -0.1988  1.2794 -0.9291
 9543SOL     OW29527   3.526   6.569   4.546 -0.0692  0.3954  0.6464
 9543SOL    HW129528   3.437   6.542   4.583 -0.6671  1.1437 -0.2231
 9543SOL    HW229529   3.518   6.586   4.448  0.5724  2.4122  0.9035
 9544SOL     OW29530   0.740   5.639   3.983  0.0740  0.0136 -0.3177
 9544SOL    HW129531   0.779   5.604   3.898  2.7017  1.7125  0.0825
 9544SOL    HW229532   0.718   5.736   3.972 -0.8896 -0.0909  0.5375
 9545SOL     OW29533   1.833   5.993   6.662 -0.5437 -0.2747  0.3420
 9545SOL    HW129534   1.764   6.030   6.599  1.1390  1.3396 -0.6536
 9545SOL    HW229535   1.851   5.898   6.639 -0.0161  0.2583 -1.6651
 9546SOL     OW29536   2.982   1.522   1.525  0.0095  0.1055  0.7835
 9546SOL    HW129537   3.033   1.607   1.512  0.3964 -0.1119  0.8488
 9546SOL    HW229538   3.020   1.472   1.603 -0.2826 -0.0759  0.8103
 9547SOL     OW29539   4.694   5.038   5.090 -0.0796 -0.2300  0.1249
 9547SOL    HW129540   4.598   5.026   5.117 -0.6613  1.4993 -0.9988
 9547SOL    HW229541   4.733   5.115   5.141 -0.1122  0.7662 -1.3126
 9548SOL     OW29542   1.843   5.314   6.644  0.1808 -0.0102  0.2479
 9548SOL    HW129543   1.900   5.249   6.694 -2.2627 -2.2478  0.3708
 9548SOL    HW229544   1.759   5.268   6.613 -1.1580  2.8311 -0.7290
 9549SOL     OW29545   5.673   2.354   6.752  0.7310 -0.1644 -0.2477
 9549SOL    HW129546   5.624   2.435   6.783 -0.4356 -0.8753 -0.2022
 9549SOL    HW229547   5.635   2.321   6.666  2.3250  0.3209 -1.1801
 9550SOL     OW29548   5.900   2.411   0.985 -0.1115  0.6470 -0.1518
 9550SOL    HW129549   5.975   2.386   0.923 -1.3824  0.4899 -1.7100
 9550SOL    HW229550   5.932   2.479   1.051  0.5504  3.3698 -3.0305
 9551SOL     OW29551   0.884   3.046   5.507  0.4634  0.0356 -0.1684
 9551SOL    HW129552   0.880   3.015   5.412 -0.2409 -2.8800  0.7055
 9551SOL    HW229553   0.967   3.099   5.521  0.9837 -0.1445 -2.2406
 9552SOL     OW29554   4.569   0.091   6.358 -0.5110  0.3089  0.2313
 9552SOL    HW129555   4.489   0.148   6.375  0.3577  1.6098  0.1206
 9552SOL    HW229556   4.541   0.005   6.317 -1.8933  0.5031  0.7245
 9553SOL     OW29557   4.348   3.548   6.833 -0.5107  0.4370 -0.1177
 9553SOL    HW129558   4.371   3.645   6.841 -0.9535  0.4777  0.7333
 9553SOL    HW229559   4.249   3.536   6.835 -0.5321  0.0781 -1.7192
 9554SOL     OW29560   3.778   0.601   3.498 -0.4923  0.1135  0.0214
 9554SOL    HW129561   3.777   0.520   3.439  1.4854 -0.2385  0.4093
 9554SOL    HW229562   3.810   0.577   3.589  1.2234  1.4672 -0.1535
 9555SOL     OW29563   0.462   6.981   3.808  0.0570  0.1077  0.1941
 9555SOL    HW129564   0.442   6.896   3.760  0.2284 -0.5675  1.2816
 9555SOL    HW229565   0.385   7.004   3.868 -0.6593  1.5526 -1.2042
 9556SOL     OW29566   1.021   3.426   6.042 -0.7399 -0.2318  1.1341
 9556SOL    HW129567   0.983   3.508   6.085 -2.8792 -0.8099  0.4455
 9556SOL    HW229568   0.947   3.362   6.019  0.5697 -1.1036 -0.9892
 9557SOL     OW29569   5.650   0.902   1.346 -0.4265 -0.4872 -0.0220
 9557SOL    HW129570   5.604   0.826   1.298 -0.1670 -0.6893  0.0470
 9557SOL    HW229571   5.597   0.926   1.427 -0.8404 -0.1815 -0.3740
 9558SOL     OW29572   5.591   2.121   6.322 -0.1941 -0.3576  0.4110
 9558SOL    HW129573   5.605   2.160   6.231  0.1553 -1.6740 -0.1324
 9558SOL    HW229574   5.514   2.057   6.319  0.7153 -1.4889  0.6718
 9559SOL     OW29575   1.827   4.488   2.301 -0.4415  0.7824 -0.5865
 9559SOL    HW129576   1.855   4.447   2.387 -0.7727 -1.3489 -1.4316
 9559SOL    HW229577   1.899   4.550   2.269 -1.1279  3.1426  2.0829
 9560SOL     OW29578   2.944   0.392   2.058 -0.0404  0.1989 -0.0808
 9560SOL    HW129579   2.981   0.349   1.975  1.4445  1.0720  0.1104
 9560SOL    HW229580   2.846   0.372   2.064 -0.1753  0.0889 -2.0300
 9561SOL     OW29581   1.297   0.626   6.993 -0.4397  0.1546  0.5162
 9561SOL    HW129582   1.381   0.676   6.970 -0.3887  0.3769  1.1708
 9561SOL    HW229583   1.320   0.549   7.053 -0.6283 -0.1411  0.2091
 9562SOL     OW29584   3.789   5.969   3.682 -0.1818 -1.2310 -0.0558
 9562SOL    HW129585   3.749   5.884   3.717 -0.6023 -0.0578  2.5472
 9562SOL    HW229586   3.840   6.014   3.756  1.4470 -0.0135 -1.8289
 9563SOL     OW29587   0.319   5.483   0.561  0.1040 -0.0294 -0.3797
 9563SOL    HW129588   0.398   5.519   0.610 -1.5580  1.1275  1.6528
 9563SOL    HW229589   0.346   5.403   0.507  2.5303  0.0712  0.5650
 9564SOL     OW29590   0.076   0.438   0.533 -0.2392 -0.2183 -0.8184
 9564SOL    HW129591   0.150   0.504   0.525 -0.3172 -0.1997 -1.4216
 9564SOL    HW229592   0.007   0.473   0.597  0.4302 -0.3981  0.0303
 9565SOL     OW29593   2.354   0.993   3.608 -0.5486  0.3195  0.2339
 9565SOL    HW129594   2.347   1.057   3.532 -2.5979  3.1986  2.6264
 9565SOL    HW229595   2.436   1.013   3.661 -0.0340 -0.5614 -0.2001
 9566SOL     OW29596   2.457   0.652   1.523 -0.1720 -0.3842  0.1022
 9566SOL    HW129597   2.478   0.611   1.434 -3.0053 -0.8477 -0.4635
 9566SOL    HW229598   2.388   0.596   1.570 -0.7457  1.3026  1.3885
 9567SOL     OW29599   6.693   2.745   2.552 -0.1918  0.1776  0.3617
 9567SOL    HW129600   6.638   2.820   2.590 -0.6072 -0.7214  1.5945
 9567SOL    HW229601   6.652   2.713   2.467 -0.9697  0.2389  0.7079
 9568SOL     OW29602   5.629   0.047   6.192  0.1493 -0.2644  0.2361
 9568SOL    HW129603   5.654   0.143   6.200  0.2214 -0.4043  2.2837
 9568SOL    HW229604   5.700  -0.002   6.140 -0.6722  1.0090 -2.2414
 9569SOL     OW29605   5.436   0.980   2.350  0.2475  0.0615 -0.7082
 9569SOL    HW129606   5.507   0.927   2.397 -0.4094 -0.6980 -0.5454
 9569SOL    HW229607   5.365   0.918   2.317 -2.0068  1.0345  1.9354
 9570SOL     OW29608   0.016   4.457   0.823 -0.1413  0.1778  0.0093
 9570SOL    HW129609  -0.066   4.418   0.781 -0.2796  0.8974 -0.3958
 9570SOL    HW229610   0.092   4.449   0.759 -0.2227  0.7724 -0.1626
 9571SOL     OW29611   2.575   6.704   6.504  0.2897  0.4217  0.7683
 9571SOL    HW129612   2.649   6.641   6.529 -0.1564 -0.9576 -1.1967
 9571SOL    HW229613   2.502   6.698   6.573  0.4867 -0.8623  0.8980
 9572SOL     OW29614   0.720   4.961   5.047  0.6758  0.3753 -0.8880
 9572SOL    HW129615   0.635   4.930   5.090  0.3851  1.5805 -0.5676
 9572SOL    HW229616   0.750   5.046   5.091  2.1788 -0.1563 -0.8312
 9573SOL     OW29617   1.271   2.576   2.048  0.7552 -0.2905 -0.3715
 9573SOL    HW129618   1.296   2.640   1.976  0.8055  1.2275  0.9150
 9573SOL    HW229619   1.187   2.609   2.093  0.9073 -1.0087  0.4612
 9574SOL     OW29620   4.039   2.588   6.921 -0.8442 -0.1539 -0.0425
 9574SOL    HW129621   4.053   2.687   6.911 -1.7841  0.0028  0.0462
 9574SOL    HW229622   4.122   2.539   6.895 -0.5738  0.6301 -0.6957
 9575SOL     OW29623   6.065   0.358   6.657 -0.2480  0.0424 -0.1220
 9575SOL    HW129624   5.978   0.349   6.705 -0.0831 -2.3038 -0.1899
 9575SOL    HW229625   6.050   0.404   6.570 -1.4142 -0.3340 -0.1341
 9576SOL     OW29626   0.799   0.113   0.378 -0.1688 -0.3189  0.4982
 9576SOL    HW129627   0.819   0.131   0.282  1.0846 -1.1661  0.5771
 9576SOL    HW229628   0.852   0.176   0.435  0.9180 -1.3551  0.6669
 9577SOL     OW29629   4.287   6.896   2.069  0.5225  0.3917 -0.5120
 9577SOL    HW129630   4.247   6.937   2.152  0.1249  2.0141 -1.4646
 9577SOL    HW229631   4.215   6.885   2.000  0.5697 -2.1939 -0.2337
 9578SOL     OW29632   2.806   2.771   5.985 -0.2048 -0.1728 -0.2134
 9578SOL    HW129633   2.809   2.869   5.966 -1.8657 -0.0881 -0.2115
 9578SOL    HW229634   2.855   2.722   5.913  0.4943  0.6451 -0.3061
 9579SOL     OW29635   5.219   1.855   1.640  0.4692 -0.2258  0.9599
 9579SOL    HW129636   5.196   1.950   1.615  1.4178  0.2774  1.9295
 9579SOL    HW229637   5.151   1.821   1.705  0.4226 -0.0256  1.0188
 9580SOL     OW29638   5.388   3.703   3.730 -0.3416  0.1719 -0.2550
 9580SOL    HW129639   5.487   3.716   3.732 -0.3063 -0.1014  1.4670
 9580SOL    HW229640   5.367   3.610   3.700 -0.3129  1.4388 -4.9306
 9581SOL     OW29641   5.073   2.319   0.935 -0.0705  0.1734  0.0564
 9581SOL    HW129642   5.090   2.418   0.932 -1.8666  0.5017 -0.6637
 9581SOL    HW229643   5.146   2.272   0.886  2.0591  0.9041  2.3480
 9582SOL     OW29644   4.155   0.687   3.000 -0.0761 -0.2551 -0.5784
 9582SOL    HW129645   4.125   0.594   2.978  3.1395 -1.3035 -1.1262
 9582SOL    HW229646   4.235   0.683   3.060  0.5384  2.1324 -1.1330
 9583SOL     OW29647   4.122   3.712   0.696 -0.1559  0.0357  0.1040
 9583SOL    HW129648   4.165   3.798   0.726  0.4523 -0.1422 -0.2290
 9583SOL    HW229649   4.044   3.692   0.754 -0.4163  0.9123  0.0693
 9584SOL     OW29650   1.348   6.281   5.443  0.0246  0.0688  0.2677
 9584SOL    HW129651   1.389   6.352   5.500 -0.4398 -0.2642  1.0347
 9584SOL    HW229652   1.382   6.192   5.470  0.4818 -0.0262 -0.5869
 9585SOL     OW29653   2.921   5.969   6.953  0.5256  0.2581  0.2525
 9585SOL    HW129654   2.955   5.946   6.862  1.4679  0.0690  0.6463
 9585SOL    HW229655   2.942   6.065   6.973  1.6566 -0.1008  0.8517
 9586SOL     OW29656   4.563   4.449   2.367  0.5340  0.4080 -0.7153
 9586SOL    HW129657   4.600   4.437   2.275 -0.3035 -2.7318 -0.7678
 9586SOL    HW229658   4.466   4.472   2.360  0.1985 -0.9138 -0.6773
 9587SOL     OW29659   1.320   0.239   1.143 -0.2881  0.0198  0.2898
 9587SOL    HW129660   1.257   0.214   1.070  0.8919 -1.8531 -0.1485
 9587SOL    HW229661   1.413   0.238   1.108  0.2590 -0.4546  1.7080
 9588SOL     OW29662   6.498   5.850   0.205 -0.2058  0.3100 -0.1599
 9588SOL    HW129663   6.576   5.846   0.267 -0.4016  2.2756  0.2965
 9588SOL    HW229664   6.527   5.887   0.117 -0.6846  1.6687  0.2193
 9589SOL     OW29665   2.076   2.660   5.228 -0.5832  0.2509  0.4142
 9589SOL    HW129666   2.034   2.704   5.148  0.3195  1.2106  0.4534
 9589SOL    HW229667   2.013   2.666   5.305 -0.6894  1.0269  0.2769
 9590SOL     OW29668   5.685   2.726   3.454  0.5982 -0.0231  0.5010
 9590SOL    HW129669   5.700   2.782   3.372  0.5983  1.2714  1.3747
 9590SOL    HW229670   5.668   2.631   3.426 -0.5412  0.6061 -1.0620
 9591SOL     OW29671   2.616   1.349   1.429  0.6578  0.3584 -0.1634
 9591SOL    HW129672   2.556   1.311   1.500  2.0652 -2.3033 -0.2720
 9591SOL    HW229673   2.675   1.419   1.469 -1.2415  1.7518  0.3278
 9592SOL     OW29674   1.808   3.404   5.401 -0.0291  0.2247 -0.0652
 9592SOL    HW129675   1.888   3.344   5.393  0.7522  1.1463  0.5883
 9592SOL    HW229676   1.798   3.434   5.496 -1.2840 -0.0213 -0.0981
 9593SOL     OW29677   2.171   3.095   5.525  0.1585  0.6358 -0.1111
 9593SOL    HW129678   2.085   3.046   5.512  0.3371 -0.2188  1.6767
 9593SOL    HW229679   2.237   3.066   5.455 -0.2453 -0.5156 -0.0303
 9594SOL     OW29680   2.771   0.368   4.657  0.3942  0.2217 -0.1978
 9594SOL    HW129681   2.766   0.422   4.573 -3.0398  1.2492  0.4897
 9594SOL    HW229682   2.816   0.421   4.728  2.0524 -0.1003 -0.9701
 9595SOL     OW29683   6.916   3.893   3.494  0.1872  0.6890  0.3409
 9595SOL    HW129684   6.872   3.964   3.550  2.0883  0.9514  1.5962
 9595SOL    HW229685   6.979   3.841   3.551  0.5046 -0.5516 -1.0931
 9596SOL     OW29686   1.953   5.029   0.368  0.2571 -0.3105 -0.5847
 9596SOL    HW129687   1.895   5.098   0.413 -0.3527 -0.4372 -1.1602
 9596SOL    HW229688   2.030   5.074   0.323  3.0378 -0.3847  3.5508
 9597SOL     OW29689   1.547   3.227   4.107  0.4402 -0.0857  0.0688
 9597SOL    HW129690   1.643   3.252   4.119  1.2350 -2.2260 -1.2549
 9597SOL    HW229691   1.521   3.240   4.012  0.0741 -1.5489 -0.0485
 9598SOL     OW29692   0.733   3.521   3.880 -0.5054 -0.6694 -0.1114
 9598SOL    HW129693   0.714   3.469   3.797  0.2586 -0.2682 -0.5543
 9598SOL    HW229694   0.831   3.539   3.886 -0.7434  0.7260  0.0199
 9599SOL     OW29695   4.882   0.715   2.805  0.2305  0.2731  0.7949
 9599SOL    HW129696   4.885   0.659   2.888 -1.7386 -2.4488 -0.7967
 9599SOL    HW229697   4.799   0.772   2.807  0.2261  0.2691  0.7063
 9600SOL     OW29698   3.584   0.938   0.222  0.0930 -0.0949 -0.6173
 9600SOL    HW129699   3.534   0.976   0.144 -0.9131 -0.8631 -0.3614
 9600SOL    HW229700   3.549   0.847   0.243 -0.0116  0.3215  1.0907
 9601SOL     OW29701   7.022   2.867   1.493  0.6695  0.3570 -0.1660
 9601SOL    HW129702   6.968   2.787   1.467  1.5400 -0.4243  0.3516
 9601SOL    HW229703   6.999   2.894   1.586 -1.1287  2.0327 -1.0208
 9602SOL     OW29704   4.935   4.867   6.792  0.3286  0.1129  0.0632
 9602SOL    HW129705   5.008   4.808   6.756 -0.5737 -0.3076 -1.1633
 9602SOL    HW229706   4.937   4.866   6.892  0.7876 -1.4477  0.0638
 9603SOL     OW29707   6.519   5.832   5.497  0.3139 -0.7517 -0.0474
 9603SOL    HW129708   6.455   5.894   5.542  0.0039 -1.3216  0.3161
 9603SOL    HW229709   6.603   5.880   5.476  0.4147 -0.4282  1.0348
 9604SOL     OW29710   4.305   6.528   1.163  0.4879 -0.3204 -0.1300
 9604SOL    HW129711   4.266   6.619   1.152 -0.8720 -0.8767 -0.1703
 9604SOL    HW229712   4.347   6.520   1.254 -1.7114 -0.4431  0.9403
 9605SOL     OW29713   1.239   6.002   2.995 -0.6258 -0.0192  0.1156
 9605SOL    HW129714   1.296   5.920   2.989 -1.9864 -1.0190  0.2172
 9605SOL    HW229715   1.225   6.040   2.903 -0.5906 -0.3357 -0.0224
 9606SOL     OW29716   5.660   0.640   5.967  0.2746  0.4350  0.0555
 9606SOL    HW129717   5.708   0.703   6.027  0.8322  2.6314 -2.4928
 9606SOL    HW229718   5.685   0.659   5.872  1.1320 -4.2086 -0.9169
 9607SOL     OW29719   3.480   4.190   6.101  0.0603  0.3729  0.3225
 9607SOL    HW129720   3.416   4.179   6.025  0.0527 -1.6399  0.5596
 9607SOL    HW229721   3.559   4.131   6.087  0.7005  0.9743  1.2450
 9608SOL     OW29722   5.968   4.247   1.088  0.3550  0.0607  0.0287
 9608SOL    HW129723   6.032   4.177   1.122 -0.0583 -0.0010  0.7060
 9608SOL    HW229724   5.982   4.260   0.990  1.1986 -0.1711  0.1058
 9609SOL     OW29725   3.995   1.293   0.340  0.1958  0.0844 -0.5305
 9609SOL    HW129726   3.927   1.222   0.324 -0.1178  0.2272  0.1421
 9609SOL    HW229727   4.008   1.307   0.438  1.6268 -0.3435 -0.6276
 9610SOL     OW29728   0.138   4.218   0.959 -0.1278  0.0450 -0.7022
 9610SOL    HW129729   0.212   4.179   1.013 -0.6369 -0.3781 -0.2986
 9610SOL    HW229730   0.097   4.294   1.008 -1.2527 -0.9719  0.0032
 9611SOL     OW29731   3.175   5.784   1.353  0.2578 -0.1471  0.4739
 9611SOL    HW129732   3.083   5.792   1.316 -0.5507 -1.4571  2.0810
 9611SOL    HW229733   3.199   5.869   1.400 -0.1912  0.1463  0.1778
 9612SOL     OW29734   0.219   2.937   2.859 -0.3291 -0.7877  0.0060
 9612SOL    HW129735   0.140   2.981   2.902  1.0246  0.5982  1.2582
 9612SOL    HW229736   0.191   2.853   2.814 -2.4997 -0.3133  0.3589
 9613SOL     OW29737   6.504   4.632   2.887  0.0254 -0.1471  1.0628
 9613SOL    HW129738   6.507   4.618   2.788  0.1912 -1.0460  1.1899
 9613SOL    HW229739   6.560   4.563   2.933  0.3682  0.5788  1.7576
 9614SOL     OW29740   4.917   2.134   3.004  0.3062  0.3265 -0.5358
 9614SOL    HW129741   4.979   2.058   3.022  0.7948  0.9386  0.4995
 9614SOL    HW229742   4.873   2.162   3.090 -0.9043  0.3300 -1.1427
 9615SOL     OW29743   1.713   3.456   0.932 -0.0079 -0.0199  0.2468
 9615SOL    HW129744   1.615   3.455   0.913 -0.1118  1.9847  0.4183
 9615SOL    HW229745   1.757   3.380   0.884 -1.4408 -0.0889 -1.0619
 9616SOL     OW29746   3.423   1.818   0.400 -0.6588 -0.0756 -0.1984
 9616SOL    HW129747   3.348   1.754   0.418 -0.4156  0.1606  2.0165
 9616SOL    HW229748   3.412   1.899   0.459  1.2158  0.0319  0.0571
 9617SOL     OW29749   2.612   0.511   2.678  0.1325  0.0067  0.4888
 9617SOL    HW129750   2.685   0.542   2.739 -0.2388 -0.1324  1.0154
 9617SOL    HW229751   2.605   0.572   2.599  1.2202 -0.3301  0.1205
 9618SOL     OW29752   1.447   2.022   2.430 -0.0775  0.1529 -0.0986
 9618SOL    HW129753   1.514   1.957   2.394  0.4266 -0.8123  2.3932
 9618SOL    HW229754   1.470   2.114   2.398  1.3107 -0.4065 -0.8178
 9619SOL     OW29755   2.789   0.899   4.553  0.9146  0.8080  0.5315
 9619SOL    HW129756   2.825   0.850   4.633  1.7673 -2.5313 -1.6653
 9619SOL    HW229757   2.690   0.889   4.549  0.9792  0.0653  0.6434
 9620SOL     OW29758   6.414   1.329   5.654  0.1035 -0.0844  0.0561
 9620SOL    HW129759   6.500   1.380   5.661  1.2916 -1.9286 -0.1730
 9620SOL    HW229760   6.349   1.380   5.597  0.7701  1.6657  0.7852
 9621SOL     OW29761   1.525   2.288   5.149 -0.1361 -0.0102 -0.0560
 9621SOL    HW129762   1.527   2.312   5.246 -0.1096  0.1313 -0.0917
 9621SOL    HW229763   1.516   2.371   5.094 -0.8207 -0.1378 -0.1470
 9622SOL     OW29764   4.600   0.867   1.550  0.6936  0.3843 -0.4365
 9622SOL    HW129765   4.670   0.889   1.481  0.9666  3.1353  0.5765
 9622SOL    HW229766   4.642   0.820   1.627  1.4150  1.6160 -0.0428
 9623SOL     OW29767   4.431   3.556   5.515  0.0958 -0.0694 -0.4257
 9623SOL    HW129768   4.411   3.616   5.438  1.4811  0.2341 -0.5623
 9623SOL    HW229769   4.447   3.463   5.482  1.1791  0.1576 -0.5867
 9624SOL     OW29770   6.416   3.647   3.787 -0.0673  0.2102 -0.3107
 9624SOL    HW129771   6.325   3.665   3.822  0.5074  1.7855  0.4369
 9624SOL    HW229772   6.439   3.714   3.716  1.3913  1.3396  1.1693
 9625SOL     OW29773   6.025   4.970   6.723  0.9132 -0.0143 -0.0057
 9625SOL    HW129774   6.125   4.957   6.723  0.7792 -1.2841 -0.9164
 9625SOL    HW229775   5.998   5.023   6.643  1.0461  2.5318  1.5287
 9626SOL     OW29776   4.272   5.710   0.803 -0.2051 -0.1143 -0.2786
 9626SOL    HW129777   4.177   5.694   0.777 -0.7873  1.1819  0.8893
 9626SOL    HW229778   4.314   5.775   0.741 -0.5940  0.5379  0.1333
 9627SOL     OW29779   2.404   0.463   0.580  0.0768  0.0786  0.1624
 9627SOL    HW129780   2.499   0.434   0.588  0.2217  0.3923 -0.3651
 9627SOL    HW229781   2.343   0.391   0.615  0.5042 -0.1002  0.5506
 9628SOL     OW29782   4.860   4.089   1.702 -0.2001 -0.6911  0.1433
 9628SOL    HW129783   4.789   4.037   1.655  0.5310 -1.4711 -0.1134
 9628SOL    HW229784   4.825   4.180   1.725 -0.6011 -0.2692 -1.9076
 9629SOL     OW29785   3.966   0.124   1.543 -0.0219 -0.2008  0.3551
 9629SOL    HW129786   3.958   0.140   1.445 -3.2241  3.1103  0.9351
 9629SOL    HW229787   3.911   0.044   1.568 -0.3662 -0.2016 -0.3728
 9630SOL     OW29788   7.015   0.724   4.290  0.4333  0.0341 -0.0255
 9630SOL    HW129789   7.026   0.712   4.192  0.0982  0.8532 -0.1693
 9630SOL    HW229790   7.081   0.665   4.338  1.8004  0.8948 -0.7734
 9631SOL     OW29791   5.087   0.800   4.813 -0.2277 -0.1634 -0.2612
 9631SOL    HW129792   5.013   0.819   4.877  1.5939  1.6075  1.4326
 9631SOL    HW229793   5.150   0.733   4.853  0.7848  0.7562 -0.2894
 9632SOL     OW29794   1.247   6.253   1.127 -0.3411  0.4581  0.4635
 9632SOL    HW129795   1.259   6.348   1.155  0.8690  0.1348  1.1267
 9632SOL    HW229796   1.248   6.194   1.208  2.5203 -0.4366 -0.1073
 9633SOL     OW29797   6.644   5.450   4.340 -0.8111 -0.3706  0.0150
 9633SOL    HW129798   6.577   5.421   4.408 -0.8694 -1.1449 -0.3611
 9633SOL    HW229799   6.627   5.545   4.313 -1.1603 -0.2593  0.6225
 9634SOL     OW29800   6.272   0.253   5.429 -1.0237 -0.7480  0.3576
 9634SOL    HW129801   6.210   0.282   5.502  0.2726 -0.1551  1.2652
 9634SOL    HW229802   6.251   0.303   5.345 -0.9075  0.4399  1.0231
 9635SOL     OW29803   2.251   3.610   5.406 -0.4205  0.7675  0.4655
 9635SOL    HW129804   2.261   3.523   5.454  0.7184  0.0058 -1.0583
 9635SOL    HW229805   2.188   3.599   5.329 -0.0203  1.1896  0.0680
 9636SOL     OW29806   3.756   0.829   3.840  0.5000  0.3854 -0.2688
 9636SOL    HW129807   3.705   0.852   3.922  0.4974 -0.5811  0.0163
 9636SOL    HW229808   3.777   0.912   3.789 -0.0694  0.9300  0.3675
 9637SOL     OW29809   2.244   0.030   6.343  0.9709  0.5869  0.1911
 9637SOL    HW129810   2.176   0.076   6.399  0.4676  2.2984 -1.7127
 9637SOL    HW229811   2.320   0.093   6.326  1.2440  0.0010 -0.7978
 9638SOL     OW29812   6.394   4.007   6.192 -0.5143 -0.6136 -0.0668
 9638SOL    HW129813   6.355   4.049   6.110  2.0948  0.1298 -1.0159
 9638SOL    HW229814   6.378   3.909   6.190 -2.1877 -0.3750 -0.4239
 9639SOL     OW29815   5.600   1.460   1.552  0.1865  0.2631 -0.5720
 9639SOL    HW129816   5.517   1.498   1.592 -0.1110  1.0754 -1.9181
 9639SOL    HW229817   5.677   1.475   1.615 -0.6290 -0.3568  0.6103
 9640SOL     OW29818   1.589   2.895   1.112 -0.1087 -0.0626  0.6551
 9640SOL    HW129819   1.561   2.812   1.159 -0.6357  0.5884  1.5314
 9640SOL    HW229820   1.537   2.905   1.027  0.3437 -0.8855  0.2701
 9641SOL     OW29821   6.255   6.232   1.148 -0.0007 -0.0342  0.2384
 9641SOL    HW129822   6.355   6.235   1.148  0.0042  2.5655 -0.6269
 9641SOL    HW229823   6.225   6.148   1.104  1.7719 -1.1529  1.0443
 9642SOL     OW29824   4.571   1.752   3.152  0.0713 -0.1264 -0.0798
 9642SOL    HW129825   4.536   1.835   3.110  0.9275 -0.4728 -1.5620
 9642SOL    HW229826   4.636   1.776   3.223 -0.5497  0.4730  0.2970
 9643SOL     OW29827   3.671   4.944   4.085 -0.1422  0.1390  0.3686
 9643SOL    HW129828   3.601   4.912   4.149 -0.5680 -0.0120 -0.1645
 9643SOL    HW229829   3.758   4.955   4.133  0.0244 -1.7806  0.5908
 9644SOL     OW29830   5.745   3.332   5.785 -0.1996  0.1602 -0.1119
 9644SOL    HW129831   5.724   3.281   5.702 -1.6524 -1.9529  1.4333
 9644SOL    HW229832   5.660   3.360   5.830  0.5209  0.3793  1.1823
 9645SOL     OW29833   4.704   4.675   4.266  0.5281  0.4843 -0.6046
 9645SOL    HW129834   4.708   4.591   4.319  0.4220  1.7602  1.5102
 9645SOL    HW229835   4.795   4.695   4.230  0.8394  0.1484 -0.0211
 9646SOL     OW29836   4.023   4.809   2.597  1.0805  0.1867 -0.1849
 9646SOL    HW129837   3.992   4.769   2.511  0.7608 -2.6362  1.1543
 9646SOL    HW229838   3.951   4.868   2.634  0.3324 -0.3337 -0.7792
 9647SOL     OW29839   5.118   1.780   0.416  0.2446  0.1267  0.4236
 9647SOL    HW129840   5.180   1.776   0.337 -0.9557  0.0400 -0.5559
 9647SOL    HW229841   5.107   1.688   0.454 -1.1406 -0.3428 -0.9547
 9648SOL     OW29842   5.063   4.272   1.532  0.1508  0.2595 -0.1994
 9648SOL    HW129843   5.141   4.290   1.471 -0.2792  2.0003 -0.2972
 9648SOL    HW229844   5.087   4.300   1.625 -0.0668 -0.0022 -0.0648
 9649SOL     OW29845   1.890   6.392   1.370  0.4297 -0.3085 -0.1260
 9649SOL    HW129846   1.929   6.462   1.431 -0.1157 -1.4687  1.6189
 9649SOL    HW229847   1.805   6.426   1.330  0.0275 -0.0691  0.9201
 9650SOL     OW29848   6.317   6.345   2.782  0.0758 -0.2844 -0.0008
 9650SOL    HW129849   6.253   6.411   2.821  2.6715  2.3774  0.0517
 9650SOL    HW229850   6.347   6.281   2.853  0.1554  0.6892  0.8627
 9651SOL     OW29851   1.512   1.370   4.972 -0.1184 -0.3473  0.0820
 9651SOL    HW129852   1.572   1.432   4.922 -0.2230 -0.2304  0.1001
 9651SOL    HW229853   1.472   1.418   5.050 -0.8166 -0.1984 -0.3603
 9652SOL     OW29854   1.785   4.296   2.010  0.5928  0.4995 -0.2917
 9652SOL    HW129855   1.876   4.290   2.051  0.9483  0.2850 -1.1079
 9652SOL    HW229856   1.722   4.236   2.059  1.3634 -0.9061 -0.9940
 9653SOL     OW29857   0.118   6.443   3.219 -0.2845 -0.0784  0.6279
 9653SOL    HW129858   0.117   6.529   3.269 -0.0670 -0.7287  1.7944
 9653SOL    HW229859   0.063   6.376   3.268 -1.7248 -0.2001 -1.0482
 9654SOL     OW29860   2.558   1.611   2.696 -0.4686  0.6260  0.3762
 9654SOL    HW129861   2.594   1.693   2.651  1.1969  0.4990  1.3823
 9654SOL    HW229862   2.544   1.631   2.793  0.3100 -0.3525  0.7092
 9655SOL     OW29863   5.260   2.537   2.043  0.8647  0.3420  0.2314
 9655SOL    HW129864   5.221   2.448   2.019  3.1505 -0.5794 -0.3607
 9655SOL    HW229865   5.187   2.601   2.068 -0.8635 -1.5458  0.1959
 9656SOL     OW29866   4.830   6.528   3.645  0.0467  0.3109  0.0215
 9656SOL    HW129867   4.815   6.432   3.622 -1.0983  0.5530 -0.3002
 9656SOL    HW229868   4.822   6.541   3.744  0.3230  0.0587  0.0779
 9657SOL     OW29869   0.336   6.650   3.987 -0.9683  0.4398 -0.2425
 9657SOL    HW129870   0.392   6.567   3.989 -2.2264 -0.4348  1.6268
 9657SOL    HW229871   0.262   6.640   3.921 -1.5025 -0.2345  0.4391
 9658SOL     OW29872   0.070   3.733   3.682 -0.0286 -0.2366  0.4733
 9658SOL    HW129873   0.106   3.702   3.769 -2.3507  0.3859  1.7411
 9658SOL    HW229874   0.145   3.758   3.621  1.6541  0.0227  2.5602
 9659SOL     OW29875   0.641   3.404   6.165  0.0848 -0.3519 -0.2167
 9659SOL    HW129876   0.613   3.318   6.207 -1.1108  0.8744  1.6010
 9659SOL    HW229877   0.639   3.394   6.065 -0.5050 -2.2573 -0.0515
 9660SOL     OW29878   6.054   6.561   2.408  0.0327  0.0518 -0.1506
 9660SOL    HW129879   6.106   6.639   2.442  2.4460 -0.7721 -1.6973
 9660SOL    HW229880   6.038   6.573   2.310  0.3994 -1.3534 -0.3972
 9661SOL     OW29881   3.776   1.699   2.771  0.1378 -0.0600 -0.5404
 9661SOL    HW129882   3.842   1.758   2.724 -0.4385 -0.9213 -2.5280
 9661SOL    HW229883   3.683   1.732   2.752 -0.1024 -0.0139  0.6217
 9662SOL     OW29884   6.135   2.183   4.141 -0.6980  0.6093  0.3853
 9662SOL    HW129885   6.227   2.222   4.151 -0.8815  1.2544 -0.3177
 9662SOL    HW229886   6.120   2.114   4.211  0.2878  0.5708  0.5716
 9663SOL     OW29887   3.165   1.475   3.688  0.6104  0.3835  0.0640
 9663SOL    HW129888   3.101   1.481   3.611  1.4324  2.3070 -0.5208
 9663SOL    HW229889   3.130   1.530   3.764  1.0550  0.5697  0.1317
 9664SOL     OW29890   2.845   1.138   1.645  0.2940 -0.2354 -0.3492
 9664SOL    HW129891   2.746   1.135   1.661  0.5392 -1.6845  1.3242
 9664SOL    HW229892   2.880   1.044   1.642  2.2489  0.0985  4.1120
 9665SOL     OW29893   6.662   4.858   5.177 -0.2550  0.0250  0.0327
 9665SOL    HW129894   6.757   4.849   5.148 -0.0182 -0.1428  0.8337
 9665SOL    HW229895   6.632   4.953   5.164  0.2242  0.2249  0.3666
 9666SOL     OW29896   4.750   5.034   4.312  0.3040 -0.4785 -0.0667
 9666SOL    HW129897   4.795   5.014   4.225  0.7814  0.2456  0.0057
 9666SOL    HW229898   4.776   4.964   4.379  2.7665  0.8066  0.4648
 9667SOL     OW29899   3.173   4.078   3.878 -0.0776 -0.2316 -0.0805
 9667SOL    HW129900   3.178   4.073   3.977  0.8525 -0.2650 -0.1175
 9667SOL    HW229901   3.152   4.171   3.850  3.1068  0.6557  0.0879
 9668SOL     OW29902   1.181   1.420   5.363 -0.0930 -0.6611 -0.0969
 9668SOL    HW129903   1.184   1.519   5.376  2.1544 -0.5004 -1.3176
 9668SOL    HW229904   1.113   1.398   5.292  0.4095  0.1582 -0.8551
 9669SOL     OW29905   2.803   3.873   0.877  0.0259 -0.0089 -0.3438
 9669SOL    HW129906   2.712   3.876   0.918 -0.4953 -0.6038 -1.4355
 9669SOL    HW229907   2.821   3.781   0.842  0.8048  0.2625 -0.6703
 9670SOL     OW29908   6.532   5.098   1.173  0.3157  0.3162 -0.2271
 9670SOL    HW129909   6.451   5.062   1.220  1.4222 -2.7820 -0.4625
 9670SOL    HW229910   6.531   5.067   1.078  3.2726 -2.6637  0.5496
 9671SOL     OW29911   0.526   6.748   6.431 -0.1390 -0.5167 -0.6832
 9671SOL    HW129912   0.468   6.806   6.487  1.9661  1.2109 -0.1424
 9671SOL    HW229913   0.507   6.764   6.335  0.8060  1.6133 -0.5633
 9672SOL     OW29914   0.327   5.037   4.925  0.3887  0.6915 -0.2535
 9672SOL    HW129915   0.280   4.962   4.970  0.7409  1.2829  1.1576
 9672SOL    HW229916   0.263   5.086   4.866 -0.1258 -0.0083 -0.2885
 9673SOL     OW29917   2.662   3.205   6.034  0.0969 -0.2712  0.0534
 9673SOL    HW129918   2.716   3.286   6.010  0.6486 -1.0427 -1.4820
 9673SOL    HW229919   2.567   3.219   6.006 -0.1447  0.4032  1.1549
 9674SOL     OW29920   2.771   1.362   3.074 -0.7688  0.3825 -0.7262
 9674SOL    HW129921   2.794   1.311   3.158 -1.6929  3.1168  1.3266
 9674SOL    HW229922   2.682   1.331   3.041 -0.7339 -0.2282 -0.2782
 9675SOL     OW29923   6.697   4.000   2.841 -0.1609  0.0678  0.4472
 9675SOL    HW129924   6.667   3.943   2.765 -3.2322 -1.7897  2.8145
 9675SOL    HW229925   6.624   4.063   2.867  1.2101  1.4099  1.2129
 9676SOL     OW29926   6.765   3.664   5.113  0.1058 -0.0402  0.4901
 9676SOL    HW129927   6.755   3.588   5.176  0.3692 -1.3616 -0.9863
 9676SOL    HW229928   6.703   3.738   5.138 -2.6559 -2.0748  0.0516
 9677SOL     OW29929   2.137   1.870   0.497  0.7106  0.4117  0.6011
 9677SOL    HW129930   2.061   1.833   0.445  0.3653  1.5727  0.2383
 9677SOL    HW229931   2.220   1.868   0.441  0.1363  2.5783 -0.4522
 9678SOL     OW29932   3.707   3.774   3.169  0.1166 -0.6789  0.0935
 9678SOL    HW129933   3.777   3.839   3.139  0.1161 -1.9171 -2.9300
 9678SOL    HW229934   3.644   3.756   3.093  1.0685 -5.3781  0.1249
 9679SOL     OW29935   0.276   2.854   1.504  0.3523  0.9041 -0.1222
 9679SOL    HW129936   0.302   2.891   1.415 -0.7529 -0.0183 -0.8579
 9679SOL    HW229937   0.177   2.844   1.509  0.5527 -1.8278  0.0451
 9680SOL     OW29938   0.897   4.937   1.917 -0.3174 -0.4481 -0.3299
 9680SOL    HW129939   0.806   4.972   1.896  0.0175  0.3573 -0.4594
 9680SOL    HW229940   0.917   4.949   2.014 -0.1786 -0.2212 -0.3859
 9681SOL     OW29941   1.399   1.111   2.538 -0.1875  0.5083  0.7053
 9681SOL    HW129942   1.314   1.164   2.530 -0.2920  0.3302  0.6152
 9681SOL    HW229943   1.399   1.038   2.469  0.0219  0.4834  0.7309
 9682SOL     OW29944   3.858   1.448   3.601  0.1714  1.0555  0.1526
 9682SOL    HW129945   3.843   1.434   3.503  0.1861 -0.2013  0.3116
 9682SOL    HW229946   3.855   1.546   3.621  1.8528  1.4973 -1.3802
 9683SOL     OW29947   5.746   6.520   0.712 -0.4859  0.3582 -0.4217
 9683SOL    HW129948   5.699   6.609   0.708 -0.9313  0.1250 -0.5251
 9683SOL    HW229949   5.708   6.466   0.788 -0.3063  0.2076 -0.4392
 9684SOL     OW29950   0.089   4.118   4.844 -0.0270  0.3083  0.2845
 9684SOL    HW129951   0.100   4.188   4.914 -0.2635  0.7207 -0.0903
 9684SOL    HW229952   0.075   4.029   4.888  2.9764 -0.0139  0.8082
 9685SOL     OW29953   1.990   2.130   6.616 -0.3706 -0.0483 -0.3868
 9685SOL    HW129954   1.952   2.049   6.661 -3.1596  2.0819  1.4780
 9685SOL    HW229955   2.077   2.155   6.659 -1.7058  0.4358  2.3120
 9686SOL     OW29956   5.161   6.409   2.634  0.7219 -0.4104  0.0879
 9686SOL    HW129957   5.211   6.470   2.573  0.0819 -0.3984 -0.4241
 9686SOL    HW229958   5.087   6.459   2.679  1.0028 -0.4924  0.6522
 9687SOL     OW29959   2.905   6.443   4.117  0.2854  0.3577 -0.2204
 9687SOL    HW129960   2.861   6.475   4.033  0.2800 -3.7164 -1.9982
 9687SOL    HW229961   2.961   6.362   4.097 -1.1776 -2.0066  3.9292
 9688SOL     OW29962   6.839   1.505   4.020  0.2867  0.4884  0.5459
 9688SOL    HW129963   6.741   1.504   4.039  0.3582  0.1987  0.9144
 9688SOL    HW229964   6.889   1.467   4.098  0.6027 -0.5200 -0.1196
 9689SOL     OW29965   2.318   6.402   5.827  0.0501  0.7329  0.2259
 9689SOL    HW129966   2.245   6.372   5.888  0.2838  0.0314  0.1646
 9689SOL    HW229967   2.305   6.499   5.805 -0.6915  0.6897  0.4504
 9690SOL     OW29968   5.115   4.529   6.890  0.4746  0.0435 -0.0291
 9690SOL    HW129969   5.126   4.600   6.821 -0.5257 -0.6072 -0.8999
 9690SOL    HW229970   5.118   4.569   6.981 -1.5190  1.4472 -0.5227
 9691SOL     OW29971   6.582   5.427   2.570 -0.5974  0.0651 -0.5121
 9691SOL    HW129972   6.540   5.517   2.578  0.4443  0.4609  0.9371
 9691SOL    HW229973   6.681   5.437   2.565 -0.4960 -0.9815 -0.7880
 9692SOL     OW29974   2.987   5.599   2.236  0.0057  0.5011  0.4546
 9692SOL    HW129975   3.080   5.636   2.236 -0.7205  2.4733  1.2820
 9692SOL    HW229976   2.989   5.502   2.260  1.8034  0.6244  0.9309
 9693SOL     OW29977   4.483   0.217   1.511 -0.1340  0.1036 -0.0434
 9693SOL    HW129978   4.507   0.152   1.440  1.1287 -1.4200  1.6876
 9693SOL    HW229979   4.385   0.211   1.530 -0.3128 -0.1283 -0.9825
 9694SOL     OW29980   2.165   2.629   1.561  0.0128  0.2564  0.2573
 9694SOL    HW129981   2.138   2.724   1.573 -0.1270  0.2525 -0.0113
 9694SOL    HW229982   2.164   2.606   1.464 -2.3180 -0.6866  0.4418
 9695SOL     OW29983   5.425   4.556   1.860 -0.1732  0.8686  0.0297
 9695SOL    HW129984   5.398   4.513   1.774 -1.9943 -0.0610  1.0006
 9695SOL    HW229985   5.442   4.653   1.845 -0.8666  0.8037 -1.3150
 9696SOL     OW29986   3.576   3.706   0.732 -0.4525  0.5763 -0.1730
 9696SOL    HW129987   3.636   3.783   0.752 -0.2607  0.6062 -0.8284
 9696SOL    HW229988   3.564   3.650   0.813  0.1689  0.7725  0.0526
 9697SOL     OW29989   1.957   4.545   6.582  0.2189  0.1904  0.0014
 9697SOL    HW129990   2.001   4.461   6.549 -0.4350 -0.7296  1.4169
 9697SOL    HW229991   2.015   4.588   6.651  0.2043  0.5157 -0.1857
 9698SOL     OW29992   5.272   2.042   5.791 -0.0740 -0.6411  0.5263
 9698SOL    HW129993   5.249   2.125   5.739 -2.3413  0.1856  2.6598
 9698SOL    HW229994   5.339   1.989   5.740  0.7776  2.0298 -1.3683
 9699SOL     OW29995   2.693   2.206   0.754  0.6463 -0.5151 -0.5175
 9699SOL    HW129996   2.596   2.228   0.752  0.6233 -0.6984 -1.9337
 9699SOL    HW229997   2.709   2.130   0.817  0.0042  0.0311  0.3347
 9700SOL     OW29998   2.810   4.123   5.768 -0.3383  0.0136 -0.1487
 9700SOL    HW129999   2.902   4.145   5.800 -0.5798  0.5458  0.2022
 9700SOL    HW230000   2.806   4.027   5.741  0.1400 -0.1954  0.4868
 9701SOL     OW30001   4.828   4.083   4.204  0.3503 -0.0649 -0.4046
 9701SOL    HW130002   4.798   4.130   4.121 -0.1121 -1.2899 -0.9639
 9701SOL    HW230003   4.790   4.129   4.285 -0.1101  0.4938 -0.9331
 9702SOL     OW30004   5.320   0.370   1.230  0.4187  0.4854 -0.9291
 9702SOL    HW130005   5.337   0.420   1.146  1.2950 -2.1852 -2.4853
 9702SOL    HW230006   5.401   0.375   1.289  0.1348  1.6271 -0.6182
 9703SOL     OW30007   2.601   5.018   5.075 -0.2385  0.2984  0.1645
 9703SOL    HW130008   2.560   4.962   5.147 -1.3446 -0.5939 -1.1117
 9703SOL    HW230009   2.537   5.026   4.998  1.7893 -0.7744 -1.7333
 9704SOL     OW30010   3.580   0.866   2.613 -0.2852  0.4401 -0.3142
 9704SOL    HW130011   3.670   0.833   2.584 -0.8391  0.3024 -2.0293
 9704SOL    HW230012   3.537   0.800   2.674 -0.0253 -0.4710 -1.0945
 9705SOL     OW30013   2.908   2.868   0.648 -0.3569 -0.0183 -0.5261
 9705SOL    HW130014   2.955   2.951   0.679  0.2114 -0.2163 -0.8349
 9705SOL    HW230015   2.902   2.802   0.723 -0.7979  0.2912 -0.2834
 9706SOL     OW30016   1.190   2.333   3.018  0.1370 -0.3799  0.5614
 9706SOL    HW130017   1.189   2.322   2.919  0.5830 -1.2222  0.6402
 9706SOL    HW230018   1.237   2.418   3.041 -0.9394  0.3857  0.0216
 9707SOL     OW30019   3.107   5.303   2.635  0.1166  0.0389  0.3416
 9707SOL    HW130020   3.097   5.349   2.724  1.8319  0.7902  0.1824
 9707SOL    HW230021   3.036   5.335   2.573  0.0505  0.9672  0.8747
 9708SOL     OW30022   2.895   1.583   2.700  0.2650 -0.4134 -0.4452
 9708SOL    HW130023   2.797   1.578   2.719  0.4697 -2.5043  0.2672
 9708SOL    HW230024   2.911   1.557   2.604  0.2205 -1.5330 -0.1654
 9709SOL     OW30025   3.946   5.489   3.048  0.1053  0.1635  0.4765
 9709SOL    HW130026   4.004   5.535   2.980  0.1941 -1.6943 -0.7585
 9709SOL    HW230027   3.927   5.553   3.122  0.2849  2.1716 -1.0996
 9710SOL     OW30028   1.415   0.288   2.479  0.0705  0.7919 -0.0829
 9710SOL    HW130029   1.352   0.349   2.527  1.1602  1.4771  0.5161
 9710SOL    HW230030   1.402   0.194   2.511 -0.6065  0.9232  0.0549
 9711SOL     OW30031   1.388   4.852   5.384 -0.1452  0.4367  0.2402
 9711SOL    HW130032   1.456   4.900   5.440 -1.2775 -0.7176  2.8078
 9711SOL    HW230033   1.328   4.919   5.340  1.6702  1.4314 -0.8328
 9712SOL     OW30034   0.268   4.711   3.960 -0.2835  0.3505  0.4386
 9712SOL    HW130035   0.323   4.657   4.023  0.1111  0.1296 -0.0895
 9712SOL    HW230036   0.228   4.651   3.890  1.1193  0.8676 -0.8630
 9713SOL     OW30037   0.560   4.403   1.370 -0.1004 -0.3069  0.1738
 9713SOL    HW130038   0.500   4.445   1.439  0.8384  0.3897  0.5994
 9713SOL    HW230039   0.602   4.321   1.408  0.5452  0.1678  0.5217
 9714SOL     OW30040   1.994   2.925   2.563 -0.2374 -0.4558  0.4965
 9714SOL    HW130041   1.896   2.909   2.572 -0.0875 -0.2987  3.4968
 9714SOL    HW230042   2.042   2.837   2.562 -0.3331 -0.5063  0.2315
 9715SOL     OW30043   5.059   5.754   4.660  0.9238  0.1426 -0.1318
 9715SOL    HW130044   5.038   5.792   4.570  1.4351 -1.3200 -0.8935
 9715SOL    HW230045   5.150   5.713   4.659  0.9990  0.2437  1.1055
 9716SOL     OW30046   3.013   0.842   6.790  0.0101  0.5004 -0.3520
 9716SOL    HW130047   3.087   0.880   6.735 -0.0848  1.8971  0.4490
 9716SOL    HW230048   2.926   0.884   6.763 -0.0377  1.1982  0.8327
 9717SOL     OW30049   3.511   5.842   2.879  0.4225  0.0319 -0.6511
 9717SOL    HW130050   3.503   5.742   2.874  2.8960 -0.1868 -1.9221
 9717SOL    HW230051   3.424   5.881   2.908 -0.9469 -2.4124 -1.1808
 9718SOL     OW30052   4.932   5.276   0.476  0.9063 -0.0860  0.0111
 9718SOL    HW130053   4.866   5.337   0.431  0.9447  0.3888  0.5797
 9718SOL    HW230054   4.956   5.202   0.415 -0.8303 -0.7662  0.0914
 9719SOL     OW30055   1.004   0.970   5.960 -0.0997 -0.0476 -0.2197
 9719SOL    HW130056   0.938   1.045   5.953  0.0010 -0.1412 -3.1467
 9719SOL    HW230057   1.012   0.942   6.056 -0.9119  2.9501  0.8431
 9720SOL     OW30058   6.715   6.446   3.320 -0.1175 -0.2038  0.2195
 9720SOL    HW130059   6.780   6.371   3.304 -0.5284 -0.5241  0.0403
 9720SOL    HW230060   6.679   6.478   3.233  0.4692  0.5836  0.2518
 9721SOL     OW30061   1.218   4.656   2.109 -0.1357  0.1059  0.3427
 9721SOL    HW130062   1.249   4.751   2.116  0.1480 -0.0386  1.1629
 9721SOL    HW230063   1.208   4.632   2.013  2.2139  0.2064  0.0032
 9722SOL     OW30064   0.495   6.079   1.520 -0.5008 -0.5087 -0.3592
 9722SOL    HW130065   0.557   6.079   1.598  2.5784 -1.3578 -2.6130
 9722SOL    HW230066   0.471   5.985   1.496 -1.9181 -0.2308 -0.1336
 9723SOL     OW30067   6.901   1.113   2.300 -0.3597 -0.6876  0.0910
 9723SOL    HW130068   6.943   1.120   2.209 -2.2648 -0.7492 -0.8545
 9723SOL    HW230069   6.900   1.203   2.343  1.6150 -0.8655  0.5964
 9724SOL     OW30070   4.067   0.593   1.843  0.5926  0.5664 -0.0731
 9724SOL    HW130071   3.995   0.619   1.906  0.9476  0.7049  0.2795
 9724SOL    HW230072   4.031   0.530   1.774  0.3169  0.0434  0.5461
 9725SOL     OW30073   5.172   3.798   4.845 -0.2958  0.0428  0.0110
 9725SOL    HW130074   5.232   3.814   4.923 -0.3534  1.8199 -0.2681
 9725SOL    HW230075   5.086   3.759   4.877  0.4379 -1.1520  0.5819
 9726SOL     OW30076   5.118   6.991   5.200  0.1597  0.4462 -0.2863
 9726SOL    HW130077   5.115   6.972   5.298  0.4665 -0.4828 -0.4470
 9726SOL    HW230078   5.028   6.972   5.160  0.2657  0.0136 -0.3236
 9727SOL     OW30079   2.016   0.545   4.725  0.0624  0.7298  0.5183
 9727SOL    HW130080   2.103   0.593   4.716  0.0007  1.2768  2.3749
 9727SOL    HW230081   1.949   0.606   4.769 -0.3868 -0.6073  1.7761
 9728SOL     OW30082   4.095   4.088   6.494 -0.3108 -0.1229  0.0779
 9728SOL    HW130083   4.017   4.045   6.449  0.0902 -0.4829 -0.2915
 9728SOL    HW230084   4.105   4.182   6.461  1.9646 -1.3491 -3.2602
 9729SOL     OW30085   2.933   5.098   1.673  0.0851 -0.3502  0.2061
 9729SOL    HW130086   2.948   5.049   1.758 -3.1294 -1.4119  0.3122
 9729SOL    HW230087   2.865   5.170   1.687  2.4669  2.2364 -0.6460
 9730SOL     OW30088   6.944   2.364   3.244 -0.1495 -0.2115 -0.1104
 9730SOL    HW130089   6.863   2.318   3.280 -0.4888  0.4940  0.0327
 9730SOL    HW230090   6.966   2.442   3.301  0.3296 -0.0974 -0.4476
 9731SOL     OW30091   3.987   4.114   1.385  0.2652  0.6457 -0.0046
 9731SOL    HW130092   4.069   4.085   1.434  0.1401 -0.7980 -0.6055
 9731SOL    HW230093   3.939   4.185   1.438  1.5826  1.0984  0.6132
 9732SOL     OW30094   1.442   6.523   4.557 -1.0093  0.1430 -0.0666
 9732SOL    HW130095   1.503   6.599   4.578  0.0646 -0.3119 -1.4257
 9732SOL    HW230096   1.484   6.463   4.490 -2.3251 -1.0411  0.1013
 9733SOL     OW30097   5.262   4.298   6.811 -0.6474 -0.4296 -0.2162
 9733SOL    HW130098   5.295   4.372   6.869  0.4166 -0.4094 -0.8172
 9733SOL    HW230099   5.188   4.333   6.753 -0.7467 -0.0737  0.1172
 9734SOL     OW30100   5.900   4.841   3.871 -0.5042  0.2543  0.5586
 9734SOL    HW130101   5.836   4.918   3.879  0.0940  0.6690  1.6106
 9734SOL    HW230102   5.853   4.762   3.831 -1.3811  0.8739  0.3360
 9735SOL     OW30103   1.529   4.151   1.573  0.7262 -0.2643  0.3640
 9735SOL    HW130104   1.445   4.194   1.605  1.2828  0.0406  1.4442
 9735SOL    HW230105   1.553   4.187   1.482  0.4993  0.7531  0.6995
 9736SOL     OW30106   4.657   0.448   6.460  0.2491 -0.3455 -0.1873
 9736SOL    HW130107   4.667   0.365   6.515 -0.5348 -0.8412 -0.7748
 9736SOL    HW230108   4.747   0.475   6.425  0.4707 -1.1106 -0.2324
 9737SOL     OW30109   3.392   2.317   6.113 -0.1088  0.6624  0.4261
 9737SOL    HW130110   3.342   2.232   6.096 -0.9534  1.5017 -1.6056
 9737SOL    HW230111   3.328   2.394   6.113  0.9082  1.5464 -0.1510
 9738SOL     OW30112   0.921   6.389   4.010  0.3631  0.8025  0.1244
 9738SOL    HW130113   1.014   6.401   4.044 -0.0978  0.8146  1.4221
 9738SOL    HW230114   0.888   6.474   3.970  0.6252  1.0250  0.3812
 9739SOL     OW30115   3.850   5.276   0.999 -0.0268 -0.2395  0.1392
 9739SOL    HW130116   3.812   5.346   1.059 -1.9209 -1.7244  0.7650
 9739SOL    HW230117   3.923   5.227   1.048  1.3330  1.2531 -0.3155
 9740SOL     OW30118   2.407   2.506   2.824  0.1787 -0.2261  0.6065
 9740SOL    HW130119   2.488   2.463   2.784  0.4902 -0.4570  1.4788
 9740SOL    HW230120   2.421   2.605   2.828  0.1430 -0.2010  0.1419
 9741SOL     OW30121   4.919   3.394   2.572  0.6999  0.3439  0.1533
 9741SOL    HW130122   4.945   3.411   2.477  1.2759  0.6587  0.3619
 9741SOL    HW230123   4.898   3.481   2.617 -2.2854  0.0199 -0.4280
 9742SOL     OW30124   5.091   0.724   4.226 -0.6028  0.0654 -0.1362
 9742SOL    HW130125   4.997   0.738   4.195  0.0095 -0.9674 -2.7193
 9742SOL    HW230126   5.155   0.754   4.155  1.0291 -0.1527  1.1594
 9743SOL     OW30127   2.137   0.562   3.221 -0.5100 -0.1952 -0.2400
 9743SOL    HW130128   2.164   0.476   3.176 -0.7215 -0.1627 -0.4323
 9743SOL    HW230129   2.171   0.563   3.314  0.5926  0.0665 -0.6374
 9744SOL     OW30130   1.746   1.394   0.108 -0.1713  0.0370  0.0733
 9744SOL    HW130131   1.653   1.421   0.084  0.2561  1.8367  0.3486
 9744SOL    HW230132   1.776   1.446   0.188  1.2384 -0.1993 -0.2866
 9745SOL     OW30133   6.861   3.220   5.759  0.8916 -0.5382  0.3843
 9745SOL    HW130134   6.887   3.230   5.663 -0.4448  0.8476  0.1298
 9745SOL    HW230135   6.763   3.206   5.766  0.6292  1.4094  1.5847
 9746SOL     OW30136   6.140   0.858   4.495 -0.4999  0.3096  0.2881
 9746SOL    HW130137   6.226   0.840   4.543 -0.7409  1.3897  1.1607
 9746SOL    HW230138   6.151   0.837   4.398 -0.1014 -2.2608  0.8198
 9747SOL     OW30139   1.044   6.792   5.788 -0.0320 -0.6009 -0.1318
 9747SOL    HW130140   0.947   6.769   5.796 -0.6525  1.0752 -1.9138
 9747SOL    HW230141   1.094   6.713   5.753 -1.6303 -0.2851 -3.6179
 9748SOL     OW30142   6.829   0.115   3.452 -0.3891 -0.3306  0.2518
 9748SOL    HW130143   6.848   0.122   3.353 -1.0370  0.5817  0.1806
 9748SOL    HW230144   6.833   0.207   3.492  0.0543 -0.7239  1.1165
 9749SOL     OW30145   0.665   3.990   4.282 -0.6560  0.2684 -0.0032
 9749SOL    HW130146   0.703   3.910   4.235 -1.1884  0.4011 -0.6659
 9749SOL    HW230147   0.739   4.052   4.308 -0.3235  0.0105 -0.3262
 9750SOL     OW30148   4.853   5.157   2.769  0.0492 -0.1809  0.2488
 9750SOL    HW130149   4.832   5.113   2.856 -1.2218  0.7379  0.4314
 9750SOL    HW230150   4.792   5.234   2.755  3.3682  2.8359  0.8650
 9751SOL     OW30151   2.794   1.522   0.119 -0.1079  0.7405 -0.0106
 9751SOL    HW130152   2.856   1.545   0.044 -0.6970  0.3998 -0.6160
 9751SOL    HW230153   2.700   1.531   0.088 -0.3986 -1.7704 -0.1158
 9752SOL     OW30154   3.747   0.064   5.220 -0.0417  0.0348  0.4534
 9752SOL    HW130155   3.667   0.003   5.215 -2.0628  2.3673  2.0003
 9752SOL    HW230156   3.734   0.140   5.157  1.8018 -0.3546 -0.4562
 9753SOL     OW30157   6.654   5.854   6.070 -0.5916 -0.2137  0.1799
 9753SOL    HW130158   6.626   5.857   5.974  1.4117 -0.4086 -0.4474
 9753SOL    HW230159   6.730   5.790   6.081  0.2988  1.0196  1.5765
 9754SOL     OW30160   1.270   0.416   4.344 -0.6799  0.8803 -0.5459
 9754SOL    HW130161   1.287   0.324   4.309 -0.4511  0.8535 -0.3659
 9754SOL    HW230162   1.268   0.481   4.268  2.0430  1.1732 -0.4642
 9755SOL     OW30163   3.333   4.916   5.495  0.1642  0.0981  0.5767
 9755SOL    HW130164   3.359   4.855   5.421 -2.2833 -1.3017  0.7728
 9755SOL    HW230165   3.392   4.900   5.574 -0.3617 -2.0204  0.5987
 9756SOL     OW30166   4.942   2.786   0.463 -0.4341 -0.6183  0.1411
 9756SOL    HW130167   4.953   2.884   0.475  1.8261 -0.9613  1.5116
 9756SOL    HW230168   4.906   2.746   0.547 -0.5685 -1.0704 -0.1272
 9757SOL     OW30169   5.338   1.680   4.005  0.7471  0.5256 -0.1808
 9757SOL    HW130170   5.438   1.670   4.006  0.7340  0.4256  1.1655
 9757SOL    HW230171   5.297   1.610   4.063 -0.0128  1.5894  0.5849
 9758SOL     OW30172   3.465   0.407   1.430 -0.1703  0.0050  0.0452
 9758SOL    HW130173   3.481   0.486   1.371 -1.4106 -0.7263 -1.3659
 9758SOL    HW230174   3.443   0.327   1.373 -2.6679 -0.4484  1.5095
 9759SOL     OW30175   4.182   6.483   1.624 -0.3362 -0.3338 -0.0865
 9759SOL    HW130176   4.131   6.430   1.692 -0.6380  0.4161  0.2789
 9759SOL    HW230177   4.118   6.537   1.570  0.0257  0.2204  0.0306
 9760SOL     OW30178   4.519   5.092   0.145 -0.1860 -0.3815  0.2611
 9760SOL    HW130179   4.425   5.062   0.163 -0.1510 -1.0790 -0.6331
 9760SOL    HW230180   4.517   5.169   0.082 -0.2117  0.6625  1.4946
 9761SOL     OW30181   6.091   6.055   2.383 -0.1504 -0.0054  0.2114
 9761SOL    HW130182   6.061   5.972   2.335  0.7256 -0.6241  0.6963
 9761SOL    HW230183   6.184   6.040   2.418  0.1623  1.3214 -0.0121
 9762SOL     OW30184   2.712   0.056   4.149 -0.2122  0.1060 -0.0853
 9762SOL    HW130185   2.699  -0.017   4.217  0.5134  0.0621  0.0191
 9762SOL    HW230186   2.639   0.123   4.158  1.6865  2.0078  3.2200
 9763SOL     OW30187   2.200   2.546   1.249  0.0350 -1.1785  0.2424
 9763SOL    HW130188   2.280   2.524   1.194  0.7540 -1.2667  1.2978
 9763SOL    HW230189   2.122   2.490   1.219  0.6165 -1.7830 -0.1539
 9764SOL     OW30190   1.141   1.610   3.974 -0.8867 -0.2639  0.1018
 9764SOL    HW130191   1.121   1.512   3.970 -0.9504 -0.2170 -1.0931
 9764SOL    HW230192   1.169   1.642   3.884 -0.0855  0.6623  0.6637
 9765SOL     OW30193   1.916   1.257   3.609 -0.0543  0.8815  0.9760
 9765SOL    HW130194   1.943   1.233   3.516  0.6901  1.1772  1.1081
 9765SOL    HW230195   1.820   1.283   3.610  0.1864  1.8755  0.0916
 9766SOL     OW30196   2.380   1.898   2.253  0.2452 -0.0744  0.4116
 9766SOL    HW130197   2.397   1.828   2.322  0.7042  1.2801  1.7175
 9766SOL    HW230198   2.467   1.932   2.217  0.2300  2.2076  2.3065
 9767SOL     OW30199   6.487   6.959   0.720  0.5442  0.2667 -0.0166
 9767SOL    HW130200   6.584   6.973   0.738  1.1953 -1.4344 -1.7930
 9767SOL    HW230201   6.476   6.912   0.633 -1.8758  0.0370  0.3380
 9768SOL     OW30202   5.074   1.551   2.174 -0.4110 -0.4197 -0.3341
 9768SOL    HW130203   5.001   1.511   2.119 -0.2908 -0.5606 -0.3917
 9768SOL    HW230204   5.121   1.623   2.122 -2.1624  1.4988  0.5848
 9769SOL     OW30205   0.320   3.120   2.557 -0.5937 -0.0188 -0.4959
 9769SOL    HW130206   0.295   3.025   2.535  2.1841 -0.5564 -1.7396
 9769SOL    HW230207   0.317   3.175   2.473  0.7447  0.2462 -0.3878
 9770SOL     OW30208   0.281   6.960   3.393 -0.5577  0.5326 -0.5283
 9770SOL    HW130209   0.337   6.879   3.380 -1.7655 -0.2997 -0.6804
 9770SOL    HW230210   0.338   7.035   3.428  0.2046 -0.9686  1.6659
 9771SOL     OW30211   3.806   7.014   4.268  0.0663  0.2019  0.2824
 9771SOL    HW130212   3.804   6.915   4.253  0.1595  0.3004 -0.3788
 9771SOL    HW230213   3.859   7.058   4.196 -0.9780  0.8578 -0.1014
 9772SOL     OW30214   5.762   2.881   3.243 -0.0327  0.3054  0.0863
 9772SOL    HW130215   5.762   2.944   3.320 -2.4055 -1.2928  1.4924
 9772SOL    HW230216   5.713   2.922   3.166 -3.2248 -0.3478  1.6060
 9773SOL     OW30217   0.590   4.876   2.807 -0.0295  0.1636 -0.6879
 9773SOL    HW130218   0.665   4.844   2.865  0.7744 -0.7452 -2.1414
 9773SOL    HW230219   0.606   4.971   2.782  0.9778 -0.1835 -1.4400
 9774SOL     OW30220   0.161   6.096   2.908 -0.3846  0.4885 -0.4006
 9774SOL    HW130221   0.226   6.140   2.845  2.2247 -1.1759  1.0017
 9774SOL    HW230222   0.072   6.141   2.899  0.5942  2.1415 -3.2186
 9775SOL     OW30223   2.079   3.429   3.978 -0.2537 -0.0101 -0.8317
 9775SOL    HW130224   2.136   3.495   4.027 -2.7607  2.7961 -1.3852
 9775SOL    HW230225   1.997   3.410   4.032 -0.9881 -0.3216 -2.0268
 9776SOL     OW30226   6.571   4.721   5.741 -0.7529  0.7747 -0.1087
 9776SOL    HW130227   6.514   4.694   5.663 -1.0613  1.1994 -0.0374
 9776SOL    HW230228   6.660   4.751   5.708 -0.6977  0.4497 -0.2539
 9777SOL     OW30229   4.268   6.289   6.540 -0.0008 -0.2669  0.6753
 9777SOL    HW130230   4.206   6.360   6.507  0.2786  0.5195  1.7701
 9777SOL    HW230231   4.246   6.267   6.635  1.9105  0.6702  1.3985
 9778SOL     OW30232   3.983   1.061   3.679 -0.1862  0.4134  0.2994
 9778SOL    HW130233   3.888   1.032   3.670 -0.3106 -0.0586  2.6154
 9778SOL    HW230234   4.039   1.012   3.613 -1.3977 -0.0274 -0.4304
 9779SOL     OW30235   3.331   2.547   6.007  0.1582 -0.0524  0.1191
 9779SOL    HW130236   3.321   2.601   5.923  1.7019  3.5795  2.0088
 9779SOL    HW230237   3.308   2.604   6.086  4.2966 -1.2190  2.5054
 9780SOL     OW30238   2.463   2.232   1.373 -0.5144  0.5396 -0.1073
 9780SOL    HW130239   2.512   2.194   1.294  0.7283 -0.0726  0.9112
 9780SOL    HW230240   2.460   2.332   1.365 -1.8555  0.4127 -1.7157
 9781SOL     OW30241   2.088   3.818   3.215 -0.0562  0.5905  0.5279
 9781SOL    HW130242   2.111   3.791   3.121  1.2557  0.0739  0.9742
 9781SOL    HW230243   2.116   3.914   3.229 -0.0316  0.5942  0.4562
 9782SOL     OW30244   6.261   1.748   0.438  0.0347 -0.0225  0.4796
 9782SOL    HW130245   6.231   1.697   0.358 -0.3230 -1.1879  1.3321
 9782SOL    HW230246   6.182   1.796   0.478  0.2929  0.9032 -0.0881
 9783SOL     OW30247   4.867   6.802   1.793 -0.2399  0.3554 -0.1797
 9783SOL    HW130248   4.898   6.815   1.887  0.0581 -0.0557 -0.2200
 9783SOL    HW230249   4.774   6.838   1.784 -0.8131 -0.8382  0.6310
 9784SOL     OW30250   5.922   0.790   4.740 -0.2561 -0.5210 -0.0623
 9784SOL    HW130251   5.933   0.764   4.836  0.8648  1.0565  0.2820
 9784SOL    HW230252   5.999   0.755   4.687  0.2685  0.4265  0.0498
 9785SOL     OW30253   7.013   3.706   1.002 -0.0195 -0.0627  0.4754
 9785SOL    HW130254   7.024   3.736   1.096  1.8863  2.0487 -0.3353
 9785SOL    HW230255   6.922   3.731   0.969  0.0717  1.1685  1.1143
 9786SOL     OW30256   2.510   0.197   4.639 -0.1402 -0.0170 -0.4494
 9786SOL    HW130257   2.485   0.275   4.582 -0.0889  2.1374  2.2804
 9786SOL    HW230258   2.593   0.218   4.691  1.4430 -2.9712 -1.5122
 9787SOL     OW30259   4.086   4.029   1.000  0.4269 -0.3560 -0.1577
 9787SOL    HW130260   4.018   3.977   1.052  2.0702 -0.3559  2.1251
 9787SOL    HW230261   4.176   4.020   1.044  1.5975  0.9694 -2.1420
 9788SOL     OW30262   6.881   0.711   6.901 -0.1338  0.0574  0.0133
 9788SOL    HW130263   6.860   0.753   6.812 -1.0601  0.3682  0.3668
 9788SOL    HW230264   6.919   0.620   6.886  0.3251  0.3561 -0.7183
 9789SOL     OW30265   2.562   5.239   4.814 -0.2558 -0.7191 -0.0519
 9789SOL    HW130266   2.476   5.265   4.857 -0.0404  0.9379 -0.5762
 9789SOL    HW230267   2.549   5.230   4.715 -0.2299 -2.3259  0.0572
 9790SOL     OW30268   4.154   1.032   4.225 -0.1557  0.2162  0.2747
 9790SOL    HW130269   4.128   0.949   4.275  1.2301  0.1859  1.0163
 9790SOL    HW230270   4.162   1.011   4.127 -1.2330 -0.1465  0.2492
 9791SOL     OW30271   0.335   1.335   6.990  0.1252 -0.9531  0.1131
 9791SOL    HW130272   0.399   1.340   6.914 -0.5399 -0.9662 -0.4552
 9791SOL    HW230273   0.366   1.395   7.064  0.2630 -0.2084 -0.5434
 9792SOL     OW30274   4.792   6.011   2.661  0.3176 -0.3052 -0.4465
 9792SOL    HW130275   4.888   6.009   2.635  0.9445 -0.5646  1.6633
 9792SOL    HW230276   4.743   5.937   2.615  1.2117 -0.4561 -1.1859
 9793SOL     OW30277   5.097   4.526   1.805 -0.4488 -0.2232 -0.8728
 9793SOL    HW130278   5.037   4.546   1.882 -0.1500  1.1170 -0.9652
 9793SOL    HW230279   5.145   4.440   1.822 -1.3321 -0.5922 -0.1621
 9794SOL     OW30280   2.869   3.047   5.998  0.7596 -0.4772  0.1815
 9794SOL    HW130281   2.951   3.104   6.007  1.2976 -1.1574 -0.2826
 9794SOL    HW230282   2.789   3.100   6.025  0.9456  1.2535 -2.2794
 9795SOL     OW30283   2.169   3.358   4.571 -0.5120  0.0657  0.2675
 9795SOL    HW130284   2.201   3.441   4.525 -1.1100 -1.3107 -2.9297
 9795SOL    HW230285   2.077   3.373   4.606  0.3848  1.5082  2.1092
 9796SOL     OW30286   2.702   3.966   6.650 -0.4989  0.0178  0.7909
 9796SOL    HW130287   2.759   3.887   6.628 -0.6076  0.1338  0.0688
 9796SOL    HW230288   2.613   3.956   6.605  0.1969  1.5261 -1.0364
 9797SOL     OW30289   5.445   1.560   5.500 -0.3436 -0.0044  0.7866
 9797SOL    HW130290   5.486   1.595   5.416  1.0240 -1.5035  0.8054
 9797SOL    HW230291   5.490   1.603   5.579 -0.7075  0.3909  0.7847
 9798SOL     OW30292   1.330   1.592   4.322 -0.2976  0.2366  0.6727
 9798SOL    HW130293   1.237   1.623   4.299 -0.0059 -0.2687 -1.2796
 9798SOL    HW230294   1.376   1.560   4.240  1.7100  0.6621  1.5775
 9799SOL     OW30295   3.211   3.145   2.827 -0.0891  1.0387  0.0198
 9799SOL    HW130296   3.168   3.121   2.914  0.4860 -0.2063 -0.0251
 9799SOL    HW230297   3.146   3.198   2.772 -0.5383  1.6579  1.0987
 9800SOL     OW30298   2.729   4.903   5.885  0.2468 -0.2336  0.4647
 9800SOL    HW130299   2.760   4.840   5.814 -1.2464 -0.3917 -0.0690
 9800SOL    HW230300   2.809   4.938   5.935  1.1461 -2.2842  0.5759
 9801SOL     OW30301   5.650   5.645   6.559  0.0184 -0.0336  0.6440
 9801SOL    HW130302   5.596   5.626   6.642  1.6029  2.2327  2.3104
 9801SOL    HW230303   5.600   5.710   6.501 -0.2959 -0.1858  0.7412
 9802SOL     OW30304   0.099   3.832   2.365  0.1915 -0.3147 -0.2638
 9802SOL    HW130305   0.196   3.851   2.350  0.0436 -0.6571 -1.8163
 9802SOL    HW230306   0.053   3.915   2.396  1.0288 -0.2505  0.8824
 9803SOL     OW30307   5.899   0.610   6.988 -0.0404  0.1411 -0.0187
 9803SOL    HW130308   5.948   0.675   7.045 -0.2291  0.8877 -0.6879
 9803SOL    HW230309   5.963   0.540   6.955  0.4401  0.7115 -0.3177
 9804SOL     OW30310   3.473   5.904   4.189 -0.3330 -0.3551  0.2042
 9804SOL    HW130311   3.435   5.927   4.099 -1.7040  0.1744  0.8849
 9804SOL    HW230312   3.486   5.805   4.195 -0.0478 -0.3758 -0.6387
 9805SOL     OW30313   4.019   2.105   0.208  0.1046  0.0898  0.3216
 9805SOL    HW130314   4.010   2.065   0.117  0.5939  0.3227  0.1723
 9805SOL    HW230315   3.987   2.038   0.276  0.0221 -0.1979  0.0041
 9806SOL     OW30316   4.972   6.166   1.070  0.4355  0.2909 -0.6297
 9806SOL    HW130317   4.913   6.086   1.060 -0.2966  0.3729  2.2016
 9806SOL    HW230318   5.048   6.144   1.132 -0.6349  2.1157  1.4587
 9807SOL     OW30319   3.447   2.724   6.796 -0.1997 -0.2598 -0.1992
 9807SOL    HW130320   3.404   2.700   6.883 -0.7052  0.0631 -0.3596
 9807SOL    HW230321   3.542   2.690   6.795 -0.1226 -0.0716  0.5595
 9808SOL     OW30322   6.364   1.233   5.162  0.0413  0.3940 -0.2914
 9808SOL    HW130323   6.332   1.178   5.085  0.1194  0.9740 -0.7492
 9808SOL    HW230324   6.287   1.257   5.220  0.0572 -0.4667  0.0869
 9809SOL     OW30325   0.918   1.035   4.351 -0.2123  0.4785 -0.4314
 9809SOL    HW130326   0.966   1.019   4.264  0.3744 -0.5072  0.0500
 9809SOL    HW230327   0.885   1.129   4.354 -0.6895  0.3867 -1.9366
 9810SOL     OW30328   2.688   2.263   3.207 -0.1365  0.5100  0.0668
 9810SOL    HW130329   2.677   2.175   3.160  0.4836  0.3028  0.3019
 9810SOL    HW230330   2.654   2.336   3.148 -1.3392  0.0527  0.1603
 9811SOL     OW30331   2.261   0.924   3.028  0.1560  0.0580 -0.4756
 9811SOL    HW130332   2.178   0.887   3.068  0.7343 -0.2164  0.4917
 9811SOL    HW230333   2.275   0.884   2.937 -1.1596  0.6867 -0.9907
 9812SOL     OW30334   6.477   3.516   3.472 -0.1466 -1.3853  0.6002
 9812SOL    HW130335   6.489   3.463   3.388 -0.3241 -1.2363  0.4820
 9812SOL    HW230336   6.567   3.548   3.504 -0.2682  0.6265 -0.8589
 9813SOL     OW30337   5.314   4.508   0.526 -0.0572  0.0311  0.5515
 9813SOL    HW130338   5.301   4.490   0.429  0.8426  1.4639  0.1503
 9813SOL    HW230339   5.262   4.589   0.552 -2.1904 -1.6060  1.8342
 9814SOL     OW30340   5.903   1.094   5.892  0.2976 -0.0122 -0.2666
 9814SOL    HW130341   5.932   1.152   5.815 -0.6556  0.6965 -0.1115
 9814SOL    HW230342   5.943   1.130   5.977 -0.8058  0.8390 -0.0815
 9815SOL     OW30343   0.527   2.368   1.227 -0.4010 -0.4493 -0.3084
 9815SOL    HW130344   0.500   2.463   1.219 -0.5811 -0.1894  2.3681
 9815SOL    HW230345   0.627   2.362   1.235 -0.4740 -0.2878  1.0102
 9816SOL     OW30346   0.921   1.868   1.525 -0.1206  0.1157 -0.1379
 9816SOL    HW130347   0.877   1.951   1.492 -0.1547 -0.4327 -1.5333
 9816SOL    HW230348   0.876   1.788   1.485  1.6199 -0.4889 -1.0068
 9817SOL     OW30349   2.532   0.922   0.184  0.4568 -0.0829  0.0387
 9817SOL    HW130350   2.536   0.916   0.284 -1.3410 -0.2718  0.1247
 9817SOL    HW230351   2.529   1.018   0.156  0.8516 -0.0326  0.1612
 9818SOL     OW30352   1.176   1.284   4.441  0.4893  0.4196 -0.0884
 9818SOL    HW130353   1.203   1.231   4.521 -0.2824 -0.5164 -0.4347
 9818SOL    HW230354   1.249   1.280   4.372  0.1076 -0.9028 -0.4463
 9819SOL     OW30355   6.437   3.802   5.842  0.1801  0.0433 -0.0519
 9819SOL    HW130356   6.475   3.782   5.752  0.1047  1.6308 -0.4675
 9819SOL    HW230357   6.339   3.819   5.835 -0.6654 -3.5236  0.9448
 9820SOL     OW30358   4.697   1.984   5.890 -0.4616 -0.0962  0.7122
 9820SOL    HW130359   4.788   2.019   5.912 -1.4514  1.9482  1.8437
 9820SOL    HW230360   4.705   1.893   5.849  2.1040  0.3045  0.1712
 9821SOL     OW30361   3.310   2.922   0.273 -0.0098  0.4860 -0.3734
 9821SOL    HW130362   3.228   2.930   0.216 -0.6648  0.2660  0.5258
 9821SOL    HW230363   3.391   2.932   0.215 -0.6577  2.5936 -1.0128
 9822SOL     OW30364   1.681   6.675   4.603 -0.2352  0.2902 -0.2784
 9822SOL    HW130365   1.736   6.633   4.530 -1.0507  2.0926 -2.0291
 9822SOL    HW230366   1.697   6.774   4.604 -0.9906  0.4354  1.3817
 9823SOL     OW30367   3.545   6.973   0.724  0.1632 -0.2602  0.0930
 9823SOL    HW130368   3.601   6.896   0.755  1.6257  0.9897  0.6828
 9823SOL    HW230369   3.598   7.058   0.731 -1.0230  0.6756 -1.5883
 9824SOL     OW30370   1.492   5.171   0.013  0.2613  0.1479 -0.0324
 9824SOL    HW130371   1.516   5.228   0.091  2.3975  0.8355 -1.1234
 9824SOL    HW230372   1.436   5.094   0.044  1.1329  0.3414  2.1758
 9825SOL     OW30373   6.973   6.816   5.902  0.1719  0.4833 -0.2581
 9825SOL    HW130374   7.009   6.889   5.844 -2.1578  1.0365 -1.1422
 9825SOL    HW230375   6.906   6.855   5.965  3.9021  0.2860  4.3444
 9826SOL     OW30376   2.667   5.755   5.288 -0.1813 -0.5675  0.4170
 9826SOL    HW130377   2.736   5.826   5.298  0.2428 -0.8542 -0.3581
 9826SOL    HW230378   2.633   5.729   5.378  0.0472  0.2329  0.7425
 9827SOL     OW30379   1.428   4.676   3.565 -0.2912  0.1083 -0.2301
 9827SOL    HW130380   1.479   4.708   3.645 -0.2539 -0.8455  0.1321
 9827SOL    HW230381   1.374   4.752   3.529  0.0188  0.6664  0.4398
 9828SOL     OW30382   4.758   0.075   4.231 -0.2953  0.3101 -0.1440
 9828SOL    HW130383   4.687   0.089   4.162  0.7291  1.2569 -1.0480
 9828SOL    HW230384   4.724   0.104   4.320 -1.5089 -0.5668 -0.2969
 9829SOL     OW30385   3.524   4.462   6.037  0.3639 -0.4893  0.4110
 9829SOL    HW130386   3.495   4.381   6.087 -0.0973 -0.2409  0.5529
 9829SOL    HW230387   3.446   4.523   6.024  0.4753 -0.5347 -0.5864
 9830SOL     OW30388   4.407   0.395   5.140 -0.1841 -0.0782 -0.1692
 9830SOL    HW130389   4.458   0.332   5.082 -0.4973  0.3942 -0.9724
 9830SOL    HW230390   4.456   0.482   5.147 -0.3978  0.0411 -0.1382
 9831SOL     OW30391   1.643   1.812   1.620  0.0387  0.0781 -0.0343
 9831SOL    HW130392   1.623   1.829   1.716  0.0372 -0.2155  0.0193
 9831SOL    HW230393   1.580   1.742   1.585  0.9207 -0.8213  0.1199
 9832SOL     OW30394   4.705   4.617   5.657  0.4905  0.0010 -0.6283
 9832SOL    HW130395   4.643   4.665   5.595  0.2881 -0.0740 -0.4856
 9832SOL    HW230396   4.698   4.519   5.642  0.4414 -0.0174 -0.4865
 9833SOL     OW30397   3.599   3.230   4.137 -0.1859  0.2533  0.3168
 9833SOL    HW130398   3.585   3.256   4.233 -0.1131 -0.0508  0.4113
 9833SOL    HW230399   3.647   3.142   4.133  0.7451  0.7632  0.0025
 9834SOL     OW30400   2.351   0.675   5.298 -0.4286 -0.1243  0.1291
 9834SOL    HW130401   2.443   0.709   5.316 -0.2373  0.1099 -1.1478
 9834SOL    HW230402   2.327   0.604   5.364  1.2133 -1.1587 -0.3376
 9835SOL     OW30403   3.634   3.096   5.008 -0.2004 -1.3208 -0.0501
 9835SOL    HW130404   3.698   3.034   4.963 -0.8330 -1.7375 -0.3832
 9835SOL    HW230405   3.551   3.105   4.953 -0.2120 -0.3453  0.0984
 9836SOL     OW30406   6.311   6.207   4.641  0.0029 -0.1297  0.1956
 9836SOL    HW130407   6.370   6.206   4.722  1.1816 -0.5654 -0.6368
 9836SOL    HW230408   6.303   6.300   4.606  2.4237 -0.3791 -1.2167
 9837SOL     OW30409   6.301   1.180   2.183 -0.4672  0.2266 -0.5454
 9837SOL    HW130410   6.330   1.185   2.088 -0.0810  2.0221 -0.3568
 9837SOL    HW230411   6.211   1.136   2.188 -0.7039  0.5426 -1.7782
 9838SOL     OW30412   1.822   5.642   2.209  0.2427  0.2520 -0.6048
 9838SOL    HW130413   1.740   5.663   2.262  0.6043  1.4795 -0.4963
 9838SOL    HW230414   1.825   5.699   2.127  0.1860 -0.9372 -1.4487
 9839SOL     OW30415   4.307   5.322   2.743 -0.4830 -1.0232 -0.2186
 9839SOL    HW130416   4.240   5.249   2.759  0.7282 -2.0049  0.4855
 9839SOL    HW230417   4.367   5.296   2.668 -0.7961 -0.1876 -0.7783
 9840SOL     OW30418   5.604   2.902   1.365 -0.0783 -0.1479  0.4167
 9840SOL    HW130419   5.645   2.911   1.275 -0.3687 -2.4281 -0.0025
 9840SOL    HW230420   5.506   2.922   1.360  0.1836  1.2940  0.5917
 9841SOL     OW30421   0.018   6.306   2.525  0.6953  0.0652 -0.3769
 9841SOL    HW130422   0.099   6.248   2.529 -0.3736 -1.5138 -0.6159
 9841SOL    HW230423   0.011   6.359   2.610  0.8488 -1.4183  0.6221
 9842SOL     OW30424   2.291   1.971   5.823 -0.1169 -0.0452 -0.3967
 9842SOL    HW130425   2.226   2.041   5.794  0.6960  0.4174 -1.1680
 9842SOL    HW230426   2.286   1.960   5.922  0.0471  1.4223 -0.2029
 9843SOL     OW30427   0.252   0.443   0.982  0.2580 -0.0559  0.3567
 9843SOL    HW130428   0.211   0.525   1.022  0.0605 -0.4564  0.9883
 9843SOL    HW230429   0.298   0.390   1.053  1.6794  0.2441 -0.2842
 9844SOL     OW30430   5.231   0.288   4.385 -0.3456  0.5918  0.2288
 9844SOL    HW130431   5.265   0.364   4.329  0.1401  0.0922 -0.1614
 9844SOL    HW230432   5.219   0.207   4.328 -3.4988  1.0670  0.0455
 9845SOL     OW30433   1.599   3.165   2.461  0.5554  0.1310 -0.2183
 9845SOL    HW130434   1.637   3.249   2.498 -0.6722  0.2331  0.8779
 9845SOL    HW230435   1.580   3.101   2.536 -1.6928  0.2119 -0.6631
 9846SOL     OW30436   0.543   2.894   2.381  0.0031 -0.3106 -0.7976
 9846SOL    HW130437   0.478   2.878   2.455 -0.1227  0.1155 -0.8145
 9846SOL    HW230438   0.560   2.808   2.333  0.1100 -0.5966 -0.2566
 9847SOL     OW30439   4.116   4.596   0.146 -0.5137  0.0919 -0.1297
 9847SOL    HW130440   4.166   4.534   0.207  0.3445  0.0387 -0.8686
 9847SOL    HW230441   4.164   4.603   0.059 -1.6532  0.2786 -0.7560
 9848SOL     OW30442   3.575   3.307   5.958  0.4760  0.3929  0.4168
 9848SOL    HW130443   3.634   3.355   6.023  0.5506 -0.8867  1.3316
 9848SOL    HW230444   3.631   3.251   5.897  0.3716  1.2498 -0.4989
 9849SOL     OW30445   0.496   2.566   3.914 -0.3312  0.0325  0.3727
 9849SOL    HW130446   0.550   2.488   3.883 -1.6499 -0.9092  0.3700
 9849SOL    HW230447   0.412   2.572   3.861  0.4743  2.5128 -0.8113
 9850SOL     OW30448   3.048   0.503   5.684 -0.2420  0.3303 -0.0818
 9850SOL    HW130449   3.082   0.568   5.617  3.1610  2.4043  3.2184
 9850SOL    HW230450   3.099   0.417   5.676  0.6722  0.8296  0.2457
 9851SOL     OW30451   4.249   4.694   4.579 -0.0206 -0.0743  0.0097
 9851SOL    HW130452   4.188   4.615   4.589  2.0804 -1.5548  2.1892
 9851SOL    HW230453   4.238   4.755   4.658  2.9319 -1.6707  1.8186
 9852SOL     OW30454   1.909   0.369   6.642  0.4923 -0.0983 -0.8951
 9852SOL    HW130455   1.986   0.428   6.618  0.6260 -0.7650 -2.2569
 9852SOL    HW230456   1.823   0.418   6.629  0.6498  0.3216 -0.3720
 9853SOL     OW30457   0.002   5.217   3.176  0.4758 -0.0977  0.1999
 9853SOL    HW130458  -0.092   5.215   3.212  0.4585  0.4325  0.2050
 9853SOL    HW230459   0.012   5.148   3.105 -0.0086  0.0248  0.0027
 9854SOL     OW30460   1.574   6.369   6.522 -0.3700 -0.3880  0.1255
 9854SOL    HW130461   1.494   6.393   6.576 -0.3611  1.7130 -0.6806
 9854SOL    HW230462   1.556   6.387   6.425  0.5440 -1.4116 -0.2641
 9855SOL     OW30463   6.414   3.803   1.198 -0.6583  0.0792 -0.0748
 9855SOL    HW130464   6.372   3.743   1.265  2.6811 -0.8824  1.3705
 9855SOL    HW230465   6.462   3.749   1.129 -1.6965  1.1100 -1.6860
 9856SOL     OW30466   4.843   1.878   3.828  0.2861 -0.1873 -0.4928
 9856SOL    HW130467   4.859   1.968   3.868  1.0773 -0.1760 -0.8153
 9856SOL    HW230468   4.929   1.828   3.822  0.5970  0.5441 -3.9106
 9857SOL     OW30469   4.977   6.749   4.230 -0.3405  0.1360 -0.4214
 9857SOL    HW130470   4.911   6.683   4.265  1.8289 -1.7195  0.4034
 9857SOL    HW230471   4.981   6.829   4.290  0.2861 -1.0979  1.2436
 9858SOL     OW30472   6.102   5.805   3.309 -0.6380 -0.5542  0.4756
 9858SOL    HW130473   6.067   5.769   3.223 -0.4665 -0.2076  0.2583
 9858SOL    HW230474   6.075   5.901   3.319  1.5616  0.2230 -0.4645
 9859SOL     OW30475   1.547   5.199   1.591 -0.3948 -0.0556  0.0419
 9859SOL    HW130476   1.448   5.191   1.582 -0.5300  1.5740 -0.2484
 9859SOL    HW230477   1.571   5.295   1.602  1.3576 -0.0956 -2.5948
 9860SOL     OW30478   1.786   4.530   5.786 -0.7903 -0.0305  0.1940
 9860SOL    HW130479   1.858   4.532   5.855  0.9566  0.5687 -1.5431
 9860SOL    HW230480   1.793   4.445   5.733 -0.3011  0.7244 -0.9981
 9861SOL     OW30481   5.168   1.735   2.007 -0.5444 -0.1064  0.1982
 9861SOL    HW130482   5.119   1.725   1.920 -2.1492  1.5020  0.8597
 9861SOL    HW230483   5.201   1.829   2.016  1.3438 -0.7515  0.4944
 9862SOL     OW30484   1.046   4.539   1.732  1.0515 -0.7285 -0.5632
 9862SOL    HW130485   0.988   4.461   1.756  0.4924  0.2316  1.4928
 9862SOL    HW230486   1.028   4.566   1.637 -1.5500 -0.7867 -0.1767
 9863SOL     OW30487   5.280   4.224   1.119  0.6280  0.1713 -0.6710
 9863SOL    HW130488   5.234   4.136   1.104  1.5902 -0.3107 -0.8961
 9863SOL    HW230489   5.367   4.225   1.069  1.7366  0.3426  1.1561
 9864SOL     OW30490   2.694   4.815   4.476  0.1793  0.8364 -0.1668
 9864SOL    HW130491   2.749   4.845   4.554 -0.2477  0.8216  0.1419
 9864SOL    HW230492   2.651   4.728   4.498  0.7507  0.4013 -0.7496
 9865SOL     OW30493   0.265   4.692   5.362  0.3443 -0.3443  0.3169
 9865SOL    HW130494   0.346   4.744   5.390  1.1271 -0.1744 -2.0569
 9865SOL    HW230495   0.234   4.724   5.272 -2.0686 -0.7784  0.9070
 9866SOL     OW30496   6.226   5.760   6.003  0.3429 -0.1721  0.2890
 9866SOL    HW130497   6.214   5.827   6.075  1.4244 -0.1063  0.4278
 9866SOL    HW230498   6.218   5.668   6.041 -2.2286 -0.1632 -0.0957
 9867SOL     OW30499   2.474   1.943   3.025  0.4605 -0.2836  0.6155
 9867SOL    HW130500   2.571   1.950   3.046  1.2998 -3.4232 -1.5894
 9867SOL    HW230501   2.445   2.022   2.970  1.8724  0.3839  0.7995
 9868SOL     OW30502   2.146   4.027   4.205  1.1532  0.4428  0.3965
 9868SOL    HW130503   2.190   4.102   4.155  0.8065  1.1880  1.1623
 9868SOL    HW230504   2.184   4.024   4.298  1.4567 -0.6054  0.2423
 9869SOL     OW30505   0.932   1.747   1.194 -0.5245 -0.4812 -0.1423
 9869SOL    HW130506   0.984   1.749   1.108  2.4489 -0.6961  1.5063
 9869SOL    HW230507   0.993   1.720   1.268 -2.4815  1.5865  2.3875
 9870SOL     OW30508   2.495   1.256   3.077  0.3590 -0.0729 -0.3811
 9870SOL    HW130509   2.526   1.182   3.137 -3.2182 -1.1420  0.3530
 9870SOL    HW230510   2.494   1.225   2.983  1.6038  0.0598 -0.4517
 9871SOL     OW30511   0.536   6.986   4.278  0.0395  0.2128 -0.0923
 9871SOL    HW130512   0.535   6.928   4.196 -0.8194  0.4667 -0.2747
 9871SOL    HW230513   0.553   6.930   4.359  1.9238  0.0982 -0.5246
 9872SOL     OW30514   1.625   5.200   6.544  0.1171 -0.4408  0.2475
 9872SOL    HW130515   1.638   5.221   6.447 -0.2756  1.7606  0.6174
 9872SOL    HW230516   1.539   5.240   6.576  0.6045 -0.4601  1.6723
 9873SOL     OW30517   0.242   0.148   4.881 -0.0575 -0.2297  0.3466
 9873SOL    HW130518   0.188   0.094   4.816  1.0255 -1.2290  0.2543
 9873SOL    HW230519   0.183   0.176   4.957 -0.7570 -1.1661  0.1717
 9874SOL     OW30520   1.520   4.027   5.272  0.0322 -0.0922  0.1354
 9874SOL    HW130521   1.551   3.935   5.245 -0.5934 -0.2951  0.0855
 9874SOL    HW230522   1.550   4.047   5.365 -0.8877 -0.8640  0.6194
 9875SOL     OW30523   5.910   6.725   1.273 -0.2548  0.1319 -0.1333
 9875SOL    HW130524   5.974   6.728   1.349 -0.2798  0.0497 -0.1092
 9875SOL    HW230525   5.845   6.651   1.288 -0.9782  0.8387  0.3512
 9876SOL     OW30526   1.559   3.052   3.340 -0.2923  0.0460 -0.2055
 9876SOL    HW130527   1.628   3.123   3.355 -0.1934  0.4163 -2.1588
 9876SOL    HW230528   1.472   3.082   3.378  0.6358 -0.6475  2.7781
 9877SOL     OW30529   0.727   0.419   5.849  0.2782 -0.1589 -0.1028
 9877SOL    HW130530   0.810   0.463   5.882  0.0130  0.6192 -0.4677
 9877SOL    HW230531   0.654   0.487   5.839 -0.2381 -0.7353 -0.3305
 9878SOL     OW30532   3.264   1.757   5.133  0.3679 -0.6072 -0.1357
 9878SOL    HW130533   3.327   1.680   5.141 -0.9042 -1.7877 -1.0254
 9878SOL    HW230534   3.288   1.811   5.052  0.1773 -1.1285 -0.5458
 9879SOL     OW30535   1.393   5.307   6.647  0.0467  0.2155 -0.1123
 9879SOL    HW130536   1.398   5.334   6.743  0.0753  0.7624 -0.2692
 9879SOL    HW230537   1.328   5.232   6.637 -0.8766  0.9649  0.1519
 9880SOL     OW30538   2.255   2.345   3.840  0.8623 -0.3330  0.1370
 9880SOL    HW130539   2.226   2.327   3.934 -3.2342 -0.2922 -0.9363
 9880SOL    HW230540   2.268   2.258   3.793 -1.6087 -0.5069 -0.3665
 9881SOL     OW30541   5.725   1.661   3.625 -0.1976 -0.5289  0.2533
 9881SOL    HW130542   5.694   1.669   3.530  0.8614  1.3098  0.0146
 9881SOL    HW230543   5.821   1.632   3.626  0.3823  1.2999  0.6461
 9882SOL     OW30544   3.299   3.262   4.236  0.0890  0.6064 -0.0692
 9882SOL    HW130545   3.297   3.292   4.140 -0.5543 -1.0625 -0.6337
 9882SOL    HW230546   3.375   3.305   4.283  1.8468 -0.2119 -1.9619
 9883SOL     OW30547   1.541   0.820   2.056  0.3195 -0.5690  0.0092
 9883SOL    HW130548   1.571   0.736   2.010 -1.0787 -0.8332 -0.4821
 9883SOL    HW230549   1.450   0.806   2.095 -0.3823  1.0001 -0.9403
 9884SOL     OW30550   3.337   3.521   5.266  0.2253 -0.0475  0.5380
 9884SOL    HW130551   3.407   3.466   5.221  0.2411  0.6611 -0.3220
 9884SOL    HW230552   3.258   3.463   5.285  0.0864 -0.3147 -0.7187
 9885SOL     OW30553   5.468   2.553   6.282 -0.1141  0.0785 -0.6316
 9885SOL    HW130554   5.400   2.485   6.256 -0.4951  0.7538 -1.4530
 9885SOL    HW230555   5.556   2.508   6.298 -0.1226 -0.5082 -2.0911
 9886SOL     OW30556   4.603   5.579   0.448 -0.1850  0.4870  0.4639
 9886SOL    HW130557   4.569   5.565   0.542 -0.7380 -1.6125 -0.0025
 9886SOL    HW230558   4.634   5.491   0.410 -1.9620  0.8530 -2.0678
 9887SOL     OW30559   2.868   2.968   0.300  0.4774  0.6038 -0.1007
 9887SOL    HW130560   2.914   2.881   0.316 -0.5825 -0.3544 -2.0079
 9887SOL    HW230561   2.805   2.987   0.376  0.3622 -0.5352  0.1019
 9888SOL     OW30562   6.762   6.590   2.757  0.4504  0.7650 -1.0628
 9888SOL    HW130563   6.668   6.555   2.753 -0.5438  3.1134 -0.1892
 9888SOL    HW230564   6.769   6.672   2.700  1.8563  0.9091 -0.7076
 9889SOL     OW30565   0.577   5.537   1.478  0.1916 -0.2169 -0.2396
 9889SOL    HW130566   0.589   5.556   1.576 -0.7927  0.4842 -0.2444
 9889SOL    HW230567   0.480   5.533   1.456  0.3912 -1.6463 -0.9718
 9890SOL     OW30568   0.186   4.638   2.270  0.6235 -0.3095  0.3883
 9890SOL    HW130569   0.130   4.597   2.341  1.5161 -0.8372  0.7924
 9890SOL    HW230570   0.237   4.567   2.222  0.5287  0.1085 -0.3489
 9891SOL     OW30571   4.353   6.181   1.947 -0.2680 -0.0364  0.0993
 9891SOL    HW130572   4.343   6.188   1.847 -2.0707 -0.0231  0.2411
 9891SOL    HW230573   4.334   6.088   1.976  0.1668 -0.0195  0.4304
 9892SOL     OW30574   1.839   4.089   4.076 -0.1895  0.2225 -0.8454
 9892SOL    HW130575   1.793   4.086   3.987 -0.0740 -2.7492 -0.9156
 9892SOL    HW230576   1.931   4.053   4.067 -0.4448 -0.8593  0.5857
 9893SOL     OW30577   4.203   4.915   3.926  0.3055 -0.0526  0.0551
 9893SOL    HW130578   4.286   4.968   3.938  0.2750 -0.1692  0.8197
 9893SOL    HW230579   4.215   4.851   3.850  0.5492  0.6248 -0.4808
 9894SOL     OW30580   4.007   3.852   4.721  0.3944 -0.0583  0.1240
 9894SOL    HW130581   4.074   3.825   4.652  0.1456 -0.8792  0.1991
 9894SOL    HW230582   4.021   3.799   4.804 -0.7180 -0.6707 -0.0598
 9895SOL     OW30583   5.420   0.977   0.563  0.3231  0.1518 -0.0766
 9895SOL    HW130584   5.382   0.916   0.633  0.5651  0.6907  0.5396
 9895SOL    HW230585   5.353   1.048   0.541  1.1898  1.5856  1.5977
 9896SOL     OW30586   3.151   4.072   1.056  0.5188 -0.6540  0.3296
 9896SOL    HW130587   3.138   4.004   1.129 -0.5601  0.2068  0.9763
 9896SOL    HW230588   3.102   4.041   0.974 -1.1583 -0.0448  1.0548
 9897SOL     OW30589   6.672   6.270   2.546  0.2438 -0.7611  0.3371
 9897SOL    HW130590   6.617   6.331   2.602 -1.7742 -0.9329 -1.3268
 9897SOL    HW230591   6.761   6.255   2.590  0.3359  2.2928  1.4204
 9898SOL     OW30592   2.578   4.982   6.326 -0.4544 -0.0795 -0.1557
 9898SOL    HW130593   2.671   4.947   6.311 -1.2601 -1.6893 -1.8417
 9898SOL    HW230594   2.534   4.929   6.399 -0.7670 -0.8723 -0.8925
 9899SOL     OW30595   6.049   4.253   2.581 -0.0938  0.1756  0.5682
 9899SOL    HW130596   6.099   4.237   2.495  0.5910 -1.7555  1.2652
 9899SOL    HW230597   5.974   4.188   2.588 -1.8492  2.0904  0.2346
 9900SOL     OW30598   1.982   2.398   3.742  0.7747 -0.0013 -0.1097
 9900SOL    HW130599   2.025   2.354   3.663  0.1717  0.5884 -0.7746
 9900SOL    HW230600   2.051   2.412   3.813  1.3377 -0.4901 -0.5477
 9901SOL     OW30601   0.392   1.055   6.071 -0.1240  0.7536  0.1173
 9901SOL    HW130602   0.386   1.075   6.169 -0.8927  1.0722  0.0125
 9901SOL    HW230603   0.344   1.126   6.020  0.4019  0.6714 -0.5092
 9902SOL     OW30604   3.903   2.821   6.317  0.2149 -0.1192  0.4011
 9902SOL    HW130605   3.896   2.824   6.217 -0.6316 -0.7562  0.4329
 9902SOL    HW230606   3.914   2.915   6.352 -1.1772  0.2847 -0.1836
 9903SOL     OW30607   4.606   0.675   0.949  0.0494 -0.0604 -0.3269
 9903SOL    HW130608   4.684   0.720   0.906 -0.9695  0.0080 -2.2263
 9903SOL    HW230609   4.600   0.581   0.915  0.5818 -0.8107  1.5350
 9904SOL     OW30610   7.016   5.534   2.180  0.3238 -0.0542 -0.5664
 9904SOL    HW130611   6.919   5.553   2.159 -0.1788 -1.4218  0.4085
 9904SOL    HW230612   7.074   5.586   2.116 -1.0083  1.7620 -0.4056
 9905SOL     OW30613   2.466   2.723   5.155  0.0263 -0.4217 -0.5656
 9905SOL    HW130614   2.530   2.723   5.232 -1.5742 -0.8355  0.8399
 9905SOL    HW230615   2.414   2.808   5.155 -1.8392 -1.4850  0.5154
 9906SOL     OW30616   4.380   4.597   5.318 -0.6996  0.5545  0.4381
 9906SOL    HW130617   4.340   4.524   5.372  1.3672 -0.8935  0.1343
 9906SOL    HW230618   4.372   4.576   5.221 -0.4032  0.9072  0.3327
 9907SOL     OW30619   2.052   0.155   1.920  0.3136 -0.3152  0.0702
 9907SOL    HW130620   1.989   0.129   1.993 -0.0320  0.2250 -0.0317
 9907SOL    HW230621   2.015   0.233   1.869  0.8452 -0.2843 -0.2834
 9908SOL     OW30622   0.772   2.859   3.522  1.0325  0.3720  0.6901
 9908SOL    HW130623   0.679   2.863   3.559  1.8933  0.9532  2.9512
 9908SOL    HW230624   0.811   2.769   3.540  0.1242 -0.7974 -2.5201
 9909SOL     OW30625   4.800   1.018   1.817  0.2131 -0.1500  0.2018
 9909SOL    HW130626   4.750   1.105   1.813  0.9337  0.2723  0.1842
 9909SOL    HW230627   4.856   1.016   1.899  0.3241 -0.5315  0.1161
 9910SOL     OW30628   1.592   5.129   0.313  0.4877 -0.4900 -0.3469
 9910SOL    HW130629   1.626   5.220   0.337  1.8003 -1.1505  0.4600
 9910SOL    HW230630   1.496   5.121   0.340  0.7066  0.2519  0.7175
 9911SOL     OW30631   4.592   5.111   1.958  0.6378  0.1715 -0.1670
 9911SOL    HW130632   4.664   5.085   2.021  0.4879  1.7100  0.6743
 9911SOL    HW230633   4.601   5.059   1.873  2.6200  0.2179 -0.0163
 9912SOL     OW30634   5.171   6.998   0.124  1.1887  0.1619 -0.0059
 9912SOL    HW130635   5.140   7.040   0.039  0.5951  0.9757  0.6008
 9912SOL    HW230636   5.137   7.050   0.202  1.6073 -0.6506  0.7439
 9913SOL     OW30637   5.175   2.466   4.039 -0.5547 -0.2954 -0.1646
 9913SOL    HW130638   5.154   2.554   4.081  0.7504  0.7252 -1.5426
 9913SOL    HW230639   5.206   2.402   4.110 -0.6774  0.6132  0.7330
 9914SOL     OW30640   3.098   5.470   4.371 -0.7781  0.1317  0.0548
 9914SOL    HW130641   3.106   5.406   4.448  0.3829 -1.6860 -1.4697
 9914SOL    HW230642   3.160   5.548   4.386  0.7671 -1.0696  0.2174
 9915SOL     OW30643   0.146   4.771   5.115  0.3468  0.0506 -0.1598
 9915SOL    HW130644   0.050   4.760   5.143  0.8174 -1.0342  1.1237
 9915SOL    HW230645   0.154   4.755   5.017 -0.4425 -2.2663  0.0996
 9916SOL     OW30646   2.322   4.159   1.459 -0.4917  0.0151 -0.6447
 9916SOL    HW130647   2.340   4.234   1.396 -1.0992  0.5456 -0.1967
 9916SOL    HW230648   2.405   4.141   1.513 -0.8053  1.4593  0.3725
 9917SOL     OW30649   2.308   2.932   5.367 -0.3164  0.0071 -0.4886
 9917SOL    HW130650   2.224   2.942   5.313  0.6823 -0.1176 -2.1038
 9917SOL    HW230651   2.386   2.969   5.316  0.3580  2.0982  1.8448
 9918SOL     OW30652   2.940   1.142   5.452 -0.2612  0.3493  0.4212
 9918SOL    HW130653   2.877   1.213   5.421 -1.6377 -0.8008  0.5089
 9918SOL    HW230654   3.000   1.115   5.376  0.1442  1.4317  0.3337
 9919SOL     OW30655   0.240   6.485   2.680  0.9747 -0.3018 -0.1876
 9919SOL    HW130656   0.253   6.531   2.592  0.0847  0.8648  0.2651
 9919SOL    HW230657   0.142   6.477   2.699  1.1553 -0.0480  0.9345
 9920SOL     OW30658   5.894   5.986   3.630 -0.6387  0.1302 -0.7506
 9920SOL    HW130659   5.857   6.031   3.711  1.6866  1.4226 -0.3290
 9920SOL    HW230660   5.992   6.005   3.622 -0.4010 -1.5114 -2.8583
 9921SOL     OW30661   4.230   6.700   2.441  0.2446  0.3363 -0.0253
 9921SOL    HW130662   4.307   6.758   2.468  0.2808  1.5333 -2.4095
 9921SOL    HW230663   4.147   6.731   2.486  0.1774  2.6342 -1.5530
 9922SOL     OW30664   6.377   4.970   1.589 -0.2404  0.1285 -0.5193
 9922SOL    HW130665   6.305   5.007   1.647 -0.2321 -1.2403  0.4239
 9922SOL    HW230666   6.464   4.971   1.639  0.0479  0.1755 -1.0147
 9923SOL     OW30667   5.346   0.515   5.435  0.5167 -0.8451  0.0256
 9923SOL    HW130668   5.417   0.518   5.505 -0.4953 -1.3942  1.1128
 9923SOL    HW230669   5.303   0.605   5.426  1.1051 -0.6032 -0.3832
 9924SOL     OW30670   5.975   3.323   3.160  0.0348 -0.4264  0.3228
 9924SOL    HW130671   5.998   3.278   3.073  1.7504  1.1177 -0.1007
 9924SOL    HW230672   5.876   3.332   3.168 -0.1815  1.4425 -2.6687
 9925SOL     OW30673   5.278   0.610   4.914 -0.1878 -0.1064 -0.8638
 9925SOL    HW130674   5.352   0.617   4.981 -0.5335 -2.5103 -0.1434
 9925SOL    HW230675   5.313   0.634   4.823  1.1397  0.0033 -0.3489
 9926SOL     OW30676   1.313   0.164   4.241  0.4492 -0.5322  0.2262
 9926SOL    HW130677   1.357   0.094   4.297  0.2173 -1.1944 -0.4110
 9926SOL    HW230678   1.282   0.124   4.156  1.2104  0.5595 -0.6002
 9927SOL     OW30679   0.999   0.386   2.845 -0.0315  0.0632 -0.8959
 9927SOL    HW130680   0.972   0.391   2.749  0.5562 -0.6397 -1.1049
 9927SOL    HW230681   1.096   0.362   2.851 -0.0543  0.1444 -0.1275
 9928SOL     OW30682   1.698   2.653   2.877  0.4122 -0.5036  0.0368
 9928SOL    HW130683   1.650   2.637   2.791  3.8795 -2.7711 -1.7269
 9928SOL    HW230684   1.739   2.745   2.876  1.6370 -1.0246 -1.4920
 9929SOL     OW30685   1.773   3.092   1.070  0.0432  0.7119 -0.1833
 9929SOL    HW130686   1.718   3.017   1.106  1.3716  0.0261  0.5166
 9929SOL    HW230687   1.775   3.166   1.137  0.4441  0.4829  0.0663
 9930SOL     OW30688   0.537   6.611   0.099  0.0134  0.8055 -0.2305
 9930SOL    HW130689   0.620   6.556   0.099 -0.8242 -0.4862 -0.1614
 9930SOL    HW230690   0.495   6.608   0.008  1.1553  3.2656 -0.9531
 9931SOL     OW30691   4.871   4.528   6.494  0.3569 -0.3009 -0.1425
 9931SOL    HW130692   4.964   4.557   6.519 -0.7022  1.3399  2.2556
 9931SOL    HW230693   4.848   4.445   6.546 -0.2958  0.6144  1.0722
 9932SOL     OW30694   0.428   0.120   1.627  0.3907  0.3013  0.1000
 9932SOL    HW130695   0.431   0.065   1.543 -1.0351 -1.1584  0.9334
 9932SOL    HW230696   0.471   0.070   1.702 -0.2161  0.6611  0.7044
 9933SOL     OW30697   6.303   0.109   1.664 -1.3700 -0.0292 -0.1672
 9933SOL    HW130698   6.334   0.180   1.601 -0.1130 -0.5919 -0.2079
 9933SOL    HW230699   6.226   0.060   1.623 -1.8515  0.9036 -0.3949
 9934SOL     OW30700   5.891   2.188   0.296  0.3553  0.5465  0.2369
 9934SOL    HW130701   5.873   2.214   0.391 -0.4320 -1.2173  0.6088
 9934SOL    HW230702   5.895   2.089   0.289  1.3524  0.6649 -1.4350
 9935SOL     OW30703   4.034   2.841   1.412  0.1722  0.0181  0.4222
 9935SOL    HW130704   3.947   2.853   1.364  0.9916 -0.5250 -1.2856
 9935SOL    HW230705   4.020   2.852   1.510 -1.9396 -0.7060  0.2462
 9936SOL     OW30706   4.811   5.272   5.163  0.1414 -0.5177  0.5252
 9936SOL    HW130707   4.877   5.292   5.236 -1.6679 -0.0150  2.1106
 9936SOL    HW230708   4.829   5.330   5.084  0.1627  1.3411  1.8394
 9937SOL     OW30709   2.303   5.716   4.522  0.2531 -0.0894 -0.0126
 9937SOL    HW130710   2.337   5.647   4.586  0.4536 -1.8312 -1.8893
 9937SOL    HW230711   2.203   5.721   4.529  0.0686 -1.7052 -0.8530
 9938SOL     OW30712   5.877   0.827   4.192  0.3123  0.4783  0.4235
 9938SOL    HW130713   5.871   0.926   4.185 -0.3840  0.3794 -0.5274
 9938SOL    HW230714   5.925   0.790   4.113  0.2263  0.0226  0.5804
 9939SOL     OW30715   3.214   4.344   1.382  0.3752 -0.3947 -0.0103
 9939SOL    HW130716   3.120   4.375   1.370  0.4319  0.9556  2.4840
 9939SOL    HW230717   3.277   4.413   1.344  0.3844  0.2657  1.1472
 9940SOL     OW30718   6.613   2.345   3.259 -0.0194 -0.0661  0.2572
 9940SOL    HW130719   6.518   2.316   3.244 -0.2875  0.2630  1.2655
 9940SOL    HW230720   6.670   2.313   3.183 -0.2995 -3.1110  1.2215
 9941SOL     OW30721   5.888   6.104   5.796 -0.4495  0.2456 -0.0325
 9941SOL    HW130722   5.965   6.128   5.736 -1.2468  2.9475 -0.1419
 9941SOL    HW230723   5.817   6.058   5.742  1.1527 -2.7007  0.1630
 9942SOL     OW30724   0.050   0.109   6.909 -0.0997  0.2145 -0.4814
 9942SOL    HW130725   0.044   0.181   6.978  0.2326  0.8244 -1.0716
 9942SOL    HW230726  -0.033   0.053   6.912  1.1101 -1.6690  2.4138
 9943SOL     OW30727   6.737   4.395   6.234  0.5642  0.2245 -0.6554
 9943SOL    HW130728   6.796   4.356   6.163 -1.1795 -0.8271 -1.5878
 9943SOL    HW230729   6.747   4.341   6.318  1.1525  0.2405 -0.7105
 9944SOL     OW30730   1.196   4.369   6.437  0.0645 -0.0408  0.5279
 9944SOL    HW130731   1.130   4.364   6.512 -0.1751 -1.0023  0.2577
 9944SOL    HW230732   1.283   4.405   6.472  0.3879 -1.7559  1.5893
 9945SOL     OW30733   5.365   3.737   5.660 -0.3395  0.7558  0.0225
 9945SOL    HW130734   5.273   3.721   5.625 -0.0357 -1.4070  0.0654
 9945SOL    HW230735   5.359   3.765   5.756 -0.9624 -0.4935  0.3828
 9946SOL     OW30736   2.924   2.494   1.343  0.5986 -0.2524  0.2394
 9946SOL    HW130737   2.903   2.436   1.421 -0.8249 -1.9604 -1.3270
 9946SOL    HW230738   2.862   2.572   1.341  1.7844  0.7771  1.7314
 9947SOL     OW30739   0.555   0.533   1.665  0.2048 -0.2027  0.4161
 9947SOL    HW130740   0.635   0.488   1.705  1.1358 -1.1349 -2.3002
 9947SOL    HW230741   0.474   0.477   1.682  0.7103 -0.9868  0.2717
 9948SOL     OW30742   6.765   1.963   4.694  0.0294 -0.3258  0.5296
 9948SOL    HW130743   6.824   1.909   4.634 -1.6077  0.5197 -2.0173
 9948SOL    HW230744   6.814   2.045   4.724  0.8361 -0.6825  0.2050
 9949SOL     OW30745   6.872   3.030   3.831 -0.3153 -0.1088 -0.3638
 9949SOL    HW130746   6.774   3.037   3.811 -0.8894 -0.9793  1.8009
 9949SOL    HW230747   6.884   2.985   3.920  2.0866 -0.5245 -0.8407
 9950SOL     OW30748   3.014   4.928   4.479 -0.3407  0.3141  0.7805
 9950SOL    HW130749   2.983   4.880   4.561 -3.1548 -0.8404 -0.8260
 9950SOL    HW230750   2.965   4.893   4.399  2.7854  0.8823 -1.5844
 9951SOL     OW30751   0.378   0.244   2.220  0.4842 -0.4302 -0.1179
 9951SOL    HW130752   0.438   0.233   2.140  0.5304 -0.4528 -0.0804
 9951SOL    HW230753   0.284   0.257   2.189  0.7458  1.4047 -0.2426
 9952SOL     OW30754   1.801   6.541   1.638 -0.2928  0.4626 -0.5122
 9952SOL    HW130755   1.857   6.467   1.676  0.8668  0.7609 -1.5349
 9952SOL    HW230756   1.854   6.626   1.640 -1.5093  1.2116  0.3971
 9953SOL     OW30757   5.256   4.464   2.915  0.2560  0.1038  0.0067
 9953SOL    HW130758   5.233   4.525   2.991 -0.0225  0.4408 -0.3455
 9953SOL    HW230759   5.186   4.394   2.907  0.9963 -0.7827  0.9381
 9954SOL     OW30760   3.963   1.435   2.257  0.2870  0.2560  0.0677
 9954SOL    HW130761   3.944   1.515   2.314  2.8411  1.1701 -0.2564
 9954SOL    HW230762   4.053   1.444   2.215  0.5392 -2.6789 -0.2265
 9955SOL     OW30763   5.052   4.880   0.915  0.2763 -0.5897 -0.4605
 9955SOL    HW130764   5.150   4.882   0.932  0.1695  0.1553  0.1601
 9955SOL    HW230765   5.032   4.820   0.838  1.1058 -1.6766  0.1396
 9956SOL     OW30766   1.631   5.529   4.678  0.0251  0.2767 -0.4326
 9956SOL    HW130767   1.595   5.444   4.639 -0.3112 -0.5693  1.6240
 9956SOL    HW230768   1.568   5.604   4.658 -1.1181 -0.5153  0.1011
 9957SOL     OW30769   5.990   1.181   1.104 -0.2974 -0.6002  0.3036
 9957SOL    HW130770   5.974   1.190   1.006  2.4991 -0.1461 -0.1897
 9957SOL    HW230771   5.935   1.105   1.139 -1.5486 -0.6240 -1.5144
 9958SOL     OW30772   1.303   3.903   0.518  0.1704  0.3409  0.2162
 9958SOL    HW130773   1.334   3.826   0.572 -3.7305 -0.8134  1.1229
 9958SOL    HW230774   1.345   3.900   0.427  3.1764 -0.4084  1.5267
 9959SOL     OW30775   5.296   5.694   1.187  0.0688 -0.3235  0.0236
 9959SOL    HW130776   5.301   5.607   1.236 -1.0266 -0.9152 -0.8740
 9959SOL    HW230777   5.202   5.709   1.156  0.3886  0.8634 -0.4129
 9960SOL     OW30778   0.101   6.775   1.258  0.0879  0.1942 -0.0184
 9960SOL    HW130779   0.003   6.757   1.255  0.1894 -0.2642 -0.7018
 9960SOL    HW230780   0.139   6.737   1.342 -0.1648 -0.4072 -0.1712
 9961SOL     OW30781   3.578   5.818   1.881 -0.1948  0.3309  0.4825
 9961SOL    HW130782   3.598   5.893   1.817 -1.2240  0.3054  0.0999
 9961SOL    HW230783   3.495   5.770   1.850  0.5022 -1.0317  0.6722
 9962SOL     OW30784   2.464   0.861   1.287 -0.8122  0.5122 -0.4962
 9962SOL    HW130785   2.447   0.902   1.377 -0.6845 -0.1874 -0.1461
 9962SOL    HW230786   2.544   0.904   1.246  0.0393 -0.1859  0.3876
 9963SOL     OW30787   1.921   0.493   4.212  0.0035  0.0938 -0.9116
 9963SOL    HW130788   1.883   0.404   4.237  0.4380 -0.2785 -1.5393
 9963SOL    HW230789   1.847   0.560   4.204 -0.1424  0.2759  1.4591
 9964SOL     OW30790   4.219   4.729   0.555  0.1077 -0.1775 -0.4923
 9964SOL    HW130791   4.309   4.730   0.510  0.2947  2.0550 -0.1825
 9964SOL    HW230792   4.149   4.758   0.490  0.0213  0.6481 -0.0498
 9965SOL     OW30793   3.048   6.192   3.342 -0.1198  0.3566 -0.4598
 9965SOL    HW130794   3.034   6.269   3.405 -0.2995 -0.8506  1.0232
 9965SOL    HW230795   2.975   6.125   3.355  1.1790 -1.0583 -0.1905
 9966SOL     OW30796   2.670   4.669   4.221  0.8659 -0.2850 -0.4117
 9966SOL    HW130797   2.723   4.641   4.300  0.3844 -0.3781 -0.1172
 9966SOL    HW230798   2.573   4.651   4.238  0.6117  0.9128 -0.5020
 9967SOL     OW30799   7.002   6.472   2.761 -0.2838  0.4233  0.0688
 9967SOL    HW130800   6.921   6.531   2.763 -0.5917  0.0268  2.2554
 9967SOL    HW230801   7.014   6.430   2.851  2.4273  0.5236 -0.1782
 9968SOL     OW30802   5.754   0.104   0.309 -0.7368 -0.3400  0.3682
 9968SOL    HW130803   5.818   0.098   0.386  0.3622 -1.4506 -0.5892
 9968SOL    HW230804   5.775   0.033   0.243 -1.5016  0.7452 -1.1016
 9969SOL     OW30805   0.298   5.436   4.239 -0.5719 -0.4333  0.0623
 9969SOL    HW130806   0.267   5.440   4.144 -0.3376 -0.6591 -0.0268
 9969SOL    HW230807   0.315   5.341   4.264  0.3116 -0.3024  0.0130
 9970SOL     OW30808   6.096   1.871   4.130 -0.1266 -0.8057 -0.4238
 9970SOL    HW130809   6.003   1.885   4.164 -0.0258  0.6025 -0.6914
 9970SOL    HW230810   6.160   1.872   4.208 -0.1691 -0.1846 -0.3961
 9971SOL     OW30811   6.890   4.699   5.088 -0.2699  0.1205  0.0227
 9971SOL    HW130812   6.887   4.767   5.015 -0.3685  0.1081  0.0154
 9971SOL    HW230813   6.864   4.609   5.052 -0.7243  0.1917  0.1611
 9972SOL     OW30814   3.406   5.243   5.642 -0.1595  0.2203  0.1707
 9972SOL    HW130815   3.374   5.206   5.730 -2.2819  2.5509  0.4831
 9972SOL    HW230816   3.446   5.333   5.657  0.8206  0.0326 -1.1194
 9973SOL     OW30817   1.803   0.015   2.936  0.0971 -1.0160  0.1651
 9973SOL    HW130818   1.714   0.032   2.892 -0.5738 -2.2069  1.0150
 9973SOL    HW230819   1.857  -0.046   2.878  0.3123 -0.4087 -0.2835
 9974SOL     OW30820   0.545   3.377   3.395 -0.2003 -0.0442  0.6696
 9974SOL    HW130821   0.590   3.418   3.316 -1.7719 -0.3199 -0.4002
 9974SOL    HW230822   0.499   3.293   3.368 -0.9738 -0.0153  1.8162
 9975SOL     OW30823   0.235   4.801   5.898  0.2123  0.3309 -0.4552
 9975SOL    HW130824   0.274   4.717   5.861 -0.9443  1.1351 -3.8655
 9975SOL    HW230825   0.149   4.780   5.945 -0.9802 -0.3473 -2.7813
 9976SOL     OW30826   5.102   5.042   5.307 -0.0825  0.1220 -0.1410
 9976SOL    HW130827   5.102   4.942   5.299  2.8376  0.0107  0.1931
 9976SOL    HW230828   5.098   5.068   5.403  0.7358  0.2707 -0.1451
 9977SOL     OW30829   4.408   6.540   0.165  0.1224  0.9197  0.0471
 9977SOL    HW130830   4.485   6.602   0.181  1.0256 -0.1555 -0.0626
 9977SOL    HW230831   4.337   6.558   0.233  0.4334  1.9543  0.1225
 9978SOL     OW30832   6.845   2.823   6.776  0.1619  0.0534  0.3138
 9978SOL    HW130833   6.807   2.896   6.718  0.6116 -0.8854 -1.2013
 9978SOL    HW230834   6.805   2.830   6.867 -1.7072  0.6698 -0.4998
 9979SOL     OW30835   2.760   4.517   5.600 -0.0752  0.9766 -0.1651
 9979SOL    HW130836   2.724   4.610   5.605  2.3235  2.0045 -0.6678
 9979SOL    HW230837   2.769   4.490   5.504  1.9606  1.4011 -0.1246
 9980SOL     OW30838   7.007   2.563   2.263  0.1433  0.2036 -0.1078
 9980SOL    HW130839   7.007   2.464   2.251 -0.1166 -0.1703  2.3939
 9980SOL    HW230840   7.101   2.597   2.254  0.1324 -0.1263 -1.7090
 9981SOL     OW30841   6.758   2.290   0.713  0.4483 -0.3263 -0.0353
 9981SOL    HW130842   6.786   2.370   0.660 -0.9143  1.0379  1.1901
 9981SOL    HW230843   6.698   2.232   0.658 -0.2672  0.6301 -0.2888
 9982SOL     OW30844   1.906   1.265   4.435  0.0556  0.3811 -0.0365
 9982SOL    HW130845   1.955   1.183   4.408 -0.5570  0.2409 -0.7793
 9982SOL    HW230846   1.971   1.338   4.456  0.6015 -0.3039  0.6843
 9983SOL     OW30847   2.054   0.145   2.489 -0.3757  0.3614 -0.0949
 9983SOL    HW130848   2.006   0.080   2.548 -0.5335  0.9482  0.4284
 9983SOL    HW230849   2.106   0.209   2.545  1.1155 -0.3106 -0.6448
 9984SOL     OW30850   0.729   4.607   1.277 -0.4120  0.8645 -0.2475
 9984SOL    HW130851   0.703   4.510   1.268 -0.4006  0.8497 -0.1181
 9984SOL    HW230852   0.662   4.654   1.334  0.0124  0.7584  0.3449
 9985SOL     OW30853   5.421   4.115   0.147  0.5207  0.1694  0.5033
 9985SOL    HW130854   5.496   4.050   0.131 -0.0429 -0.6469  1.0460
 9985SOL    HW230855   5.454   4.208   0.132  1.3694 -0.2280 -0.2510
 9986SOL     OW30856   3.530   6.785   1.470  0.4512  0.2466 -0.1849
 9986SOL    HW130857   3.501   6.818   1.381  0.0433  2.0179  0.5605
 9986SOL    HW230858   3.503   6.851   1.541  3.3870  0.4095  0.9261
 9987SOL     OW30859   6.745   2.804   0.242  0.1343 -0.0330 -0.4734
 9987SOL    HW130860   6.728   2.887   0.189 -0.1419 -0.2087 -0.6646
 9987SOL    HW230861   6.772   2.730   0.179  0.3102 -0.1059 -0.3127
 9988SOL     OW30862   5.585   5.138   3.529  0.4122 -0.5564  0.3135
 9988SOL    HW130863   5.540   5.123   3.442 -1.9174  2.7141  0.7858
 9988SOL    HW230864   5.587   5.236   3.550  0.8903 -1.1760  3.8939
 9989SOL     OW30865   2.021   5.358   4.494  0.0207  0.4281 -0.2938
 9989SOL    HW130866   2.118   5.382   4.485  0.1462 -0.1970 -0.6655
 9989SOL    HW230867   2.010   5.293   4.569  0.3511 -1.8511 -2.0708
 9990SOL     OW30868   6.970   0.745   1.785 -0.0869  0.3732 -0.4473
 9990SOL    HW130869   6.949   0.805   1.708 -1.4171  0.2205 -0.2248
 9990SOL    HW230870   6.886   0.716   1.830  0.6708  1.9951  2.2821
 9991SOL     OW30871   0.897   4.490   3.261  0.4288  0.3967 -0.1579
 9991SOL    HW130872   0.931   4.509   3.169  2.5420  2.0616  0.8714
 9991SOL    HW230873   0.842   4.567   3.292 -0.0291 -0.0307  0.1051
 9992SOL     OW30874   2.815   3.456   0.011 -0.9805  0.6103 -0.2684
 9992SOL    HW130875   2.893   3.502   0.053 -0.0053 -0.4624 -0.8579
 9992SOL    HW230876   2.836   3.359   0.000 -1.9856  0.5014 -1.4076
 9993SOL     OW30877   3.618   6.929   5.569  0.6122 -0.9427  0.1568
 9993SOL    HW130878   3.583   7.020   5.550 -0.4934 -1.3058  0.3569
 9993SOL    HW230879   3.628   6.878   5.483  0.2255 -0.9763  0.1293
 9994SOL     OW30880   0.057   1.336   4.518 -0.1793 -0.3223 -0.4766
 9994SOL    HW130881   0.131   1.398   4.492  0.3516 -0.3130  0.9527
 9994SOL    HW230882   0.065   1.251   4.466  1.7133 -0.8830  0.6180
 9995SOL     OW30883   5.458   0.337   6.280  0.4339 -0.0736  0.6133
 9995SOL    HW130884   5.387   0.303   6.218 -0.1537  2.8462 -0.5068
 9995SOL    HW230885   5.546   0.296   6.257 -0.2224 -0.9107 -0.4751
 9996SOL     OW30886   1.757   2.091   1.343 -0.7855  0.1068 -0.0516
 9996SOL    HW130887   1.805   2.148   1.409 -1.1677  0.1862  0.1603
 9996SOL    HW230888   1.751   2.140   1.256 -0.2214 -0.0261 -0.1695
 9997SOL     OW30889   6.697   1.963   4.084  0.1186  0.0702 -0.0345
 9997SOL    HW130890   6.605   1.956   4.121 -0.7020  2.2781 -1.4635
 9997SOL    HW230891   6.699   2.033   4.013  2.5748 -0.9690 -1.1094
 9998SOL     OW30892   4.293   3.890   1.756 -0.1943 -0.5377  0.1630
 9998SOL    HW130893   4.304   3.983   1.791  0.0432 -1.2533  2.1243
 9998SOL    HW230894   4.247   3.893   1.667 -1.3502  1.3790  0.7633
 9999SOL     OW30895   1.876   5.770   3.544  0.5507 -0.0290 -0.2061
 9999SOL    HW130896   1.865   5.788   3.447 -0.3309  1.0329  0.0752
 9999SOL    HW230897   1.944   5.833   3.582 -1.4433  1.8299  0.4793
10000SOL     OW30898   4.691   2.924   1.249 -0.3321 -0.6819  0.0781
10000SOL    HW130899   4.783   2.952   1.276  0.1848 -2.5744  0.4114
10000SOL    HW230900   4.624   2.986   1.289  0.8017  1.5455 -1.2316
10001SOL     OW30901   4.020   4.834   1.470  0.4734  0.0557  0.1161
10001SOL    HW130902   3.995   4.897   1.543  2.3404  0.2132  0.6628
10001SOL    HW230903   3.948   4.765   1.460 -1.4328  2.0280 -0.2647
10002SOL     OW30904   2.765   1.179   1.947  0.0528  0.4899  0.0421
10002SOL    HW130905   2.850   1.231   1.940  0.7576 -0.7728 -1.4829
10002SOL    HW230906   2.786   1.086   1.978 -0.6101 -0.1121 -1.2334
10003SOL     OW30907   0.951   1.355   3.864 -0.2718  0.4035  0.9594
10003SOL    HW130908   0.871   1.296   3.862  1.2748 -1.8038  0.5821
10003SOL    HW230909   1.005   1.336   3.946  0.0363  1.6570  1.0713
10004SOL     OW30910   6.477   3.899   3.919 -0.1418 -0.2479  0.1526
10004SOL    HW130911   6.487   3.812   3.871 -2.4571 -0.9074  0.7024
10004SOL    HW230912   6.440   3.968   3.857 -0.1424 -0.2032  0.2013
10005SOL     OW30913   1.161   5.020   5.099  0.4126 -0.2046 -0.0792
10005SOL    HW130914   1.093   5.086   5.130 -0.2174 -1.2778  0.9238
10005SOL    HW230915   1.251   5.064   5.096  0.3601  0.2536  2.4789
10006SOL     OW30916   6.416   6.994   5.983 -0.1792  0.0073  0.0533
10006SOL    HW130917   6.341   6.939   5.945 -2.3473  1.2503  2.2767
10006SOL    HW230918   6.454   6.948   6.063 -0.8641  0.8686  0.9067
10007SOL     OW30919   1.201   4.544   5.554  0.6441  0.1674  0.4542
10007SOL    HW130920   1.129   4.608   5.579  1.6071  1.4701 -0.0430
10007SOL    HW230921   1.181   4.505   5.464 -0.6762 -1.3773  1.3519
10008SOL     OW30922   3.173   1.913   5.370 -0.0712  0.1848 -0.8440
10008SOL    HW130923   3.200   1.868   5.285  2.4241  1.6186 -0.9329
10008SOL    HW230924   3.124   1.998   5.349 -2.1272 -0.9222 -0.7323
10009SOL     OW30925   7.001   3.949   1.956 -0.5833  0.3217  0.5564
10009SOL    HW130926   6.940   4.001   2.015 -2.3689 -0.4966 -0.5018
10009SOL    HW230927   7.028   4.006   1.878 -1.4726  0.1208  0.0885
10010SOL     OW30928   1.596   3.337   6.130  0.1843 -0.0712  0.0381
10010SOL    HW130929   1.625   3.275   6.057 -1.2878 -1.1435  0.3054
10010SOL    HW230930   1.676   3.380   6.172  1.1004 -0.0980 -1.6191
10011SOL     OW30931   2.403   3.242   5.978  0.3395 -0.2504 -0.4956
10011SOL    HW130932   2.320   3.278   6.021  0.7794  1.1671 -0.7824
10011SOL    HW230933   2.378   3.190   5.896 -0.3204 -0.7048 -0.0172
10012SOL     OW30934   4.960   3.395   2.197  0.3124 -0.7210  0.1072
10012SOL    HW130935   4.949   3.298   2.218  0.7778 -0.9528 -0.6600
10012SOL    HW230936   4.933   3.411   2.102 -0.9715  0.1330  0.5860
10013SOL     OW30937   6.228   5.442   5.583 -0.2046  0.0039 -0.5080
10013SOL    HW130938   6.298   5.417   5.649  1.5057  1.8030 -1.5635
10013SOL    HW230939   6.209   5.540   5.589 -2.6404 -0.4131 -0.2957
10014SOL     OW30940   1.806   1.191   2.538 -0.2742  0.1843  0.1285
10014SOL    HW130941   1.741   1.204   2.614 -1.3297  2.4577 -1.0594
10014SOL    HW230942   1.814   1.276   2.486  1.6177 -0.8546 -1.4083
10015SOL     OW30943   3.786   5.647   4.793  0.0613 -0.1214  0.5778
10015SOL    HW130944   3.699   5.606   4.819 -0.3888  0.8924  0.7017
10015SOL    HW230945   3.857   5.615   4.856 -0.2271 -0.8847  0.5299
10016SOL     OW30946   2.175   6.560   3.577  0.1183  0.5032  0.1314
10016SOL    HW130947   2.125   6.548   3.491 -0.6088 -0.1532  0.6314
10016SOL    HW230948   2.243   6.633   3.566 -0.4336  0.8996 -0.7888
10017SOL     OW30949   2.374   1.820   4.035  0.3466 -0.0825  1.8744
10017SOL    HW130950   2.412   1.822   4.128  0.5346  0.8228  1.7847
10017SOL    HW230951   2.297   1.885   4.030  1.0360  0.6959  1.1048
10018SOL     OW30952   1.241   4.037   5.944 -0.3067 -0.1744 -0.8688
10018SOL    HW130953   1.216   4.116   5.888  2.6628  0.1878 -1.8671
10018SOL    HW230954   1.242   4.063   6.040 -0.3114  0.7167 -1.1009
10019SOL     OW30955   1.191   1.320   2.536  0.7005 -0.1231  0.4843
10019SOL    HW130956   1.244   1.367   2.465 -0.1405 -2.9082 -2.2030
10019SOL    HW230957   1.146   1.388   2.594  0.4520  2.3916 -2.4081
10020SOL     OW30958   0.196   6.714   3.245 -0.0692 -0.3017  0.0905
10020SOL    HW130959   0.290   6.687   3.266 -0.2938 -0.4773  0.8778
10020SOL    HW230960   0.167   6.788   3.305 -0.1743  0.2989 -0.6764
10021SOL     OW30961   6.983   4.485   2.406 -0.6802  0.0993 -0.2203
10021SOL    HW130962   6.888   4.457   2.390 -0.8070  0.6942 -0.5276
10021SOL    HW230963   7.031   4.411   2.453 -1.4903  0.0840  0.6081
10022SOL     OW30964   2.200   4.502   0.554  0.3268  0.4156  0.3510
10022SOL    HW130965   2.199   4.408   0.589 -0.7025  0.0082 -0.7165
10022SOL    HW230966   2.295   4.531   0.539  0.6289 -0.8211 -0.2398
10023SOL     OW30967   6.852   2.474   0.560  0.1941 -0.7254  0.3083
10023SOL    HW130968   6.952   2.474   0.569  0.1804  0.6957  0.6521
10023SOL    HW230969   6.827   2.462   0.463  0.6830 -1.0025  0.2126
10024SOL     OW30970   3.612   5.323   2.874 -0.4223  0.0148  0.0860
10024SOL    HW130971   3.592   5.271   2.957  0.1413  2.9324  2.1971
10024SOL    HW230972   3.707   5.305   2.847  0.8062  2.0005  2.5916
10025SOL     OW30973   2.503   5.003   1.207 -0.5907  0.8639  0.5657
10025SOL    HW130974   2.535   5.086   1.252  0.4215 -0.5872  2.7169
10025SOL    HW230975   2.510   4.926   1.271 -1.0093 -0.9820 -1.4904
10026SOL     OW30976   5.157   1.829   3.360 -0.6009  0.4092 -0.1065
10026SOL    HW130977   5.235   1.767   3.346 -2.6103 -2.3017 -0.2322
10026SOL    HW230978   5.163   1.869   3.451  1.0241  0.4254 -0.1866
10027SOL     OW30979   2.624   2.568   5.563 -0.3234 -0.5719  0.5753
10027SOL    HW130980   2.564   2.643   5.591 -0.4306 -1.1966  2.1249
10027SOL    HW230981   2.580   2.480   5.583  0.7117 -1.0409  0.9026
10028SOL     OW30982   2.980   2.271   3.217  0.3233 -0.0946 -0.7748
10028SOL    HW130983   3.013   2.180   3.243 -0.4982  0.3739  2.2682
10028SOL    HW230984   2.881   2.274   3.225  0.3662  1.1567 -0.5756
10029SOL     OW30985   0.280   5.154   5.570 -0.2260  0.4145 -0.2257
10029SOL    HW130986   0.200   5.212   5.553 -0.1705  0.3032 -0.8823
10029SOL    HW230987   0.261   5.092   5.647 -0.9721  0.0073 -0.7344
10030SOL     OW30988   0.904   6.849   4.282  0.3374  0.1919  0.3084
10030SOL    HW130989   0.888   6.910   4.204  1.3071 -1.2832 -1.0967
10030SOL    HW230990   0.917   6.904   4.364 -2.4082  1.7577 -0.1706
10031SOL     OW30991   0.982   4.585   2.304 -0.3143 -0.0949 -0.2531
10031SOL    HW130992   1.009   4.643   2.227 -1.9638  0.6232 -0.3247
10031SOL    HW230993   0.998   4.489   2.281 -3.3367 -0.1559 -2.6733
10032SOL     OW30994   4.245   6.639   4.907 -0.6893  0.3403  0.0409
10032SOL    HW130995   4.221   6.652   4.811 -0.1267  0.7737 -0.0488
10032SOL    HW230996   4.286   6.548   4.919 -0.7127  0.3056 -0.1393
10033SOL     OW30997   3.643   0.920   5.471 -0.5481  0.4841 -0.0091
10033SOL    HW130998   3.643   0.986   5.546 -0.0610 -0.7240  1.1116
10033SOL    HW230999   3.670   0.965   5.386 -2.4921  2.1893  0.2111
10034SOL     OW31000   1.366   6.400   3.752  0.3651 -0.0615 -0.6257
10034SOL    HW131001   1.462   6.378   3.735  0.2051 -0.4690 -1.0250
10034SOL    HW231002   1.356   6.500   3.761  0.8342 -0.0231 -0.4907
10035SOL     OW31003   5.795   4.342   0.489 -0.1938 -0.4243 -0.2841
10035SOL    HW131004   5.825   4.272   0.553 -3.5079 -2.6214 -0.8663
10035SOL    HW231005   5.718   4.392   0.528  0.2046  0.8602 -1.0826
10036SOL     OW31006   0.183   1.607   6.680 -0.3305 -0.0061 -0.1370
10036SOL    HW131007   0.225   1.688   6.722  0.6356 -1.1947  1.2869
10036SOL    HW231008   0.131   1.635   6.599 -0.0788  2.0324  0.3472
10037SOL     OW31009   4.386   0.783   6.920  0.1234 -0.2233  0.2263
10037SOL    HW131010   4.308   0.841   6.942  0.0179 -0.0082 -0.6816
10037SOL    HW231011   4.360   0.717   6.850  0.7800 -0.0673 -0.1764
10038SOL     OW31012   5.364   5.475   6.605 -0.4630  0.6115  0.6494
10038SOL    HW131013   5.417   5.519   6.678  0.7501 -0.3266  0.3647
10038SOL    HW231014   5.407   5.492   6.517  0.0855 -1.1494  0.5347
10039SOL     OW31015   6.855   5.576   1.584  0.1449 -0.2340  0.3372
10039SOL    HW131016   6.765   5.570   1.628  0.6846  0.5431  1.6073
10039SOL    HW231017   6.853   5.528   1.497 -2.2076  1.8298 -0.8535
10040SOL     OW31018   2.326   1.160   2.150 -0.0961  0.2844 -0.6614
10040SOL    HW131019   2.365   1.068   2.155  0.4489  0.5717  1.4351
10040SOL    HW231020   2.253   1.169   2.218 -1.0721  1.0069 -1.7722
10041SOL     OW31021   0.193   4.510   0.030 -0.1743 -0.2874 -0.3960
10041SOL    HW131022   0.190   4.569  -0.051  1.5385 -1.1765 -1.1508
10041SOL    HW231023   0.210   4.416   0.002 -1.1547 -0.8794  0.9133
10042SOL     OW31024   6.208   0.038   4.039  0.2949 -0.1388 -0.4422
10042SOL    HW131025   6.128   0.035   3.980  1.2122  0.2632 -1.7577
10042SOL    HW231026   6.273   0.105   4.004  0.7201  0.3773  1.2515
10043SOL     OW31027   0.890   0.231   3.747 -0.1356 -0.2428  0.1317
10043SOL    HW131028   0.925   0.272   3.831 -1.3711  2.1260 -0.4102
10043SOL    HW231029   0.849   0.143   3.767  2.4671 -1.2507  1.4142
10044SOL     OW31030   2.586   0.491   5.958  0.0739 -0.4321 -0.4269
10044SOL    HW131031   2.493   0.522   5.976  0.3401  0.9938 -1.3245
10044SOL    HW231032   2.593   0.457   5.865  0.7133  0.6433 -0.7906
10045SOL     OW31033   3.993   5.963   5.412  0.1605  0.4870 -0.2953
10045SOL    HW131034   3.933   5.927   5.483  2.6150 -0.1160  1.5546
10045SOL    HW231035   4.001   5.896   5.338  0.6610 -0.5841  0.7108
10046SOL     OW31036   0.330   3.348   1.818  0.3839  0.0093 -0.2862
10046SOL    HW131037   0.332   3.249   1.808  2.2804  0.0911 -1.1508
10046SOL    HW231038   0.292   3.389   1.735 -0.6584  0.0316  0.1784
10047SOL     OW31039   1.083   1.670   3.349 -0.2438 -0.7924 -0.7974
10047SOL    HW131040   1.000   1.657   3.404 -0.0965 -0.4512 -0.4912
10047SOL    HW231041   1.075   1.756   3.298 -0.0992 -0.7857 -0.8072
10048SOL     OW31042   4.360   2.389   1.126  0.3385 -0.1633 -0.2867
10048SOL    HW131043   4.425   2.320   1.160  1.9802  0.8504 -1.2632
10048SOL    HW231044   4.289   2.404   1.195  1.6253 -0.6671  1.2059
10049SOL     OW31045   1.178   0.225   4.985  0.6283  0.0650  0.3992
10049SOL    HW131046   1.219   0.309   5.021  0.2260  1.5521 -2.3199
10049SOL    HW231047   1.136   0.244   4.896 -1.3270 -2.5912  0.6288
10050SOL     OW31048   5.603   2.844   5.358  0.4455 -0.1095 -0.2764
10050SOL    HW131049   5.532   2.903   5.318  0.1236  0.8996  1.6442
10050SOL    HW231050   5.685   2.848   5.302  0.9245  3.3556  0.4307
10051SOL     OW31051   5.859   2.662   5.574  0.2165 -0.2865  0.0595
10051SOL    HW131052   5.777   2.719   5.575 -0.7631 -1.5971 -0.8520
10051SOL    HW231053   5.906   2.669   5.662  0.7557  2.6937 -0.3607
10052SOL     OW31054   0.193   3.500   2.000  0.4094  0.2804 -0.0062
10052SOL    HW131055   0.264   3.459   1.942  0.5805  0.8978 -0.2396
10052SOL    HW231056   0.223   3.590   2.031 -0.9261  1.2612 -1.4308
10053SOL     OW31057   2.999   6.359   2.148 -0.2481  0.2934 -0.0784
10053SOL    HW131058   2.929   6.352   2.077 -0.8855  3.1982  0.1544
10053SOL    HW231059   2.968   6.309   2.230 -1.8125  1.0567 -0.1695
10054SOL     OW31060   2.631   5.176   3.615 -0.0144  0.5180  0.6954
10054SOL    HW131061   2.655   5.272   3.619  0.5940  0.3491  1.3184
10054SOL    HW231062   2.677   5.133   3.537 -1.3864  1.0175 -0.4089
10055SOL     OW31063   6.445   4.016   5.433 -0.6903 -0.5095  0.2492
10055SOL    HW131064   6.440   4.026   5.334  1.4212 -0.3677  0.1019
10055SOL    HW231065   6.404   4.096   5.477 -0.0200  0.2924 -0.5628
10056SOL     OW31066   1.031   4.397   1.994  0.1546 -0.4258  0.6148
10056SOL    HW131067   1.025   4.488   1.954 -0.7831 -0.5321  0.4986
10056SOL    HW231068   1.108   4.348   1.952  0.3643  0.1391  0.3298
10057SOL     OW31069   2.323   2.214   4.336 -0.3530  0.2175  0.3765
10057SOL    HW131070   2.284   2.125   4.358 -0.6729 -0.2428 -1.8264
10057SOL    HW231071   2.417   2.219   4.371  0.5705 -1.9896 -1.5170
10058SOL     OW31072   6.359   5.547   4.558 -0.1316 -0.0679  0.0341
10058SOL    HW131073   6.391   5.452   4.557 -0.4876 -0.2452  1.7948
10058SOL    HW231074   6.330   5.571   4.650 -1.1518  1.4033 -0.6293
10059SOL     OW31075   6.094   0.344   5.670 -0.3285 -0.2653  0.1116
10059SOL    HW131076   5.998   0.334   5.644  0.2255 -1.0439 -1.8038
10059SOL    HW231077   6.120   0.269   5.731 -0.7448 -0.5235 -0.0234
10060SOL     OW31078   2.461   2.517   1.341  0.0355 -0.4192 -0.1069
10060SOL    HW131079   2.366   2.546   1.358  0.8042  1.4609  1.5188
10060SOL    HW231080   2.522   2.593   1.362  1.9807 -1.8672 -0.2800
10061SOL     OW31081   6.510   1.788   5.604  0.2427  0.9187 -0.0277
10061SOL    HW131082   6.597   1.742   5.620  0.3605  1.4686  1.0225
10061SOL    HW231083   6.474   1.762   5.514  2.2027  1.8182 -1.1432
10062SOL     OW31084   0.126   6.342   1.832 -0.1366  0.1801 -0.1806
10062SOL    HW131085   0.124   6.373   1.927 -0.3372 -0.0860 -0.0972
10062SOL    HW231086   0.128   6.421   1.771 -0.5673  0.3574  0.0302
10063SOL     OW31087   0.730   1.499   4.002  0.5971 -0.6510  0.1600
10063SOL    HW131088   0.731   1.520   4.099  2.1549 -0.7497  0.1858
10063SOL    HW231089   0.821   1.470   3.972  0.6419  1.1250 -1.6898
10064SOL     OW31090   4.765   0.552   3.377 -0.1043 -0.1830  0.0750
10064SOL    HW131091   4.671   0.585   3.371 -0.2413 -0.6563 -0.4178
10064SOL    HW231092   4.809   0.592   3.458 -1.2636 -1.2927  1.3076
10065SOL     OW31093   1.623   5.343   4.328  0.0796  0.2863  0.2153
10065SOL    HW131094   1.581   5.301   4.247  1.4514 -1.1700  0.1952
10065SOL    HW231095   1.722   5.346   4.316  0.2461  0.7522  1.5252
10066SOL     OW31096   2.328   0.371   1.783 -0.3127 -0.0007 -0.1546
10066SOL    HW131097   2.337   0.271   1.777 -0.1760 -0.0023  0.0493
10066SOL    HW231098   2.337   0.399   1.879  0.2929  0.2646 -0.2824
10067SOL     OW31099   2.829   6.151   4.404 -0.2553  0.6219  0.3884
10067SOL    HW131100   2.754   6.114   4.349  0.8193 -0.6707 -0.2328
10067SOL    HW231101   2.916   6.118   4.370  0.6873  2.6574  0.6727
10068SOL     OW31102   5.087   3.109   4.467  0.7124  0.1281 -0.0692
10068SOL    HW131103   4.990   3.101   4.444  0.5435 -1.0473  0.9356
10068SOL    HW231104   5.117   3.203   4.453 -0.4640  0.4172 -0.7841
10069SOL     OW31105   2.252   1.056   4.126  0.1934 -0.4917 -0.0988
10069SOL    HW131106   2.288   1.126   4.064  0.0287 -0.8503 -0.5935
10069SOL    HW231107   2.158   1.080   4.152 -0.3961 -1.2776 -1.4220
10070SOL     OW31108   0.333   0.376   4.466 -0.2338  0.0778 -0.3315
10070SOL    HW131109   0.387   0.379   4.550  0.5841 -0.8901 -0.7973
10070SOL    HW231110   0.241   0.343   4.486  0.4421 -1.7061 -0.0360
10071SOL     OW31111   0.018   0.769   4.030 -0.2107 -0.1881  0.9288
10071SOL    HW131112   0.110   0.795   4.000 -0.5218  0.4972  0.5423
10071SOL    HW231113  -0.007   0.682   3.988 -0.7251  0.8436 -1.0591
10072SOL     OW31114   1.224   0.257   3.161  0.4454  0.4414  0.0730
10072SOL    HW131115   1.172   0.339   3.188 -1.0157 -0.0957 -0.9353
10072SOL    HW231116   1.295   0.239   3.228 -0.3753  1.5010  1.2872
10073SOL     OW31117   6.690   6.945   4.889 -0.5763 -0.3166  0.3739
10073SOL    HW131118   6.782   6.907   4.896  0.3312  1.7478  0.5558
10073SOL    HW231119   6.634   6.911   4.964  1.1665  1.1143  2.4699
10074SOL     OW31120   4.414   0.160   0.058 -0.2309 -0.3150 -0.1404
10074SOL    HW131121   4.513   0.174   0.064 -0.1338 -1.2077  0.5553
10074SOL    HW231122   4.390   0.118  -0.029 -0.2266  1.6152 -1.1179
10075SOL     OW31123   2.920   2.176   5.090 -0.0893  0.3124  0.1561
10075SOL    HW131124   2.956   2.158   4.999 -0.5400 -2.0416  0.3854
10075SOL    HW231125   2.994   2.173   5.157  0.0639  0.9002  0.0226
10076SOL     OW31126   4.503   0.622   3.970 -0.1334 -0.3311  0.0524
10076SOL    HW131127   4.506   0.676   4.055  0.8830  0.2011 -0.2954
10076SOL    HW231128   4.458   0.676   3.899  1.4314  0.3675 -0.4661
10077SOL     OW31129   2.245   0.666   5.058  0.0588  1.1113 -0.7142
10077SOL    HW131130   2.147   0.646   5.054  0.1856 -0.3022  1.7182
10077SOL    HW231131   2.276   0.664   5.152  2.8300 -0.4607 -1.5588
10078SOL     OW31132   5.427   0.257   0.071 -0.1370  0.4693  0.0054
10078SOL    HW131133   5.353   0.267   0.138 -0.5089  0.9485 -0.4658
10078SOL    HW231134   5.388   0.262  -0.021  0.6678  2.3503 -0.2708
10079SOL     OW31135   6.765   4.429   0.709  0.2616  0.1658  0.4395
10079SOL    HW131136   6.732   4.439   0.803 -0.1756 -1.9665  0.5625
10079SOL    HW231137   6.739   4.339   0.674  0.6507  0.8024 -1.6495
10080SOL     OW31138   2.684   2.922   5.480  0.4219  0.4786 -0.2201
10080SOL    HW131139   2.602   2.877   5.514  1.5103  0.2864  2.3478
10080SOL    HW231140   2.705   2.887   5.388 -2.7902  1.2287 -1.3664
10081SOL     OW31141   6.521   0.608   5.506  0.1897 -0.1743 -0.0962
10081SOL    HW131142   6.490   0.513   5.519  0.9631 -0.5717 -1.0101
10081SOL    HW231143   6.505   0.660   5.590 -1.1043 -0.8663  0.1129
10082SOL     OW31144   5.876   1.307   1.904  0.1464 -0.0017  0.6139
10082SOL    HW131145   5.912   1.356   1.984  0.1877 -1.0616  1.2631
10082SOL    HW231146   5.951   1.258   1.859  0.3178  1.3983 -0.6999
10083SOL     OW31147   3.885   0.074   5.455  0.6111  0.0820  0.9283
10083SOL    HW131148   3.878  -0.017   5.494  0.5656 -0.0647  0.5857
10083SOL    HW231149   3.811   0.088   5.389  0.7451  0.2867  0.8201
10084SOL     OW31150   1.646   1.304   6.752  0.2732 -0.0409  0.9286
10084SOL    HW131151   1.575   1.234   6.738 -0.4428  0.9058 -0.3996
10084SOL    HW231152   1.725   1.282   6.696 -0.7687  1.2649 -1.1658
10085SOL     OW31153   0.921   4.942   2.182 -0.3694 -0.2541 -0.0103
10085SOL    HW131154   0.951   5.008   2.251  0.5656 -1.4592  0.7708
10085SOL    HW231155   0.863   4.873   2.224  1.7492 -2.1075  0.0686
10086SOL     OW31156   6.113   3.588   1.837 -0.6780  0.6754 -0.1033
10086SOL    HW131157   6.062   3.654   1.782  0.1519  0.5172 -1.0827
10086SOL    HW231158   6.189   3.551   1.784  0.5292  0.9682  1.3374
10087SOL     OW31159   0.501   0.871   3.991  0.2436  0.4781  0.6506
10087SOL    HW131160   0.507   0.870   3.892  1.4682 -0.5336  0.7176
10087SOL    HW231161   0.559   0.944   4.028 -0.5099  1.1063  0.6259
10088SOL     OW31162   6.643   0.191   4.884 -0.7808  0.0487  0.7009
10088SOL    HW131163   6.715   0.249   4.921 -1.2518  2.4429 -1.7915
10088SOL    HW231164   6.671   0.095   4.888  2.2590  0.8441  0.4565
10089SOL     OW31165   0.936   3.442   1.032  0.2633  0.8537  0.5490
10089SOL    HW131166   0.932   3.483   0.941  1.1706  1.2857  0.6990
10089SOL    HW231167   0.889   3.353   1.030  1.6653  0.0909 -0.7531
10090SOL     OW31168   6.314   6.237   1.427  0.0570 -0.7306  0.4621
10090SOL    HW131169   6.276   6.259   1.337 -1.1246 -2.1981  0.5597
10090SOL    HW231170   6.364   6.151   1.422 -0.5764 -1.1677  1.3224
10091SOL     OW31171   1.378   2.279   3.848 -0.3203  0.1014 -0.0247
10091SOL    HW131172   1.365   2.201   3.908  1.4638 -0.3084 -0.1165
10091SOL    HW231173   1.328   2.358   3.884  2.0255  0.3659  3.0380
10092SOL     OW31174   2.307   5.266   5.954  0.0808  0.7815  0.7613
10092SOL    HW131175   2.225   5.289   5.901  0.4846  1.3504  0.3713
10092SOL    HW231176   2.376   5.227   5.893  0.8554  2.1970  0.6825
10093SOL     OW31177   4.177   5.119   4.486  0.3264  0.2243  0.1697
10093SOL    HW131178   4.184   5.035   4.432  1.0001  1.2408 -1.3894
10093SOL    HW231179   4.103   5.109   4.553  0.6736 -1.7571  0.3274
10094SOL     OW31180   1.625   2.987   2.667  0.5999  0.2423  0.5924
10094SOL    HW131181   1.695   2.943   2.724 -0.5287  0.5003  2.2485
10094SOL    HW231182   1.573   3.052   2.723  0.2852  1.4938 -1.0802
10095SOL     OW31183   6.589   0.730   6.441  0.1256 -0.0164  0.2423
10095SOL    HW131184   6.662   0.775   6.491 -0.3960  2.4683 -1.0586
10095SOL    HW231185   6.500   0.761   6.476 -0.2989 -1.3922  0.4331
10096SOL     OW31186   0.862   3.953   2.907  0.3895  0.1931  0.4854
10096SOL    HW131187   0.904   3.865   2.931 -0.6130 -0.3391  0.3497
10096SOL    HW231188   0.839   3.953   2.810 -2.8445 -0.8667  1.0999
10097SOL     OW31189   1.905   0.857   6.774 -0.1743  0.0527  0.9365
10097SOL    HW131190   1.994   0.840   6.817  0.6502 -1.1209 -1.1298
10097SOL    HW231191   1.834   0.813   6.828  0.3703  1.4853  2.9444
10098SOL     OW31192   3.153   4.989   1.039  0.1960  0.1338  0.3131
10098SOL    HW131193   3.158   4.911   0.978  0.9080  0.7578 -0.4450
10098SOL    HW231194   3.189   4.964   1.129 -0.4155 -0.6517  0.3512
10099SOL     OW31195   4.889   4.656   5.423 -0.5890 -0.2936 -0.4900
10099SOL    HW131196   4.849   4.748   5.429  1.9291  0.9760 -1.6740
10099SOL    HW231197   4.860   4.602   5.502 -1.1402  1.9067  0.9154
10100SOL     OW31198   6.009   0.785   6.423 -0.1543  0.1238 -0.2544
10100SOL    HW131199   5.995   0.767   6.326 -0.7390 -1.5138  0.0970
10100SOL    HW231200   6.107   0.790   6.442 -0.0381  0.7185 -0.9491
10101SOL     OW31201   0.502   4.736   1.439  0.3337  0.4415 -0.2055
10101SOL    HW131202   0.440   4.713   1.364  0.2045 -0.7733  0.2498
10101SOL    HW231203   0.465   4.701   1.525  0.6321  1.5438  0.3908
10102SOL     OW31204   1.752   1.739   3.204  0.0310  0.2523 -0.1074
10102SOL    HW131205   1.795   1.651   3.184  3.4089  1.7537 -0.0640
10102SOL    HW231206   1.709   1.735   3.294  1.0570 -1.0362  0.3624
10103SOL     OW31207   4.114   6.055   0.828  0.4381 -0.4256  0.1904
10103SOL    HW131208   4.080   6.136   0.781  0.6369 -0.7651 -0.5425
10103SOL    HW231209   4.194   6.079   0.883 -0.0970  0.0752  0.7729
10104SOL     OW31210   5.945   5.290   5.814  0.8972  0.4001 -0.1379
10104SOL    HW131211   5.966   5.328   5.724  2.0708 -0.9520 -0.4861
10104SOL    HW231212   5.978   5.351   5.886 -0.4525  1.7121 -0.5794
10105SOL     OW31213   2.666   1.233   4.949 -0.0399  0.0654 -0.4255
10105SOL    HW131214   2.668   1.222   5.049  1.4777  2.4776 -0.0995
10105SOL    HW231215   2.582   1.192   4.913  0.2153 -2.5177  1.5608
10106SOL     OW31216   5.087   3.733   0.062 -0.4221  0.1158 -0.1714
10106SOL    HW131217   5.170   3.677   0.064 -0.5572 -0.1552  3.2953
10106SOL    HW231218   5.100   3.814   0.120 -2.2706  0.5606 -0.3192
10107SOL     OW31219   4.715   0.378   5.020 -0.5621  0.4481 -0.4404
10107SOL    HW131220   4.756   0.335   5.101  0.1947  0.9221 -0.5630
10107SOL    HW231221   4.650   0.448   5.049 -3.0120 -1.7756 -0.2039
10108SOL     OW31222   1.608   6.200   6.990  0.4056  0.1947 -0.1609
10108SOL    HW131223   1.645   6.114   6.955  1.0176 -0.7785  2.6283
10108SOL    HW231224   1.509   6.191   7.001  0.0323  0.8921 -2.4968
10109SOL     OW31225   4.429   5.617   3.490  0.2473  0.4030  0.5125
10109SOL    HW131226   4.470   5.708   3.483  0.1529  0.3856 -0.3217
10109SOL    HW231227   4.330   5.625   3.499  0.2386  0.3770  0.4324
10110SOL     OW31228   2.806   2.198   5.561  0.6952 -0.2828  0.3488
10110SOL    HW131229   2.839   2.293   5.564  0.1373  0.0242 -1.5370
10110SOL    HW231230   2.859   2.142   5.624  0.4385  1.4444  2.1780
10111SOL     OW31231   5.606   1.301   3.215 -0.2453 -0.2286  0.5931
10111SOL    HW131232   5.524   1.310   3.158  0.0614  0.7606  0.2895
10111SOL    HW231233   5.606   1.373   3.285  1.6332  1.4806 -1.0395
10112SOL     OW31234   5.442   6.521   6.480  0.4914 -0.9128 -0.1238
10112SOL    HW131235   5.533   6.489   6.452  0.2236 -1.7651 -0.0666
10112SOL    HW231236   5.451   6.602   6.537  1.2705 -1.4794  0.5816
10113SOL     OW31237   4.901   0.200   1.220  0.0310 -0.0192  0.0586
10113SOL    HW131238   4.891   0.300   1.219  0.1014  0.0075  0.9435
10113SOL    HW231239   4.834   0.159   1.159  0.9173  0.6305 -1.3926
10114SOL     OW31240   5.844   0.157   0.568  0.1782  0.4873 -0.3251
10114SOL    HW131241   5.901   0.235   0.592  0.9168 -0.1457  0.0220
10114SOL    HW231242   5.861   0.082   0.633  0.1845 -0.2986 -1.2142
10115SOL     OW31243   0.444   2.424   3.293  0.6116  0.3056  0.2121
10115SOL    HW131244   0.525   2.481   3.309 -0.8742  2.8272 -0.6387
10115SOL    HW231245   0.447   2.386   3.201  1.1897 -0.3338  0.4805
10116SOL     OW31246   0.593   2.076   0.392 -0.2396  0.6871  0.4645
10116SOL    HW131247   0.663   2.137   0.356 -0.5742 -0.1802 -1.8053
10116SOL    HW231248   0.635   1.991   0.423 -0.2916 -0.1966 -1.7199
10117SOL     OW31249   5.916   6.145   5.471  0.0383  0.0006  0.2528
10117SOL    HW131250   5.999   6.111   5.426 -0.4120  0.1654 -0.7471
10117SOL    HW231251   5.849   6.071   5.475 -0.3755  0.3135 -0.5106
10118SOL     OW31252   5.529   5.726   0.721  0.5232 -0.2640 -0.2305
10118SOL    HW131253   5.578   5.725   0.809  0.4478  2.8750 -0.0479
10118SOL    HW231254   5.431   5.730   0.737  0.4407 -1.0653 -0.5028
10119SOL     OW31255   2.841   0.909   5.337  0.1941 -0.3638 -0.4383
10119SOL    HW131256   2.884   0.977   5.397  0.2159 -0.9179  0.1907
10119SOL    HW231257   2.912   0.849   5.300  0.0410 -0.8432  0.0416
10120SOL     OW31258   0.698   2.877   3.857  0.2422 -0.0342 -0.0818
10120SOL    HW131259   0.656   2.967   3.848  0.7882  0.3204  0.8004
10120SOL    HW231260   0.665   2.817   3.784 -1.3517  0.4025  0.2329
10121SOL     OW31261   0.895   5.774   4.174 -0.1489 -0.3807 -0.0381
10121SOL    HW131262   0.809   5.823   4.190 -0.6750 -0.9961 -0.8891
10121SOL    HW231263   0.881   5.707   4.101 -0.3503 -4.0925  3.1198
10122SOL     OW31264   4.193   3.963   0.759 -0.2689  0.2860 -0.2038
10122SOL    HW131265   4.290   3.965   0.783 -0.2458 -1.4387 -0.0174
10122SOL    HW231266   4.138   3.996   0.836  0.0927 -0.1869  0.2604
10123SOL     OW31267   5.649   5.387   0.303  0.6270 -0.3553 -0.1691
10123SOL    HW131268   5.671   5.403   0.399  0.6481 -0.0417 -0.2231
10123SOL    HW231269   5.676   5.295   0.277  0.6543 -0.4286  0.1166
10124SOL     OW31270   3.754   4.301   5.352 -0.0035  0.0148 -0.3328
10124SOL    HW131271   3.665   4.266   5.381 -0.1205  0.5478 -0.0449
10124SOL    HW231272   3.781   4.256   5.267 -0.5976 -0.0698 -0.4798
10125SOL     OW31273   2.156   6.439   1.011 -0.7349  0.2343  0.6978
10125SOL    HW131274   2.227   6.412   0.947 -2.3468 -1.0103 -0.6522
10125SOL    HW231275   2.116   6.527   0.983  0.0181  0.7808  1.2837
10126SOL     OW31276   0.152   4.916   1.262 -0.0801  0.4300 -0.2307
10126SOL    HW131277   0.246   4.903   1.292  0.3549  1.5815 -1.0591
10126SOL    HW231278   0.127   4.845   1.197  0.8022  1.1140 -1.3372
10127SOL     OW31279   3.827   5.055   5.735  0.4266 -0.9096  0.4255
10127SOL    HW131280   3.902   5.121   5.731 -0.1238 -0.2156  1.1072
10127SOL    HW231281   3.752   5.086   5.678  0.6894 -1.6613 -0.3474
10128SOL     OW31282   0.545   4.173   0.798 -0.1734 -0.4038  0.2167
10128SOL    HW131283   0.554   4.265   0.758  0.3918 -0.3037  0.5544
10128SOL    HW231284   0.574   4.176   0.894 -0.9724 -0.7593  0.4735
10129SOL     OW31285   5.200   2.209   1.670 -0.7497  0.1540 -0.1113
10129SOL    HW131286   5.187   2.177   1.577 -1.5877 -0.0730  0.0700
10129SOL    HW231287   5.286   2.173   1.706 -1.2047 -1.1292 -0.2414
10130SOL     OW31288   6.246   0.210   1.931  0.3678 -0.7665  0.1966
10130SOL    HW131289   6.261   0.205   1.832 -0.4029  1.9343 -0.1388
10130SOL    HW231290   6.150   0.233   1.949  0.9940  0.9951  1.4678
10131SOL     OW31291   0.215   0.157   1.977 -0.7177  0.2243 -0.1072
10131SOL    HW131292   0.143   0.127   2.040  0.2109  0.7599  1.2519
10131SOL    HW231293   0.262   0.077   1.941 -1.8976 -0.1280 -0.9296
10132SOL     OW31294   2.460   0.128   0.817 -0.0025  0.2193  0.4013
10132SOL    HW131295   2.518   0.194   0.768 -1.7018  0.3003 -1.6501
10132SOL    HW231296   2.464   0.147   0.915  2.0185  1.3274  0.1602
10133SOL     OW31297   6.449   5.977   1.501  0.0954 -0.6112  0.4168
10133SOL    HW131298   6.532   5.948   1.549  0.4323  0.0824  0.2578
10133SOL    HW231299   6.387   5.898   1.491 -0.3951 -0.5864  2.7906
10134SOL     OW31300   6.092   6.515   2.851 -0.1418  0.0694  0.8743
10134SOL    HW131301   6.036   6.498   2.770 -0.6167  0.9475  1.0061
10134SOL    HW231302   6.040   6.496   2.934 -0.2618  0.8782  0.9976
10135SOL     OW31303   4.293   4.526   1.081  0.6833 -0.1311 -0.7479
10135SOL    HW131304   4.256   4.593   1.146  1.6899  1.7173 -2.0043
10135SOL    HW231305   4.376   4.562   1.039  0.6455 -1.7154 -2.3117
10136SOL     OW31306   1.064   6.469   2.199  0.1555 -0.3209  0.1059
10136SOL    HW131307   1.092   6.413   2.121  1.4318  0.8328 -0.3118
10136SOL    HW231308   1.076   6.566   2.176 -0.5786  0.0863  1.3308
10137SOL     OW31309   4.706   4.300   4.096  0.0669  0.4168  0.2905
10137SOL    HW131310   4.677   4.314   4.191 -2.0006  1.9390 -0.4847
10137SOL    HW231311   4.735   4.387   4.057  0.1787 -0.0474 -0.7007
10138SOL     OW31312   1.371   0.919   1.436 -0.0377  0.6927  0.5731
10138SOL    HW131313   1.452   0.925   1.378 -0.8444 -3.2481 -1.3244
10138SOL    HW231314   1.394   0.948   1.529  1.8480  5.3451 -1.0423
10139SOL     OW31315   3.547   3.985   3.315 -0.2902  0.2081 -0.2438
10139SOL    HW131316   3.580   3.902   3.270 -0.4766  0.0585 -0.1103
10139SOL    HW231317   3.551   3.972   3.414 -0.1210  0.4384 -0.2215
10140SOL     OW31318   1.249   6.207   6.780  0.5434  0.2583 -0.3704
10140SOL    HW131319   1.157   6.235   6.754  0.5526 -0.0278 -0.7251
10140SOL    HW231320   1.315   6.274   6.746  0.6550 -0.6603 -2.1030
10141SOL     OW31321   2.112   6.885   5.221 -0.3778  0.1207  0.3328
10141SOL    HW131322   2.085   6.952   5.153 -0.8157 -0.2550  0.1365
10141SOL    HW231323   2.033   6.829   5.248 -0.1885  0.1878  1.0614
10142SOL     OW31324   5.128   5.902   5.690 -0.4694  0.1417  0.1944
10142SOL    HW131325   5.101   5.988   5.734 -1.1846 -0.3450  0.7330
10142SOL    HW231326   5.226   5.903   5.670 -0.0048  0.1731  2.3031
10143SOL     OW31327   3.030   6.554   0.651  0.2856 -0.4870  0.3119
10143SOL    HW131328   2.966   6.477   0.652  0.5767 -0.7374 -0.1354
10143SOL    HW231329   2.983   6.637   0.682 -0.5732 -0.4108 -1.1415
10144SOL     OW31330   1.234   5.681   4.384  0.2697 -0.0637  0.0320
10144SOL    HW131331   1.279   5.630   4.310  1.7245  1.9844 -0.5841
10144SOL    HW231332   1.287   5.673   4.468  0.0935 -0.1572  0.1360
10145SOL     OW31333   3.863   5.704   4.433 -0.0845  0.5097 -0.0303
10145SOL    HW131334   3.778   5.717   4.483  0.5626  0.9614  0.9780
10145SOL    HW231335   3.935   5.758   4.475  0.6030  0.4894 -1.1509
10146SOL     OW31336   3.498   4.623   5.601 -0.0392  0.3569  0.3411
10146SOL    HW131337   3.597   4.611   5.591 -0.2230 -0.5898 -0.5695
10146SOL    HW231338   3.451   4.547   5.555 -1.2412  2.0766 -1.4017
10147SOL     OW31339   6.033   3.987   4.903 -0.2939 -0.2625 -0.5236
10147SOL    HW131340   6.039   4.087   4.899 -1.3146 -0.1463  0.4283
10147SOL    HW231341   6.083   3.954   4.983 -1.5508 -0.3469  0.2365
10148SOL     OW31342   6.633   5.473   0.657  0.5027 -0.7362  0.0899
10148SOL    HW131343   6.614   5.523   0.572 -0.4264  1.8197  1.6861
10148SOL    HW231344   6.728   5.485   0.683  0.2775  0.3126  0.4788
10149SOL     OW31345   4.898   1.661   6.730  0.1956 -0.2239  0.2345
10149SOL    HW131346   4.850   1.603   6.664  2.1529  1.1863 -2.6596
10149SOL    HW231347   4.856   1.752   6.731  0.4212 -0.1214  0.6488
10150SOL     OW31348   5.584   2.971   6.633 -0.8245 -0.8213  0.0628
10150SOL    HW131349   5.681   2.979   6.608 -0.7099 -1.1581  0.3969
10150SOL    HW231350   5.539   3.059   6.616 -0.9282 -1.2323 -2.0579
10151SOL     OW31351   4.687   6.621   0.179  0.0758  0.0704  0.4192
10151SOL    HW131352   4.774   6.650   0.138 -0.6158  0.4921 -0.7999
10151SOL    HW231353   4.700   6.534   0.226  0.9783 -0.2638 -0.4153
10152SOL     OW31354   6.426   6.067   4.841 -0.0670 -0.3590  0.7108
10152SOL    HW131355   6.524   6.055   4.831 -0.1121  1.2064 -3.6891
10152SOL    HW231356   6.378   5.985   4.810 -0.1142  0.0993 -0.4856
10153SOL     OW31357   4.513   6.943   5.068 -0.5381  0.4164 -0.1791
10153SOL    HW131358   4.530   6.857   5.116  0.0270  1.5383  1.7376
10153SOL    HW231359   4.561   6.941   4.980 -3.2157 -2.4739 -1.7616
10154SOL     OW31360   0.539   4.524   5.926 -0.6689 -0.3519  0.0448
10154SOL    HW131361   0.560   4.605   5.980  0.6312  0.3441 -1.3993
10154SOL    HW231362   0.445   4.529   5.892 -0.2689  1.1506 -0.9493
10155SOL     OW31363   5.306   0.076   5.509 -0.3463  0.7537 -0.0428
10155SOL    HW131364   5.363   0.021   5.449 -2.6838 -2.0035  0.0644
10155SOL    HW231365   5.340   0.070   5.603 -0.7385 -0.8720  0.0243
10156SOL     OW31366   5.690   0.962   0.604  0.6457 -0.1573  0.3018
10156SOL    HW131367   5.599   0.977   0.565  0.3336  0.3007  1.1740
10156SOL    HW231368   5.713   0.865   0.598  1.1553  0.0333 -2.1481
10157SOL     OW31369   4.804   3.937   6.764 -0.3101 -0.3341 -0.0005
10157SOL    HW131370   4.763   3.973   6.848 -0.9609 -0.6465 -0.1821
10157SOL    HW231371   4.838   3.844   6.781  0.7996  0.1104  0.2912
10158SOL     OW31372   3.028   3.744   1.194 -0.4194  0.5077 -0.2115
10158SOL    HW131373   3.110   3.738   1.249 -0.2578  0.2169 -0.4782
10158SOL    HW231374   2.954   3.785   1.247 -0.1483  0.6163  0.0797
10159SOL     OW31375   1.338   1.072   6.104  0.2719  0.6134 -0.2631
10159SOL    HW131376   1.393   0.997   6.067  3.7038  2.4539  0.6938
10159SOL    HW231377   1.322   1.056   6.202 -1.1530  0.0006 -0.5732
10160SOL     OW31378   1.014   4.448   5.032 -0.4645 -0.4911  0.4587
10160SOL    HW131379   1.070   4.366   5.027 -1.6113 -1.3659  1.2657
10160SOL    HW231380   1.028   4.504   4.951  0.9675 -1.0536  0.2905
10161SOL     OW31381   2.190   6.671   6.207  0.9922 -0.1267 -0.1704
10161SOL    HW131382   2.266   6.703   6.262  0.2478  1.2670  0.0884
10161SOL    HW231383   2.103   6.695   6.252  0.3851 -0.4181 -1.1496
10162SOL     OW31384   2.437   2.153   6.770 -0.1655  0.4127 -0.1512
10162SOL    HW131385   2.487   2.139   6.684  1.5954  0.6948  0.7731
10162SOL    HW231386   2.453   2.247   6.802 -0.5359  0.2081  0.6389
10163SOL     OW31387   5.284   2.290   4.219 -0.3500 -0.0047  0.3520
10163SOL    HW131388   5.240   2.219   4.273  0.2301 -0.4811  0.2117
10163SOL    HW231389   5.360   2.329   4.271 -2.8916  3.2000  2.0359
10164SOL     OW31390   5.566   3.985   5.047  0.1491  0.5358 -0.1332
10164SOL    HW131391   5.620   4.004   4.965 -0.8949  0.7508 -0.7898
10164SOL    HW231392   5.556   4.069   5.100  1.4107  0.2480  0.5934
10165SOL     OW31393   6.427   2.825   3.934 -0.3574  0.2422 -0.5545
10165SOL    HW131394   6.414   2.726   3.933  1.4717 -0.0452 -0.1567
10165SOL    HW231395   6.416   2.859   4.027  2.7749 -0.2478  0.1217
10166SOL     OW31396   2.135   1.862   3.616  0.0316  0.4636 -0.0959
10166SOL    HW131397   2.217   1.812   3.589  0.0052 -0.1560  0.9570
10166SOL    HW231398   2.149   1.960   3.600 -0.3579  0.1078 -3.3438
10167SOL     OW31399   5.448   0.075   1.349 -0.1871 -0.3771 -0.1338
10167SOL    HW131400   5.529   0.102   1.402  0.6521 -1.7628 -0.6570
10167SOL    HW231401   5.477   0.045   1.258 -1.0311 -2.7626  0.3196
10168SOL     OW31402   1.213   3.161   4.245  0.2627  0.5845  0.3599
10168SOL    HW131403   1.310   3.186   4.251  0.2023  1.1013 -0.6370
10168SOL    HW231404   1.205   3.066   4.215  0.4657 -0.0821  2.2656
10169SOL     OW31405   0.826   3.114   4.045  0.1916  0.8341  0.5101
10169SOL    HW131406   0.882   3.055   4.103  1.8057 -1.3793 -2.9269
10169SOL    HW231407   0.789   3.060   3.969  1.6520  4.1125 -2.8432
10170SOL     OW31408   1.721   4.707   3.939 -0.3364 -0.3775  0.0908
10170SOL    HW131409   1.773   4.792   3.951 -1.6614  0.5184 -0.3696
10170SOL    HW231410   1.785   4.631   3.925  0.9268  0.2980  1.7879
10171SOL     OW31411   6.083   5.460   0.024 -0.5085 -0.3033  0.2791
10171SOL    HW131412   6.056   5.372   0.063 -0.6579 -0.3978 -0.0349
10171SOL    HW231413   6.003   5.507  -0.013 -0.3906 -0.1543  0.2090
10172SOL     OW31414   5.804   0.589   1.389 -0.5641  0.5992 -0.0777
10172SOL    HW131415   5.898   0.559   1.375 -0.1069  0.8329  2.1958
10172SOL    HW231416   5.797   0.687   1.366  0.5507  1.3877  2.5786
10173SOL     OW31417   2.983   2.979   6.560  0.1895  0.2255  0.1702
10173SOL    HW131418   3.075   2.940   6.553 -0.4910 -1.3040 -0.9625
10173SOL    HW231419   2.952   2.976   6.655  1.3894  1.0021  0.6055
10174SOL     OW31420   6.881   3.650   2.560 -0.3213 -0.4056 -0.5346
10174SOL    HW131421   6.954   3.645   2.492  1.5601 -0.7177  1.3933
10174SOL    HW231422   6.899   3.727   2.622 -2.0062 -0.0850 -0.4214
10175SOL     OW31423   5.610   3.726   4.885  0.2085 -0.0025 -0.5599
10175SOL    HW131424   5.559   3.737   4.799  1.7111  0.1655 -1.4563
10175SOL    HW231425   5.664   3.808   4.903  1.7277 -0.9243 -0.7110
10176SOL     OW31426   2.236   5.098   0.576  0.1562  0.2281 -0.2925
10176SOL    HW131427   2.277   5.013   0.543  1.3971  0.5170  0.4377
10176SOL    HW231428   2.212   5.156   0.498 -0.0750 -0.5010 -0.7720
10177SOL     OW31429   3.266   5.681   2.240  0.2508 -0.3524 -0.6517
10177SOL    HW131430   3.309   5.591   2.229 -0.4227 -0.7344 -0.1638
10177SOL    HW231431   3.297   5.722   2.326  0.7416 -0.0062 -0.9860
10178SOL     OW31432   5.731   5.296   3.838 -0.1005  0.1656  0.1956
10178SOL    HW131433   5.815   5.349   3.848 -0.4477  0.9249 -0.6718
10178SOL    HW231434   5.675   5.337   3.765 -1.3608 -0.1295  0.9630
10179SOL     OW31435   0.823   1.508   0.376  0.4884 -0.0088  0.2414
10179SOL    HW131436   0.735   1.499   0.421  0.1302  0.7700 -0.2747
10179SOL    HW231437   0.810   1.547   0.284  1.3541  0.0261  0.1207
10180SOL     OW31438   2.980   1.763   5.618 -0.1378 -0.4031 -0.1967
10180SOL    HW131439   3.037   1.846   5.621  0.2133 -0.6359 -0.3094
10180SOL    HW231440   3.012   1.699   5.688 -0.0373 -0.6765 -0.4896
10181SOL     OW31441   5.831   1.886   6.709  0.2120 -0.8611 -0.3698
10181SOL    HW131442   5.886   1.922   6.634 -0.0358 -0.0862 -0.1841
10181SOL    HW231443   5.790   1.799   6.681  1.2623 -1.2797 -0.6182
10182SOL     OW31444   5.907   1.480   1.489  0.2383 -0.0583 -0.3293
10182SOL    HW131445   5.876   1.525   1.573 -2.9707 -3.2869  0.4539
10182SOL    HW231446   6.001   1.450   1.500 -0.0840 -0.4062  2.1862
10183SOL     OW31447   2.172   1.019   4.605  0.3011 -0.4219  0.2785
10183SOL    HW131448   2.262   1.061   4.596  0.5046 -0.5778  1.4586
10183SOL    HW231449   2.142   1.023   4.700 -0.5589 -1.1542  0.0580
10184SOL     OW31450   4.822   5.810   6.254 -0.6534 -0.2377 -0.2097
10184SOL    HW131451   4.856   5.881   6.316  2.3016 -1.4647 -0.2672
10184SOL    HW231452   4.842   5.837   6.159  0.1820 -0.9490 -0.2487
10185SOL     OW31453   4.088   5.547   1.535 -0.4721 -0.5036  0.0970
10185SOL    HW131454   4.044   5.458   1.551  0.7956 -1.3378 -0.8607
10185SOL    HW231455   4.147   5.569   1.613 -0.1177 -0.9351 -0.0413
10186SOL     OW31456   6.528   1.422   3.081 -0.1368  0.1028 -0.0020
10186SOL    HW131457   6.563   1.328   3.073  0.8970  0.5527 -1.0688
10186SOL    HW231458   6.577   1.471   3.153 -0.7574 -0.1862  0.6363
10187SOL     OW31459   1.102   2.292   2.327 -0.1857  0.1587  0.2553
10187SOL    HW131460   1.036   2.244   2.385 -0.2711  0.2959  0.2710
10187SOL    HW231461   1.154   2.224   2.274 -2.4738  0.0816 -2.1109
10188SOL     OW31462   5.382   0.312   0.876 -0.4685 -0.3165  0.1326
10188SOL    HW131463   5.286   0.283   0.874 -0.2369 -1.0976 -1.2495
10188SOL    HW231464   5.389   0.399   0.924 -1.9272 -0.0609 -0.0491
10189SOL     OW31465   2.626   5.615   4.665  0.1618 -0.1811  0.2401
10189SOL    HW131466   2.674   5.540   4.620 -0.0971 -0.0090 -0.3335
10189SOL    HW231467   2.668   5.702   4.637  0.0820 -0.0809  0.4325
10190SOL     OW31468   4.480   2.376   6.183 -0.1569 -0.3220  1.1352
10190SOL    HW131469   4.463   2.342   6.275 -0.5652 -0.5963  0.9637
10190SOL    HW231470   4.573   2.352   6.155  0.3315  0.6664  1.8617
10191SOL     OW31471   6.036   5.385   1.110  0.2182  0.1988  0.2134
10191SOL    HW131472   6.040   5.332   1.194 -0.7295  0.6237  0.5351
10191SOL    HW231473   5.961   5.352   1.053  0.4035  0.3908 -0.1478
10192SOL     OW31474   2.227   1.856   4.861 -0.1703 -0.1620 -0.5567
10192SOL    HW131475   2.222   1.803   4.945  0.7445 -0.8787 -0.9315
10192SOL    HW231476   2.148   1.916   4.854 -0.6569 -0.6725  0.4247
10193SOL     OW31477   5.469   3.097   6.022 -0.1733 -0.1071  0.6098
10193SOL    HW131478   5.436   3.013   6.066 -0.8906  0.7996  1.8570
10193SOL    HW231479   5.508   3.158   6.090 -0.0525  0.7621 -0.2101
10194SOL     OW31480   5.712   5.109   5.757  0.2407 -0.2943 -0.0938
10194SOL    HW131481   5.805   5.142   5.774  0.2994 -1.3549  2.0150
10194SOL    HW231482   5.647   5.185   5.766  0.5936 -0.2001  2.3122
10195SOL     OW31483   5.202   3.286   0.594 -0.1878 -0.6343 -0.0735
10195SOL    HW131484   5.152   3.326   0.517 -0.2622  0.8055  0.6863
10195SOL    HW231485   5.300   3.303   0.582 -0.1423 -0.9585 -0.1587
10196SOL     OW31486   0.920   1.645   4.546 -0.2967  0.3898 -0.7119
10196SOL    HW131487   0.979   1.724   4.529  0.5069 -0.1300 -0.3932
10196SOL    HW231488   0.834   1.676   4.585 -0.0443  1.1248 -0.7184
10197SOL     OW31489   0.235   2.842   0.098 -0.5834 -0.1230 -0.0127
10197SOL    HW131490   0.231   2.901   0.179 -0.5181 -1.0691  0.7056
10197SOL    HW231491   0.202   2.892   0.018  0.5649  1.2537  0.3327
10198SOL     OW31492   5.546   2.718   2.247 -0.5585 -0.3066 -0.4342
10198SOL    HW131493   5.451   2.737   2.221 -0.4984 -0.0914 -0.5027
10198SOL    HW231494   5.583   2.795   2.298  0.2959  0.6558 -2.3643
10199SOL     OW31495   0.831   0.919   6.385 -0.5060  0.2450  0.2324
10199SOL    HW131496   0.807   0.850   6.454  0.6359 -0.2940  0.1023
10199SOL    HW231497   0.826   0.879   6.294  0.9680  0.0879  0.2077
10200SOL     OW31498   6.096   3.153   2.645 -0.3122  0.1165  0.0167
10200SOL    HW131499   6.019   3.204   2.606 -0.9736  1.8288  3.1680
10200SOL    HW231500   6.182   3.196   2.616 -0.7013  0.4494 -0.6731
10201SOL     OW31501   7.003   3.224   0.014 -0.4366 -0.3451 -0.0422
10201SOL    HW131502   7.014   3.290  -0.060 -0.9539  0.5423  0.6585
10201SOL    HW231503   7.042   3.261   0.098  0.8866 -1.6826 -0.0361
10202SOL     OW31504   2.704   0.411   3.764 -0.2562 -0.2217  0.3502
10202SOL    HW131505   2.781   0.404   3.700  1.6235  3.1313  1.9754
10202SOL    HW231506   2.730   0.370   3.851 -0.1327  1.1436  0.9832
10203SOL     OW31507   6.599   2.012   5.402  0.7634  0.4223  0.6162
10203SOL    HW131508   6.615   2.042   5.307 -0.5497 -3.5774 -1.0668
10203SOL    HW231509   6.507   2.038   5.430 -0.3661 -1.7064 -0.8221
10204SOL     OW31510   5.336   1.394   0.211  0.0051  0.4292  0.3196
10204SOL    HW131511   5.293   1.448   0.138  0.5588 -0.0494 -0.3773
10204SOL    HW231512   5.293   1.304   0.215 -0.6052  0.7415  1.1739
10205SOL     OW31513   0.778   1.949   6.224 -0.0304  0.3338  0.1983
10205SOL    HW131514   0.830   2.000   6.155  0.3444  0.1147  0.3155
10205SOL    HW231515   0.706   1.896   6.179  0.3970 -0.0341 -0.0513
10206SOL     OW31516   6.448   1.660   6.419  0.6022 -0.3268 -0.0235
10206SOL    HW131517   6.500   1.575   6.423  0.6502 -0.3851 -1.3643
10206SOL    HW231518   6.379   1.654   6.347 -2.3433 -0.7970  2.5825
10207SOL     OW31519   2.065   0.108   4.826  0.2944  0.4254 -0.2233
10207SOL    HW131520   2.036   0.048   4.751 -0.3157  0.3611  0.0581
10207SOL    HW231521   2.053   0.061   4.913  0.1401  0.8259 -0.0244
10208SOL     OW31522   6.846   6.291   5.811 -0.2098  0.3216  0.4648
10208SOL    HW131523   6.890   6.379   5.822 -0.5763  0.4870  0.6376
10208SOL    HW231524   6.770   6.299   5.746  0.8901 -0.2731 -0.9501
10209SOL     OW31525   6.747   6.605   6.865  0.5207  0.5821 -0.1393
10209SOL    HW131526   6.670   6.668   6.880 -0.2331 -0.7214  1.8401
10209SOL    HW231527   6.759   6.591   6.766 -2.7194 -0.2504 -0.5368
10210SOL     OW31528   4.876   5.491   1.192 -0.5229  0.0831 -0.2140
10210SOL    HW131529   4.898   5.426   1.265 -2.0841 -1.1459 -0.7855
10210SOL    HW231530   4.904   5.453   1.104  3.3807  2.4609 -0.2367
10211SOL     OW31531   4.006   6.918   3.793  0.6409 -0.0036  0.2796
10211SOL    HW131532   3.982   6.906   3.890  2.1880 -0.2499  0.6680
10211SOL    HW231533   3.966   7.003   3.759 -0.1964 -0.0787  1.0343
10212SOL     OW31534   6.493   0.083   5.348  0.2146 -0.4714 -0.3662
10212SOL    HW131535   6.456   0.163   5.395  0.0352 -0.2565 -0.8595
10212SOL    HW231536   6.568   0.112   5.288  0.9845 -0.8571  0.3814
10213SOL     OW31537   6.162   2.662   0.640  0.5433 -0.2466  0.5120
10213SOL    HW131538   6.202   2.589   0.696 -0.7079 -1.0598  0.3699
10213SOL    HW231539   6.089   2.625   0.583 -0.5384  1.2202  0.8696
10214SOL     OW31540   5.439   3.394   0.104 -0.0000 -0.1567 -1.0139
10214SOL    HW131541   5.510   3.336   0.142 -0.4028  0.6295  1.0882
10214SOL    HW231542   5.406   3.355   0.018  0.1572 -2.6962  0.0038
10215SOL     OW31543   3.792   4.042   2.473  0.2894 -0.2904 -0.5404
10215SOL    HW131544   3.781   4.141   2.470  1.7315  0.0338  2.3361
10215SOL    HW231545   3.726   4.000   2.410  0.0053  2.4514 -2.2396
10216SOL     OW31546   0.035   6.517   3.520 -0.4229  0.6037  0.4440
10216SOL    HW131547   0.016   6.450   3.591  1.2856  1.1984  1.5221
10216SOL    HW231548  -0.050   6.545   3.477 -1.1538 -3.3405 -1.1484
10217SOL     OW31549   4.476   0.597   3.354 -0.2666  0.1808 -0.7577
10217SOL    HW131550   4.438   0.682   3.391 -1.2277  0.0554 -1.4361
10217SOL    HW231551   4.423   0.568   3.275 -0.5878 -1.6088  0.0677
10218SOL     OW31552   0.273   2.082   3.307 -0.0074  0.4101 -0.0663
10218SOL    HW131553   0.307   2.090   3.214  0.1360 -1.2153 -0.1848
10218SOL    HW231554   0.175   2.103   3.308 -0.7172 -2.3964 -1.1911
10219SOL     OW31555   1.071   6.730   2.121 -0.5690 -0.5788  0.6519
10219SOL    HW131556   1.045   6.824   2.144 -1.5178 -0.7374  0.2520
10219SOL    HW231557   1.120   6.730   2.034  2.2690 -0.0875  2.1066
10220SOL     OW31558   3.628   2.162   1.640 -0.2057  0.1151  0.0391
10220SOL    HW131559   3.643   2.220   1.719 -1.3089  1.1882 -0.4943
10220SOL    HW231560   3.669   2.073   1.655  0.5259  0.6541  1.3625
10221SOL     OW31561   0.900   6.533   4.702 -0.0723 -0.5634  0.1556
10221SOL    HW131562   0.813   6.569   4.735  0.5297 -0.3333  1.5588
10221SOL    HW231563   0.914   6.561   4.607 -2.0330 -1.5460 -0.4864
10222SOL     OW31564   3.962   3.887   3.092 -0.7289  0.1864  0.0766
10222SOL    HW131565   3.984   3.855   3.184  0.0503 -2.0049 -0.8163
10222SOL    HW231566   4.028   3.851   3.027 -1.7039  1.0674 -1.4784
10223SOL     OW31567   0.947   4.896   1.072 -0.2141  0.0925  0.1547
10223SOL    HW131568   1.008   4.959   1.024  0.4002  0.2382  1.1017
10223SOL    HW231569   0.873   4.868   1.011  0.5379  0.2813 -0.8639
10224SOL     OW31570   6.993   3.568   3.493  0.0651 -0.0946 -0.3151
10224SOL    HW131571   7.027   3.614   3.576 -0.0875 -3.7288  1.9781
10224SOL    HW231572   7.064   3.569   3.423  1.6087 -0.0183  1.1821
10225SOL     OW31573   1.912   3.409   6.262 -0.2040  0.6029 -0.3631
10225SOL    HW131574   1.893   3.363   6.348 -0.0303 -1.0430 -1.1591
10225SOL    HW231575   1.951   3.499   6.279 -0.7822  0.5752  1.2565
10226SOL     OW31576   3.243   2.065   6.529 -0.2794 -0.1817 -0.3978
10226SOL    HW131577   3.204   2.140   6.581 -2.4259 -2.5166  1.6073
10226SOL    HW231578   3.258   2.094   6.434 -0.5254  2.8454  0.4051
10227SOL     OW31579   0.064   3.242   0.655 -0.2845 -0.3423  0.1687
10227SOL    HW131580   0.008   3.210   0.731 -0.8986  0.6144  0.1447
10227SOL    HW231581   0.028   3.205   0.569 -0.7020  0.0316  0.1812
10228SOL     OW31582   4.912   0.460   6.624  0.3061  0.6456 -0.3893
10228SOL    HW131583   4.861   0.378   6.600  1.2175 -0.4674  1.2677
10228SOL    HW231584   4.920   0.520   6.544  0.0929 -1.1230 -1.7827
10229SOL     OW31585   5.848   3.806   5.092 -0.2342 -0.1400  0.5879
10229SOL    HW131586   5.782   3.872   5.057  0.9244  0.5305 -0.4149
10229SOL    HW231587   5.824   3.714   5.061 -0.6765  0.1018  0.2073
10230SOL     OW31588   5.510   6.811   2.246 -0.2069  0.0371  0.1242
10230SOL    HW131589   5.468   6.744   2.307 -0.9253  0.0022 -0.3889
10230SOL    HW231590   5.484   6.903   2.274  0.7414  0.1115  0.8005
10231SOL     OW31591   2.055   5.392   4.888 -0.2847 -0.0875 -0.5866
10231SOL    HW131592   2.035   5.473   4.834 -1.1223 -0.2615 -0.5609
10231SOL    HW231593   2.007   5.313   4.849 -0.7577 -0.2513  0.2918
10232SOL     OW31594   5.245   5.392   6.019 -0.0137  0.4262  0.2274
10232SOL    HW131595   5.206   5.362   6.106 -0.6064 -0.8970 -0.4637
10232SOL    HW231596   5.186   5.461   5.977 -1.0396 -0.7112 -0.2561
10233SOL     OW31597   2.830   4.358   6.771 -0.2519  0.4700  0.4692
10233SOL    HW131598   2.896   4.423   6.734  0.1076  1.3901  2.5665
10233SOL    HW231599   2.825   4.277   6.712  0.3598  1.7610 -1.4234
10234SOL     OW31600   6.199   1.420   1.954  0.3585 -0.1505  0.0917
10234SOL    HW131601   6.188   1.330   1.913 -0.9864  0.6670 -1.4359
10234SOL    HW231602   6.168   1.417   2.049 -1.8957 -0.8210 -0.5943
10235SOL     OW31603   2.516   5.409   2.529 -0.3698  0.2821  0.6876
10235SOL    HW131604   2.485   5.399   2.435 -0.9900  1.0577  0.8030
10235SOL    HW231605   2.465   5.482   2.574 -0.2458 -0.2326  1.6956
10236SOL     OW31606   2.279   5.834   2.183 -0.2708  0.0095 -0.4978
10236SOL    HW131607   2.287   5.768   2.107  4.4679 -0.0144 -0.2891
10236SOL    HW231608   2.342   5.910   2.167  0.8214  0.0766  3.3034
10237SOL     OW31609   0.467   4.852   6.326  0.3577 -0.0789  0.2597
10237SOL    HW131610   0.482   4.950   6.316  0.7920 -0.1831 -0.1659
10237SOL    HW231611   0.453   4.811   6.236  1.0649 -0.5378  0.3467
10238SOL     OW31612   4.192   0.529   2.135  0.2331 -0.0533  0.0835
10238SOL    HW131613   4.274   0.472   2.130  0.6650  0.6044 -0.5449
10238SOL    HW231614   4.148   0.533   2.045 -0.2695 -0.0828  0.3222
10239SOL     OW31615   2.105   4.705   5.666 -0.4591  0.1018  0.0376
10239SOL    HW131616   2.013   4.741   5.655 -0.3608  0.4976  0.5141
10239SOL    HW231617   2.107   4.639   5.742 -0.3959 -0.0741 -0.1146
10240SOL     OW31618   1.807   0.836   1.516  0.3257 -0.5233 -0.3189
10240SOL    HW131619   1.757   0.755   1.544  1.1342 -0.5034  1.2591
10240SOL    HW231620   1.898   0.810   1.483  0.8500 -0.2224  0.8515
10241SOL     OW31621   3.133   2.254   0.258  0.0240  0.4094  0.4139
10241SOL    HW131622   3.212   2.231   0.201 -1.2575 -1.3874 -0.7710
10241SOL    HW231623   3.123   2.185   0.329 -1.3953 -0.3666 -0.4889
10242SOL     OW31624   0.559   1.766   6.464 -0.7076 -0.1157 -0.1177
10242SOL    HW131625   0.505   1.791   6.544 -2.2913 -0.7766 -0.9445
10242SOL    HW231626   0.531   1.821   6.386 -0.6167 -0.8922 -0.7131
10243SOL     OW31627   1.916   6.577   5.852 -0.5237 -0.0133  0.0062
10243SOL    HW131628   1.916   6.502   5.919 -2.8109  1.1148  1.3812
10243SOL    HW231629   1.966   6.655   5.889  0.6807 -0.3347 -0.8631
10244SOL     OW31630   1.310   3.949   2.819 -0.7502 -0.0347  0.6622
10244SOL    HW131631   1.386   3.959   2.883 -0.6241 -1.4517  0.7543
10244SOL    HW231632   1.263   4.037   2.809  0.8098  0.8364  0.6996
10245SOL     OW31633   4.171   4.242   1.636  0.1279  0.6127  0.6693
10245SOL    HW131634   4.220   4.218   1.720 -0.4810  1.7457  1.3785
10245SOL    HW231635   4.224   4.214   1.557  0.6760 -0.5676  1.4274
10246SOL     OW31636   3.534   3.358   5.131  0.4433 -0.1434  0.2506
10246SOL    HW131637   3.542   3.264   5.098 -1.6307 -0.2888  0.0140
10246SOL    HW231638   3.543   3.422   5.054  0.3255 -0.2253  0.1697
10247SOL     OW31639   1.852   2.055   5.379  0.2871 -0.7661  0.4035
10247SOL    HW131640   1.879   2.090   5.289  2.3235 -0.1649  1.1922
10247SOL    HW231641   1.754   2.071   5.393  0.5567  2.1014 -0.4287
10248SOL     OW31642   1.835   2.201   4.113  0.9638  0.1157  0.0795
10248SOL    HW131643   1.882   2.283   4.146  0.7231 -0.2210  1.3193
10248SOL    HW231644   1.757   2.228   4.057  0.7992  0.7502  0.5957
10249SOL     OW31645   3.160   3.888   6.610 -0.0798  0.1606  0.3685
10249SOL    HW131646   3.228   3.945   6.654  0.8416  0.4202 -1.3049
10249SOL    HW231647   3.205   3.814   6.561 -0.9866  0.3493 -0.8008
10250SOL     OW31648   3.567   2.019   1.960  0.2558 -0.4096 -0.0136
10250SOL    HW131649   3.635   2.092   1.970 -0.6011  1.3147 -4.4134
10250SOL    HW231650   3.477   2.054   1.985  0.1394 -0.6785 -0.0549
10251SOL     OW31651   4.614   0.850   2.775 -0.0403 -0.4678 -0.2745
10251SOL    HW131652   4.655   0.896   2.696 -1.3645 -3.1546 -2.7035
10251SOL    HW231653   4.566   0.917   2.831  0.9869  1.5550 -1.6893
10252SOL     OW31654   6.562   4.211   4.550 -0.7557 -0.2786  0.8020
10252SOL    HW131655   6.518   4.124   4.526 -0.0794 -0.9094  1.7590
10252SOL    HW231656   6.566   4.220   4.650  1.0836 -0.1713  0.7539
10253SOL     OW31657   3.962   6.532   0.004  0.0764 -0.7726 -0.0013
10253SOL    HW131658   3.992   6.527  -0.091 -3.1802  1.0045 -1.3069
10253SOL    HW231659   3.989   6.620   0.043  0.4991 -1.0608  0.3580
10254SOL     OW31660   4.372   3.542   5.837 -0.2338  0.3778 -0.4202
10254SOL    HW131661   4.393   3.534   5.740  1.2203  0.4655 -0.1375
10254SOL    HW231662   4.276   3.518   5.853 -0.1428 -0.9580 -1.6931
10255SOL     OW31663   4.231   5.911   0.589  0.3300  0.3338  0.3458
10255SOL    HW131664   4.260   5.982   0.525 -2.3414  2.1905  1.0139
10255SOL    HW231665   4.184   5.953   0.666 -2.9259 -2.1586 -0.0536
10256SOL     OW31666   5.073   6.074   2.986  0.3272 -0.3533 -0.1831
10256SOL    HW131667   5.027   6.138   2.924 -0.1287 -0.2477  0.2510
10256SOL    HW231668   5.162   6.110   3.012  0.2024 -0.0382 -0.1891
10257SOL     OW31669   2.704   5.294   0.919 -0.1172  0.0001  0.0075
10257SOL    HW131670   2.753   5.305   1.006  1.0662 -0.2210 -0.6195
10257SOL    HW231671   2.702   5.381   0.870  0.2959 -0.1706 -0.3089
10258SOL     OW31672   0.825   0.649   0.802 -0.4401 -0.0318 -0.3639
10258SOL    HW131673   0.792   0.662   0.895 -2.1042  2.7721 -1.2368
10258SOL    HW231674   0.886   0.724   0.777 -2.0666  0.7414 -2.3049
10259SOL     OW31675   1.932   2.927   3.666  0.1413 -0.6314  0.2835
10259SOL    HW131676   2.011   2.936   3.727 -0.9746 -0.7535  1.7912
10259SOL    HW231677   1.896   2.834   3.671  1.4619 -1.3964 -2.4517
10260SOL     OW31678   0.736   0.014   3.780 -0.2417 -0.5359 -0.2357
10260SOL    HW131679   0.663   0.061   3.830 -0.6103  0.5521 -1.7234
10260SOL    HW231680   0.701  -0.020   3.693  0.2414 -2.8896  0.3968
10261SOL     OW31681   6.751   2.583   1.623  0.4415  0.3584  0.0605
10261SOL    HW131682   6.679   2.552   1.684  1.5797 -2.5888  0.0712
10261SOL    HW231683   6.838   2.543   1.652  1.6250  1.6891 -1.4848
10262SOL     OW31684   2.711   1.893   6.158  0.0205  0.1703 -0.4938
10262SOL    HW131685   2.662   1.886   6.071 -0.5851 -0.6962 -0.0910
10262SOL    HW231686   2.748   1.803   6.182  0.4547  0.4768 -0.0036
10263SOL     OW31687   4.216   0.208   1.619  0.3172  0.0593 -0.1885
10263SOL    HW131688   4.272   0.134   1.655 -0.9040 -0.1300  1.4866
10263SOL    HW231689   4.124   0.174   1.600 -0.2439  1.1146  0.5284
10264SOL     OW31690   5.968   4.897   5.988  0.4657  0.5108 -0.0782
10264SOL    HW131691   5.888   4.919   6.044 -0.3376 -1.4586 -0.3395
10264SOL    HW231692   5.945   4.909   5.891 -0.0150 -1.2918 -0.2316
10265SOL     OW31693   0.840   2.076   0.694 -0.6099  0.2234  0.6091
10265SOL    HW131694   0.886   2.091   0.781 -0.5118 -1.2267  0.8259
10265SOL    HW231695   0.747   2.112   0.698 -1.6662 -2.4483  2.3835
10266SOL     OW31696   2.911   3.801   1.812 -0.4315 -0.6056 -0.5400
10266SOL    HW131697   2.978   3.732   1.786 -0.3485 -2.6914  4.2879
10266SOL    HW231698   2.957   3.888   1.828  0.6936 -1.2648 -0.0536
10267SOL     OW31699   3.747   1.899   2.104 -0.2410 -0.0702 -0.8801
10267SOL    HW131700   3.789   1.983   2.140 -0.8971  0.6593 -1.7709
10267SOL    HW231701   3.659   1.921   2.063 -0.4387 -1.2162 -1.0939
10268SOL     OW31702   5.281   2.259   2.019 -0.0112  0.8595  0.5775
10268SOL    HW131703   5.191   2.260   1.975  0.0070  1.3448  0.5524
10268SOL    HW231704   5.351   2.277   1.951  0.2009 -0.5740  0.3881
10269SOL     OW31705   3.526   0.866   0.551 -0.1932  0.4086  0.1921
10269SOL    HW131706   3.518   0.966   0.556 -0.8323  0.4380 -1.1143
10269SOL    HW231707   3.435   0.825   0.552 -0.0286 -0.0413 -1.0596
10270SOL     OW31708   3.469   6.584   2.695  0.1107  0.5371 -0.0415
10270SOL    HW131709   3.471   6.506   2.757 -1.8434  0.4207 -0.0659
10270SOL    HW231710   3.453   6.553   2.602 -0.5082  0.9316 -0.0744
10271SOL     OW31711   2.195   1.931   6.116 -0.2365 -0.2669  0.1905
10271SOL    HW131712   2.214   1.833   6.115  1.3884  0.0202  0.1429
10271SOL    HW231713   2.097   1.946   6.103 -0.4974 -1.8666  0.0778
10272SOL     OW31714   6.729   0.661   4.035 -0.2305 -0.1105 -0.6032
10272SOL    HW131715   6.792   0.642   3.960  1.8736 -0.6460  1.1667
10272SOL    HW231716   6.675   0.742   4.014 -1.0304 -1.2686 -3.4076
10273SOL     OW31717   2.556   6.027   4.564  0.4912  0.4987  0.3225
10273SOL    HW131718   2.637   5.970   4.547  0.3042  0.9492 -2.4625
10273SOL    HW231719   2.586   6.118   4.593  0.9519  0.3518  0.3245
10274SOL     OW31720   4.790   4.850   4.684 -0.0533 -0.5514 -0.2795
10274SOL    HW131721   4.700   4.894   4.681  0.4084  0.4865  0.5630
10274SOL    HW231722   4.782   4.762   4.731 -0.5183 -0.1685  0.3733
10275SOL     OW31723   6.344   6.015   2.521 -0.0047  0.2364 -0.2103
10275SOL    HW131724   6.376   6.110   2.517  0.0158  0.3057  0.9941
10275SOL    HW231725   6.413   5.954   2.483  0.9207  0.5255  0.9385
10276SOL     OW31726   2.749   5.185   5.596 -0.6088  0.5026  0.8793
10276SOL    HW131727   2.686   5.148   5.527 -0.1179  1.2364  0.0085
10276SOL    HW231728   2.729   5.282   5.610 -1.0014  0.2539  2.1339
10277SOL     OW31729   2.008   6.005   4.927 -0.1796 -0.5512  0.5241
10277SOL    HW131730   1.917   5.995   4.967 -1.8771 -0.3382 -2.9117
10277SOL    HW231731   2.070   5.938   4.968 -2.2572 -1.7285  1.9231
10278SOL     OW31732   6.613   1.674   4.595 -0.0831  0.0796  0.7737
10278SOL    HW131733   6.576   1.623   4.517 -1.9072  0.9492  1.0073
10278SOL    HW231734   6.616   1.614   4.675 -1.2752  0.0410  0.8084
10279SOL     OW31735   3.729   6.628   3.851  0.6902 -0.1818 -0.2133
10279SOL    HW131736   3.772   6.555   3.799  1.1473  0.1155 -0.2633
10279SOL    HW231737   3.635   6.642   3.819  0.6619 -0.6209 -0.3238
10280SOL     OW31738   0.061   5.131   0.614  0.0643 -0.4295 -0.1825
10280SOL    HW131739   0.094   5.107   0.522  0.2676 -0.2105 -0.1666
10280SOL    HW231740   0.078   5.055   0.676 -1.8013 -1.3839 -0.7296
10281SOL     OW31741   6.683   2.753   4.043 -0.0228 -0.1041 -0.2520
10281SOL    HW131742   6.695   2.686   3.970 -0.3275 -0.0977 -0.3100
10281SOL    HW231743   6.625   2.827   4.010  0.8280  0.5102 -0.3951
10282SOL     OW31744   6.504   4.023   4.189  0.0109  0.3586  0.4035
10282SOL    HW131745   6.467   3.937   4.226  1.9317 -0.6485  0.1010
10282SOL    HW231746   6.531   4.009   4.094 -0.4570  1.5756  0.0745
10283SOL     OW31747   0.298   4.556   5.789  0.1679 -0.4210 -0.2089
10283SOL    HW131748   0.301   4.533   5.692  0.0355  0.0845 -0.3386
10283SOL    HW231749   0.246   4.487   5.839  1.0214 -1.1724 -0.3453
10284SOL     OW31750   6.608   3.411   3.781  0.6231  0.0909  0.2907
10284SOL    HW131751   6.537   3.482   3.780  0.8107  0.2752 -0.3899
10284SOL    HW231752   6.680   3.436   3.716  0.8385 -0.5746  0.2725
10285SOL     OW31753   6.245   0.449   3.928  0.2269 -0.0832  0.1899
10285SOL    HW131754   6.197   0.415   4.009 -0.0426  0.9253  0.4637
10285SOL    HW231755   6.305   0.524   3.954 -1.1541  1.4090 -0.7921
10286SOL     OW31756   3.713   1.332   3.785  0.2297 -0.0237 -0.1337
10286SOL    HW131757   3.774   1.372   3.717  1.5142 -0.7237  0.5786
10286SOL    HW231758   3.647   1.401   3.815 -1.3309 -0.0549 -3.0818
10287SOL     OW31759   2.809   6.140   3.549  0.4217  0.5137  0.0593
10287SOL    HW131760   2.733   6.180   3.498  0.3876  0.7676  0.3094
10287SOL    HW231761   2.834   6.200   3.625  3.0730  2.1608 -1.9231
10288SOL     OW31762   2.317   5.982   4.441  0.1555 -0.1317 -0.1106
10288SOL    HW131763   2.399   6.005   4.493 -0.1970  0.3958  0.2241
10288SOL    HW231764   2.297   5.885   4.452 -0.7598  0.2200  2.0209
10289SOL     OW31765   3.823   5.795   5.565 -0.4073 -0.1847  0.1433
10289SOL    HW131766   3.744   5.855   5.553 -2.3475 -2.0592  2.5434
10289SOL    HW231767   3.821   5.722   5.496 -1.3089 -0.7141  0.7121
10290SOL     OW31768   4.065   3.204   3.670 -0.4534 -0.2808  0.0092
10290SOL    HW131769   4.049   3.302   3.660  0.8416 -0.1320 -0.9115
10290SOL    HW231770   4.068   3.180   3.767  1.3931  1.0277  0.3277
10291SOL     OW31771   3.358   2.167   3.250  0.2262  0.0980  0.3040
10291SOL    HW131772   3.301   2.170   3.332  0.0638 -1.4404  0.2885
10291SOL    HW231773   3.303   2.191   3.170  0.0948  0.4708  0.5038
10292SOL     OW31774   6.874   6.621   5.295  0.1501  0.0312  0.2201
10292SOL    HW131775   6.820   6.574   5.364 -2.6772  1.6670 -0.7339
10292SOL    HW231776   6.966   6.581   5.292 -0.9197 -2.8489  1.9605
10293SOL     OW31777   0.892   1.966   3.876  0.1012  0.1810  0.3220
10293SOL    HW131778   0.856   1.873   3.875  1.0762 -0.2112  0.1726
10293SOL    HW231779   0.842   2.022   3.809 -0.7678 -0.1180  0.7124
10294SOL     OW31780   4.367   1.527   2.427 -0.4145 -0.1210  0.2179
10294SOL    HW131781   4.276   1.504   2.462 -0.3775  0.3002  0.6045
10294SOL    HW231782   4.359   1.604   2.363 -0.1486  1.0484  1.5351
10295SOL     OW31783   1.102   1.629   0.071  0.1694  0.1595  0.0443
10295SOL    HW131784   1.136   1.708   0.021 -0.7322  0.0834 -0.7035
10295SOL    HW231785   1.172   1.598   0.136  1.9266 -0.5374 -2.0621
10296SOL     OW31786   6.578   1.534   6.039  0.0081 -0.0998 -0.1396
10296SOL    HW131787   6.485   1.510   6.014 -0.6867  1.1712  1.1158
10296SOL    HW231788   6.611   1.608   5.980 -0.0995  0.0538 -0.0069
10297SOL     OW31789   2.955   2.024   0.960  0.1957 -0.2961 -0.4806
10297SOL    HW131790   2.973   2.119   0.933  0.9159  0.3439  1.9364
10297SOL    HW231791   3.032   1.967   0.932  0.4893  0.1447 -0.5922
10298SOL     OW31792   5.659   3.745   3.769  0.0235 -0.3061  0.0936
10298SOL    HW131793   5.708   3.706   3.847  0.8627  2.4259  1.0374
10298SOL    HW231794   5.723   3.797   3.712 -0.9136 -0.8247 -1.4963
10299SOL     OW31795   6.665   5.097   2.020 -1.0809  0.2035  0.0596
10299SOL    HW131796   6.649   5.093   1.922 -0.7531  0.8038 -0.0228
10299SOL    HW231797   6.762   5.080   2.039 -1.3125 -0.8598  0.3570
10300SOL     OW31798   0.624   3.260   1.668  0.2184  0.3474  0.5092
10300SOL    HW131799   0.655   3.194   1.737 -1.0595 -1.0110 -0.1597
10300SOL    HW231800   0.552   3.219   1.612  1.3189  1.3357 -1.7767
10301SOL     OW31801   5.322   2.032   5.415 -0.2908 -0.0337  0.1953
10301SOL    HW131802   5.305   2.108   5.477 -0.9051 -0.2857  0.3538
10301SOL    HW231803   5.311   2.063   5.321  0.3580  0.2829  0.2216
10302SOL     OW31804   1.833   0.127   5.777  0.1358 -0.3497 -0.4958
10302SOL    HW131805   1.898   0.121   5.702  0.0581  0.7726 -0.6659
10302SOL    HW231806   1.812   0.035   5.811 -0.7035 -0.9771 -2.5830
10303SOL     OW31807   0.573   5.634   5.010 -0.2143 -0.1174  1.0660
10303SOL    HW131808   0.475   5.627   4.989 -0.3421  2.2427  0.6306
10303SOL    HW231809   0.605   5.726   4.988  2.1041 -0.8180  1.3110
10304SOL     OW31810   2.020   1.112   6.132 -0.4116 -0.6338  0.3712
10304SOL    HW131811   2.109   1.118   6.087  0.5246 -1.9272  1.9492
10304SOL    HW231812   1.948   1.110   6.063  0.7232  0.7918 -0.9357
10305SOL     OW31813   2.147   4.118   5.191  0.0736  0.5731 -0.1005
10305SOL    HW131814   2.216   4.099   5.121  0.9099  0.3525  0.7625
10305SOL    HW231815   2.150   4.047   5.261 -1.3722  0.3002 -0.2847
10306SOL     OW31816   5.310   6.268   0.089 -0.0453 -0.1532 -0.1088
10306SOL    HW131817   5.211   6.261   0.083 -0.4394  0.5727  3.1823
10306SOL    HW231818   5.343   6.213   0.166  1.9847  0.3390 -0.5607
10307SOL     OW31819   2.255   6.092   4.011  0.1704 -0.0930  0.1852
10307SOL    HW131820   2.275   6.125   4.103  0.7060  1.9877 -0.5959
10307SOL    HW231821   2.161   6.117   3.986  0.2310 -0.0894 -0.0440
10308SOL     OW31822   3.172   5.957   2.830 -0.2127  0.2910 -0.0223
10308SOL    HW131823   3.205   5.977   2.922  0.1367  1.0220 -0.2986
10308SOL    HW231824   3.147   6.042   2.784 -0.5677 -0.0845 -0.5385
10309SOL     OW31825   4.717   6.372   2.957 -0.5078 -0.3008 -0.2963
10309SOL    HW131826   4.622   6.350   2.978 -1.0488  0.7639 -1.4888
10309SOL    HW231827   4.748   6.315   2.881  0.1710 -1.3680  0.7385
10310SOL     OW31828   3.640   2.494   5.341  0.1054 -0.0552  0.0786
10310SOL    HW131829   3.732   2.530   5.357 -0.2358  1.7596 -1.5597
10310SOL    HW231830   3.572   2.561   5.372 -0.6574 -0.9771  0.4539
10311SOL     OW31831   5.862   6.732   0.537  0.0246  0.2067  0.3531
10311SOL    HW131832   5.901   6.796   0.603 -0.0803  0.2529  0.3711
10311SOL    HW231833   5.864   6.640   0.575  0.2810  0.1827  0.2807
10312SOL     OW31834   3.895   1.602   2.484 -0.0869 -0.2029  0.0044
10312SOL    HW131835   3.807   1.563   2.513  0.0379 -0.0531  0.6031
10312SOL    HW231836   3.880   1.694   2.448 -0.4565 -0.9747 -1.9141
10313SOL     OW31837   6.206   6.974   4.873  0.1006 -0.1745  0.3526
10313SOL    HW131838   6.292   6.990   4.824 -0.3176  0.7969 -0.0960
10313SOL    HW231839   6.168   6.885   4.848  1.4174 -1.0209  1.2444
10314SOL     OW31840   5.795   6.091   1.246  0.2960  0.0288 -0.7177
10314SOL    HW131841   5.772   6.093   1.343 -1.4727 -1.4696 -1.0497
10314SOL    HW231842   5.871   6.026   1.232 -0.3133 -0.7545 -0.4690
10315SOL     OW31843   6.497   5.515   3.769 -0.1292  0.1073 -0.4312
10315SOL    HW131844   6.586   5.557   3.788 -0.0928 -0.5548  0.9580
10315SOL    HW231845   6.508   5.444   3.699  0.6868 -0.8616  0.6548
10316SOL     OW31846   1.633   1.569   6.862 -0.2119 -0.3645 -0.1976
10316SOL    HW131847   1.648   1.471   6.845 -1.7294 -0.3623 -1.8729
10316SOL    HW231848   1.655   1.621   6.780  0.2495  0.6870  0.5732
10317SOL     OW31849   4.145   6.363   6.043 -1.3781  0.6704  0.2367
10317SOL    HW131850   4.198   6.352   6.127 -1.8388  2.1791  0.7589
10317SOL    HW231851   4.193   6.319   5.967  1.5193  3.2669  0.3495
10318SOL     OW31852   6.250   0.044   6.318  0.0814  0.1919  0.3763
10318SOL    HW131853   6.206   0.101   6.249  0.1506 -0.5414 -0.2955
10318SOL    HW231854   6.213   0.065   6.408  0.7275  1.8941  0.2725
10319SOL     OW31855   5.531   4.054   2.739 -0.5945 -0.1648  0.5151
10319SOL    HW131856   5.577   4.001   2.811 -0.0628  1.2976  1.3044
10319SOL    HW231857   5.504   4.143   2.776  0.8161  1.1308 -1.4061
10320SOL     OW31858   1.312   5.434   3.757 -0.0342  0.0519 -0.1408
10320SOL    HW131859   1.239   5.484   3.803  1.3043  1.1064  0.9419
10320SOL    HW231860   1.283   5.340   3.740 -1.0270 -0.0627  1.8695
10321SOL     OW31861   5.796   0.931   2.413 -0.1019  0.0656 -0.0145
10321SOL    HW131862   5.763   1.021   2.385  1.1101 -0.0501 -1.9960
10321SOL    HW231863   5.718   0.874   2.439 -1.4998  0.1398 -3.5335
10322SOL     OW31864   4.468   4.611   4.797 -0.2079  0.1393  0.0652
10322SOL    HW131865   4.428   4.586   4.885  1.1827  1.4038  1.1020
10322SOL    HW231866   4.397   4.652   4.739 -1.3492 -1.5409  0.1874
10323SOL     OW31867   0.339   3.782   5.595 -0.3183  0.4391 -0.5436
10323SOL    HW131868   0.266   3.714   5.594  0.5993 -0.5701 -0.6302
10323SOL    HW231869   0.335   3.837   5.511 -1.0335  0.4573 -0.4972
10324SOL     OW31870   3.682   3.139   2.240  0.0061 -0.0601 -0.6173
10324SOL    HW131871   3.653   3.064   2.180 -0.4613 -0.0342 -0.4265
10324SOL    HW231872   3.763   3.111   2.291 -1.3931 -1.2836  1.0666
10325SOL     OW31873   6.041   4.580   4.877 -0.0602  0.0651 -0.4823
10325SOL    HW131874   6.132   4.598   4.913  0.3071 -0.3071 -1.2090
10325SOL    HW231875   5.972   4.620   4.939  0.5825  0.2842  0.1050
10326SOL     OW31876   4.265   1.952   6.759 -0.0241  0.3828  0.2736
10326SOL    HW131877   4.251   2.050   6.766 -0.9299  0.3051 -0.3304
10326SOL    HW231878   4.301   1.929   6.668 -1.9074 -0.0444 -0.4129
10327SOL     OW31879   0.345   2.989   1.215 -0.1929  0.5864  0.2321
10327SOL    HW131880   0.320   3.071   1.163 -1.5155  0.2864  0.3605
10327SOL    HW231881   0.347   2.910   1.154  1.2095  0.7073  0.0835
10328SOL     OW31882   6.049   2.707   7.000  0.1500 -0.2671 -0.0630
10328SOL    HW131883   6.031   2.646   7.077 -0.6532  2.0560  1.7153
10328SOL    HW231884   6.147   2.726   6.995  0.4477 -1.8401 -0.8169
10329SOL     OW31885   1.500   1.544   2.753  0.0458 -0.4617 -0.4823
10329SOL    HW131886   1.459   1.592   2.676 -0.3271  0.7312  0.4219
10329SOL    HW231887   1.472   1.589   2.839 -0.7185 -2.5793  0.4532
10330SOL     OW31888   4.736   1.020   2.565 -0.2145 -0.1088  0.8021
10330SOL    HW131889   4.690   1.108   2.570  0.1038  0.1764 -0.7102
10330SOL    HW231890   4.833   1.030   2.588  0.3065  0.3908 -1.3591
10331SOL     OW31891   5.413   5.942   5.618  0.1555 -0.4579 -0.1544
10331SOL    HW131892   5.373   5.947   5.527  2.9054 -0.6571 -1.4777
10331SOL    HW231893   5.424   6.034   5.656 -0.1737 -0.3134 -0.4137
10332SOL     OW31894   1.393   6.727   0.530  0.3872  0.1281 -0.2785
10332SOL    HW131895   1.424   6.770   0.446 -0.5276 -1.9220 -1.7560
10332SOL    HW231896   1.304   6.765   0.556 -0.1805 -0.4585 -1.2932
10333SOL     OW31897   0.753   5.604   5.335 -0.6775  0.0421  0.2522
10333SOL    HW131898   0.718   5.622   5.427 -0.8626 -1.8426  0.5794
10333SOL    HW231899   0.691   5.541   5.288 -1.0549  1.6278 -1.5148
10334SOL     OW31900   4.024   5.984   1.527 -0.5678  0.1620 -0.7423
10334SOL    HW131901   4.052   6.076   1.499  0.2839  0.1950  0.1622
10334SOL    HW231902   3.966   5.990   1.609 -0.3752 -0.1067 -0.5827
10335SOL     OW31903   0.608   6.510   6.209 -0.0291  0.0208 -0.7585
10335SOL    HW131904   0.528   6.501   6.269  0.8952 -1.1472  0.3502
10335SOL    HW231905   0.617   6.605   6.179 -1.1344  0.4046  0.0630
10336SOL     OW31906   5.840   4.838   2.239 -0.3083  0.7168  0.2802
10336SOL    HW131907   5.893   4.897   2.300  2.1115 -0.9887 -0.0444
10336SOL    HW231908   5.762   4.800   2.289  0.8027  0.4721  1.9097
10337SOL     OW31909   5.454   4.355   5.455 -0.0742  0.4604  0.1087
10337SOL    HW131910   5.427   4.369   5.550 -2.1340  1.0015 -0.5061
10337SOL    HW231911   5.554   4.352   5.449  0.1091  0.5661  2.2453
10338SOL     OW31912   2.857   6.647   1.081  0.0633 -0.1042 -0.6234
10338SOL    HW131913   2.887   6.588   1.156 -0.3884  1.8391  1.2066
10338SOL    HW231914   2.764   6.623   1.055  1.2250 -2.7622 -2.7421
10339SOL     OW31915   0.460   1.461   5.154  0.0092 -0.3289 -0.5783
10339SOL    HW131916   0.506   1.377   5.127 -0.6656 -0.8194 -0.2270
10339SOL    HW231917   0.449   1.521   5.075  0.0438 -0.7846 -0.9280
10340SOL     OW31918   2.762   3.475   5.927 -0.3203  0.5155  0.4046
10340SOL    HW131919   2.671   3.495   5.962  0.6451  1.4387  2.5375
10340SOL    HW231920   2.825   3.549   5.952  0.9843  0.0468 -1.2753
10341SOL     OW31921   1.516   2.455   3.565  0.0069 -0.5812 -0.6697
10341SOL    HW131922   1.519   2.358   3.540 -0.2016 -0.3892 -1.4577
10341SOL    HW231923   1.608   2.489   3.580  0.0440 -1.0968  0.4214
10342SOL     OW31924   0.167   0.874   2.615  0.5506  0.1557 -0.0224
10342SOL    HW131925   0.194   0.963   2.578  2.2297  0.9347  2.7366
10342SOL    HW231926   0.231   0.804   2.583 -0.0051  0.1589 -1.1791
10343SOL     OW31927   2.572   5.580   0.396  0.1464  0.1074 -0.1772
10343SOL    HW131928   2.488   5.570   0.449 -0.1358  1.5842 -0.2916
10343SOL    HW231929   2.613   5.490   0.380 -1.5930 -0.6684 -0.4472
10344SOL     OW31930   3.678   6.366   6.946  0.2746 -0.0599 -0.1296
10344SOL    HW131931   3.764   6.322   6.920  0.5825  0.2610  0.3320
10344SOL    HW231932   3.694   6.429   7.022 -0.8077 -1.8699  1.7056
10345SOL     OW31933   0.586   2.424   5.568  0.2051  0.3682  0.3916
10345SOL    HW131934   0.524   2.380   5.632  1.6711 -2.1921  0.1875
10345SOL    HW231935   0.671   2.450   5.615  0.4849  0.3308 -0.0777
10346SOL     OW31936   6.711   5.237   1.312  0.1179 -0.4982  0.2060
10346SOL    HW131937   6.785   5.175   1.286  0.8505  0.2136  0.5662
10346SOL    HW231938   6.624   5.201   1.278  0.7632 -0.7253 -1.2764
10347SOL     OW31939   5.533   3.291   3.424  0.6077 -0.1483 -0.4630
10347SOL    HW131940   5.582   3.205   3.433 -0.4522 -0.5971  1.5732
10347SOL    HW231941   5.529   3.337   3.513  0.1543  1.4589 -1.2647
10348SOL     OW31942   0.614   5.234   6.922  0.1548  0.1129 -0.0955
10348SOL    HW131943   0.670   5.225   6.839  1.7243 -0.9652  1.0321
10348SOL    HW231944   0.550   5.158   6.928 -0.3291  0.4791 -0.5794
10349SOL     OW31945   2.953   6.458   0.356 -0.0953  0.0861  0.3127
10349SOL    HW131946   3.018   6.517   0.404 -1.4822  2.0831 -0.1260
10349SOL    HW231947   2.935   6.377   0.411 -0.8519  1.7759  2.7640
10350SOL     OW31948   2.471   1.261   6.272 -0.3986  0.5565 -0.2609
10350SOL    HW131949   2.551   1.311   6.238 -0.0375  1.0968  1.2936
10350SOL    HW231950   2.388   1.304   6.237 -0.0793  2.0395  0.6923
10351SOL     OW31951   4.812   5.487   5.965 -0.1309 -0.2331 -0.1461
10351SOL    HW131952   4.911   5.499   5.954 -0.0785 -0.6542 -0.1316
10351SOL    HW231953   4.785   5.516   6.057  0.4742 -3.0523  1.0041
10352SOL     OW31954   3.623   3.076   6.933  0.8274  0.0777  0.2917
10352SOL    HW131955   3.552   3.134   6.894  1.3839  0.1173 -0.7006
10352SOL    HW231956   3.690   3.053   6.862  0.0675 -2.6471  0.3444
10353SOL     OW31957   1.490   2.510   4.988 -0.1373  0.1630 -0.1874
10353SOL    HW131958   1.573   2.565   4.996  0.3621 -0.5858 -0.1675
10353SOL    HW231959   1.464   2.503   4.892 -2.3201  3.5063 -0.0194
10354SOL     OW31960   3.889   3.106   1.001  0.1824 -0.9482  0.2785
10354SOL    HW131961   3.793   3.131   1.006  0.6067  0.6975  0.6092
10354SOL    HW231962   3.927   3.134   0.913  0.3781 -1.5921  0.1460
10355SOL     OW31963   2.061   4.081   1.905  0.2797 -0.1086 -0.1237
10355SOL    HW131964   2.013   4.031   1.978  1.0288 -1.9203 -0.8068
10355SOL    HW231965   2.160   4.080   1.924  0.2863  1.3863 -0.0149
10356SOL     OW31966   6.597   3.876   5.185  0.1986  0.5470 -0.2659
10356SOL    HW131967   6.667   3.942   5.210 -0.3684  1.2353 -0.4695
10356SOL    HW231968   6.507   3.920   5.186 -0.3959 -0.5774  1.1243
10357SOL     OW31969   0.199   2.449   5.816  0.0777  0.3781 -0.3213
10357SOL    HW131970   0.117   2.410   5.858  0.6425 -0.1864  0.2641
10357SOL    HW231971   0.175   2.485   5.725 -0.7515 -0.0389 -0.2811
10358SOL     OW31972   6.754   2.015   1.987 -0.0546  0.3128  0.7274
10358SOL    HW131973   6.669   1.977   2.024 -0.5588 -0.6030 -1.2425
10358SOL    HW231974   6.755   2.114   2.000 -1.5252  0.3598  0.5745
10359SOL     OW31975   0.175   0.495   6.453  0.6261 -0.4798  0.8680
10359SOL    HW131976   0.228   0.565   6.500  2.2598 -2.4961  2.2604
10359SOL    HW231977   0.223   0.467   6.370  1.1135 -1.3432  1.4128
10360SOL     OW31978   5.649   6.434   3.975  0.0460 -0.3832  0.3028
10360SOL    HW131979   5.661   6.511   3.912  0.4189 -0.2317  0.5567
10360SOL    HW231980   5.558   6.394   3.961  1.0484 -2.0310 -2.2000
10361SOL     OW31981   2.200   4.631   1.503 -0.1508 -0.2241 -0.1698
10361SOL    HW131982   2.245   4.721   1.511 -0.6533  0.1932 -1.7016
10361SOL    HW231983   2.105   4.639   1.532  0.2442 -0.6882  1.3372
10362SOL     OW31984   3.308   4.887   3.919  0.4588 -0.1225  0.5730
10362SOL    HW131985   3.292   4.973   3.967  2.2918  0.3033  0.4769
10362SOL    HW231986   3.220   4.846   3.895 -0.4590  1.4086  1.1602
10363SOL     OW31987   6.912   0.990   4.156 -0.1786 -0.4098 -0.0232
10363SOL    HW131988   6.969   0.909   4.143  0.8485  0.0346  1.4203
10363SOL    HW231989   6.958   1.070   4.118  0.1248 -0.0771  0.9998
10364SOL     OW31990   1.927   5.731   6.944 -0.1016 -0.4981 -0.2460
10364SOL    HW131991   2.021   5.748   6.913 -0.9709  1.6937 -1.9381
10364SOL    HW231992   1.910   5.633   6.946  2.3622 -0.9960  0.6372
10365SOL     OW31993   3.910   5.314   0.157 -0.4626 -0.1181 -0.1971
10365SOL    HW131994   3.985   5.250   0.176 -0.7999 -0.1684  1.0580
10365SOL    HW231995   3.823   5.268   0.174 -0.7118  0.6666  0.6740
10366SOL     OW31996   3.014   0.277   3.350  0.5492  0.0585 -0.3287
10366SOL    HW131997   3.001   0.236   3.260  0.0662 -0.2364 -0.1311
10366SOL    HW231998   3.076   0.355   3.342  0.7731 -0.1643 -0.8576
10367SOL     OW31999   6.961   1.671   2.329 -0.1603 -0.6735  0.0865
10367SOL    HW132000   6.885   1.640   2.387 -1.0272  0.9914 -0.0919
10367SOL    HW232001   6.930   1.676   2.234  0.1883 -0.0816 -0.0023
10368SOL     OW32002   1.134   6.318   1.984  0.2434 -0.4461  0.2477
10368SOL    HW132003   1.159   6.231   2.026 -0.8014 -0.0414  1.8149
10368SOL    HW232004   1.102   6.303   1.890 -0.7896 -1.8779  0.8039
10369SOL     OW32005   2.078   2.448   0.970 -0.3197  0.4476  0.1670
10369SOL    HW132006   2.005   2.513   0.990  1.1537  1.3687  3.3654
10369SOL    HW232007   2.167   2.490   0.990  0.9009 -1.5536 -0.6905
10370SOL     OW32008   2.312   1.338   5.627 -0.2235 -0.2326  0.4315
10370SOL    HW132009   2.328   1.376   5.718  2.2828 -1.6095  0.6428
10370SOL    HW232010   2.360   1.394   5.559  2.1659 -1.9535  0.5805
10371SOL     OW32011   6.255   6.397   6.677 -0.2038  0.1512 -0.6152
10371SOL    HW132012   6.187   6.339   6.632 -1.4300  0.0518  1.2751
10371SOL    HW232013   6.210   6.477   6.716  0.6240 -0.2302  1.2297
10372SOL     OW32014   1.674   0.173   2.536 -0.1944 -0.0006 -0.0467
10372SOL    HW132015   1.705   0.245   2.473  0.4997  1.3230  1.7430
10372SOL    HW232016   1.596   0.125   2.495 -2.0348  3.0983 -0.5216
10373SOL     OW32017   0.494   6.069   5.599  0.4095 -0.3625  0.0583
10373SOL    HW132018   0.583   6.025   5.600  1.0823  0.9409 -0.0763
10373SOL    HW232019   0.501   6.158   5.554 -0.8630 -0.0424  0.4424
10374SOL     OW32020   3.831   1.966   4.831  0.3711 -0.1516 -0.6482
10374SOL    HW132021   3.885   1.972   4.915  0.8361 -0.3967 -0.9292
10374SOL    HW232022   3.881   2.006   4.755 -0.4834  1.0239 -0.6110
10375SOL     OW32023   5.177   2.027   6.702  0.8771 -0.1552 -0.2762
10375SOL    HW132024   5.144   1.933   6.701  0.0552  0.1145 -1.9730
10375SOL    HW232025   5.099   2.090   6.696  1.4210  0.6452  0.7663
10376SOL     OW32026   1.364   5.989   4.644 -0.1459 -0.6786 -0.5320
10376SOL    HW132027   1.441   5.929   4.667 -0.2866 -1.0820 -1.0923
10376SOL    HW232028   1.281   5.956   4.689 -0.5408 -1.7961 -2.0087
10377SOL     OW32029   1.141   6.009   5.142  0.6520  0.2964  0.6170
10377SOL    HW132030   1.076   6.013   5.067  1.1291 -0.1274  0.1678
10377SOL    HW232031   1.115   6.075   5.213  0.9492  1.6989 -0.5332
10378SOL     OW32032   1.219   0.858   0.374 -0.0905 -0.0532  0.8736
10378SOL    HW132033   1.169   0.908   0.445  0.0488 -0.4859  1.2780
10378SOL    HW232034   1.287   0.918   0.332 -2.2385  1.1990 -1.0793
10379SOL     OW32035   4.830   2.471   3.915 -0.7522  0.3678 -0.3196
10379SOL    HW132036   4.745   2.510   3.882 -0.5164  0.3954 -0.9134
10379SOL    HW232037   4.907   2.529   3.886 -0.4908  0.0642 -0.2455
10380SOL     OW32038   6.406   0.382   2.038  0.0390  0.3695  0.0370
10380SOL    HW132039   6.355   0.317   1.983  0.3806 -0.9864  1.2719
10380SOL    HW232040   6.467   0.436   1.979  0.2944 -0.9331 -0.9243
10381SOL     OW32041   4.490   6.596   4.589 -0.3818  0.1991 -0.7140
10381SOL    HW132042   4.405   6.558   4.628  0.2543 -1.3173 -0.7387
10381SOL    HW232043   4.562   6.528   4.595  0.6426  1.1929 -1.4368
10382SOL     OW32044   3.238   4.704   1.102  0.1502  0.4406  0.2285
10382SOL    HW132045   3.151   4.705   1.152 -0.8497  0.7278 -1.4546
10382SOL    HW232046   3.314   4.709   1.168 -1.0787  0.1083  1.7393
10383SOL     OW32047   6.577   3.668   1.036  0.4578  0.1883 -0.8184
10383SOL    HW132048   6.640   3.739   1.002 -0.8523  0.7901 -2.1108
10383SOL    HW232049   6.615   3.578   1.015  1.4028  0.5148 -0.5765
10384SOL     OW32050   5.933   0.226   1.871  0.0592 -0.4792 -0.2004
10384SOL    HW132051   5.964   0.319   1.893  2.3473 -0.9438 -1.1334
10384SOL    HW232052   5.936   0.213   1.772 -1.3087 -1.2352 -0.1679
10385SOL     OW32053   3.032   0.857   0.043  0.2458  0.2233 -0.3778
10385SOL    HW132054   3.127   0.835   0.064 -0.5802 -1.5410  1.9073
10385SOL    HW232055   3.023   0.874  -0.055  2.7982 -0.0390 -0.7289
10386SOL     OW32056   6.206   2.187   6.402  0.0896 -0.0857  0.2886
10386SOL    HW132057   6.170   2.174   6.310 -0.8400  0.9420  0.4779
10386SOL    HW232058   6.306   2.184   6.400  0.0581 -2.0896 -0.4047
10387SOL     OW32059   2.425   4.399   2.682 -0.3492 -0.4050 -0.5976
10387SOL    HW132060   2.407   4.435   2.591 -0.3309 -1.1865 -0.9202
10387SOL    HW232061   2.521   4.416   2.706  0.7284 -3.2873 -2.2421
10388SOL     OW32062   5.932   2.955   1.463  0.5356  0.2071  0.3690
10388SOL    HW132063   6.005   2.949   1.531  1.2885 -1.0363 -0.5203
10388SOL    HW232064   5.848   2.917   1.502  1.2006 -1.3882  0.3042
10389SOL     OW32065   1.584   6.178   3.244  0.1935  0.9341  0.5432
10389SOL    HW132066   1.605   6.132   3.330  1.8517 -0.1890 -0.4103
10389SOL    HW232067   1.493   6.151   3.213  0.1865  0.1650  1.1952
10390SOL     OW32068   1.884   2.502   3.050 -0.3491 -0.5300  0.0167
10390SOL    HW132069   1.929   2.424   3.008  1.3672  0.3597  0.0956
10390SOL    HW232070   1.819   2.542   2.986 -1.2702 -2.0092 -0.0084
10391SOL     OW32071   2.976   6.480   4.862 -0.6418  0.3050  0.5268
10391SOL    HW132072   3.075   6.468   4.867 -0.3319  2.4109  0.3215
10391SOL    HW232073   2.942   6.448   4.774  0.0488  0.6824  0.1180
10392SOL     OW32074   0.127   5.683   6.996  0.0246  0.3498  0.0478
10392SOL    HW132075   0.220   5.700   7.029 -0.4201  1.2699  0.8683
10392SOL    HW232076   0.093   5.598   7.035  1.0662 -0.8214 -1.4836
10393SOL     OW32077   1.915   1.419   4.126  0.5211 -0.6546 -0.7566
10393SOL    HW132078   2.001   1.471   4.119  1.0050 -1.2097  0.7397
10393SOL    HW232079   1.840   1.482   4.147  1.0035 -0.4601  0.4625
10394SOL     OW32080   5.176   0.525   6.752 -0.2182  0.0554  0.1866
10394SOL    HW132081   5.111   0.475   6.695 -1.4117  1.7932 -0.0409
10394SOL    HW232082   5.251   0.560   6.695  0.0484 -0.5342  0.1690
10395SOL     OW32083   1.354   0.952   4.160  0.5229 -0.0455 -0.3584
10395SOL    HW132084   1.421   1.000   4.102  0.6435 -1.0235 -1.0507
10395SOL    HW232085   1.262   0.968   4.124  0.3654  1.2240  0.5396
10396SOL     OW32086   5.949   6.626   6.300 -0.5235 -0.2646 -0.3912
10396SOL    HW132087   5.980   6.706   6.248 -1.3259  0.6958  0.5747
10396SOL    HW232088   6.018   6.602   6.368 -0.8906  0.4695  0.2444
10397SOL     OW32089   5.477   1.307   0.997 -0.3106  0.6917  0.1974
10397SOL    HW132090   5.458   1.268   0.907 -0.0899  1.9724 -0.4238
10397SOL    HW232091   5.537   1.387   0.987  1.1722 -0.1920  1.6471
10398SOL     OW32092   5.824   3.214   3.760 -0.2958 -0.1919  0.2195
10398SOL    HW132093   5.779   3.136   3.715 -1.4861  0.3307  0.4680
10398SOL    HW232094   5.822   3.201   3.859 -0.7019  0.2607  0.2706
10399SOL     OW32095   6.119   3.217   4.466  0.1207  0.3372 -0.5786
10399SOL    HW132096   6.066   3.137   4.438  0.6008  0.4774 -1.9553
10399SOL    HW232097   6.090   3.246   4.558 -2.0558  0.2790 -1.1933
10400SOL     OW32098   3.051   5.456   0.985 -0.5865  0.3931 -0.5872
10400SOL    HW132099   3.070   5.395   0.909  0.6073 -0.9933  0.7489
10400SOL    HW232100   2.975   5.419   1.039  1.5595 -1.2982  1.5136
10401SOL     OW32101   0.759   6.044   3.630  0.2752  0.1908  0.2077
10401SOL    HW132102   0.769   6.140   3.658  3.4990 -0.3650  1.3965
10401SOL    HW232103   0.823   6.024   3.556 -1.5726 -0.7116 -1.2422
10402SOL     OW32104   6.882   2.564   4.102 -0.4228 -0.3642  0.2287
10402SOL    HW132105   6.815   2.617   4.050  0.6246  0.1003 -0.6802
10402SOL    HW232106   6.855   2.467   4.102 -1.0592 -0.1946 -0.1831
10403SOL     OW32107   5.928   1.290   2.365 -0.8472  0.3863  0.3025
10403SOL    HW132108   5.946   1.214   2.302 -0.2943  0.2138  0.6668
10403SOL    HW232109   5.944   1.261   2.459  0.0064  1.1275  0.4078
10404SOL     OW32110   1.327   5.030   2.962 -0.5299 -0.5329 -0.6188
10404SOL    HW132111   1.299   5.126   2.965 -2.6191 -1.1056  1.4468
10404SOL    HW232112   1.407   5.017   3.021 -0.3582 -0.1094 -0.7514
10405SOL     OW32113   1.808   6.905   6.546  0.2157 -1.0432  0.3294
10405SOL    HW132114   1.774   6.869   6.459  1.8064  1.7674 -1.6511
10405SOL    HW232115   1.738   6.963   6.587  0.7298  0.7686 -1.1967
10406SOL     OW32116   3.481   5.497   5.693  0.0260  0.1039  0.2646
10406SOL    HW132117   3.489   5.464   5.787 -2.0735  2.1626  1.2332
10406SOL    HW232118   3.486   5.597   5.692 -3.2684  0.3735 -1.3279
10407SOL     OW32119   0.840   3.061   6.262  0.6203 -0.5627  0.3998
10407SOL    HW132120   0.835   3.045   6.164 -0.7101 -0.4634  0.4297
10407SOL    HW232121   0.849   2.974   6.310 -0.3482 -0.7589  0.2523
10408SOL     OW32122   4.739   5.542   2.184  0.0829 -0.0758  0.6758
10408SOL    HW132123   4.764   5.448   2.162  0.1657 -0.2945  1.6776
10408SOL    HW232124   4.809   5.604   2.149 -0.6879 -0.2356 -1.3039
10409SOL     OW32125   5.197   4.812   1.404  0.0859  0.1766 -0.3193
10409SOL    HW132126   5.220   4.774   1.494  2.3168  0.4459 -0.6973
10409SOL    HW232127   5.140   4.747   1.354 -0.2179 -0.4981  0.8577
10410SOL     OW32128   6.135   5.947   5.795  0.3097 -0.3780 -0.1422
10410SOL    HW132129   6.062   6.002   5.836 -0.4169 -0.9874 -0.5912
10410SOL    HW232130   6.173   5.885   5.864 -0.1047 -0.5730 -0.0830
10411SOL     OW32131   0.044   3.600   3.198  0.4628  0.1805 -0.2422
10411SOL    HW132132  -0.018   3.522   3.187  0.4173  0.0731  0.6899
10411SOL    HW232133  -0.008   3.684   3.209  0.4769  0.0895  0.5477
10412SOL     OW32134   6.099   4.214   6.779 -0.6287 -0.0645  0.0626
10412SOL    HW132135   6.083   4.274   6.700 -1.6315 -0.5477 -0.1234
10412SOL    HW232136   6.120   4.270   6.859  2.0887  0.3748 -0.8638
10413SOL     OW32137   5.677   4.695   6.340  0.2090 -0.8329 -0.1016
10413SOL    HW132138   5.721   4.728   6.424  0.9101 -1.2901 -0.2750
10413SOL    HW232139   5.680   4.767   6.271 -0.8295 -0.2767  0.4209
10414SOL     OW32140   6.024   0.777   5.901  0.6449 -0.1283  0.7070
10414SOL    HW132141   5.976   0.785   5.814 -1.0483 -0.5206  1.5679
10414SOL    HW232142   6.107   0.833   5.899 -0.7482  1.9960 -0.2066
10415SOL     OW32143   1.949   6.475   3.092 -0.1833  0.4850  0.0868
10415SOL    HW132144   1.907   6.537   3.157  0.1157  0.3262  0.4380
10415SOL    HW232145   1.885   6.402   3.069 -0.4924  0.8601 -0.2382
10416SOL     OW32146   5.488   1.441   6.740 -0.3132 -0.0583 -0.0821
10416SOL    HW132147   5.389   1.435   6.749 -0.2449 -1.6342 -0.0436
10416SOL    HW232148   5.522   1.517   6.796 -1.5177  0.7627 -0.4259
10417SOL     OW32149   3.890   6.616   3.291  0.1019  0.1665 -0.1859
10417SOL    HW132150   3.949   6.691   3.261  0.5459 -1.1513 -2.8837
10417SOL    HW232151   3.823   6.596   3.220 -2.1965  0.1035  1.8527
10418SOL     OW32152   0.829   3.167   6.565 -0.4705 -0.5255  0.0109
10418SOL    HW132153   0.751   3.156   6.503 -1.3661 -1.0113  1.1814
10418SOL    HW232154   0.797   3.164   6.660  0.8972 -0.0489  0.5136
10419SOL     OW32155   2.100   6.879   4.250 -0.4900  0.1156  0.6650
10419SOL    HW132156   2.187   6.905   4.207 -0.7162 -0.3881 -0.1235
10419SOL    HW232157   2.116   6.802   4.312 -0.3855 -0.0680  0.4148
10420SOL     OW32158   6.501   2.051   2.876  0.7510 -0.5365 -0.1967
10420SOL    HW132159   6.528   1.991   2.951  2.1917 -1.2318 -1.2287
10420SOL    HW232160   6.582   2.092   2.835 -0.1501  1.6717  0.0654
10421SOL     OW32161   0.830   5.195   3.762  0.0453 -0.7859 -0.0826
10421SOL    HW132162   0.789   5.208   3.853 -0.0565 -0.6568 -0.1470
10421SOL    HW232163   0.757   5.181   3.695  0.0582  0.4235 -0.3656
10422SOL     OW32164   5.854   2.780   5.260  0.4896 -0.0202 -0.1284
10422SOL    HW132165   5.902   2.717   5.321  0.5481  1.5357  1.5626
10422SOL    HW232166   5.888   2.770   5.167  1.2094 -1.7283  0.2820
10423SOL     OW32167   2.916   4.855   3.152  0.2159  0.7906  0.4002
10423SOL    HW132168   2.882   4.812   3.236  1.7132 -1.9383 -0.2715
10423SOL    HW232169   3.014   4.872   3.161  0.2871  0.9497 -0.5938
10424SOL     OW32170   2.181   2.028   0.872  0.2062  0.2372 -0.0862
10424SOL    HW132171   2.253   2.059   0.810 -0.2281  2.4508  0.4015
10424SOL    HW232172   2.112   2.100   0.881 -1.2552 -1.1983  0.6969
10425SOL     OW32173   2.849   5.375   1.148 -0.1662 -0.4099  0.4025
10425SOL    HW132174   2.823   5.471   1.161  2.7097  0.4907  0.3166
10425SOL    HW232175   2.832   5.324   1.233  1.4677  1.0598  1.6886
10426SOL     OW32176   5.935   1.842   5.635  0.4859 -0.1283 -0.0645
10426SOL    HW132177   5.865   1.907   5.665  1.0033 -0.5248  2.2464
10426SOL    HW232178   5.964   1.786   5.714  1.1737 -2.0959 -1.6325
10427SOL     OW32179   3.545   6.218   2.939  0.0232  0.2914 -0.4790
10427SOL    HW132180   3.583   6.249   2.852  2.6262 -0.9450  0.1136
10427SOL    HW232181   3.605   6.247   3.013 -0.3694 -1.4495  0.5705
10428SOL     OW32182   2.052   0.880   5.120  0.1632  0.9001 -0.6904
10428SOL    HW132183   2.004   0.877   5.032  0.9053  1.1921 -1.1193
10428SOL    HW232184   2.116   0.957   5.119  0.8408  0.3461 -0.2447
10429SOL     OW32185   0.525   4.796   5.446 -0.2172  0.4229 -0.0603
10429SOL    HW132186   0.595   4.820   5.513 -0.7404  0.2171  0.5757
10429SOL    HW232187   0.568   4.757   5.365  0.4183  0.5450  0.2112
10430SOL     OW32188   2.345   0.556   2.696  0.0430 -0.0561  0.0280
10430SOL    HW132189   2.415   0.486   2.708  0.6050  0.1450 -1.7659
10430SOL    HW232190   2.381   0.630   2.639 -1.5014  0.2426 -0.6016
10431SOL     OW32191   4.042   1.858   3.901  0.4495 -0.1084  0.2709
10431SOL    HW132192   4.085   1.827   3.985  1.0637 -0.7635 -0.2837
10431SOL    HW232193   4.111   1.871   3.830 -0.1996 -0.8100 -0.5139
10432SOL     OW32194   5.406   5.246   4.373  1.0175 -0.4453 -0.9990
10432SOL    HW132195   5.492   5.224   4.327  2.2370  1.0690  0.4474
10432SOL    HW232196   5.413   5.335   4.417 -0.9657 -0.7190 -0.0001
10433SOL     OW32197   4.405   5.416   1.849  0.6858  0.2881 -0.3490
10433SOL    HW132198   4.403   5.413   1.949  1.0963  1.5989 -0.2772
10433SOL    HW232199   4.489   5.462   1.819  1.9533 -2.4592 -1.3989
10434SOL     OW32200   4.014   1.262   6.675 -0.5168 -0.1816 -0.1062
10434SOL    HW132201   3.959   1.335   6.716  1.1491  0.4415  1.1239
10434SOL    HW232202   3.967   1.227   6.594 -1.2387  2.4389 -0.9295
10435SOL     OW32203   1.645   2.277   0.820 -0.2512  0.5072 -0.0602
10435SOL    HW132204   1.630   2.201   0.757 -1.0451  0.3675  0.2926
10435SOL    HW232205   1.668   2.359   0.767  1.4676 -0.1505 -0.4005
10436SOL     OW32206   6.829   5.212   4.711 -0.0816  0.1460 -0.0458
10436SOL    HW132207   6.915   5.236   4.754  1.9400 -2.4177 -2.3199
10436SOL    HW232208   6.829   5.243   4.616 -1.1802 -0.8860 -0.4155
10437SOL     OW32209   0.694   5.468   3.503 -0.0044  0.3463  0.2582
10437SOL    HW132210   0.728   5.503   3.416 -0.2493 -1.5571 -0.6407
10437SOL    HW232211   0.764   5.413   3.548 -0.5100 -0.2530  0.3374
10438SOL     OW32212   0.280   5.491   6.227  0.1190 -0.1191  0.2291
10438SOL    HW132213   0.366   5.526   6.190  0.3454 -1.0272 -0.1260
10438SOL    HW232214   0.219   5.468   6.152 -0.8392  1.4490  0.4844
10439SOL     OW32215   6.453   4.425   6.111 -0.5562  0.3693 -0.2237
10439SOL    HW132216   6.443   4.525   6.105  1.3121  0.6030 -0.0046
10439SOL    HW232217   6.535   4.403   6.164  0.5951 -1.2300 -2.5090
10440SOL     OW32218   4.406   2.312   6.468 -0.4171 -0.7931  0.5600
10440SOL    HW132219   4.400   2.411   6.483 -0.6893 -0.6639 -0.3480
10440SOL    HW232220   4.467   2.272   6.537  0.3336  0.1232  0.4542
10441SOL     OW32221   4.360   1.968   1.485  0.2188 -0.0594  0.0760
10441SOL    HW132222   4.422   2.015   1.547  1.2224 -1.4325  0.1688
10441SOL    HW232223   4.304   1.904   1.537 -0.3951  0.2639 -0.1781
10442SOL     OW32224   2.085   0.930   3.820  0.0251  0.0691 -0.0817
10442SOL    HW132225   2.163   0.869   3.838 -0.5409 -0.6557 -0.0543
10442SOL    HW232226   2.119   1.018   3.787  0.8641 -0.2002  0.0398
10443SOL     OW32227   1.531   1.027   0.497 -0.3437 -0.1558  0.0541
10443SOL    HW132228   1.575   1.113   0.521 -3.2843  1.9971 -1.6118
10443SOL    HW232229   1.455   1.011   0.561  0.4806 -1.8703  0.6665
10444SOL     OW32230   4.239   5.164   4.170  0.1127  0.3082 -0.4674
10444SOL    HW132231   4.218   5.161   4.268  1.0803 -1.3849 -0.2817
10444SOL    HW232232   4.199   5.247   4.131 -1.3084  0.4371  1.1102
10445SOL     OW32233   2.047   4.802   4.005 -0.3384 -0.4621  0.3572
10445SOL    HW132234   1.970   4.862   3.981 -0.6625 -0.5667  1.1085
10445SOL    HW232235   2.030   4.762   4.095  1.6100  1.2614  1.5860
10446SOL     OW32236   2.727   5.459   5.570  0.0336 -0.2377 -0.0541
10446SOL    HW132237   2.776   5.449   5.484  0.3662 -1.0215  0.2088
10446SOL    HW232238   2.781   5.514   5.634 -0.1450  0.2162 -0.2936
10447SOL     OW32239   0.713   1.069   3.073 -0.2945 -0.2208 -0.2886
10447SOL    HW132240   0.752   0.999   3.132 -2.0750 -0.5757  0.5315
10447SOL    HW232241   0.639   1.030   3.018  0.4215  0.4259 -1.7910
10448SOL     OW32242   2.090   0.070   1.535 -0.2291  0.0027  0.4576
10448SOL    HW132243   2.059   0.165   1.540 -0.8445 -0.0117 -1.7753
10448SOL    HW232244   2.014   0.009   1.555  0.2116 -0.0531  2.0755
10449SOL     OW32245   2.401   4.206   5.864  0.3641  0.3193 -0.4167
10449SOL    HW132246   2.481   4.235   5.811  0.3987  3.4214  1.1359
10449SOL    HW232247   2.318   4.220   5.809  0.6603 -0.6157 -1.1416
10450SOL     OW32248   0.772   0.464   2.969 -0.1899  0.1821  0.1127
10450SOL    HW132249   0.714   0.500   2.896 -0.6498 -0.8896 -0.0670
10450SOL    HW232250   0.860   0.436   2.931  0.5111  1.8734  0.3970
10451SOL     OW32251   3.378   1.267   4.865 -0.4316  0.2907  0.2690
10451SOL    HW132252   3.370   1.168   4.855 -0.9280  0.2626  0.8674
10451SOL    HW232253   3.455   1.288   4.926 -0.6583  0.2484  0.5723
10452SOL     OW32254   6.446   4.723   3.955  0.1843 -0.9638 -0.5166
10452SOL    HW132255   6.491   4.790   3.895  0.0188 -2.1414 -2.0167
10452SOL    HW232256   6.359   4.696   3.915 -0.6467 -0.6808  1.0374
10453SOL     OW32257   4.926   4.264   2.569  0.2171  0.3089 -0.4192
10453SOL    HW132258   4.852   4.229   2.511  0.1185  0.5493 -0.4390
10453SOL    HW232259   4.946   4.359   2.544  1.3435 -0.1181 -1.2298
10454SOL     OW32260   0.591   2.853   4.481 -0.2047 -0.0038 -0.2993
10454SOL    HW132261   0.567   2.927   4.545  0.8503  0.8719 -0.8760
10454SOL    HW232262   0.514   2.836   4.419  0.5028  2.7202 -2.1049
10455SOL     OW32263   1.224   5.309   2.934  0.7531  0.5995 -0.7228
10455SOL    HW132264   1.172   5.354   3.006  2.1606 -0.7096  1.2082
10455SOL    HW232265   1.294   5.373   2.900  2.0566  0.3308  1.2605
10456SOL     OW32266   1.633   5.524   6.333  0.2730  0.4261  0.2824
10456SOL    HW132267   1.650   5.426   6.320  0.5200  0.3794  0.8817
10456SOL    HW232268   1.555   5.536   6.394  0.2526  0.6027  0.2212
10457SOL     OW32269   3.197   0.258   6.551 -0.0147 -0.6506  0.1650
10457SOL    HW132270   3.120   0.224   6.606 -0.9968 -1.0693 -1.4068
10457SOL    HW232271   3.210   0.199   6.472  0.4498  0.7267 -0.8233
10458SOL     OW32272   1.326   5.414   5.432  0.3994  0.0920 -0.0555
10458SOL    HW132273   1.367   5.442   5.346 -0.1359 -1.3146 -0.8168
10458SOL    HW232274   1.397   5.389   5.497  0.8029  0.9799 -0.1475
10459SOL     OW32275   3.569   6.153   1.953  0.1477  0.2570 -0.4125
10459SOL    HW132276   3.613   6.104   2.028 -0.3465 -0.3545 -0.5059
10459SOL    HW232277   3.471   6.131   1.953 -0.1052  1.3554 -0.3802
10460SOL     OW32278   0.755   0.230   6.912 -0.2768  0.4603  0.4178
10460SOL    HW132279   0.738   0.231   6.813  1.3940 -1.3563  0.0464
10460SOL    HW232280   0.832   0.290   6.933  0.0004  0.0949  0.4593
10461SOL     OW32281   0.382   3.885   5.833 -0.0888 -0.9370  0.5112
10461SOL    HW132282   0.302   3.930   5.873 -0.7469 -2.3227  0.7952
10461SOL    HW232283   0.361   3.854   5.741  0.2877 -0.8837  0.4034
10462SOL     OW32284   4.789   3.423   0.309  0.1987  0.1908  0.2134
10462SOL    HW132285   4.823   3.330   0.321  0.1867  0.1119 -0.3530
10462SOL    HW232286   4.786   3.469   0.398  0.5305 -0.2331  0.4460
10463SOL     OW32287   3.715   1.719   6.785 -0.2998 -0.7183 -0.0032
10463SOL    HW132288   3.651   1.778   6.737 -0.7255 -0.4742  0.8391
10463SOL    HW232289   3.798   1.771   6.807 -0.7120 -0.3975  0.8188
10464SOL     OW32290   5.216   4.459   3.458  0.6133  0.0515  0.1407
10464SOL    HW132291   5.202   4.477   3.556  0.9408 -1.0074  0.3946
10464SOL    HW232292   5.134   4.417   3.420  0.1107  1.3595 -0.2906
10465SOL     OW32293   6.139   3.461   6.525 -0.2754  0.6533  0.1141
10465SOL    HW132294   6.089   3.403   6.589  1.3529 -0.7236  0.2062
10465SOL    HW232295   6.110   3.556   6.536 -1.2768  0.2034  1.6541
10466SOL     OW32296   1.211   5.668   6.197  0.2875  0.1710 -0.6302
10466SOL    HW132297   1.136   5.626   6.145 -0.5109  0.3884  0.3297
10466SOL    HW232298   1.298   5.627   6.168 -0.4026 -1.7248 -0.1455
10467SOL     OW32299   6.261   1.644   6.884  0.3116 -0.1820 -0.7047
10467SOL    HW132300   6.233   1.733   6.919 -0.1152 -0.7689  0.5114
10467SOL    HW232301   6.242   1.639   6.786 -3.2490 -0.2517 -0.1413
10468SOL     OW32302   6.709   3.834   1.331  0.8676 -0.0219  0.2839
10468SOL    HW132303   6.727   3.932   1.337  1.3860  0.0143 -1.3404
10468SOL    HW232304   6.614   3.815   1.355  0.6663  0.9290  0.2419
10469SOL     OW32305   0.775   1.094   5.533  0.2834  0.4861  0.4307
10469SOL    HW132306   0.830   1.053   5.460 -3.2424  0.5585 -2.5621
10469SOL    HW232307   0.827   1.167   5.577  3.2852 -0.8623 -0.5830
10470SOL     OW32308   0.877   4.804   3.429  0.1793  0.3440 -0.2646
10470SOL    HW132309   0.843   4.893   3.459 -1.4907  0.8614 -3.2521
10470SOL    HW232310   0.811   4.733   3.453  0.3882  0.2544  0.0545
10471SOL     OW32311   2.665   5.550   0.785 -0.9458  0.7921 -0.9183
10471SOL    HW132312   2.759   5.580   0.801 -1.0796  1.7254 -1.7441
10471SOL    HW232313   2.601   5.613   0.830 -1.1865  0.2104 -0.4304
10472SOL     OW32314   6.222   4.778   5.389 -0.6405  0.0798 -0.1297
10472SOL    HW132315   6.253   4.869   5.417 -0.4785 -0.3350  1.0974
10472SOL    HW232316   6.228   4.770   5.290  0.0646  1.1437 -0.1902
10473SOL     OW32317   5.782   6.405   6.468 -0.2743  0.4979  0.0497
10473SOL    HW132318   5.838   6.384   6.549 -1.7399  0.1340  1.0084
10473SOL    HW232319   5.837   6.393   6.386  0.7791 -0.7974  0.9058
10474SOL     OW32320   6.004   0.738   3.969  0.4474 -0.5421 -0.3329
10474SOL    HW132321   6.101   0.728   3.947  0.4475 -0.1363 -0.5261
10474SOL    HW232322   5.962   0.803   3.906 -0.1541 -1.4036 -0.8522
10475SOL     OW32323   0.094   4.730   1.060  0.5255 -0.2597  0.1182
10475SOL    HW132324   0.010   4.719   1.007  0.1822 -0.6914  0.7366
10475SOL    HW232325   0.173   4.731   0.999 -0.0464  2.5312 -0.7390
10476SOL     OW32326   5.232   0.371   0.566  0.0167 -0.3358 -0.0546
10476SOL    HW132327   5.153   0.339   0.513  0.0459  1.4674 -1.2552
10476SOL    HW232328   5.201   0.400   0.656 -0.8580  1.0135 -0.7519
10477SOL     OW32329   0.929   6.082   2.189 -0.2996  0.1010 -0.4421
10477SOL    HW132330   0.861   6.128   2.133 -0.4432  0.6406  0.1736
10477SOL    HW232331   1.021   6.115   2.165 -0.3140 -0.0597 -0.7260
10478SOL     OW32332   5.408   0.695   6.868 -0.2157  0.0514 -0.2067
10478SOL    HW132333   5.502   0.676   6.896 -0.0812  0.9780 -0.0161
10478SOL    HW232334   5.406   0.778   6.812 -0.4395 -1.7481 -3.1089
10479SOL     OW32335   5.844   3.255   2.154 -0.4642  0.1481  0.0692
10479SOL    HW132336   5.797   3.272   2.068  1.6491  1.1677 -0.9515
10479SOL    HW232337   5.824   3.329   2.218 -0.8527  0.1687 -0.0729
10480SOL     OW32338   2.139   2.099   3.449 -0.5501  0.6660  0.3018
10480SOL    HW132339   2.116   2.194   3.430  0.3768  0.4887 -1.8798
10480SOL    HW232340   2.056   2.043   3.441 -1.0529  1.2246  1.3781
10481SOL     OW32341   5.748   1.459   0.816  0.2916  0.1223 -0.3943
10481SOL    HW132342   5.725   1.361   0.815  0.2993  0.0927  0.8536
10481SOL    HW232343   5.832   1.472   0.869 -0.9311  1.0362  1.4071
10482SOL     OW32344   4.621   4.766   3.839  0.3229  0.1515 -0.3219
10482SOL    HW132345   4.552   4.709   3.796 -0.2401  0.7682 -0.2473
10482SOL    HW232346   4.604   4.772   3.937  1.1995 -0.6836 -0.0963
10483SOL     OW32347   6.673   6.343   1.832  0.3078  0.5618 -0.3443
10483SOL    HW132348   6.753   6.346   1.772  2.4766  0.9815  2.3446
10483SOL    HW232349   6.621   6.428   1.822  1.0226  0.9246 -1.1004
10484SOL     OW32350   6.436   0.962   1.537  0.2245  0.3082 -0.5056
10484SOL    HW132351   6.502   1.035   1.554  1.3073 -0.2464 -2.0932
10484SOL    HW232352   6.374   0.989   1.464  0.8675 -0.4918 -1.3583
10485SOL     OW32353   5.496   3.428   6.219 -0.1236 -0.0742 -0.9360
10485SOL    HW132354   5.550   3.509   6.197  1.4912  0.2212  3.3569
10485SOL    HW232355   5.551   3.346   6.204 -0.9220 -0.3149 -2.9013
10486SOL     OW32356   0.279   3.464   0.902 -0.3444 -0.4649 -1.0478
10486SOL    HW132357   0.182   3.441   0.907  0.2788 -3.1405  0.5321
10486SOL    HW232358   0.289   3.563   0.909 -2.8189 -0.2462  3.7834
10487SOL     OW32359   4.639   6.038   1.742  0.1185 -0.4052 -0.0505
10487SOL    HW132360   4.661   6.136   1.735 -1.4360 -0.1016 -1.3763
10487SOL    HW232361   4.723   5.985   1.734  0.8095  0.7858 -1.3543
10488SOL     OW32362   2.199   4.298   1.177 -0.0693  0.0151  0.1813
10488SOL    HW132363   2.262   4.332   1.247  1.1759 -0.2684 -0.7737
10488SOL    HW232364   2.152   4.217   1.212 -0.1429  0.3975  1.0089
10489SOL     OW32365   0.836   6.241   5.646 -0.2697  0.4679 -0.2596
10489SOL    HW132366   0.850   6.179   5.723 -0.4821 -1.0125 -1.3671
10489SOL    HW232367   0.924   6.276   5.614  0.1194 -1.1302 -1.0676
10490SOL     OW32368   1.808   0.983   3.080 -0.1185  0.3684 -0.1240
10490SOL    HW132369   1.778   1.015   2.989  0.4143  3.1802  0.5896
10490SOL    HW232370   1.904   0.956   3.076 -0.3533 -0.4442 -0.5715
10491SOL     OW32371   1.655   5.099   5.712  0.0059 -0.1777 -0.0522
10491SOL    HW132372   1.740   5.150   5.698  1.2425 -2.0838  0.1429
10491SOL    HW232373   1.650   5.067   5.807 -1.2815  0.4602  0.1234
10492SOL     OW32374   3.746   2.234   6.658  0.2082 -0.1733 -0.1832
10492SOL    HW132375   3.760   2.166   6.731  0.3596 -1.0926 -1.0368
10492SOL    HW232376   3.793   2.319   6.682  0.1485 -0.4134  0.8404
10493SOL     OW32377   4.060   0.611   6.877  0.6222  0.0652 -0.0321
10493SOL    HW132378   4.062   0.605   6.976  1.0747  0.0498 -0.0413
10493SOL    HW232379   4.146   0.577   6.839  0.8950  1.0872 -0.3715
10494SOL     OW32380   6.206   4.605   3.637  0.3935  0.0190 -0.0340
10494SOL    HW132381   6.180   4.639   3.727 -0.9969 -0.2520 -0.3165
10494SOL    HW232382   6.125   4.596   3.580  1.1511 -0.6265 -1.0385
10495SOL     OW32383   2.167   0.083   6.681  0.6471 -0.1281  0.2116
10495SOL    HW132384   2.138   0.108   6.589  1.4692 -2.1747 -0.6453
10495SOL    HW232385   2.089   0.088   6.743 -0.0870  0.5153 -0.7389
10496SOL     OW32386   6.638   5.899   6.368 -0.4028  0.3938 -1.2521
10496SOL    HW132387   6.723   5.848   6.387  0.0191  1.6885  0.5806
10496SOL    HW232388   6.647   5.947   6.282  0.2663 -0.4148 -1.6511
10497SOL     OW32389   1.121   0.815   0.122  0.5739  0.7236 -0.0509
10497SOL    HW132390   1.140   0.820   0.220  0.3113 -0.5851  0.0844
10497SOL    HW232391   1.163   0.733   0.084 -0.8615  0.2501 -0.6631
10498SOL     OW32392   5.014   4.797   6.258  0.3721 -0.1784  0.1113
10498SOL    HW132393   5.019   4.844   6.170 -1.1875  0.6577  0.4223
10498SOL    HW232394   5.067   4.849   6.326  0.7326 -0.2637 -0.1023
10499SOL     OW32395   2.878   5.668   3.650  0.4701 -0.5191  0.5704
10499SOL    HW132396   2.832   5.591   3.693  0.2698 -0.3417  0.6773
10499SOL    HW232397   2.810   5.735   3.619  0.5523 -0.9898 -0.7140
10500SOL     OW32398   1.222   1.389   1.443 -0.1628 -0.4851 -0.2751
10500SOL    HW132399   1.307   1.387   1.390 -0.9058 -0.3649 -1.5106
10500SOL    HW232400   1.169   1.306   1.424 -0.5781 -0.2977  0.0518
10501SOL     OW32401   6.997   4.186   1.370  0.2943 -0.6076  0.6853
10501SOL    HW132402   7.013   4.100   1.419  0.1018 -2.8315 -2.7502
10501SOL    HW232403   6.899   4.198   1.355  0.3650 -0.1770  0.5523
10502SOL     OW32404   2.251   0.361   5.145  0.5988 -0.0931 -0.3631
10502SOL    HW132405   2.197   0.360   5.230 -0.1301 -0.8397 -0.8242
10502SOL    HW232406   2.201   0.413   5.075  0.7910 -0.2230 -0.5965
10503SOL     OW32407   3.273   3.343   4.638 -0.2389  0.0696  0.0947
10503SOL    HW132408   3.216   3.415   4.677 -1.3138 -2.2873  3.2087
10503SOL    HW232409   3.219   3.288   4.575 -1.3201 -1.6066  2.3561
10504SOL     OW32410   2.139   2.386   2.048  0.3990 -0.2689  0.2735
10504SOL    HW132411   2.098   2.421   1.964  0.5091 -3.1154 -1.0857
10504SOL    HW232412   2.238   2.400   2.045  0.3434  0.1199  0.1925
10505SOL     OW32413   0.683   6.472   2.195  0.0193 -0.6034 -0.5051
10505SOL    HW132414   0.606   6.503   2.251 -1.1190  0.0569 -2.3504
10505SOL    HW232415   0.748   6.547   2.183  0.7201 -1.0090  0.6281
10506SOL     OW32416   1.024   5.128   6.468 -0.3667 -0.2418  0.6128
10506SOL    HW132417   1.076   5.143   6.383  0.5097 -2.6665  0.6438
10506SOL    HW232418   1.087   5.132   6.546 -1.2214  2.3219  1.2821
10507SOL     OW32419   0.528   6.510   5.773 -0.5960  0.0991  0.2622
10507SOL    HW132420   0.627   6.521   5.760 -0.1762 -2.6439  0.5304
10507SOL    HW232421   0.484   6.498   5.684 -0.8829  2.2381  0.0661
10508SOL     OW32422   6.790   4.429   1.752 -0.1815  0.2600 -0.1542
10508SOL    HW132423   6.875   4.423   1.804 -1.0261 -0.7722  1.1811
10508SOL    HW232424   6.765   4.338   1.718 -1.8945  0.0785  1.4413
10509SOL     OW32425   2.582   1.906   5.927 -0.1747 -0.3686 -0.4503
10509SOL    HW132426   2.639   1.857   5.861  2.5771  0.3044  1.2726
10509SOL    HW232427   2.568   2.000   5.896  0.8141 -0.1543 -0.2861
10510SOL     OW32428   5.610   5.344   1.136 -0.1221 -0.0356 -0.4496
10510SOL    HW132429   5.566   5.260   1.104 -0.8309 -0.1783  0.8329
10510SOL    HW232430   5.545   5.419   1.130 -0.3552 -0.1195  0.8611
10511SOL     OW32431   0.425   4.481   2.565 -0.7775  0.2142  0.3242
10511SOL    HW132432   0.510   4.460   2.614 -0.4906 -0.2722 -0.3567
10511SOL    HW232433   0.389   4.569   2.596 -0.8252 -0.2552  1.6876
10512SOL     OW32434   3.151   5.540   6.723  0.3511  0.2277 -0.4505
10512SOL    HW132435   3.224   5.588   6.674  1.7092  0.6862  1.8739
10512SOL    HW232436   3.175   5.444   6.734  0.2989  0.2408 -0.2237
10513SOL     OW32437   5.756   3.439   5.463  0.1441 -0.3760  0.3851
10513SOL    HW132438   5.705   3.359   5.494 -0.6283 -0.2658 -0.5449
10513SOL    HW232439   5.699   3.521   5.472  1.0822  0.1607  1.7506
10514SOL     OW32440   5.690   2.922   1.113  0.1157  0.4563 -0.1099
10514SOL    HW132441   5.641   2.961   1.035  0.4686 -3.5220 -2.5915
10514SOL    HW232442   5.704   2.824   1.099  2.6265  0.0040  3.7854
10515SOL     OW32443   6.469   2.164   4.646 -0.0686 -0.4445 -0.1136
10515SOL    HW132444   6.482   2.084   4.588 -0.9759  0.6209 -1.8898
10515SOL    HW232445   6.381   2.159   4.692 -0.6966  0.0514 -1.2029
10516SOL     OW32446   3.369   6.123   5.341 -0.8526  0.1989 -0.8889
10516SOL    HW132447   3.332   6.056   5.277 -1.4566 -0.9217  0.5734
10516SOL    HW232448   3.294   6.177   5.380 -0.3089  2.5068 -2.7846
10517SOL     OW32449   0.538   0.943   3.683 -0.3989 -0.1729 -0.4603
10517SOL    HW132450   0.623   0.906   3.646  0.6743  0.0622  1.6703
10517SOL    HW232451   0.516   1.028   3.635  1.6645  0.8217  0.2527
10518SOL     OW32452   2.969   6.875   0.589 -0.2481 -0.3504 -0.3464
10518SOL    HW132453   2.962   6.974   0.581  2.0794 -0.0414  0.4608
10518SOL    HW232454   2.914   6.844   0.667  0.7233  0.6440  0.7805
10519SOL     OW32455   3.106   3.555   6.035 -0.1709 -0.4849  0.6504
10519SOL    HW132456   3.175   3.574   5.965 -1.3072 -0.7377 -0.5781
10519SOL    HW232457   3.033   3.623   6.030  0.3683  0.2933  2.5154
10520SOL     OW32458   3.330   3.273   5.506 -0.3716  0.6725 -0.1924
10520SOL    HW132459   3.257   3.315   5.451  0.4280  0.0988 -1.7429
10520SOL    HW232460   3.419   3.309   5.475  0.2085 -0.9089 -0.4337
10521SOL     OW32461   5.645   6.663   0.223 -0.2086  0.3355  0.6119
10521SOL    HW132462   5.618   6.591   0.159 -0.1863  0.5590  0.3507
10521SOL    HW232463   5.565   6.697   0.272 -0.5045  1.3883 -0.5633
10522SOL     OW32464   5.675   0.217   2.488 -0.1220 -0.6119 -0.0249
10522SOL    HW132465   5.731   0.300   2.478 -1.3501  0.0534 -1.9725
10522SOL    HW232466   5.707   0.164   2.567  0.7851  1.6370  1.2047
10523SOL     OW32467   0.100   5.752   6.434  0.2702 -0.0914 -0.3480
10523SOL    HW132468   0.123   5.773   6.529  2.7264 -0.9057 -0.6919
10523SOL    HW232469   0.158   5.677   6.402 -1.2186 -0.5253 -2.2105
10524SOL     OW32470   5.265   0.075   4.218  0.0492  0.4009 -0.0915
10524SOL    HW132471   5.338   0.136   4.188 -0.9017  0.6978 -1.9979
10524SOL    HW232472   5.283  -0.018   4.186  0.5169  0.0657  1.0985
10525SOL     OW32473   3.410   6.911   4.487  0.3063  0.1593 -0.0807
10525SOL    HW132474   3.390   6.829   4.434 -1.1798 -0.3491  1.1937
10525SOL    HW232475   3.358   6.988   4.450 -1.6447 -0.4480  1.2515
10526SOL     OW32476   0.023   5.280   2.250 -0.0133 -0.1716  0.0025
10526SOL    HW132477   0.040   5.376   2.227  0.3912 -0.3952 -0.6553
10526SOL    HW232478  -0.007   5.231   2.168  3.2679 -1.4254 -0.6107
10527SOL     OW32479   6.653   0.340   2.334  0.8231 -0.0430 -0.2557
10527SOL    HW132480   6.689   0.360   2.425  1.7815 -1.6811 -0.2299
10527SOL    HW232481   6.620   0.424   2.292 -0.8639  0.5643  2.1040
10528SOL     OW32482   5.806   5.406   4.710  0.3433  0.3845 -0.2040
10528SOL    HW132483   5.759   5.365   4.788 -0.1518 -1.8978 -1.5939
10528SOL    HW232484   5.774   5.500   4.697  0.3818  0.7864  2.2429
10529SOL     OW32485   6.954   4.857   4.000  0.1881  0.0503  0.2981
10529SOL    HW132486   7.033   4.902   3.960 -0.3883  0.4928 -0.3762
10529SOL    HW232487   6.982   4.771   4.043  0.7760 -0.6741 -1.4642
10530SOL     OW32488   1.141   1.849   6.922 -0.6496  0.4204 -0.6447
10530SOL    HW132489   1.192   1.834   6.837 -1.7314  1.2512 -1.4635
10530SOL    HW232490   1.196   1.903   6.985 -0.6118  1.5846 -1.6427
10531SOL     OW32491   1.653   3.512   6.485 -0.7374  0.3369 -0.0899
10531SOL    HW132492   1.558   3.535   6.463 -1.4144 -1.6191  0.5031
10531SOL    HW232493   1.659   3.413   6.504  1.1030  0.7049  1.5483
10532SOL     OW32494   3.536   2.928   5.508  0.5309 -0.2040  0.2186
10532SOL    HW132495   3.626   2.942   5.548  0.9888  1.4022 -1.2366
10532SOL    HW232496   3.540   2.945   5.410 -0.9864 -1.9301 -0.1922
10533SOL     OW32497   4.022   6.841   5.769 -0.1721 -0.0963  0.5733
10533SOL    HW132498   4.018   6.743   5.787 -0.6740 -0.2331 -0.2530
10533SOL    HW232499   4.094   6.882   5.825  0.7425 -1.1097  0.1753
10534SOL     OW32500   3.968   0.642   2.604 -0.7892  0.2546  0.5701
10534SOL    HW132501   4.065   0.651   2.626 -1.3279  2.0847  2.5219
10534SOL    HW232502   3.941   0.718   2.545 -1.0039 -0.3754 -0.1519
10535SOL     OW32503   0.923   0.632   4.223  0.0605 -0.0354  0.4412
10535SOL    HW132504   0.937   0.691   4.303 -0.8847 -0.4888  0.9562
10535SOL    HW232505   0.856   0.562   4.245  1.2500 -1.4008 -0.1216
10536SOL     OW32506   3.265   6.488   0.771  0.2131  0.4923  0.2575
10536SOL    HW132507   3.187   6.536   0.731  0.9117  0.5780 -1.0262
10536SOL    HW232508   3.312   6.550   0.834 -0.4345  0.6110  0.6372
10537SOL     OW32509   6.722   4.064   2.087 -1.1678 -0.0594  0.7990
10537SOL    HW132510   6.696   4.057   1.990  0.2541  2.5477  0.1499
10537SOL    HW232511   6.674   4.141   2.129  0.0800  0.3748  1.4796
10538SOL     OW32512   5.821   4.038   0.233 -0.4953  0.6054 -0.2366
10538SOL    HW132513   5.897   4.033   0.168  0.7471  2.0799  1.0019
10538SOL    HW232514   5.856   4.022   0.325 -1.7803  0.8702  0.3167
10539SOL     OW32515   2.205   4.858   6.381 -0.5320  0.3200 -0.5284
10539SOL    HW132516   2.241   4.907   6.302  1.3908 -0.1151  0.0225
10539SOL    HW232517   2.156   4.777   6.351 -0.3270  0.4763 -1.2992
10540SOL     OW32518   6.000   6.456   0.473 -0.0947 -0.1754  0.2980
10540SOL    HW132519   6.089   6.482   0.436 -0.0921 -0.3063  0.2096
10540SOL    HW232520   6.014   6.397   0.552 -0.0981 -1.3555 -0.5520
10541SOL     OW32521   3.437   4.160   6.524  0.5790 -0.5456  0.4233
10541SOL    HW132522   3.347   4.191   6.554  1.4323  1.3753  1.0984
10541SOL    HW232523   3.426   4.085   6.458 -1.6225  1.2640 -1.4415
10542SOL     OW32524   1.106   1.790   6.045 -0.0383 -0.1288 -0.6092
10542SOL    HW132525   1.014   1.750   6.045  0.4556 -1.2920 -1.5296
10542SOL    HW232526   1.099   1.889   6.030 -1.4162  0.6156  3.5086
10543SOL     OW32527   3.368   1.394   5.324  0.0336 -0.8724  0.1918
10543SOL    HW132528   3.311   1.420   5.402  0.1046  1.9792 -0.5878
10543SOL    HW232529   3.321   1.324   5.270 -1.8429 -0.0216  0.6453
10544SOL     OW32530   0.504   3.188   0.993  0.4494  0.1240  0.5302
10544SOL    HW132531   0.500   3.093   0.964  0.5475 -0.1351  1.3372
10544SOL    HW232532   0.502   3.248   0.913 -2.0867 -0.4728  0.0543
10545SOL     OW32533   5.952   6.860   2.210 -0.1047  0.5355 -0.1433
10545SOL    HW132534   5.975   6.902   2.298  0.3037  0.5950 -0.2790
10545SOL    HW232535   5.975   6.922   2.136  1.1057 -0.1769 -0.3818
10546SOL     OW32536   2.923   2.172   3.582 -0.2350  0.1324  0.4944
10546SOL    HW132537   2.983   2.212   3.651 -0.5292  0.8947  0.3157
10546SOL    HW232538   2.915   2.074   3.598 -2.3495  0.6300  3.1695
10547SOL     OW32539   4.465   1.487   6.276  0.4419  0.1217 -0.4632
10547SOL    HW132540   4.504   1.530   6.194 -0.2485  0.6688 -0.5155
10547SOL    HW232541   4.365   1.488   6.269  0.3491  0.9533  0.7703
10548SOL     OW32542   4.515   4.937   4.603  0.2541  0.5595 -0.0203
10548SOL    HW132543   4.441   4.921   4.668  1.3475 -0.1109  1.1217
10548SOL    HW232544   4.492   4.898   4.514 -0.9334  0.7666  0.1860
10549SOL     OW32545   1.331   0.055   2.788 -0.0639 -0.0158 -0.4768
10549SOL    HW132546   1.281  -0.025   2.821  0.1956  0.8117  2.1343
10549SOL    HW232547   1.411   0.071   2.846  1.9372  0.1302 -3.0759
10550SOL     OW32548   4.395   0.970   5.761  0.5805 -0.1754  0.4698
10550SOL    HW132549   4.334   0.894   5.742  0.9508 -0.0691 -1.3323
10550SOL    HW232550   4.488   0.936   5.771  0.8807  0.0925 -1.1932
10551SOL     OW32551   1.783   2.821   5.809  0.0838 -0.1628  0.3989
10551SOL    HW132552   1.769   2.851   5.903 -0.1994  0.0659  0.2874
10551SOL    HW232553   1.707   2.854   5.752  0.8197  0.6544 -0.1285
10552SOL     OW32554   3.262   2.123   4.106 -0.1614 -0.0381 -0.4011
10552SOL    HW132555   3.223   2.031   4.101 -0.1762 -0.0418 -0.2190
10552SOL    HW232556   3.193   2.190   4.079 -0.2806 -0.0480 -0.1214
10553SOL     OW32557   3.848   3.982   6.412 -0.9201 -0.4542  0.3030
10553SOL    HW132558   3.784   4.047   6.453 -0.4891  1.5310 -1.9196
10553SOL    HW232559   3.801   3.932   6.339 -0.3440 -0.0363 -0.3645
10554SOL     OW32560   5.269   5.903   4.478 -0.3175 -0.5040  0.3688
10554SOL    HW132561   5.318   5.947   4.403 -1.1882 -2.6427 -1.5714
10554SOL    HW232562   5.326   5.902   4.560  2.1224 -1.1506 -1.2338
10555SOL     OW32563   2.751   1.217   6.977 -0.0901  0.0251  0.2799
10555SOL    HW132564   2.750   1.285   6.904 -2.7230 -0.9833 -0.7566
10555SOL    HW232565   2.807   1.138   6.948 -3.2302 -1.5713 -2.0179
10556SOL     OW32566   1.355   3.672   4.298 -0.3694 -0.2047  0.6414
10556SOL    HW132567   1.364   3.761   4.342 -0.8498 -0.7911  1.9674
10556SOL    HW232568   1.267   3.631   4.323 -0.1541 -1.0521  0.0530
10557SOL     OW32569   6.114   3.690   5.911  0.3353 -0.1522  0.4389
10557SOL    HW132570   6.121   3.757   5.837  0.7491 -0.8932 -0.2081
10557SOL    HW232571   6.022   3.692   5.949  0.3972  0.9209  0.5735
10558SOL     OW32572   3.929   4.856   3.783 -0.0005 -0.0169 -0.0051
10558SOL    HW132573   3.980   4.780   3.823 -0.8936 -0.9681 -0.6262
10558SOL    HW232574   3.944   4.938   3.837  1.9936 -0.3184 -0.0465
10559SOL     OW32575   4.845   3.120   7.006  0.0238 -0.3641  0.1100
10559SOL    HW132576   4.859   3.066   6.923  0.3371 -2.7148  1.5744
10559SOL    HW232577   4.905   3.199   7.006  2.8197 -2.3448 -0.2983
10560SOL     OW32578   1.446   1.910   3.753  0.3452 -0.2676  0.1390
10560SOL    HW132579   1.373   1.854   3.716 -0.5537  0.9073  0.0871
10560SOL    HW232580   1.534   1.865   3.736 -0.3751 -1.9663  0.6962
10561SOL     OW32581   2.321   6.649   4.974 -0.0576 -0.1895 -0.2364
10561SOL    HW132582   2.269   6.731   4.949  0.3631  0.9893  2.4516
10561SOL    HW232583   2.409   6.675   5.012  0.7366 -1.9976 -0.7132
10562SOL     OW32584   3.369   2.143   0.858 -0.3534 -0.2647 -0.9400
10562SOL    HW132585   3.358   2.096   0.771 -1.3905 -0.7934 -0.5438
10562SOL    HW232586   3.376   2.075   0.932 -0.0867  0.1780 -0.5521
10563SOL     OW32587   2.766   3.249   5.748 -0.3909  0.1998  0.0548
10563SOL    HW132588   2.818   3.333   5.760  0.6131 -0.3589 -0.3312
10563SOL    HW232589   2.802   3.179   5.810 -0.5898 -0.2351 -0.3208
10564SOL     OW32590   5.386   1.394   3.036  0.1429 -0.4642  0.2154
10564SOL    HW132591   5.450   1.453   2.987  2.0084 -1.3930  1.3870
10564SOL    HW232592   5.328   1.346   2.970  2.0438 -1.1008 -1.1036
10565SOL     OW32593   4.652   0.983   3.936  0.3551  0.1658 -0.3167
10565SOL    HW132594   4.639   0.943   4.026 -1.3821  1.0948 -0.1153
10565SOL    HW232595   4.603   1.070   3.930  1.9820  1.0568 -1.5563
10566SOL     OW32596   3.143   3.740   0.006 -0.6864  0.1040  0.9021
10566SOL    HW132597   3.177   3.832   0.026 -0.4740  0.0495  0.7989
10566SOL    HW232598   3.194   3.702  -0.071  0.4068 -0.7721  2.0152
10567SOL     OW32599   0.661   5.460   1.960 -0.2322  0.6209 -0.2867
10567SOL    HW132600   0.738   5.486   2.019  0.9202  1.5039 -2.1046
10567SOL    HW232601   0.687   5.382   1.904 -0.6392  0.9367 -0.9214
10568SOL     OW32602   4.554   2.270   3.075  0.4911  0.3388  0.0166
10568SOL    HW132603   4.535   2.302   2.982  0.0882 -0.0478 -0.0388
10568SOL    HW232604   4.501   2.324   3.140 -0.7738 -0.6661 -0.1300
10569SOL     OW32605   5.864   3.347   2.886 -0.8139  0.4769 -0.0918
10569SOL    HW132606   5.918   3.429   2.867 -0.8430  0.1956 -1.5233
10569SOL    HW232607   5.924   3.274   2.917 -0.5389  0.5395 -0.4639
10570SOL     OW32608   2.074   3.817   2.569  0.0261  0.5120 -0.1849
10570SOL    HW132609   2.099   3.720   2.576  0.5503  0.6539 -0.0420
10570SOL    HW232610   2.004   3.838   2.636 -0.6647  0.0514 -0.7517
10571SOL     OW32611   5.758   6.922   3.754 -0.4750  0.7347 -0.6347
10571SOL    HW132612   5.820   6.915   3.676 -1.2226 -0.6611 -1.1480
10571SOL    HW232613   5.691   6.994   3.737  0.8253  2.1121 -0.1687
10572SOL     OW32614   6.299   3.053   0.561  0.3947 -0.0885 -0.3909
10572SOL    HW132615   6.353   3.085   0.483  0.2185  0.0674 -0.4515
10572SOL    HW232616   6.313   2.955   0.573 -0.3651 -0.3194 -1.2575
10573SOL     OW32617   0.093   3.139   4.089 -0.5453 -0.0323  0.2013
10573SOL    HW132618   0.128   3.055   4.129 -1.7138 -0.1344  1.0637
10573SOL    HW232619   0.001   3.123   4.053  0.1988  0.2330 -1.9465
10574SOL     OW32620   0.502   0.886   2.306  0.4797  0.5788  0.0288
10574SOL    HW132621   0.584   0.865   2.360 -0.7525 -0.3003  1.6513
10574SOL    HW232622   0.528   0.898   2.210  2.6300  1.2814  0.6320
10575SOL     OW32623   2.128   0.503   0.324 -0.1524 -0.5277  0.1738
10575SOL    HW132624   2.092   0.522   0.415 -0.7958  0.2060 -0.2184
10575SOL    HW232625   2.098   0.574   0.261  0.9558 -0.5878 -0.4463
10576SOL     OW32626   3.011   5.722   4.025  0.0234 -0.3586  0.3348
10576SOL    HW132627   3.089   5.674   3.985 -0.0249  0.7706 -1.2049
10576SOL    HW232628   2.926   5.677   3.996 -0.0319  0.7648 -1.3137
10577SOL     OW32629   0.234   2.570   6.079  0.2751 -0.7597  0.3338
10577SOL    HW132630   0.327   2.562   6.045  0.6463  2.2990  0.3731
10577SOL    HW232631   0.170   2.566   6.002  0.6409 -0.0737 -0.0070
10578SOL     OW32632   5.494   0.377   5.079  0.2408  0.2711  0.4047
10578SOL    HW132633   5.411   0.371   5.023 -0.3165  0.3734  1.2097
10578SOL    HW232634   5.515   0.473   5.098 -0.3974  0.1873  1.5770
10579SOL     OW32635   5.967   0.349   0.186  0.0265 -0.3638  0.1198
10579SOL    HW132636   6.022   0.266   0.190 -0.2288 -0.5200  0.4991
10579SOL    HW232637   5.887   0.335   0.127  1.4149  0.4978 -2.0742
10580SOL     OW32638   5.868   4.898   1.039  0.4977 -0.6828 -0.1491
10580SOL    HW132639   5.831   4.810   1.012 -1.3630 -0.5281  1.6128
10580SOL    HW232640   5.820   4.971   0.991 -0.9846 -0.5168  1.4838
10581SOL     OW32641   0.155   1.057   3.718  0.0908 -0.4531  0.2252
10581SOL    HW132642   0.204   1.132   3.762  1.4478 -1.6177  0.7795
10581SOL    HW232643   0.120   1.088   3.630  0.6742  0.8099  0.4038
10582SOL     OW32644   3.070   3.211   6.996 -0.3774 -0.0864 -0.0123
10582SOL    HW132645   3.134   3.280   7.028  1.3407 -2.0406  1.0440
10582SOL    HW232646   3.009   3.184   7.071 -0.1798 -0.5956 -0.0269
10583SOL     OW32647   4.719   2.247   1.443  0.0938 -0.5975  0.2622
10583SOL    HW132648   4.632   2.265   1.398  0.4929  2.0784  0.3701
10583SOL    HW232649   4.791   2.240   1.374  0.2304  0.3006  0.3036
10584SOL     OW32650   6.266   6.590   0.482  0.4240  0.2057 -0.0086
10584SOL    HW132651   6.273   6.504   0.533  0.7226 -1.7551 -3.1029
10584SOL    HW232652   6.345   6.647   0.502  2.3547 -2.0449 -0.8607
10585SOL     OW32653   1.769   3.540   5.685  0.3702  0.1989  0.3065
10585SOL    HW132654   1.814   3.500   5.765 -3.1243  1.7571  3.3225
10585SOL    HW232655   1.683   3.492   5.668  0.0623  1.2433 -1.2611
10586SOL     OW32656   2.932   1.097   6.576 -0.2801 -0.0202  0.0169
10586SOL    HW132657   2.861   1.083   6.645 -1.2684 -1.2307 -1.1751
10586SOL    HW232658   3.020   1.064   6.610 -0.8938 -1.2599  0.4578
10587SOL     OW32659   5.598   2.215   5.772 -0.6021 -0.4561 -0.2022
10587SOL    HW132660   5.565   2.238   5.680 -3.7197 -0.6718  0.7369
10587SOL    HW232661   5.563   2.283   5.837  2.6782  0.4918  0.7626
10588SOL     OW32662   0.036   6.178   5.099  0.2891  0.5341  0.0600
10588SOL    HW132663   0.078   6.095   5.135  0.4826 -0.0151 -1.3377
10588SOL    HW232664   0.026   6.169   5.000  0.3954  2.2234 -0.1341
10589SOL     OW32665   3.759   6.978   4.803  0.0773 -0.0677  0.2019
10589SOL    HW132666   3.853   7.008   4.818  0.3827  0.4050 -2.1701
10589SOL    HW232667   3.760   6.892   4.751 -0.8008 -0.3078  0.5685
10590SOL     OW32668   0.747   1.129   6.270  0.2440 -0.2135  0.1605
10590SOL    HW132669   0.743   1.063   6.195 -0.9407 -0.3839  0.3529
10590SOL    HW232670   0.759   1.081   6.357 -2.1865 -0.3722  0.4853
10591SOL     OW32671   6.600   2.694   6.913 -0.2597  0.3368 -0.0018
10591SOL    HW132672   6.535   2.770   6.907 -0.5812 -0.0503 -1.8055
10591SOL    HW232673   6.555   2.610   6.884  0.9013 -0.0263 -0.8169
10592SOL     OW32674   6.515   1.269   5.911 -0.5894 -0.2598  0.2116
10592SOL    HW132675   6.597   1.255   5.966  0.4137 -1.8542 -1.5614
10592SOL    HW232676   6.541   1.306   5.821 -1.6683 -1.7033 -0.7295
10593SOL     OW32677   0.590   3.875   0.740  0.5273 -0.8777  0.0163
10593SOL    HW132678   0.643   3.802   0.697 -0.0660 -2.5865  1.9843
10593SOL    HW232679   0.651   3.950   0.765  1.2289 -0.8395 -1.6621
10594SOL     OW32680   1.854   1.006   4.612 -0.8081  0.1915 -0.4699
10594SOL    HW132681   1.759   1.036   4.623 -1.0303 -1.0042  1.2284
10594SOL    HW232682   1.910   1.083   4.581 -1.5781  2.0415  2.4271
10595SOL     OW32683   1.889   5.401   4.242 -0.1867 -0.1004 -0.0857
10595SOL    HW132684   1.940   5.393   4.157  0.2667  0.1997  0.1522
10595SOL    HW232685   1.944   5.450   4.310 -0.6977  0.0199  0.2527
10596SOL     OW32686   3.425   0.988   1.713 -0.3932  0.2374  0.3262
10596SOL    HW132687   3.347   1.050   1.714 -0.0591  0.7109 -0.9745
10596SOL    HW232688   3.510   1.040   1.725 -0.2358 -0.2410  1.4450
10597SOL     OW32689   1.122   0.196   5.414 -0.1284 -0.3818 -0.2303
10597SOL    HW132690   1.209   0.245   5.418 -1.1241  1.4123  0.6520
10597SOL    HW232691   1.065   0.233   5.340 -0.9473 -0.0682  0.5334
10598SOL     OW32692   2.726   0.850   0.836  0.1213 -0.3019 -0.3534
10598SOL    HW132693   2.825   0.836   0.831  0.0560 -0.5053 -1.3034
10598SOL    HW232694   2.682   0.766   0.869  0.3176  0.0391  0.8216
10599SOL     OW32695   4.536   1.567   1.357 -0.4387 -0.2152  0.6096
10599SOL    HW132696   4.543   1.667   1.357  0.2272 -0.2569  1.0687
10599SOL    HW232697   4.627   1.527   1.348 -0.7772 -0.7915 -0.3858
10600SOL     OW32698   0.673   2.706   0.352  0.2463 -0.1274  0.6091
10600SOL    HW132699   0.716   2.693   0.262 -2.3487 -0.2632 -0.7219
10600SOL    HW232700   0.656   2.617   0.394 -2.3409 -0.4046 -0.8001
10601SOL     OW32701   3.666   5.900   0.520  0.5035  0.0180  0.0443
10601SOL    HW132702   3.604   5.927   0.446  1.0812  1.4570  0.0490
10601SOL    HW232703   3.625   5.923   0.608  0.1056 -1.0829  0.1639
10602SOL     OW32704   4.922   0.251   2.647  0.4872 -0.1924  0.2070
10602SOL    HW132705   4.879   0.340   2.635 -0.0513 -0.3962  0.5987
10602SOL    HW232706   5.021   0.262   2.651  0.6187  0.1106 -2.3403
10603SOL     OW32707   1.300   5.588   4.715  0.2410 -0.1083  0.2279
10603SOL    HW132708   1.202   5.573   4.730  0.2023 -0.9923 -0.7701
10603SOL    HW232709   1.339   5.508   4.669  1.3621  0.3920  0.2759
10604SOL     OW32710   6.759   6.163   6.039  0.1634  0.1196 -0.3103
10604SOL    HW132711   6.789   6.199   5.951  0.5142  1.5433  0.3453
10604SOL    HW232712   6.771   6.064   6.041  2.3389  0.3005 -1.0732
10605SOL     OW32713   2.058   4.001   0.502  0.0399  0.2038 -0.7045
10605SOL    HW132714   2.143   3.949   0.510  0.3476  0.9350  1.0618
10605SOL    HW232715   2.045   4.029   0.406  0.6011 -1.8330 -1.4218
10606SOL     OW32716   1.746   0.435   2.140  0.2111 -0.3012  0.3989
10606SOL    HW132717   1.802   0.491   2.201  0.4469 -0.2742  0.1604
10606SOL    HW232718   1.654   0.426   2.177  0.2741 -0.0467  0.6127
10607SOL     OW32719   5.512   6.271   0.356  0.2405 -0.0913 -0.1319
10607SOL    HW132720   5.463   6.358   0.349 -0.8545 -0.7343 -0.9298
10607SOL    HW232721   5.609   6.288   0.373 -0.4745  1.2283  3.3964
10608SOL     OW32722   5.520   1.973   4.451  0.5277  0.3343  0.5335
10608SOL    HW132723   5.491   2.053   4.503 -0.1008  0.3411  0.1811
10608SOL    HW232724   5.520   1.994   4.354 -0.3762 -0.3010  0.3767
10609SOL     OW32725   5.563   0.560   2.455  0.2371  0.2158  0.0263
10609SOL    HW132726   5.510   0.521   2.380  1.0862 -0.4883 -0.2342
10609SOL    HW232727   5.653   0.516   2.458  0.6892  1.1406  0.6519
10610SOL     OW32728   6.639   3.585   4.758  0.0006  0.5544  0.3755
10610SOL    HW132729   6.696   3.541   4.689  2.4962  1.6291  1.5940
10610SOL    HW232730   6.604   3.516   4.821  3.0442  0.0353  1.6982
10611SOL     OW32731   3.482   3.742   6.231  0.4959  0.0510  0.0899
10611SOL    HW132732   3.559   3.738   6.294 -0.8153  0.3808  1.7947
10611SOL    HW232733   3.421   3.664   6.249  0.8662 -0.7451 -1.8684
10612SOL     OW32734   1.475   0.474   5.317  0.2286  0.0339 -0.4345
10612SOL    HW132735   1.434   0.487   5.407 -1.3119  0.3853 -1.1699
10612SOL    HW232736   1.538   0.549   5.297 -1.1336  1.1736 -0.5622
10613SOL     OW32737   6.408   6.329   6.886  0.6841 -0.1728 -0.6075
10613SOL    HW132738   6.338   6.263   6.914  0.1365  1.5807  2.5896
10613SOL    HW232739   6.380   6.372   6.800 -1.3966 -0.6306 -0.2169
10614SOL     OW32740   1.429   1.017   5.104 -0.1972 -0.1450  0.2183
10614SOL    HW132741   1.461   1.011   5.199  0.6858  1.5757  0.0653
10614SOL    HW232742   1.502   1.052   5.046 -1.5596  1.4872 -0.6039
10615SOL     OW32743   6.050   6.914   4.503  0.3919  0.0827 -0.4735
10615SOL    HW132744   5.987   6.991   4.500 -0.0587 -0.1931  1.1036
10615SOL    HW232745   6.083   6.894   4.410 -0.5849  1.2409 -1.0962
10616SOL     OW32746   3.174   5.359   0.057  0.1750 -0.2206  0.2117
10616SOL    HW132747   3.100   5.374   0.123 -1.1088  0.4466 -1.2983
10616SOL    HW232748   3.207   5.448   0.024  1.6619 -0.5127  0.8255
10617SOL     OW32749   0.352   2.600   0.073 -0.0879 -0.4023 -0.4173
10617SOL    HW132750   0.310   2.691   0.074 -0.6084 -0.6175  1.3392
10617SOL    HW232751   0.379   2.576   0.166 -1.7257 -2.8195 -0.4787
10618SOL     OW32752   5.674   2.384   2.116 -0.0978  0.2745 -0.2397
10618SOL    HW132753   5.582   2.394   2.153  0.0231  1.7959 -0.2828
10618SOL    HW232754   5.678   2.304   2.057 -1.1717 -0.2636  0.4013
10619SOL     OW32755   7.012   6.284   3.632  0.2080 -0.6732 -0.0618
10619SOL    HW132756   7.103   6.258   3.600  0.3881 -0.5237  0.3276
10619SOL    HW232757   6.952   6.203   3.632  0.0369 -0.5611 -1.3275
10620SOL     OW32758   1.104   6.173   5.349 -0.3314 -0.2959 -0.2142
10620SOL    HW132759   1.051   6.257   5.354  0.9205  0.4475  1.5104
10620SOL    HW232760   1.200   6.193   5.366  0.1536 -1.9546 -0.7902
10621SOL     OW32761   2.444   1.131   1.007 -0.1598  0.7856  0.0469
10621SOL    HW132762   2.361   1.125   1.064  0.6766  1.3457  1.3796
10621SOL    HW232763   2.521   1.092   1.057  0.1923 -0.9101 -1.6795
10622SOL     OW32764   3.183   0.956   2.298  0.3051  0.0377 -0.3807
10622SOL    HW132765   3.185   1.056   2.301 -0.0461  0.0209  0.5503
10622SOL    HW232766   3.240   0.918   2.370 -2.5693 -0.4004  1.8536
10623SOL     OW32767   5.086   0.690   2.523 -0.1566  0.5066 -0.6944
10623SOL    HW132768   5.074   0.781   2.483 -1.4307  1.6835  2.0468
10623SOL    HW232769   5.014   0.675   2.591  0.6053 -2.1948 -0.4000
10624SOL     OW32770   3.508   6.959   3.769 -0.1316  1.0431 -0.5571
10624SOL    HW132771   3.597   7.003   3.778  0.7330 -0.2840 -2.1230
10624SOL    HW232772   3.469   6.982   3.680  0.1061 -0.8761 -1.1929
10625SOL     OW32773   1.106   5.502   6.392  0.8131 -0.6087 -0.0157
10625SOL    HW132774   1.062   5.575   6.339 -1.5909 -0.9627  1.3381
10625SOL    HW232775   1.117   5.421   6.335 -1.0157 -0.7269 -0.2618
10626SOL     OW32776   0.146   1.506   1.333  0.0709 -0.1959  0.4253
10626SOL    HW132777   0.218   1.551   1.386  1.1891 -0.4664 -0.8157
10626SOL    HW232778   0.069   1.569   1.322  0.8040  0.7173  0.3615
10627SOL     OW32779   5.164   5.887   3.506 -0.0093  0.6196 -0.0794
10627SOL    HW132780   5.071   5.868   3.538  0.0339 -0.3464 -0.5003
10627SOL    HW232781   5.211   5.801   3.489  2.3380  0.8756  3.8475
10628SOL     OW32782   4.520   4.637   6.087  0.8821  0.2096  0.3304
10628SOL    HW132783   4.532   4.560   6.025 -2.5869 -0.3722  0.1548
10628SOL    HW232784   4.424   4.640   6.118  1.1305  3.8148  1.2013
10629SOL     OW32785   2.161   6.389   6.277  0.1227  0.8693  0.2815
10629SOL    HW132786   2.190   6.459   6.212 -0.7565  2.1519  1.2449
10629SOL    HW232787   2.125   6.432   6.359 -0.8710 -0.7169  0.7147
10630SOL     OW32788   6.927   3.127   2.547 -0.4595  0.4673 -0.4847
10630SOL    HW132789   6.950   3.031   2.565 -0.7618  0.4025 -0.4338
10630SOL    HW232790   6.850   3.131   2.484  0.5227  0.6965 -1.6978
10631SOL     OW32791   2.047   6.085   4.517 -0.5634 -0.3890  0.1525
10631SOL    HW132792   2.139   6.051   4.498  0.0354  1.1161  0.2013
10631SOL    HW232793   1.983   6.052   4.448  0.1236 -0.9803 -0.2070
10632SOL     OW32794   1.693   2.543   4.518  0.4469  0.2247  0.1945
10632SOL    HW132795   1.665   2.625   4.468 -0.0355  1.0325  1.7359
10632SOL    HW232796   1.700   2.466   4.454 -0.6749  1.0875 -1.0272
10633SOL     OW32797   6.955   7.009   1.460  0.3027 -0.5631  0.4812
10633SOL    HW132798   7.037   6.963   1.496  1.1000  0.1239 -0.3829
10633SOL    HW232799   6.978   7.054   1.374 -1.0338 -0.4435  0.1685
10634SOL     OW32800   2.918   5.657   0.809 -0.7547  0.0707 -0.2410
10634SOL    HW132801   2.966   5.706   0.737 -0.9695 -0.8143 -0.9951
10634SOL    HW232802   2.978   5.588   0.850 -0.9119 -0.0352 -0.1821
10635SOL     OW32803   2.242   0.232   0.604 -0.4526 -0.0823 -0.0620
10635SOL    HW132804   2.298   0.259   0.525  1.5644 -0.3117  1.1963
10635SOL    HW232805   2.151   0.271   0.595  0.4233  1.8644 -1.3745
10636SOL     OW32806   6.119   2.258   6.147 -0.0353 -0.6348 -0.4345
10636SOL    HW132807   6.095   2.188   6.079 -0.1232  0.5515 -1.6548
10636SOL    HW232808   6.040   2.318   6.163  0.3194 -0.2565 -0.0702
10637SOL     OW32809   2.753   5.390   0.080 -0.5206 -0.0885  0.1992
10637SOL    HW132810   2.665   5.391   0.032  0.1291  0.6281 -1.0298
10637SOL    HW232811   2.788   5.297   0.084 -1.1150 -0.3116  0.2922
10638SOL     OW32812   5.974   0.313   4.768 -0.0584  0.3450 -0.2101
10638SOL    HW132813   5.970   0.260   4.853 -0.9872 -0.3547 -0.6756
10638SOL    HW232814   6.069   0.324   4.740  0.4809  2.5073  2.0913
10639SOL     OW32815   4.859   2.558   4.633 -0.4077 -0.1501 -0.1090
10639SOL    HW132816   4.914   2.570   4.716  0.6946  1.0427 -0.9770
10639SOL    HW232817   4.915   2.516   4.562 -0.7254  0.7127 -0.8881
10640SOL     OW32818   2.829   5.865   1.430 -0.1129  0.5917 -0.3086
10640SOL    HW132819   2.740   5.825   1.408 -0.0664  0.9128 -1.1023
10640SOL    HW232820   2.839   5.953   1.383  0.1226  1.1535  0.7498
10641SOL     OW32821   4.946   0.443   5.371  0.2468  0.3708 -0.1836
10641SOL    HW132822   5.029   0.412   5.417  0.2427 -1.3049 -1.1905
10641SOL    HW232823   4.888   0.363   5.351  0.5287  0.8632 -3.5926
10642SOL     OW32824   6.973   1.814   0.390 -0.0265  0.3434  0.1810
10642SOL    HW132825   7.062   1.849   0.418 -0.0343  2.0185 -1.6610
10642SOL    HW232826   6.986   1.736   0.329  0.0618 -1.0017  1.8409
10643SOL     OW32827   4.484   5.001   5.577 -0.2844 -0.5218 -0.2604
10643SOL    HW132828   4.551   5.048   5.520 -0.1304 -2.3941 -1.7177
10643SOL    HW232829   4.482   5.043   5.668  1.2313  0.9797 -0.8715
10644SOL     OW32830   1.772   1.639   4.191  0.8039  0.2524  0.3550
10644SOL    HW132831   1.834   1.706   4.231  0.1592  1.7953 -1.1086
10644SOL    HW232832   1.738   1.578   4.263  3.8182 -0.5527  1.2136
10645SOL     OW32833   2.223   0.205   4.108  0.6244 -0.3052  0.0973
10645SOL    HW132834   2.167   0.187   4.188 -0.2976  1.6431 -0.0554
10645SOL    HW232835   2.260   0.298   4.113  1.3518 -0.4964 -1.2647
10646SOL     OW32836   0.330   3.853   0.684 -0.1182  0.3792  0.3289
10646SOL    HW132837   0.424   3.870   0.713  0.8612 -1.9339 -1.2122
10646SOL    HW232838   0.291   3.936   0.645  1.1469  1.4511  1.2630
10647SOL     OW32839   6.817   5.206   0.572  0.0967  0.0244 -0.0199
10647SOL    HW132840   6.915   5.215   0.553 -0.4770  1.2386 -2.9443
10647SOL    HW232841   6.797   5.111   0.597  1.8878 -0.4470 -0.2182
10648SOL     OW32842   3.960   4.082   5.603 -0.3126 -0.8108 -0.1955
10648SOL    HW132843   3.901   4.055   5.679 -0.0172 -2.2999 -0.4730
10648SOL    HW232844   4.051   4.044   5.616  0.0603 -0.1298 -0.7380
10649SOL     OW32845   0.140   3.715   6.102  0.4570  0.2882  0.2487
10649SOL    HW132846   0.185   3.630   6.129 -0.7059 -0.8864 -1.3105
10649SOL    HW232847   0.054   3.725   6.153  0.1799  0.0838 -0.1735
10650SOL     OW32848   2.068   5.761   3.876 -0.4936  0.4328 -0.7703
10650SOL    HW132849   2.120   5.783   3.959 -0.9080 -0.6568 -0.2049
10650SOL    HW232850   1.984   5.713   3.901 -1.1321  0.9894 -1.7676
10651SOL     OW32851   0.639   6.249   5.449 -0.8160 -0.2530  0.2997
10651SOL    HW132852   0.700   6.238   5.528 -0.7852 -2.5074  0.0281
10651SOL    HW232853   0.674   6.195   5.372 -2.2464 -0.1907 -0.4287
10652SOL     OW32854   3.735   0.494   0.304 -0.3286 -0.1053  0.8005
10652SOL    HW132855   3.771   0.438   0.378  1.1212 -1.3942 -0.7901
10652SOL    HW232856   3.777   0.585   0.306 -1.1974  0.2910  2.2119
10653SOL     OW32857   5.552   1.782   3.097  0.2545 -0.2049 -0.2115
10653SOL    HW132858   5.481   1.852   3.106  0.4557 -0.0497  0.1786
10653SOL    HW232859   5.570   1.766   3.000  1.0801  1.1744 -0.3072
10654SOL     OW32860   1.939   1.801   2.080  0.7285  0.5226  0.0882
10654SOL    HW132861   1.841   1.787   2.065  0.6555 -0.0617  1.0714
10654SOL    HW232862   1.959   1.795   2.178  1.8436  0.0119 -0.1608
10655SOL     OW32863   4.874   0.559   1.772 -0.0976  0.1400 -0.0278
10655SOL    HW132864   4.815   0.489   1.731 -2.1681  0.9240  1.3936
10655SOL    HW232865   4.823   0.644   1.780  1.7907  1.3241 -0.1005
10656SOL     OW32866   0.318   4.886   5.653 -0.1112  0.6746  0.1455
10656SOL    HW132867   0.291   4.858   5.745 -2.4868  2.0471 -0.0329
10656SOL    HW232868   0.412   4.859   5.636 -0.4378 -2.0363  1.9609
10657SOL     OW32869   4.994   1.782   1.812  0.1910  0.0474  0.1856
10657SOL    HW132870   4.958   1.824   1.895  1.8713  1.4320  0.2578
10657SOL    HW232871   4.919   1.737   1.763 -0.9006 -0.4637  2.2231
10658SOL     OW32872   0.418   6.469   4.857  0.2330  0.0472  0.2861
10658SOL    HW132873   0.407   6.410   4.777 -1.9606 -0.1315  0.6569
10658SOL    HW232874   0.417   6.414   4.940 -0.7322  0.4754  0.5761
10659SOL     OW32875   5.225   0.716   1.083  0.0503 -0.1760 -0.0330
10659SOL    HW132876   5.183   0.652   1.148  0.0997  0.4710  0.6567
10659SOL    HW232877   5.221   0.809   1.121 -0.0095  0.2338 -1.0054
10660SOL     OW32878   4.023   6.344   2.473 -0.0873 -0.6141 -0.2335
10660SOL    HW132879   4.117   6.380   2.475  0.0722 -0.9389 -1.3500
10660SOL    HW232880   4.002   6.310   2.381 -0.6636 -2.2366  0.4604
10661SOL     OW32881   1.040   0.122   4.538  0.5289 -0.0726 -0.4308
10661SOL    HW132882   1.118   0.060   4.552 -0.7072 -1.3029  1.7319
10661SOL    HW232883   0.955   0.071   4.553 -0.5635  2.4388  3.5945
10662SOL     OW32884   6.144   2.861   6.559  0.1701  0.3299 -0.0538
10662SOL    HW132885   6.154   2.762   6.556 -4.5304 -0.3564 -1.5782
10662SOL    HW232886   6.148   2.898   6.466 -0.8144  1.1014  0.1896
10663SOL     OW32887   0.815   0.596   0.228 -0.2733 -0.2748 -0.0357
10663SOL    HW132888   0.745   0.549   0.282 -1.5273  1.1282 -0.3560
10663SOL    HW232889   0.788   0.597   0.132  0.4925 -0.2359 -0.2565
10664SOL     OW32890   3.082   4.932   5.338  0.2728  0.6216  0.1084
10664SOL    HW132891   3.169   4.908   5.381  0.1865  0.7581  0.3598
10664SOL    HW232892   3.099   4.972   5.248  0.6060  2.6843  1.0357
10665SOL     OW32893   5.993   1.987   6.456 -0.0261 -0.0873 -0.2354
10665SOL    HW132894   6.015   2.063   6.395  0.4212  0.1776  0.2409
10665SOL    HW232895   6.064   1.917   6.451 -0.3461 -0.3906 -0.5393
10666SOL     OW32896   0.325   1.531   1.049 -0.2482  0.1537  0.2211
10666SOL    HW132897   0.300   1.623   1.080  0.3051  0.5291 -0.4342
10666SOL    HW232898   0.424   1.518   1.056 -0.2236 -0.0878 -0.4954
10667SOL     OW32899   2.342   2.761   4.424 -0.1711  0.3520 -0.4460
10667SOL    HW132900   2.311   2.809   4.342 -2.4430 -1.9050 -1.0398
10667SOL    HW232901   2.301   2.803   4.505 -0.7142  0.4863 -0.7845
10668SOL     OW32902   2.676   6.560   6.761 -0.3823 -0.3820  0.2908
10668SOL    HW132903   2.675   6.485   6.827 -0.1907 -0.2686  0.4202
10668SOL    HW232904   2.613   6.631   6.790  3.0960  1.9467  2.9715
10669SOL     OW32905   6.528   6.478   6.285  0.0035  0.6725  0.0130
10669SOL    HW132906   6.504   6.381   6.293  1.7319  0.2933  1.2053
10669SOL    HW232907   6.600   6.489   6.217  0.9839  0.8669  1.0531
10670SOL     OW32908   1.565   0.049   5.160  0.2110 -0.5583  0.2586
10670SOL    HW132909   1.524   0.101   5.235  1.4958 -0.5616  0.9989
10670SOL    HW232910   1.663   0.035   5.179  0.4545 -0.9822 -1.1933
10671SOL     OW32911   5.993   1.657   3.523  0.4561 -0.5350 -0.1352
10671SOL    HW132912   6.031   1.603   3.448  2.9130  0.1660  0.5288
10671SOL    HW232913   5.934   1.729   3.486  0.3268 -1.1989 -1.2580
10672SOL     OW32914   4.606   3.227   0.044 -0.1581 -0.0280  0.0086
10672SOL    HW132915   4.533   3.161   0.026  1.0236 -1.0786 -1.0416
10672SOL    HW232916   4.695   3.183   0.037  0.6660  1.5760 -0.2892
10673SOL     OW32917   3.047   4.706   5.611 -0.1972  0.1027 -0.6521
10673SOL    HW132918   3.050   4.607   5.630 -2.6974  0.2046  0.6449
10673SOL    HW232919   2.995   4.722   5.527 -1.1700  0.3525 -0.0222
10674SOL     OW32920   3.319   2.101   2.012  0.0112 -0.0333  0.4266
10674SOL    HW132921   3.273   2.103   2.100  0.2583 -0.5301  0.5713
10674SOL    HW232922   3.293   2.019   1.962  1.6913 -0.9941  1.0464
10675SOL     OW32923   0.908   1.499   6.788 -0.5707  0.1044 -0.4940
10675SOL    HW132924   0.951   1.486   6.878 -1.1003  1.5010 -0.0123
10675SOL    HW232925   0.915   1.415   6.735  0.2212 -0.5770  0.6584
10676SOL     OW32926   1.352   1.104   0.287  0.5650  0.2681  0.0271
10676SOL    HW132927   1.366   1.130   0.191  0.0714 -0.7793 -0.3461
10676SOL    HW232928   1.431   1.132   0.341  0.7535  1.0637 -0.6469
10677SOL     OW32929   6.827   0.917   6.706 -0.5389  0.2294  0.3259
10677SOL    HW132930   6.909   0.973   6.721 -0.1352 -0.4896  0.8666
10677SOL    HW232931   6.746   0.970   6.730 -0.3767  1.4634 -1.5386
10678SOL     OW32932   2.316   4.755   4.384 -0.1982 -0.2993  0.2172
10678SOL    HW132933   2.340   4.692   4.311 -1.8699 -0.3614 -0.3124
10678SOL    HW232934   2.267   4.705   4.456 -2.6887  0.5485 -0.7955
10679SOL     OW32935   4.192   5.775   2.215  0.4901 -0.5053  0.5556
10679SOL    HW132936   4.224   5.683   2.240  0.2777 -0.3469  1.4114
10679SOL    HW232937   4.105   5.793   2.259  1.1830  0.6320  1.5112
10680SOL     OW32938   1.237   6.576   2.547  0.3352 -0.9975 -0.1097
10680SOL    HW132939   1.275   6.611   2.633  0.0669  0.3713 -0.5129
10680SOL    HW232940   1.238   6.476   2.547  1.2281 -1.0022  1.0816
10681SOL     OW32941   6.751   1.398   6.185 -0.3482 -0.6668  0.4151
10681SOL    HW132942   6.688   1.445   6.124 -0.8878  0.5375  1.8453
10681SOL    HW232943   6.700   1.335   6.243  0.0396 -1.1253  0.2688
10682SOL     OW32944   6.700   1.068   2.476 -0.4668  1.0284 -0.6053
10682SOL    HW132945   6.768   1.070   2.403 -1.7168  0.1824 -1.8588
10682SOL    HW232946   6.609   1.081   2.437 -1.3051 -0.7860  0.5932
10683SOL     OW32947   2.059   0.469   4.463 -0.5405  0.1078 -0.5706
10683SOL    HW132948   2.018   0.502   4.549 -0.4895 -0.0126 -0.4996
10683SOL    HW232949   1.988   0.459   4.394 -1.2433 -3.1801  0.4489
10684SOL     OW32950   6.379   4.693   0.715 -0.3380  0.2384  0.3531
10684SOL    HW132951   6.297   4.703   0.772 -0.5061  1.6767 -0.0910
10684SOL    HW232952   6.426   4.782   0.709  0.3445 -0.1804 -0.7552
10685SOL     OW32953   5.741   0.471   2.983 -0.4083  0.6460 -0.0133
10685SOL    HW132954   5.665   0.425   3.030 -0.3620  0.0150 -0.5378
10685SOL    HW232955   5.815   0.488   3.047 -0.2846 -0.3413  0.1218
10686SOL     OW32956   2.752   4.128   0.929  0.0363 -0.3956 -0.1213
10686SOL    HW132957   2.774   4.032   0.910  1.8454 -0.3873  1.5317
10686SOL    HW232958   2.664   4.133   0.977  1.4840 -1.7036  2.9796
10687SOL     OW32959   4.928   3.265   1.365 -0.8970 -0.0930 -0.4570
10687SOL    HW132960   4.828   3.262   1.369 -0.8817 -1.8587 -0.3779
10687SOL    HW232961   4.964   3.171   1.363  0.7592  0.5062 -0.6058
10688SOL     OW32962   4.407   6.304   1.704 -0.4285 -0.0962 -0.4534
10688SOL    HW132963   4.498   6.328   1.738 -0.1160 -1.0266 -0.6233
10688SOL    HW232964   4.345   6.381   1.721  0.7963  1.3352 -1.9900
10689SOL     OW32965   0.781   7.013   1.625 -0.2169  0.3967 -0.2035
10689SOL    HW132966   0.703   7.001   1.687 -0.5929 -0.2743 -0.7843
10689SOL    HW232967   0.748   7.046   1.536  0.1613  0.1085 -0.4545
10690SOL     OW32968   4.489   4.451   2.843 -0.5380  0.0913 -0.3085
10690SOL    HW132969   4.417   4.502   2.796  1.5136  1.4103 -2.2571
10690SOL    HW232970   4.461   4.432   2.937 -2.0932  3.4896  0.0562
10691SOL     OW32971   6.871   1.529   0.630 -0.3135  0.2361  0.0461
10691SOL    HW132972   6.804   1.458   0.607  1.0074 -0.7443 -0.8731
10691SOL    HW232973   6.952   1.488   0.672 -1.0056  1.5898  3.0392
10692SOL     OW32974   4.790   0.535   4.005  0.3958 -0.0356 -0.9297
10692SOL    HW132975   4.692   0.554   3.998  0.5794  1.1485 -0.5582
10692SOL    HW232976   4.822   0.496   3.919 -0.4166 -0.5020 -1.0268
10693SOL     OW32977   5.646   2.548   4.003 -0.0514 -0.4465 -0.4399
10693SOL    HW132978   5.671   2.609   3.928  1.1719 -1.5097 -0.9386
10693SOL    HW232979   5.548   2.532   4.002 -0.5343  2.0392  0.1433
10694SOL     OW32980   3.010   5.828   3.441  0.3423  0.4910  0.4696
10694SOL    HW132981   2.951   5.775   3.502 -1.5453  1.3429 -0.5273
10694SOL    HW232982   3.054   5.901   3.493 -1.1869  1.1650  0.8768
10695SOL     OW32983   5.108   2.780   5.607  0.0726  0.6272 -0.2038
10695SOL    HW132984   5.150   2.858   5.654  0.2129  0.4608 -0.0492
10695SOL    HW232985   5.020   2.759   5.651  0.9328 -0.5279  1.0234
10696SOL     OW32986   6.790   6.069   1.760  0.0981 -0.0495 -0.4245
10696SOL    HW132987   6.741   6.147   1.719 -0.0979  0.8442  1.3934
10696SOL    HW232988   6.888   6.079   1.745  0.0666  0.5336 -0.2767
10697SOL     OW32989   3.231   6.533   3.362 -0.2234  0.3807 -0.2778
10697SOL    HW132990   3.300   6.494   3.301 -1.4583 -1.4712 -0.5845
10697SOL    HW232991   3.196   6.618   3.324  0.7301  0.4925 -0.9314
10698SOL     OW32992   2.686   0.849   3.547 -0.3707  0.1979 -0.1213
10698SOL    HW132993   2.662   0.939   3.510  0.3112 -0.1663 -1.5285
10698SOL    HW232994   2.764   0.812   3.497  0.7171 -0.2839  1.8273
10699SOL     OW32995   2.038   2.122   4.547 -0.2250  0.9901  0.6121
10699SOL    HW132996   2.101   2.064   4.496 -1.9651  1.1023 -1.8459
10699SOL    HW232997   2.025   2.209   4.499 -1.0186  1.6462  1.9210
10700SOL     OW32998   5.939   0.919   2.027  0.5973  0.1140  0.0963
10700SOL    HW132999   5.944   0.838   2.086 -0.2217  0.2073  0.3019
10700SOL    HW233000   6.000   0.906   1.948 -1.0599 -1.6465 -0.9900
10701SOL     OW33001   2.324   0.095   1.862  0.3243  0.5600 -0.1633
10701SOL    HW133002   2.336   0.009   1.812 -1.1269 -1.6035  2.9023
10701SOL    HW233003   2.234   0.097   1.905  1.6130  1.9786  2.7673
10702SOL     OW33004   4.277   2.865   0.354  0.0807  0.1325 -0.0902
10702SOL    HW133005   4.248   2.833   0.444  1.3557  0.5557  0.4903
10702SOL    HW233006   4.314   2.787   0.302  0.4956  0.1144  0.2272
10703SOL     OW33007   3.340   3.913   4.918 -0.3588 -0.1086  0.1725
10703SOL    HW133008   3.307   3.864   4.998  1.3496  0.0254  1.0093
10703SOL    HW233009   3.405   3.856   4.868 -2.1200 -0.5800 -1.7420
10704SOL     OW33010   5.851   5.891   2.763  0.0549  0.1631  0.1425
10704SOL    HW133011   5.841   5.888   2.862 -1.8820 -1.1211 -0.0330
10704SOL    HW233012   5.941   5.854   2.737 -0.4767 -2.1905  1.3357
10705SOL     OW33013   2.222   2.715   7.001 -0.2991 -0.5653 -0.8949
10705SOL    HW133014   2.295   2.650   6.976 -0.6344 -0.7438 -1.4392
10705SOL    HW233015   2.171   2.679   7.079  2.3007  1.1284  1.8112
10706SOL     OW33016   2.696   2.492   1.716 -0.8589 -0.3797  0.4936
10706SOL    HW133017   2.642   2.415   1.684 -0.3043  0.2194 -2.1680
10706SOL    HW233018   2.768   2.460   1.778 -2.2760 -1.5844  1.5538
10707SOL     OW33019   0.178   5.582   0.343 -0.0534 -0.0279 -0.7130
10707SOL    HW133020   0.154   5.519   0.269 -2.3035 -0.8785  0.6260
10707SOL    HW233021   0.237   5.536   0.408 -0.3128 -0.1989 -0.5972
10708SOL     OW33022   6.227   2.199   2.495 -0.1098  0.2643  0.2633
10708SOL    HW133023   6.316   2.152   2.499  0.0955  0.3381 -2.0719
10708SOL    HW233024   6.204   2.218   2.400 -3.8743 -2.0879  0.5179
10709SOL     OW33025   0.892   6.286   0.261 -0.4235 -0.1821 -0.4626
10709SOL    HW133026   0.946   6.366   0.233  2.0237 -0.5955  2.5452
10709SOL    HW233027   0.795   6.311   0.263  0.2697  2.9968  0.9626
10710SOL     OW33028   0.324   6.737   4.464 -0.1663  0.0799 -0.3753
10710SOL    HW133029   0.276   6.751   4.377  2.2943 -0.6245 -1.9348
10710SOL    HW233030   0.325   6.639   4.486  1.1243 -0.0130 -0.7633
10711SOL     OW33031   3.475   6.654   3.751 -0.2639 -1.0389  0.3081
10711SOL    HW133032   3.398   6.623   3.808 -2.1314 -2.2114 -2.6300
10711SOL    HW233033   3.453   6.742   3.709 -0.4339 -1.7774 -1.2176
10712SOL     OW33034   3.411   0.662   5.802 -0.0778  0.0886 -0.5094
10712SOL    HW133035   3.322   0.670   5.848 -1.0858 -1.9168 -1.9203
10712SOL    HW233036   3.474   0.611   5.860 -1.1224 -1.8384 -0.9851
10713SOL     OW33037   2.146   5.170   0.244  0.2596  0.4325 -0.4044
10713SOL    HW133038   2.186   5.258   0.268 -0.0296  0.6203 -0.5966
10713SOL    HW233039   2.178   5.142   0.154 -1.9027  1.7746 -1.6851
10714SOL     OW33040   6.056   4.678   6.128 -0.5467 -0.0313 -0.1505
10714SOL    HW133041   6.030   4.756   6.071 -0.9800  0.2866  0.4754
10714SOL    HW233042   5.990   4.604   6.114  1.0635 -1.1675 -2.4319
10715SOL     OW33043   5.571   0.349   2.736  0.3598 -0.1073 -0.4756
10715SOL    HW133044   5.643   0.305   2.789 -0.7738 -0.5298  0.7705
10715SOL    HW233045   5.527   0.281   2.677  1.0280  0.1719 -1.3126
10716SOL     OW33046   1.636   5.519   3.343  0.3703  0.5946  0.2497
10716SOL    HW133047   1.645   5.427   3.381 -0.0390  0.7626  0.7715
10716SOL    HW233048   1.655   5.586   3.414  2.7437  0.9370 -0.6438
10717SOL     OW33049   7.017   6.746   3.075 -0.5316 -0.0030  0.5510
10717SOL    HW133050   6.936   6.762   3.132 -0.5382  3.1132 -0.1579
10717SOL    HW233051   7.091   6.710   3.132 -2.6311 -4.4355  0.9718
10718SOL     OW33052   0.770   4.655   6.621  0.8140  0.3154 -0.8780
10718SOL    HW133053   0.812   4.590   6.558  3.8191  0.8958  0.3870
10718SOL    HW233054   0.752   4.741   6.575  2.5725  0.5894 -1.0865
10719SOL     OW33055   6.292   6.384   2.475 -0.1909  0.5911  0.1237
10719SOL    HW133056   6.205   6.434   2.481  0.4733  1.7267  0.6097
10719SOL    HW233057   6.325   6.366   2.568 -0.9199 -1.7115 -0.0005
10720SOL     OW33058   5.973   4.532   6.844  0.4910 -0.1300  0.5084
10720SOL    HW133059   5.917   4.612   6.866  2.6056  0.8738  2.7858
10720SOL    HW233060   5.937   4.452   6.891  0.1134  0.1670  0.7318
10721SOL     OW33061   3.855   2.111   3.621 -0.8216  0.1267 -0.3132
10721SOL    HW133062   3.764   2.069   3.611 -0.5343 -1.1108  1.6317
10721SOL    HW233063   3.918   2.070   3.554 -1.2898 -0.2699 -0.5222
10722SOL     OW33064   0.409   3.731   1.320 -0.3145  0.0600 -0.2789
10722SOL    HW133065   0.344   3.657   1.303 -0.7528  0.1218  0.9885
10722SOL    HW233066   0.391   3.808   1.259  0.1164 -0.8429 -1.5860
10723SOL     OW33067   0.355   5.135   6.474  0.0354  0.8138  0.1923
10723SOL    HW133068   0.260   5.120   6.501  0.3757 -0.3727  0.7828
10723SOL    HW233069   0.382   5.228   6.499 -0.6091  0.7675  1.1158
10724SOL     OW33070   3.887   5.508   5.963 -0.5975 -0.2828  0.0901
10724SOL    HW133071   3.817   5.562   5.916  0.6045 -0.1656 -1.6320
10724SOL    HW233072   3.977   5.544   5.941  0.0867 -1.0153  1.5329
10725SOL     OW33073   6.239   1.077   4.985  0.4266  0.2025 -0.7950
10725SOL    HW133074   6.316   1.034   4.938  0.9369  1.0974 -0.7937
10725SOL    HW233075   6.153   1.040   4.949  0.8505 -0.8217 -0.7737
10726SOL     OW33076   0.401   1.563   3.748  0.0748  0.0890 -0.0467
10726SOL    HW133077   0.347   1.643   3.775 -1.3481 -0.1709 -1.8658
10726SOL    HW233078   0.417   1.505   3.827 -0.6656  1.1545  0.9136
10727SOL     OW33079   3.299   1.284   6.302 -0.1719 -0.4963 -0.4771
10727SOL    HW133080   3.319   1.340   6.221  0.8179 -0.9314 -0.5549
10727SOL    HW233081   3.314   1.188   6.280  3.5427 -0.4547  1.0604
10728SOL     OW33082   5.396   6.659   3.740  1.0427 -0.1470 -0.9746
10728SOL    HW133083   5.300   6.649   3.765  0.9337 -0.5205 -1.5321
10728SOL    HW233084   5.429   6.748   3.771 -0.1285  0.9840 -2.8385
10729SOL     OW33085   5.287   1.719   2.978 -0.1603 -0.3225 -0.1562
10729SOL    HW133086   5.308   1.671   3.064  1.1601 -0.2914 -0.4393
10729SOL    HW233087   5.359   1.700   2.911 -0.7277  0.3576 -0.9787
10730SOL     OW33088   1.280   5.140   3.320 -0.1922 -0.1317 -0.4114
10730SOL    HW133089   1.231   5.227   3.325 -1.8181 -0.9932 -0.8306
10730SOL    HW233090   1.353   5.147   3.252 -0.5436  0.7867 -0.7111
10731SOL     OW33091   4.933   6.166   5.718 -0.0432  0.0645 -0.2685
10731SOL    HW133092   4.955   6.175   5.621  0.6726  1.4763  0.0109
10731SOL    HW233093   4.849   6.111   5.728  0.2945 -0.7448 -1.6213
10732SOL     OW33094   0.140   5.373   0.703  0.4536  0.7463  0.3960
10732SOL    HW133095   0.112   5.286   0.663  0.5887  1.0052 -0.2692
10732SOL    HW233096   0.205   5.418   0.643 -0.0445  1.5734  0.4660
10733SOL     OW33097   1.423   3.267   0.552 -0.8330  0.1372 -0.3285
10733SOL    HW133098   1.326   3.253   0.529 -1.6485  0.3883  2.6021
10733SOL    HW233099   1.451   3.200   0.620  0.9651  0.3407 -0.8286
10734SOL     OW33100   0.907   0.376   4.902  0.4930 -0.1361  0.3718
10734SOL    HW133101   0.999   0.403   4.873  0.5057 -0.0341  0.5093
10734SOL    HW233102   0.844   0.383   4.824 -0.1097  2.9729  1.0023
10735SOL     OW33103   6.581   6.718   2.513 -0.2930  0.1634  0.2434
10735SOL    HW133104   6.647   6.772   2.565 -0.0044 -0.0571  0.1121
10735SOL    HW233105   6.522   6.778   2.459 -0.6568  0.3982  0.8948
10736SOL     OW33106   4.905   4.421   4.992 -0.0050 -0.2876  0.2492
10736SOL    HW133107   4.850   4.496   4.955 -0.5548  0.2736  2.0627
10736SOL    HW233108   4.921   4.437   5.090  3.6032 -0.3191 -0.1994
10737SOL     OW33109   4.474   0.257   3.125 -0.0049 -0.2048  0.2887
10737SOL    HW133110   4.572   0.264   3.143  0.2007 -0.5998 -0.6219
10737SOL    HW233111   4.434   0.349   3.123  0.7216  0.1213 -1.2344
10738SOL     OW33112   2.998   0.822   0.888  0.3188 -0.3437  0.1526
10738SOL    HW133113   2.992   0.869   0.976 -0.0642 -2.3876  1.2717
10738SOL    HW233114   3.090   0.786   0.876  1.7355  3.4247 -2.2907
10739SOL     OW33115   4.425   2.657   6.216 -0.1367 -0.8336  0.2116
10739SOL    HW133116   4.448   2.561   6.229 -0.1555 -1.2837 -2.5877
10739SOL    HW233117   4.329   2.666   6.190  0.2416 -0.2294 -1.0550
10740SOL     OW33118   3.906   4.747   0.085  0.2957  0.6010  0.8582
10740SOL    HW133119   3.826   4.698   0.119  0.9158 -1.1168 -0.0694
10740SOL    HW233120   3.989   4.699   0.112  0.9320  1.1505 -0.0558
10741SOL     OW33121   1.662   0.878   3.701 -0.1527 -0.0550  0.0679
10741SOL    HW133122   1.717   0.919   3.774  1.2409 -1.3121 -0.2327
10741SOL    HW233123   1.587   0.825   3.742  0.5601 -0.6739  0.5988
10742SOL     OW33124   4.099   5.317   1.873  0.3475 -0.2353  0.2829
10742SOL    HW133125   4.069   5.370   1.953  0.1004  0.4952 -0.2792
10742SOL    HW233126   4.183   5.357   1.837  0.5702 -0.6886  0.3035
10743SOL     OW33127   3.930   1.942   5.682 -0.1399  0.0704 -0.2241
10743SOL    HW133128   3.938   2.023   5.623 -0.3195 -0.8045 -1.4884
10743SOL    HW233129   3.933   1.860   5.626  2.4960 -0.9283  1.2093
10744SOL     OW33130   4.228   1.497   2.135 -0.3324 -0.4492  0.3192
10744SOL    HW133131   4.222   1.593   2.161 -1.4666  0.2031 -2.0846
10744SOL    HW233132   4.279   1.488   2.050 -2.7540 -1.5751 -1.1187
10745SOL     OW33133   1.479   3.526   1.777  0.2396  0.2641  0.0401
10745SOL    HW133134   1.560   3.492   1.729  0.7805  0.9591  0.4385
10745SOL    HW233135   1.477   3.489   1.869  0.3065  0.5375  0.1529
10746SOL     OW33136   2.021   0.925   6.361 -0.0014  0.3304 -0.1085
10746SOL    HW133137   1.963   0.962   6.433 -0.2928  0.8907 -0.6258
10746SOL    HW233138   2.027   0.990   6.285  0.5244 -0.1316 -0.4763
10747SOL     OW33139   1.086   2.136   5.359  0.3343 -0.4533  1.0480
10747SOL    HW133140   1.158   2.202   5.336 -0.7278  0.6542  0.7470
10747SOL    HW233141   1.047   2.099   5.275 -0.0673 -0.3238  1.1714
10748SOL     OW33142   3.313   0.839   2.502 -0.3793  0.1383  0.5956
10748SOL    HW133143   3.311   0.739   2.497  0.7679  0.0136  1.8223
10748SOL    HW233144   3.406   0.868   2.526 -0.8377  1.4659  0.8097
10749SOL     OW33145   5.648   3.944   2.489 -0.5694 -0.1876  0.0704
10749SOL    HW133146   5.599   4.003   2.553  0.6303 -0.0560  0.9005
10749SOL    HW233147   5.582   3.890   2.436 -1.6199  0.6383  0.5060
10750SOL     OW33148   4.618   1.430   5.257 -0.6093 -0.1552  0.4297
10750SOL    HW133149   4.670   1.493   5.314 -1.4019  0.5612  0.3923
10750SOL    HW233150   4.620   1.339   5.297 -0.6333  0.2024  1.2640
10751SOL     OW33151   0.819   5.283   2.782  0.4099  0.4973  0.2421
10751SOL    HW133152   0.849   5.352   2.716  0.5677 -0.3751 -0.6309
10751SOL    HW233153   0.822   5.321   2.874  0.2201  1.7366 -0.2462
10752SOL     OW33154   4.871   4.242   6.106  0.4497  0.2005  0.1431
10752SOL    HW133155   4.817   4.246   6.190 -0.4614  0.1467 -0.4266
10752SOL    HW233156   4.810   4.245   6.027  1.3449  1.2725 -0.5366
10753SOL     OW33157   0.467   0.476   2.974  0.3617  0.1734 -0.4642
10753SOL    HW133158   0.476   0.382   3.004  1.6201  0.9815  1.9292
10753SOL    HW233159   0.516   0.488   2.887  1.7190 -0.9937  0.1022
10754SOL     OW33160   1.408   4.467   2.161 -0.1377  0.0736 -0.2101
10754SOL    HW133161   1.341   4.542   2.162  0.7306  0.8829 -0.8905
10754SOL    HW233162   1.466   4.475   2.080  1.1102 -0.3121  0.6115
10755SOL     OW33163   1.430   1.669   2.021  0.1188 -0.4470  0.3894
10755SOL    HW133164   1.338   1.693   2.054 -0.5421 -1.8447 -0.3828
10755SOL    HW233165   1.463   1.589   2.070  1.7370  1.0690  1.9493
10756SOL     OW33166   1.240   4.989   5.960  0.1801 -0.0992  0.5324
10756SOL    HW133167   1.290   5.075   5.968  0.2904 -0.0633 -0.4587
10756SOL    HW233168   1.143   5.008   5.948  0.1630 -0.1190  0.6422
10757SOL     OW33169   5.483   4.173   1.780 -1.0016  0.1740  0.1516
10757SOL    HW133170   5.387   4.186   1.802 -1.4273 -0.9815 -0.8935
10757SOL    HW233171   5.496   4.176   1.681  0.0902  0.6188  0.2893
10758SOL     OW33172   1.037   0.097   6.781 -0.5205 -0.4678 -0.0038
10758SOL    HW133173   1.131   0.118   6.808  0.0324 -3.3965  0.7418
10758SOL    HW233174   0.980   0.178   6.794  2.2022  2.0943 -2.4796
10759SOL     OW33175   3.514   4.175   5.375  0.3228 -0.0186  0.2248
10759SOL    HW133176   3.487   4.114   5.449 -1.6224  1.5769  0.9208
10759SOL    HW233177   3.457   4.159   5.295  1.1865 -0.4834 -0.3097
10760SOL     OW33178   6.088   5.031   0.784 -0.3844  0.9075  0.4850
10760SOL    HW133179   6.129   5.009   0.872 -0.7613 -0.4752  0.3468
10760SOL    HW233180   6.073   5.129   0.777 -1.8912  0.9022  2.6569
10761SOL     OW33181   6.847   2.858   6.260 -0.0207 -0.4543 -0.4394
10761SOL    HW133182   6.786   2.882   6.335  2.0529 -1.5163  1.7347
10761SOL    HW233183   6.839   2.761   6.240  0.7279 -0.5558 -0.2961
10762SOL     OW33184   0.887   6.607   6.840  0.0491  0.5441 -0.4191
10762SOL    HW133185   0.890   6.525   6.783  0.5770  0.4638 -0.2868
10762SOL    HW233186   0.935   6.681   6.793  2.2934 -0.0708  0.7424
10763SOL     OW33187   4.315   1.471   2.907  0.4302 -0.3605  0.1489
10763SOL    HW133188   4.277   1.499   2.996 -0.8457 -0.6660 -0.2798
10763SOL    HW233189   4.299   1.544   2.840  0.8374 -0.3875  0.0222
10764SOL     OW33190   4.357   6.950   6.204  0.4232 -0.3402  0.4763
10764SOL    HW133191   4.257   6.944   6.201  0.4844 -0.9747 -1.0449
10764SOL    HW233192   4.395   6.935   6.113  1.8807  0.8836  0.8425
10765SOL     OW33193   6.548   6.689   1.299 -0.1417  0.9357  0.9557
10765SOL    HW133194   6.522   6.650   1.210  3.0353  0.7706 -0.0166
10765SOL    HW233195   6.561   6.616   1.365 -2.1222  1.0352  1.5293
10766SOL     OW33196   2.505   3.952   5.906  0.2604 -0.7966 -0.0710
10766SOL    HW133197   2.528   3.950   6.003 -0.4604 -0.2451  0.1222
10766SOL    HW233198   2.463   4.040   5.884 -3.7900 -2.4633  0.1180
10767SOL     OW33199   1.335   4.915   0.146  0.2432  0.5106  0.1726
10767SOL    HW133200   1.291   4.826   0.153  0.7182  0.1513 -1.1338
10767SOL    HW233201   1.322   4.966   0.231 -1.7172 -0.0116  0.2228
10768SOL     OW33202   6.245   0.237   0.953  0.2900 -0.9573  0.1293
10768SOL    HW133203   6.287   0.195   1.033  0.2601  0.9584  1.2239
10768SOL    HW233204   6.252   0.175   0.875  1.0407 -2.5519  1.4016
10769SOL     OW33205   3.647   3.678   4.071 -0.1484  0.0875  0.5475
10769SOL    HW133206   3.712   3.603   4.080 -0.5496 -0.8172 -2.7773
10769SOL    HW233207   3.694   3.765   4.088  1.0730 -0.7059  1.4208
10770SOL     OW33208   4.604   1.739   2.859 -0.1478  0.4755 -0.2901
10770SOL    HW133209   4.590   1.744   2.958 -0.7253  0.0589 -0.3489
10770SOL    HW233210   4.701   1.755   2.839 -0.2543  1.9814  0.2314
10771SOL     OW33211   6.153   5.188   6.398  0.1683  0.0748 -0.8531
10771SOL    HW133212   6.107   5.185   6.487  0.9932  1.2964 -0.3537
10771SOL    HW233213   6.085   5.204   6.326 -0.3412  0.5469 -0.2813
10772SOL     OW33214   5.252   4.068   2.901 -0.7338  0.2314 -0.3903
10772SOL    HW133215   5.313   3.990   2.911  0.1722  0.9343 -0.3430
10772SOL    HW233216   5.239   4.089   2.804 -0.7863  0.1678 -0.3970
10773SOL     OW33217   0.994   2.870   3.818  0.5907 -0.7643 -0.3625
10773SOL    HW133218   0.909   2.828   3.851  0.1329 -1.7998 -2.6093
10773SOL    HW233219   1.043   2.803   3.762  2.7823 -0.0818  0.6450
10774SOL     OW33220   1.516   3.060   1.314 -0.5127  0.0382  0.8311
10774SOL    HW133221   1.592   3.122   1.334 -0.1312 -0.2443  0.2933
10774SOL    HW233222   1.536   3.008   1.231 -2.1689  1.4022 -0.4851
10775SOL     OW33223   1.158   4.829   0.436 -0.2686  0.3781  0.4244
10775SOL    HW133224   1.066   4.789   0.444 -0.3757  0.6163  0.3965
10775SOL    HW233225   1.224   4.768   0.480 -0.1544 -0.7819 -1.2372
10776SOL     OW33226   0.806   1.708   3.817 -0.2843  0.4173  0.1540
10776SOL    HW133227   0.796   1.621   3.866 -0.6290 -0.3867 -1.2664
10776SOL    HW233228   0.719   1.734   3.776  0.0107  0.9973 -0.1268
10777SOL     OW33229   3.506   6.778   0.371 -0.0706 -0.1221  0.0237
10777SOL    HW133230   3.435   6.835   0.411 -2.8839 -1.6479 -2.4176
10777SOL    HW233231   3.500   6.686   0.409  0.5528 -0.3041 -0.3022
10778SOL     OW33232   4.550   1.329   2.902  0.1292 -0.1147 -0.3980
10778SOL    HW133233   4.453   1.351   2.892 -0.2673 -1.2683  0.5368
10778SOL    HW233234   4.588   1.381   2.979  0.3862  0.6808 -1.0492
10779SOL     OW33235   4.038   4.475   5.332 -0.3724  0.1746  0.5510
10779SOL    HW133236   4.113   4.428   5.286 -0.2504 -0.2501  1.1707
10779SOL    HW233237   4.016   4.559   5.284  0.1817  0.0565  0.0923
10780SOL     OW33238   1.703   4.795   4.302 -0.3412 -0.4562 -0.8537
10780SOL    HW133239   1.674   4.794   4.398  0.0808 -1.0560 -0.7298
10780SOL    HW233240   1.624   4.779   4.243 -0.3399 -1.6983 -0.5357
10781SOL     OW33241   1.271   2.094   4.446 -0.0463 -0.7848  0.1895
10781SOL    HW133242   1.250   2.023   4.513 -1.5572  0.9382  1.6471
10781SOL    HW233243   1.331   2.163   4.488 -1.2129  0.4437 -0.1036
10782SOL     OW33244   0.420   1.617   4.944  0.1103 -0.3729 -0.3988
10782SOL    HW133245   0.327   1.593   4.916  0.5830 -0.8890 -1.5805
10782SOL    HW233246   0.425   1.714   4.964 -0.2398  0.0468 -2.2194
10783SOL     OW33247   2.340   2.861   3.477  0.3240 -0.7340  0.4503
10783SOL    HW133248   2.357   2.774   3.523  0.1014 -1.0358 -0.0297
10783SOL    HW233249   2.330   2.845   3.379  1.6262 -0.0043  0.1758
10784SOL     OW33250   4.184   5.051   2.809  0.3258  0.0411  0.8667
10784SOL    HW133251   4.250   4.980   2.833 -1.1610 -2.7654 -2.3401
10784SOL    HW233252   4.098   5.035   2.857 -0.3374 -1.0760 -0.6185
10785SOL     OW33253   1.302   6.494   1.231  0.4613  0.1955  0.4432
10785SOL    HW133254   1.330   6.423   1.296  0.8392 -0.5646 -0.5410
10785SOL    HW233255   1.341   6.582   1.259  1.8756 -0.3984  0.4279
10786SOL     OW33256   3.453   1.459   4.450 -0.0038 -0.2294 -0.2011
10786SOL    HW133257   3.404   1.424   4.529 -0.8555 -0.2384 -0.7178
10786SOL    HW233258   3.463   1.387   4.381 -0.0651  0.0196 -0.4749
10787SOL     OW33259   3.214   1.250   5.108  0.2420  0.8037  0.0106
10787SOL    HW133260   3.130   1.294   5.078 -0.1517 -1.3490 -2.3895
10787SOL    HW233261   3.281   1.251   5.033  1.3990  0.2349  1.0033
10788SOL     OW33262   2.886   5.639   1.610  0.8868 -0.6731 -0.1677
10788SOL    HW133263   2.859   5.693   1.530 -1.1419 -2.1958 -0.6205
10788SOL    HW233264   2.981   5.659   1.634  0.2895  2.9961 -0.2954
10789SOL     OW33265   0.234   0.893   3.913  0.2166  0.7336  0.3522
10789SOL    HW133266   0.329   0.903   3.941  0.7120 -1.4350 -0.3750
10789SOL    HW233267   0.220   0.935   3.824  1.0161 -0.6353 -0.4482
10790SOL     OW33268   2.203   1.981   4.393  0.0776 -0.4200  0.1713
10790SOL    HW133269   2.209   1.901   4.453  1.3411 -1.3319 -1.1226
10790SOL    HW233270   2.141   1.962   4.317 -0.8719  0.4412  0.6995
10791SOL     OW33271   1.261   3.328   3.363 -0.0940  0.2656  0.3204
10791SOL    HW133272   1.258   3.418   3.406  0.0667  0.5825 -0.3270
10791SOL    HW233273   1.172   3.306   3.323 -0.2313 -0.0116  0.7675
10792SOL     OW33274   3.207   1.336   0.820  0.0438 -0.0692  0.2646
10792SOL    HW133275   3.196   1.363   0.724 -0.5514 -0.6066  0.1765
10792SOL    HW233276   3.188   1.414   0.879  1.0135  0.4380 -0.0598
10793SOL     OW33277   5.390   2.215   4.508 -0.2260 -0.0384 -0.2490
10793SOL    HW133278   5.441   2.284   4.457 -0.8561  0.3230 -0.4121
10793SOL    HW233279   5.298   2.206   4.468 -0.2282 -0.8091 -0.0846
10794SOL     OW33280   4.670   4.021   6.999  0.3718 -0.4463 -0.1146
10794SOL    HW133281   4.668   3.967   7.082  0.5487  1.1515  0.9733
10794SOL    HW233282   4.600   4.093   7.004  1.8457  1.0730 -0.3134
10795SOL     OW33283   0.100   3.534   2.411 -0.1971  0.2145 -0.8278
10795SOL    HW133284   0.120   3.620   2.365 -1.7366  0.3315 -1.3439
10795SOL    HW233285   0.140   3.535   2.503 -1.4721  2.1505 -0.2250
10796SOL     OW33286   6.564   0.540   6.660  0.1867 -0.1059  0.1958
10796SOL    HW133287   6.583   0.598   6.580 -0.5544 -0.2953 -0.1310
10796SOL    HW233288   6.469   0.509   6.656 -0.2553  0.9669  1.8650
10797SOL     OW33289   4.176   3.419   0.653 -1.2060  0.3405 -0.0710
10797SOL    HW133290   4.255   3.421   0.591 -0.9118  0.2973  0.2972
10797SOL    HW233291   4.182   3.495   0.717 -1.1790  0.0223  0.3062
10798SOL     OW33292   0.823   6.855   6.267  0.3517 -0.3417 -0.1540
10798SOL    HW133293   0.784   6.873   6.357  1.9644 -1.4665  0.8252
10798SOL    HW233294   0.888   6.928   6.244  0.8749 -0.6993  0.1731
10799SOL     OW33295   6.484   2.585   3.662 -0.0067  0.1749  0.7328
10799SOL    HW133296   6.469   2.585   3.761 -0.4951  1.3838  0.6733
10799SOL    HW233297   6.406   2.543   3.617  0.0900 -0.1220  0.8384
10800SOL     OW33298   2.916   0.119   4.693 -0.2171  0.2932 -0.2011
10800SOL    HW133299   2.852   0.196   4.706 -0.5800 -0.1958  1.1362
10800SOL    HW233300   2.865   0.037   4.668  0.3473  0.8630 -3.5996
10801SOL     OW33301   2.237   6.858   4.818  0.4681  0.0337 -0.3493
10801SOL    HW133302   2.308   6.819   4.760  1.1219 -1.6080  1.4487
10801SOL    HW233303   2.246   6.958   4.818  0.9371  0.0383 -2.3768
10802SOL     OW33304   1.312   6.262   4.866 -0.2254 -0.2534 -0.4533
10802SOL    HW133305   1.229   6.244   4.813 -0.3235  0.3731 -0.5178
10802SOL    HW233306   1.315   6.359   4.890  0.3639 -0.3269 -0.2367
10803SOL     OW33307   5.384   4.226   3.973  0.2523 -0.1541 -0.3882
10803SOL    HW133308   5.363   4.189   3.882 -0.4340  1.9122 -1.1583
10803SOL    HW233309   5.483   4.227   3.986  0.3358 -1.0570 -0.8421
10804SOL     OW33310   4.985   6.418   6.951 -0.0774  0.2619 -0.1884
10804SOL    HW133311   5.004   6.398   7.047 -0.7038  1.6367  0.2454
10804SOL    HW233312   5.005   6.514   6.932 -0.2113  0.0787 -1.3827
10805SOL     OW33313   4.422   6.195   0.560  0.3022  0.0725  0.2074
10805SOL    HW133314   4.416   6.260   0.636  0.6904  0.3368  0.0169
10805SOL    HW233315   4.368   6.229   0.483  0.0406 -0.1156  0.3049
10806SOL     OW33316   6.675   4.958   5.446 -0.0926 -0.1007 -0.2661
10806SOL    HW133317   6.670   4.891   5.372 -0.9305  1.3121 -1.5325
10806SOL    HW233318   6.721   5.040   5.413 -1.2187  0.8722  0.5119
10807SOL     OW33319   3.928   0.905   4.692 -0.2364 -0.3931 -0.1504
10807SOL    HW133320   3.882   0.870   4.773 -0.9230  1.8464  0.4847
10807SOL    HW233321   3.867   0.895   4.613 -0.3677 -0.7266 -0.0095
10808SOL     OW33322   0.192   1.341   6.491 -0.3236  0.1933 -0.7669
10808SOL    HW133323   0.163   1.434   6.467 -0.9670 -0.1420 -1.2969
10808SOL    HW233324   0.154   1.317   6.581 -0.7854  0.1628 -0.9697
10809SOL     OW33325   2.106   3.074   2.136  0.3445  0.0670 -0.2583
10809SOL    HW133326   2.191   3.040   2.177 -0.3668 -1.2688  0.1473
10809SOL    HW233327   2.047   2.997   2.112  0.3977  0.7915 -3.1279
10810SOL     OW33328   2.925   2.016   5.971  0.3975  0.1551  0.2926
10810SOL    HW133329   2.924   1.960   6.054 -3.2482  0.9893  0.9971
10810SOL    HW233330   2.875   2.101   5.988  2.8010  2.1307 -1.7543
10811SOL     OW33331   4.765   6.634   4.339  0.0420 -0.0565 -0.0177
10811SOL    HW133332   4.681   6.677   4.305 -0.4553 -2.6040 -2.3625
10811SOL    HW233333   4.751   6.603   4.433 -1.2296  0.5589  0.0192
10812SOL     OW33334   5.784   2.190   1.422 -0.4326  0.0042 -0.1915
10812SOL    HW133335   5.826   2.099   1.417  0.0862  0.1672  0.9168
10812SOL    HW233336   5.703   2.192   1.363  0.0010 -0.9209 -0.8513
10813SOL     OW33337   3.184   0.430   2.143  0.0132  0.5537  0.3795
10813SOL    HW133338   3.199   0.499   2.214  0.9980  1.8753 -1.0427
10813SOL    HW233339   3.087   0.407   2.139  0.0426 -0.3979  2.8421
10814SOL     OW33340   2.102   4.897   3.032 -0.0428  0.0887 -0.0816
10814SOL    HW133341   2.094   4.904   2.932  3.9679  0.7961 -0.5198
10814SOL    HW233342   2.159   4.818   3.055  1.0855  1.3018  1.4521
10815SOL     OW33343   4.589   0.891   4.206 -0.1574 -0.0240 -0.2053
10815SOL    HW133344   4.502   0.843   4.220  0.8631 -1.7118  0.6911
10815SOL    HW233345   4.585   0.981   4.249 -2.3393  1.0783 -2.4415
10816SOL     OW33346   2.597   4.054   1.310 -0.2985  0.1083 -0.2544
10816SOL    HW133347   2.610   4.114   1.390  1.5217 -0.3817 -0.1188
10816SOL    HW233348   2.574   3.962   1.342 -0.4797  0.1237 -0.3416
10817SOL     OW33349   4.578   1.142   4.316  0.1829  0.4570 -0.1563
10817SOL    HW133350   4.481   1.157   4.335  0.3812 -0.5105  1.8299
10817SOL    HW233351   4.631   1.214   4.359  0.4490  0.1270  0.0637
10818SOL     OW33352   3.644   2.048   5.783  0.3745  0.8090 -0.4863
10818SOL    HW133353   3.565   2.109   5.794  0.5547  0.9052  0.3505
10818SOL    HW233354   3.675   2.018   5.873  0.2518 -0.5777 -0.8835
10819SOL     OW33355   1.320   6.542   4.836 -0.0518 -0.1992  0.2287
10819SOL    HW133356   1.332   6.534   4.737 -1.7515  0.4032 -0.0482
10819SOL    HW233357   1.295   6.636   4.859 -0.9292 -0.6252  1.0770
10820SOL     OW33358   1.916   6.274   4.659 -0.1039 -0.9124 -0.9027
10820SOL    HW133359   1.977   6.229   4.593 -1.2306 -1.8546 -1.3372
10820SOL    HW233360   1.858   6.206   4.703 -0.3179 -0.1242  0.0764
10821SOL     OW33361   6.898   5.056   1.259  0.0751 -0.4883  0.1033
10821SOL    HW133362   6.974   5.030   1.319  0.4190  0.5569  0.1452
10821SOL    HW233363   6.935   5.094   1.174 -0.3688  1.0438  0.5644
10822SOL     OW33364   0.676   4.341   6.568  0.5724 -0.1703  0.0116
10822SOL    HW133365   0.739   4.368   6.495 -0.3213 -0.1078 -0.7541
10822SOL    HW233366   0.640   4.424   6.612  0.9546 -0.2049  0.4009
10823SOL     OW33367   1.656   2.316   1.900 -0.0808  0.3926 -0.6238
10823SOL    HW133368   1.690   2.287   1.990  1.7248  2.1105 -0.7046
10823SOL    HW233369   1.586   2.387   1.913 -1.7050 -1.1286 -0.5628
10824SOL     OW33370   4.827   2.138   1.802  0.3372 -0.2562  0.0638
10824SOL    HW133371   4.895   2.074   1.839 -0.2815 -0.5728  0.6819
10824SOL    HW233372   4.847   2.230   1.834  1.6243  0.0075 -1.3607
10825SOL     OW33373   2.532   0.630   3.410 -0.3177  0.2224  0.2023
10825SOL    HW133374   2.614   0.642   3.466 -0.6172 -2.1579  1.2767
10825SOL    HW233375   2.535   0.694   3.332  3.0129 -0.4284 -0.3541
10826SOL     OW33376   5.726   4.220   1.214  0.1826  0.7307  0.6391
10826SOL    HW133377   5.817   4.239   1.177  1.2078 -1.7715  1.6153
10826SOL    HW233378   5.725   4.128   1.254 -2.2469  1.4093  2.3760
10827SOL     OW33379   1.458   3.414   4.575 -0.5027  0.1516 -0.1630
10827SOL    HW133380   1.473   3.345   4.646  0.9659  0.6040  0.0017
10827SOL    HW233381   1.469   3.373   4.485  0.1396  0.1224 -0.0708
10828SOL     OW33382   1.556   5.253   1.271 -0.0647  0.4045  0.5219
10828SOL    HW133383   1.490   5.327   1.287 -0.3448  0.0809  0.8934
10828SOL    HW233384   1.530   5.173   1.326 -1.3003 -0.9279 -1.8516
10829SOL     OW33385   2.026   3.793   3.880 -0.1231  0.6889  0.9827
10829SOL    HW133386   2.064   3.718   3.826  4.2344  2.2578  1.4409
10829SOL    HW233387   1.926   3.791   3.876 -0.1159 -2.7941 -2.0640
10830SOL     OW33388   4.587   1.384   1.977 -0.1112  0.4222  0.4043
10830SOL    HW133389   4.513   1.449   1.958 -1.8052 -1.6411 -0.3860
10830SOL    HW233390   4.575   1.345   2.068 -0.0828 -0.0281  0.2175
10831SOL     OW33391   6.054   2.889   3.321  0.4800  0.1948  0.0567
10831SOL    HW133392   5.974   2.844   3.280  0.2702  2.0024 -1.6700
10831SOL    HW233393   6.132   2.827   3.319 -0.1786 -0.6353 -0.7740
10832SOL     OW33394   0.300   3.217   3.714  0.4215 -0.2747  0.4828
10832SOL    HW133395   0.362   3.164   3.656 -0.7241  0.4061 -1.4652
10832SOL    HW233396   0.226   3.158   3.746 -0.3910 -0.1226 -0.9936
10833SOL     OW33397   3.831   1.818   3.037 -0.0771 -0.2515  0.7558
10833SOL    HW133398   3.824   1.769   2.950 -1.8192 -0.5135  0.9945
10833SOL    HW233399   3.742   1.815   3.083  1.1851 -1.4510  3.2947
10834SOL     OW33400   5.176   1.558   5.542  0.3508  0.1097 -0.1381
10834SOL    HW133401   5.249   1.529   5.481  0.6641  1.2745 -0.3550
10834SOL    HW233402   5.174   1.658   5.546  1.0467  0.0881  2.6236
10835SOL     OW33403   6.155   3.941   3.870  0.4544 -0.3860 -0.2305
10835SOL    HW133404   6.223   3.994   3.819 -0.6677  0.4212 -0.9330
10835SOL    HW233405   6.153   3.847   3.835 -0.6060  0.2590 -2.0498
10836SOL     OW33406   0.331   1.666   6.108  0.4191 -0.3868 -0.1288
10836SOL    HW133407   0.332   1.749   6.164 -1.7547 -1.3609  1.5090
10836SOL    HW233408   0.318   1.586   6.167  0.6631 -1.7428 -1.8270
10837SOL     OW33409   1.514   5.892   0.244  0.4709 -0.6170 -0.5392
10837SOL    HW133410   1.515   5.923   0.340  0.0251  2.0486 -1.3009
10837SOL    HW233411   1.420   5.896   0.209  0.8140 -0.2926 -1.4533
10838SOL     OW33412   1.496   1.260   1.404 -0.8610  0.3554 -0.3417
10838SOL    HW133413   1.434   1.195   1.359  0.2925  0.1784 -1.7261
10838SOL    HW233414   1.577   1.211   1.435 -0.7770  0.8387  0.2154
10839SOL     OW33415   6.905   1.216   0.546  0.3214  0.1882  0.2759
10839SOL    HW133416   6.916   1.204   0.448  1.0097 -1.2009  0.4928
10839SOL    HW233417   6.977   1.167   0.594 -0.8454 -0.4009  1.5134
10840SOL     OW33418   2.559   6.413   1.794  0.5622 -0.0897 -0.7164
10840SOL    HW133419   2.631   6.343   1.791  1.0726  0.4232 -0.6153
10840SOL    HW233420   2.582   6.481   1.863  0.4482  0.5818 -1.3336
10841SOL     OW33421   3.741   3.139   0.341 -0.1320 -0.4931  0.2767
10841SOL    HW133422   3.692   3.080   0.405 -1.7454 -1.8214 -2.0333
10841SOL    HW233423   3.832   3.100   0.324  0.0895 -0.4422  1.2632
10842SOL     OW33424   4.497   2.760   1.184  0.5174  0.1839  0.1850
10842SOL    HW133425   4.462   2.736   1.275  1.2551 -1.0517  0.1798
10842SOL    HW233426   4.590   2.796   1.193  1.2441 -1.4913 -0.1635
10843SOL     OW33427   0.185   0.444   3.070  0.7669  0.1856 -0.0387
10843SOL    HW133428   0.276   0.467   3.035  0.7293  0.6755  0.1822
10843SOL    HW233429   0.131   0.527   3.082  0.7007  0.0180  0.9618
10844SOL     OW33430   5.132   6.582   3.549 -0.1853 -0.0293  0.2970
10844SOL    HW133431   5.090   6.554   3.463  1.6667 -1.7690 -0.1299
10844SOL    HW233432   5.172   6.673   3.538 -0.9618  0.2530 -0.3008
10845SOL     OW33433   1.870   1.537   0.903  0.3967  0.5673  0.5463
10845SOL    HW133434   1.963   1.574   0.911  0.1326  1.1137  1.2307
10845SOL    HW233435   1.813   1.603   0.854  0.5971 -0.2028 -0.7590
10846SOL     OW33436   4.370   1.627   3.383 -0.2636 -0.6536 -0.6915
10846SOL    HW133437   4.409   1.548   3.336  1.3472  1.4227 -3.1592
10846SOL    HW233438   4.442   1.674   3.434 -0.4659  0.8654 -1.7570
10847SOL     OW33439   3.775   3.801   6.219  0.3487  0.5272  0.0735
10847SOL    HW133440   3.851   3.739   6.235  0.7750  0.4026 -2.0747
10847SOL    HW233441   3.782   3.840   6.127 -2.2577  0.4008 -0.2687
10848SOL     OW33442   6.793   6.897   6.591 -0.2347  0.5311  0.2478
10848SOL    HW133443   6.794   6.963   6.516  0.0996  0.4837  0.2077
10848SOL    HW233444   6.768   6.807   6.556 -0.8011  0.6554  0.3216
10849SOL     OW33445   1.571   5.807   3.360 -0.5412 -0.6953 -0.4376
10849SOL    HW133446   1.639   5.794   3.288  2.5716 -2.3006  2.4947
10849SOL    HW233447   1.591   5.890   3.411 -1.0191 -0.9742  0.2280
10850SOL     OW33448   4.865   0.826   1.393 -0.0146 -0.2000 -0.0619
10850SOL    HW133449   4.926   0.795   1.466  0.6208 -0.8194 -0.8393
10850SOL    HW233450   4.806   0.751   1.364  1.0665 -0.5593 -1.4872
10851SOL     OW33451   3.563   1.987   6.312 -0.6273  0.2026 -0.6885
10851SOL    HW133452   3.612   1.914   6.265  0.2042  0.7401 -0.6740
10851SOL    HW233453   3.473   1.999   6.270  0.4484  1.3231 -2.8513
10852SOL     OW33454   6.942   1.501   5.693 -0.2089 -0.4713 -0.0191
10852SOL    HW133455   6.976   1.555   5.616  1.0494 -0.3799  0.5803
10852SOL    HW233456   6.944   1.404   5.669  1.2882 -0.5345  0.2877
10853SOL     OW33457   2.602   0.325   1.471  0.0134 -0.6382  1.5578
10853SOL    HW133458   2.508   0.356   1.484  0.3566  1.1688  0.1682
10853SOL    HW233459   2.659   0.357   1.546  0.2071  1.5981  0.5366
10854SOL     OW33460   1.372   5.878   0.941  0.1217 -0.1566 -0.5219
10854SOL    HW133461   1.354   5.844   0.849  0.4735 -1.6955 -0.0355
10854SOL    HW233462   1.471   5.883   0.957  0.0593 -0.3590 -0.0572
10855SOL     OW33463   1.270   5.566   0.696 -0.1170 -0.0392 -0.0849
10855SOL    HW133464   1.268   5.484   0.753 -0.2325 -0.7940 -1.1363
10855SOL    HW233465   1.365   5.590   0.675 -0.1055 -1.3461 -1.7323
10856SOL     OW33466   5.246   2.282   1.221 -0.0601 -0.0727  0.5942
10856SOL    HW133467   5.211   2.238   1.138  2.2664 -1.3901  0.2226
10856SOL    HW233468   5.216   2.377   1.224 -3.7600 -1.0514  0.4761
10857SOL     OW33469   6.257   0.754   6.542  0.0719  0.0197  0.1688
10857SOL    HW133470   6.270   0.655   6.533 -0.9692 -0.1605  0.4199
10857SOL    HW233471   6.230   0.775   6.636  0.1489  0.5278  0.0804
10858SOL     OW33472   0.086   2.892   6.657 -0.0557 -0.7397  0.2072
10858SOL    HW133473   0.085   2.991   6.644 -1.1720 -0.7829 -0.0972
10858SOL    HW233474  -0.006   2.860   6.676  0.4022 -1.6416  0.9857
10859SOL     OW33475   0.380   6.740   1.455 -0.3499 -0.3589 -0.1412
10859SOL    HW133476   0.456   6.677   1.472  0.0809  0.1055 -0.3204
10859SOL    HW233477   0.416   6.831   1.438 -1.0256  0.2759  1.5977
10860SOL     OW33478   0.538   3.746   2.141  0.1153 -0.5257  0.0702
10860SOL    HW133479   0.564   3.778   2.050  0.8178  0.9193  0.7492
10860SOL    HW233480   0.596   3.668   2.166  0.7475 -0.1676 -0.2467
10861SOL     OW33481   1.817   3.334   1.828 -0.1964 -0.2324 -0.1011
10861SOL    HW133482   1.916   3.339   1.842 -0.0192 -1.0031 -0.9612
10861SOL    HW233483   1.770   3.348   1.915  0.6484  0.5606  0.2413
10862SOL     OW33484   3.936   4.770   6.842 -0.1817 -0.1453  0.2554
10862SOL    HW133485   3.914   4.771   6.939  0.1902 -2.2419  0.4128
10862SOL    HW233486   4.012   4.832   6.824 -2.1060  2.5055  0.7378
10863SOL     OW33487   2.142   1.717   2.932 -0.8798 -0.0534 -0.7076
10863SOL    HW133488   2.049   1.753   2.937 -1.0432 -0.5552 -0.0027
10863SOL    HW233489   2.175   1.698   3.024  0.2465  0.9218 -0.8883
10864SOL     OW33490   2.901   5.402   3.429 -0.4482 -0.2185  0.7246
10864SOL    HW133491   2.944   5.313   3.417 -0.2059 -0.1054  0.7551
10864SOL    HW233492   2.936   5.467   3.361  1.3015  0.5582  2.2884
10865SOL     OW33493   1.843   1.278   2.913  0.1932  0.1408 -0.2805
10865SOL    HW133494   1.901   1.204   2.880  0.5560  0.1918  0.2402
10865SOL    HW233495   1.879   1.366   2.880  0.1830  0.1422 -0.2876
10866SOL     OW33496   6.105   3.515   2.444 -0.2870  0.2854 -0.0310
10866SOL    HW133497   6.166   3.565   2.382  1.6179 -1.9145 -0.0609
10866SOL    HW233498   6.027   3.480   2.392  0.4209 -0.1109 -0.8727
10867SOL     OW33499   3.096   1.714   1.222 -0.8013  0.3866  0.0920
10867SOL    HW133500   3.104   1.749   1.315  0.5339 -0.4254  0.3065
10867SOL    HW233501   3.022   1.648   1.217 -0.7929  0.3384  0.6063
10868SOL     OW33502   1.105   5.919   6.178 -0.1242  0.2645  0.0567
10868SOL    HW133503   1.160   5.836   6.186 -0.5726  0.0671  1.4801
10868SOL    HW233504   1.098   5.962   6.268 -3.3826 -0.4228  0.2477
10869NA      NA33505   6.983   0.927   6.241  0.0363  0.1202  0.5314
10870NA      NA33506   3.979   4.291   5.483 -0.7891 -0.0753 -0.4552
10871NA      NA33507   0.253   4.120   3.271  0.0263  0.2223 -0.1148
10872NA      NA33508   5.101   3.785   3.426  0.1392  0.0641  0.0023
10873NA      NA33509   2.558   2.332   5.186  0.4032 -0.3867 -0.5955
10874NA      NA33510   3.933   5.542   0.144  0.2790  0.3309 -0.4949
10875NA      NA33511   2.189   3.688   6.090 -0.0027 -0.5255 -0.1165
10876NA      NA33512   3.607   4.145   1.088 -0.0289 -0.3688 -0.6534
10877NA      NA33513   5.409   4.135   6.662 -0.5000  0.5081 -0.6382
10878NA      NA33514   2.856   1.259   0.167  0.4491 -0.5569  0.4524
10879NA      NA33515   5.311   5.995   2.235  0.1582  0.0046 -0.3613
10880NA      NA33516   2.265   6.304   5.174  0.2828  0.1467 -0.0342
10881NA      NA33517   3.895   5.599   2.523 -0.3893 -0.3795  0.0230
10882NA      NA33518   3.941   3.747   7.019  0.5448  0.3231 -0.2797
   7.02207   7.02207   7.02207
