CNT in water
33518
    1C        C    1   2.827   2.754   4.747  0.3433  0.0225  0.2501
    1C        C    2   2.881   2.706   4.869 -0.1026 -0.0144  0.4357
    1C        C    3   2.832   2.766   4.986  0.3673  0.4970  0.3780
    1C        C    4   2.832   2.756   4.256  0.0767 -0.1737 -0.0801
    1C        C    5   2.885   2.710   4.381  0.0888  0.1177  0.0255
    1C        C    6   2.829   2.757   4.503  0.3854  0.1683  0.1426
    1C        C    7   2.998   2.625   4.625 -0.1617 -0.4272 -0.0365
    1C        C    8   2.882   2.706   4.625  0.0839 -0.0796  0.1718
    1C        C    9   3.063   2.589   4.746 -0.1212 -0.0652  0.0479
    1C        C   10   2.993   2.619   4.865 -0.2729 -0.2145 -0.0029
    1C        C   11   3.161   2.474   4.977 -0.1796 -0.4717 -0.5575
    1C        C   12   3.040   2.546   4.975 -0.0020 -0.1525 -0.0780
    1C        C   13   2.831   2.755   3.764  0.0671 -0.0956  0.4162
    1C        C   14   2.886   2.706   3.886  0.2723  0.0655  0.3944
    1C        C   15   2.833   2.757   4.009 -0.6968 -0.0926  0.0549
    1C        C   16   3.000   2.626   4.135 -0.0901 -0.0614  0.2384
    1C        C   17   2.884   2.708   4.133 -0.1421 -0.1425 -0.1843
    1C        C   18   3.064   2.593   4.258 -0.1891 -0.5314  0.1714
    1C        C   19   3.002   2.629   4.381 -0.0730 -0.1148  0.1078
    1C        C   20   3.194   2.534   4.504 -0.0613 -0.3838  0.1283
    1C        C   21   3.063   2.589   4.503 -0.0772 -0.4232  0.0097
    1C        C   22   3.265   2.513   4.626  0.3711  0.6295  0.0593
    1C        C   23   3.193   2.530   4.747 -0.0309  0.1272 -0.1041
    1C        C   24   3.396   2.465   4.866  0.2189  0.4150  0.1010
    1C        C   25   3.254   2.485   4.868  0.1482  0.0128 -0.2353
    1C        C   26   3.477   2.465   4.980  0.2847  0.0125  0.0611
    1C        C   27   2.832   2.748   3.265 -0.2214  0.1544 -0.0758
    1C        C   28   2.886   2.705   3.390  0.3100 -0.0163 -0.3536
    1C        C   29   2.834   2.750   3.516  0.8232  0.4881 -0.3150
    1C        C   30   3.000   2.621   3.638 -0.5231 -0.0065 -0.0817
    1C        C   31   2.885   2.706   3.641 -0.3230  0.2633  0.0891
    1C        C   32   3.061   2.588   3.763  0.1587 -0.1225 -0.4409
    1C        C   33   3.002   2.624   3.888  0.7409  0.6908 -0.3884
    1C        C   34   3.193   2.530   4.010 -0.1555  0.6143  0.0130
    1C        C   35   3.062   2.587   4.012 -0.2588  0.3772  0.0104
    1C        C   36   3.261   2.515   4.135 -0.1045  0.4143 -0.0397
    1C        C   37   3.195   2.536   4.259 -0.2540 -0.6825  0.0759
    1C        C   38   3.403   2.484   4.380 -0.1315 -0.2819  0.2437
    1C        C   39   3.264   2.513   4.382 -0.1735 -0.4554  0.0768
    1C        C   40   3.475   2.475   4.503  0.2880  0.3559  0.0527
    1C        C   41   3.403   2.482   4.626  0.3120  0.3555  0.0679
    1C        C   42   3.618   2.464   4.744  0.2086  0.1464 -0.0071
    1C        C   43   3.475   2.463   4.747  0.2099  0.1207  0.0948
    1C        C   44   3.693   2.471   4.864  0.2032 -0.5406  0.0413
    1C        C   45   3.616   2.462   4.981  0.2811 -0.2009  0.1175
    1C        C   46   2.822   2.736   2.774  0.1525  0.1492 -0.1220
    1C        C   47   2.878   2.691   2.897  0.1841  0.3816 -0.0480
    1C        C   48   2.827   2.742   3.020  0.4444 -0.1027  0.2649
    1C        C   49   2.999   2.612   3.146  0.2767 -0.2816 -0.1219
    1C        C   50   2.883   2.695   3.143  0.3493 -0.1598  0.2892
    1C        C   51   3.061   2.580   3.270 -0.1482  0.3522  0.2584
    1C        C   52   2.999   2.618   3.393  0.1276 -0.2335  0.5826
    1C        C   53   3.195   2.528   3.518  0.4780 -0.3569 -0.3158
    1C        C   54   3.064   2.584   3.516  0.8273  0.5452  0.4362
    1C        C   55   3.261   2.506   3.643 -0.2793  0.0421  0.1588
    1C        C   56   3.192   2.530   3.765  0.0525 -0.3446  0.4283
    1C        C   57   3.402   2.483   3.888  0.3052  0.4417 -0.1955
    1C        C   58   3.261   2.507   3.887  0.1700 -0.3242  0.3657
    1C        C   59   3.473   2.482   4.012 -0.4243  0.8962  0.2338
    1C        C   60   3.401   2.488   4.135 -0.1315  0.2700  0.4466
    1C        C   61   3.617   2.482   4.256  0.1073 -0.3259 -0.1727
    1C        C   62   3.474   2.478   4.257  0.0865  0.4013  0.3322
    1C        C   63   3.688   2.489   4.379  0.0793 -0.4085 -0.1475
    1C        C   64   3.617   2.476   4.501  0.2927  0.0515  0.0312
    1C        C   65   3.826   2.521   4.620  0.2063  0.5754  0.0174
    1C        C   66   3.690   2.480   4.623  0.2360  0.4796  0.0528
    1C        C   67   3.896   2.544   4.742  0.1290  0.0309  0.1709
    1C        C   68   3.830   2.509   4.862  0.2120 -0.5765  0.0420
    1C        C   69   4.039   2.573   4.980 -0.4630  0.1722  0.4784
    1C        C   70   3.914   2.509   4.974 -0.2389 -0.2639  0.3822
    1C        C   71   2.810   2.720   2.285 -0.0366  0.1209  0.1273
    1C        C   72   2.867   2.674   2.406 -0.3639 -0.1799  0.1680
    1C        C   73   2.815   2.728   2.528 -0.1999  0.2076  0.0684
    1C        C   74   2.991   2.606   2.651  0.2654  0.2701 -0.0447
    1C        C   75   2.873   2.685   2.651  0.2310  0.2251 -0.1234
    1C        C   76   3.057   2.575   2.774 -0.1010 -0.5316 -0.0434
    1C        C   77   2.995   2.610   2.897 -0.2036 -0.1887 -0.1878
    1C        C   78   3.190   2.524   3.021  0.0441  0.0815  0.2632
    1C        C   79   3.057   2.576   3.021 -0.2115 -0.5616 -0.2774
    1C        C   80   3.261   2.504   3.143  0.1131 -0.4108  0.1422
    1C        C   81   3.193   2.526   3.267 -0.2344  0.1587 -0.1473
    1C        C   82   3.399   2.478   3.392  0.3751  0.3267  0.5450
    1C        C   83   3.259   2.505   3.392  0.2889 -0.1120 -0.4609
    1C        C   84   3.473   2.472   3.514  0.5870 -0.8264  0.3767
    1C        C   85   3.401   2.480   3.637 -0.3058 -0.0258 -0.1815
    1C        C   86   3.612   2.478   3.763 -0.0172 -0.3497  0.4775
    1C        C   87   3.469   2.475   3.762 -0.0230 -0.1073 -0.3395
    1C        C   88   3.686   2.493   3.884  0.3516 -0.2690  0.2423
    1C        C   89   3.615   2.486   4.008 -0.3931 -0.2195 -0.1764
    1C        C   90   3.824   2.528   4.131 -0.1476 -0.2810  0.1593
    1C        C   91   3.686   2.492   4.131 -0.1476 -0.2961 -0.3131
    1C        C   92   3.893   2.553   4.253  0.1447 -0.1960 -0.0194
    1C        C   93   3.825   2.527   4.376  0.2038 -0.8382 -0.1163
    1C        C   94   4.021   2.615   4.498  0.0433  0.1093  0.0319
    1C        C   95   3.893   2.551   4.499  0.0141  0.1605 -0.1951
    1C        C   96   4.084   2.652   4.620 -0.1543  0.2960  0.0868
    1C        C   97   4.023   2.609   4.740 -0.0466  0.3786  0.1757
    1C        C   98   4.179   2.752   4.862 -0.5960  0.2385 -0.2851
    1C        C   99   4.088   2.641   4.863 -0.4313  0.1069  0.4511
    1C        C  100   4.197   2.832   4.976 -0.3061 -0.1146 -0.0816
    1C        C  101   2.806   2.719   2.046  0.3184  0.0525  0.2714
    1C        C  102   2.975   2.577   2.165  0.1314 -0.0929  0.0816
    1C        C  103   2.860   2.663   2.164  0.1464 -0.0697  0.2923
    1C        C  104   3.046   2.551   2.286 -0.0656 -0.1108  0.1936
    1C        C  105   2.985   2.595   2.406 -0.2495 -0.0127  0.0671
    1C        C  106   3.185   2.516   2.528  0.1479  0.1789 -0.2042
    1C        C  107   3.053   2.569   2.528  0.2811  0.5155 -0.1127
    1C        C  108   3.256   2.499   2.650  0.1338  0.2208 -0.1862
    1C        C  109   3.189   2.521   2.774 -0.0527 -0.4210 -0.1650
    1C        C  110   3.398   2.476   2.895 -0.4461 -0.5400 -0.4102
    1C        C  111   3.258   2.504   2.898 -0.3248  0.0573  0.0593
    1C        C  112   3.469   2.469   3.019 -0.0732 -0.2288 -0.5959
    1C        C  113   3.401   2.477   3.144  0.1358 -0.3270 -0.4726
    1C        C  114   3.613   2.475   3.263 -0.6578 -0.1249 -0.4946
    1C        C  115   3.471   2.471   3.269 -0.6366 -0.1846 -0.0319
    1C        C  116   3.681   2.488   3.388 -0.0760  0.4149 -0.8540
    1C        C  117   3.616   2.477   3.515  0.5780 -0.1303 -0.5644
    1C        C  118   3.823   2.522   3.633 -0.4431 -0.7175 -0.2924
    1C        C  119   3.685   2.488   3.640 -0.7228  0.4523  0.1116
    1C        C  120   3.887   2.549   3.758 -0.0039  0.0723 -0.6806
    1C        C  121   3.824   2.528   3.884  0.2048  0.3455 -0.5332
    1C        C  122   4.017   2.619   4.004 -0.7120  0.0373 -0.1955
    1C        C  123   3.891   2.553   4.008 -0.3111 -0.7285 -0.0276
    1C        C  124   4.077   2.656   4.129 -0.2653  0.1311 -0.4356
    1C        C  125   4.020   2.618   4.253  0.0157  0.0675 -0.3233
    1C        C  126   4.192   2.746   4.374  0.2435 -0.5115 -0.1612
    1C        C  127   4.081   2.657   4.376 -0.5528  0.4554 -0.1540
    1C        C  128   4.239   2.799   4.497 -0.1043 -0.1173 -0.1908
    1C        C  129   4.192   2.744   4.620  0.3701 -0.3034 -0.0848
    1C        C  130   4.322   2.916   4.740 -0.1217  0.0390 -0.0669
    1C        C  131   4.238   2.800   4.742  0.2593 -0.2400 -0.0686
    1C        C  132   4.340   2.993   4.858 -0.3911  0.1401 -0.0835
    1C        C  133   4.269   2.951   4.972 -0.0213 -0.2807  0.0013
    1C        C  134   3.159   2.451   2.057 -0.1787 -0.6328  0.4231
    1C        C  135   3.026   2.497   2.058 -0.0876 -0.3638  0.1765
    1C        C  136   3.247   2.461   2.166  0.1275  0.0175  0.1190
    1C        C  137   3.179   2.499   2.284 -0.0571 -0.0905  0.0487
    1C        C  138   3.392   2.464   2.405  0.1933 -0.2680 -0.1349
    1C        C  139   3.253   2.490   2.405  0.2497  0.0518 -0.1248
    1C        C  140   3.466   2.461   2.527  0.0856  0.0290 -0.0582
    1C        C  141   3.395   2.472   2.650  0.1168  0.1105 -0.0448
    1C        C  142   3.612   2.475   2.771  0.2346  0.4322 -0.0599
    1C        C  143   3.469   2.469   2.771  0.2277  0.4671 -0.0996
    1C        C  144   3.682   2.484   2.895 -0.1578  0.1341  0.1908
    1C        C  145   3.611   2.474   3.018 -0.0514 -0.5052  0.2049
    1C        C  146   3.822   2.521   3.142  0.0900  0.6512 -0.3455
    1C        C  147   3.685   2.484   3.140  0.1703  0.3161  0.0100
    1C        C  148   3.887   2.547   3.266 -0.8349  0.2000  0.2374
    1C        C  149   3.819   2.522   3.389 -0.0050  0.1333  0.6864
    1C        C  150   4.018   2.611   3.513  0.1887  0.8685 -0.4804
    1C        C  151   3.893   2.543   3.510  0.4487  0.3410  0.3751
    1C        C  152   4.077   2.650   3.637 -0.5918 -0.4017  0.3098
    1C        C  153   4.014   2.614   3.760 -0.2193  0.4753  0.7695
    1C        C  154   4.190   2.745   3.883  0.5569  0.2159 -0.3347
    1C        C  155   4.078   2.657   3.881  0.7139 -0.0178  0.4675
    1C        C  156   4.241   2.795   4.007 -0.2660 -0.3004  0.2247
    1C        C  157   4.189   2.744   4.130  0.1485 -0.3839  0.3734
    1C        C  158   4.335   2.906   4.250  0.4970  0.0259 -0.2501
    1C        C  159   4.243   2.797   4.251 -0.0925  0.5118  0.1054
    1C        C  160   4.370   2.968   4.373 -0.1200 -0.1008  0.0017
    1C        C  161   4.328   2.911   4.496  0.3429 -0.4601  0.0034
    1C        C  162   4.432   3.099   4.616 -0.5217  0.2508 -0.2010
    1C        C  163   4.366   2.974   4.618 -0.2711  0.1139 -0.0901
    1C        C  164   4.458   3.171   4.735 -0.1903  0.1682 -0.2175
    1C        C  165   4.417   3.112   4.857  0.4498 -0.3914 -0.2680
    1C        C  166   4.503   3.310   4.974 -0.2044  0.1717  0.0350
    1C        C  167   4.459   3.178   4.973 -0.0555  0.1216 -0.3732
    1C        C  168   3.463   2.420   2.047 -0.1128 -0.2681 -0.4169
    1C        C  169   3.388   2.443   2.163  0.2034  0.6190 -0.3701
    1C        C  170   3.606   2.451   2.285  0.0537  0.1272  0.1417
    1C        C  171   3.463   2.449   2.283  0.0580 -0.1879 -0.2267
    1C        C  172   3.682   2.466   2.404  0.2254 -0.1650  0.0719
    1C        C  173   3.609   2.464   2.525  0.0913 -0.0141 -0.0041
    1C        C  174   3.819   2.516   2.646  0.1944  0.3003  0.1805
    1C        C  175   3.681   2.480   2.647  0.1833  0.3207 -0.0960
    1C        C  176   3.887   2.542   2.768  0.5855 -0.4704  0.1255
    1C        C  177   3.821   2.519   2.892 -0.0709 -0.2165 -0.1742
    1C        C  178   4.015   2.604   3.016  0.2713 -0.0552  0.6383
    1C        C  179   3.887   2.542   3.016  0.2982 -0.1338 -0.3782
    1C        C  180   4.078   2.646   3.137  0.4197  0.4605  0.3820
    1C        C  181   4.015   2.610   3.260 -0.9361  0.3479 -0.3284
    1C        C  182   4.187   2.732   3.387  0.0499  0.1383  1.1309
    1C        C  183   4.073   2.645   3.386  0.2159 -0.0815 -0.7283
    1C        C  184   4.238   2.790   3.507  0.5545  0.5801  0.6993
    1C        C  185   4.189   2.738   3.631 -0.1451 -1.0115 -0.2222
    1C        C  186   4.331   2.896   3.757  0.5647 -0.5691  1.1061
    1C        C  187   4.237   2.788   3.756 -0.0738 -0.0141 -0.6437
    1C        C  188   4.374   2.962   3.877  0.9962  0.1460  0.5632
    1C        C  189   4.331   2.906   4.001 -0.2456 -0.3274 -0.0682
    1C        C  190   4.440   3.088   4.124 -0.0800  0.1541  0.4563
    1C        C  191   4.373   2.962   4.125  0.1827 -0.0030 -0.3609
    1C        C  192   4.467   3.158   4.246  0.3234  0.2930  0.2938
    1C        C  193   4.439   3.093   4.369  0.2104 -0.2759 -0.0222
    1C        C  194   4.504   3.298   4.491  0.5532 -0.0429  0.0918
    1C        C  195   4.462   3.162   4.492 -0.4259  0.2453 -0.1847
    1C        C  196   4.520   3.372   4.611  0.5164  0.0242  0.0639
    1C        C  197   4.504   3.307   4.736 -0.4333  0.2568  0.0805
    1C        C  198   4.550   3.524   4.852  0.9707  0.0198 -0.2801
    1C        C  199   4.524   3.382   4.855 -0.2087  0.2298  0.0666
    1C        C  200   4.575   3.609   4.965  0.2840 -0.0513 -0.0685
    1C        C  201   3.603   2.403   2.050 -0.0976 -0.0553  0.2446
    1C        C  202   3.818   2.488   2.161 -0.0088  0.0557 -0.0865
    1C        C  203   3.681   2.444   2.163  0.0884 -0.2399  0.1827
    1C        C  204   3.890   2.522   2.279  0.1840 -0.3235 -0.0925
    1C        C  205   3.819   2.502   2.401  0.2996 -0.4425 -0.0433
    1C        C  206   4.015   2.597   2.521  0.0775 -0.2949 -0.0854
    1C        C  207   3.887   2.535   2.522  0.1597 -0.4636  0.0420
    1C        C  208   4.076   2.636   2.643  0.3497 -0.4603 -0.1611
    1C        C  209   4.015   2.604   2.768  0.3591 -0.0035 -0.0347
    1C        C  210   4.190   2.727   2.888  0.1144 -0.7419 -0.1231
    1C        C  211   4.075   2.642   2.892 -0.2160 -0.2790  0.3318
    1C        C  212   4.240   2.776   3.012 -0.1452  0.2390 -0.3845
    1C        C  213   4.192   2.732   3.139  0.8262 -0.0606 -0.1096
    1C        C  214   4.330   2.892   3.257 -0.1822 -0.8273 -0.2411
    1C        C  215   4.241   2.781   3.264 -0.5910 -0.4459  0.6119
    1C        C  216   4.367   2.950   3.382  0.4314 -0.0905 -0.7468
    1C        C  217   4.330   2.899   3.510  0.6314  0.5617 -0.4313
    1C        C  218   4.435   3.084   3.624 -0.2246 -0.8980 -0.2824
    1C        C  219   4.373   2.955   3.634 -0.8631 -0.5309  0.6106
    1C        C  220   4.461   3.148   3.749  0.0948 -0.1057 -0.7535
    1C        C  221   4.438   3.089   3.877 -0.0354  0.6829 -0.4123
    1C        C  222   4.501   3.293   3.994 -0.0954 -0.4753 -0.4215
    1C        C  223   4.466   3.155   4.001  0.5956 -0.6253  0.1568
    1C        C  224   4.512   3.362   4.118 -0.0545 -0.1214 -0.6196
    1C        C  225   4.503   3.296   4.244  0.1564  0.3366 -0.3574
    1C        C  226   4.520   3.509   4.363  0.3294 -0.1278 -0.1597
    1C        C  227   4.516   3.367   4.367 -0.2821 -0.1132 -0.0388
    1C        C  228   4.515   3.583   4.485 -0.4594 -0.2449 -0.1100
    1C        C  229   4.527   3.514   4.609  0.2708  0.0415 -0.0137
    1C        C  230   4.500   3.731   4.726  0.5426  0.3235  0.1899
    1C        C  231   4.531   3.592   4.728 -0.2150  0.1384 -0.0514
    1C        C  232   4.490   3.808   4.845  0.6090  0.4741  0.1054
    1C        C  233   4.538   3.745   4.960 -0.0899 -0.1426  0.0685
    1C        C  234   4.006   2.598   2.039  0.1332  0.1371 -0.2985
    1C        C  235   3.886   2.527   2.044  0.1263  0.1697  0.0294
    1C        C  236   4.077   2.631   2.155  0.0212 -0.2649 -0.1136
    1C        C  237   4.015   2.590   2.276  0.1545 -0.2672 -0.0471
    1C        C  238   4.191   2.717   2.398 -0.0530 -0.0129 -0.0347
    1C        C  239   4.076   2.631   2.397  0.2509 -0.4268 -0.0395
    1C        C  240   4.245   2.767   2.519  0.0942 -0.3693  0.0492
    1C        C  241   4.191   2.721   2.642  0.0279 -0.0113  0.1581
    1C        C  242   4.334   2.882   2.765 -0.3700  0.3247  0.0073
    1C        C  243   4.244   2.773   2.764  0.3476 -0.2823  0.1395
    1C        C  244   4.373   2.943   2.888 -0.3717 -0.3280  0.3334
    1C        C  245   4.331   2.885   3.012  0.2247 -0.0544  0.6643
    1C        C  246   4.433   3.078   3.135  0.1831  0.3968 -0.2650
    1C        C  247   4.372   2.949   3.133  0.2619  0.3442  0.4403
    1C        C  248   4.455   3.146   3.259 -0.1568 -0.8580  0.4944
    1C        C  249   4.428   3.079   3.382 -0.5452  0.4097  1.1256
    1C        C  250   4.495   3.289   3.504 -0.2012  0.9019 -0.6736
    1C        C  251   4.458   3.151   3.501  0.6973  0.6115  0.6924
    1C        C  252   4.507   3.359   3.628 -0.4604 -0.8139  0.3382
    1C        C  253   4.501   3.285   3.750  0.5924 -0.2526  0.7429
    1C        C  254   4.516   3.505   3.872 -0.0196  0.6850 -0.7157
    1C        C  255   4.511   3.363   3.870  0.0053  0.6539  0.2084
    1C        C  256   4.513   3.577   3.996  0.0066 -0.5320  0.0166
    1C        C  257   4.517   3.505   4.119  0.3023 -0.1285  0.2603
    1C        C  258   4.491   3.721   4.239  0.4224  0.3009 -0.2082
    1C        C  259   4.512   3.580   4.240 -0.3261  0.1834  0.0531
    1C        C  260   4.469   3.792   4.361 -0.4205 -0.3206  0.0193
    1C        C  261   4.489   3.722   4.483  0.0647 -0.1359  0.0577
    1C        C  262   4.420   3.929   4.602  0.2116 -0.0580  0.0098
    1C        C  263   4.472   3.796   4.603  0.1123 -0.1032  0.0534
    1C        C  264   4.392   3.999   4.722  0.0749  0.0984 -0.1067
    1C        C  265   4.429   3.936   4.843 -0.0326  0.1754 -0.0291
    1C        C  266   4.309   4.121   4.955 -0.1735  0.3139  0.1074
    1C        C  267   4.380   4.001   4.958 -0.2262  0.2749 -0.1641
    1C        C  268   4.253   2.763   2.037 -0.4839 -0.1984  0.2535
    1C        C  269   4.192   2.714   2.154  0.1747 -0.4662  0.4800
    1C        C  270   4.338   2.873   2.276  0.3144  0.1250 -0.0869
    1C        C  271   4.245   2.765   2.275  0.3147  0.1200  0.1772
    1C        C  272   4.378   2.936   2.396  0.0649  0.1013  0.0115
    1C        C  273   4.336   2.877   2.518 -0.2798 -0.0523 -0.1747
    1C        C  274   4.440   3.065   2.640 -0.4283 -0.0704  0.2612
    1C        C  275   4.376   2.938   2.640  0.1652 -0.3825 -0.1433
    1C        C  276   4.465   3.136   2.761  0.5140 -0.0561  0.0696
    1C        C  277   4.437   3.070   2.885 -0.4328 -0.3101 -0.2715
    1C        C  278   4.501   3.275   3.007  0.3547 -0.1035  0.4370
    1C        C  279   4.460   3.138   3.008 -0.1065  0.0223 -0.5067
    1C        C  280   4.509   3.352   3.127 -0.4580  0.4322  0.1469
    1C        C  281   4.495   3.283   3.251  0.1144 -0.9959 -0.5695
    1C        C  282   4.515   3.494   3.377  0.1421  0.0193  0.7643
    1C        C  283   4.505   3.351   3.376 -0.1124  0.0322 -1.0970
    1C        C  284   4.514   3.572   3.496  0.6787  0.7683  0.2846
    1C        C  285   4.514   3.501   3.620  1.1144 -0.9256 -0.6558
    1C        C  286   4.490   3.711   3.746 -0.4612 -0.1357  0.7141
    1C        C  287   4.513   3.570   3.745 -0.0821 -0.0850 -1.1133
    1C        C  288   4.471   3.786   3.866  0.3920  0.5925  0.4109
    1C        C  289   4.489   3.718   3.990 -0.1451 -0.5597 -0.1362
    1C        C  290   4.423   3.920   4.113 -0.1656 -0.1687  0.5324
    1C        C  291   4.473   3.787   4.114  0.1247 -0.0746 -0.3678
    1C        C  292   4.391   3.990   4.234 -0.1699  0.1658  0.3466
    1C        C  293   4.421   3.926   4.357  0.4677  0.0174  0.1247
    1C        C  294   4.319   4.116   4.477  0.4375  0.1682  0.0627
    1C        C  295   4.389   3.993   4.479  0.2177  0.0365  0.0527
    1C        C  296   4.280   4.182   4.597 -0.0974 -0.0543  0.0214
    1C        C  297   4.322   4.124   4.720 -0.3118 -0.1057  0.0763
    1C        C  298   4.194   4.307   4.837  0.6231  0.6440 -0.3904
    1C        C  299   4.277   4.190   4.838  0.3429  0.4386  0.0331
    1C        C  300   4.166   4.398   4.945  0.0951  0.6332 -0.5128
    1C        C  301   4.345   2.867   2.038 -0.1841 -0.4625  0.0154
    1C        C  302   4.462   3.055   2.155 -0.1288  0.0375 -0.1161
    1C        C  303   4.388   2.931   2.155  0.1734 -0.1477 -0.2812
    1C        C  304   4.475   3.129   2.276  0.2298 -0.0434 -0.0987
    1C        C  305   4.443   3.063   2.397 -0.3268  0.3080 -0.0433
    1C        C  306   4.504   3.270   2.516 -0.6297 -0.0893 -0.0713
    1C        C  307   4.469   3.132   2.518 -0.2514 -0.1884  0.2328
    1C        C  308   4.515   3.343   2.638 -0.2131  0.0987 -0.2097
    1C        C  309   4.500   3.274   2.762 -0.4692  0.2060 -0.1742
    1C        C  310   4.519   3.488   2.880 -0.1328 -0.4466 -0.1406
    1C        C  311   4.513   3.346   2.884 -0.2676 -0.4338  0.1843
    1C        C  312   4.514   3.560   3.003 -0.3421  0.0768 -0.4449
    1C        C  313   4.516   3.495   3.130  0.1832  0.4194 -0.2734
    1C        C  314   4.488   3.706   3.247 -0.2544 -0.7426 -0.3163
    1C        C  315   4.514   3.566   3.254 -0.0580 -0.6746  0.3583
    1C        C  316   4.471   3.773   3.372  0.2210  0.3283 -0.8072
    1C        C  317   4.490   3.713   3.500 -0.5353  0.5995 -0.5672
    1C        C  318   4.424   3.916   3.615  0.4479 -0.5876 -0.2455
    1C        C  319   4.473   3.782   3.624 -0.2015 -0.7925  0.2860
    1C        C  320   4.389   3.977   3.740 -0.3908 -0.3165 -0.6069
    1C        C  321   4.418   3.919   3.867 -0.9918  0.0629 -0.2942
    1C        C  322   4.313   4.105   3.983  0.0444 -0.5371 -0.0126
    1C        C  323   4.388   3.984   3.990  0.0871 -0.4965  0.2796
    1C        C  324   4.274   4.165   4.107 -0.1345 -0.0431 -0.3095
    1C        C  325   4.318   4.112   4.231 -0.2402  0.1219 -0.1999
    1C        C  326   4.180   4.278   4.350  0.0296 -0.1172 -0.1839
    1C        C  327   4.276   4.173   4.353 -0.2241 -0.3464  0.0433
    1C        C  328   4.128   4.329   4.472 -0.0592 -0.2941 -0.1464
    1C        C  329   4.186   4.288   4.595 -0.0218  0.0148 -0.0594
    1C        C  330   4.018   4.430   4.714 -0.1411  0.1486  0.1067
    1C        C  331   4.134   4.347   4.713 -0.0354  0.2884 -0.1938
    1C        C  332   3.963   4.486   4.831 -0.2177  0.7623 -0.2135
    1C        C  333   4.046   4.471   4.944 -0.1451  0.2497 -0.3344
    1C        C  334   4.547   3.254   2.041 -0.5112 -0.2698  0.0370
    1C        C  335   4.525   3.115   2.041  0.1221 -0.3775 -0.2027
    1C        C  336   4.534   3.339   2.152 -0.2828 -0.0180 -0.1227
    1C        C  337   4.510   3.268   2.273  0.0993 -0.0044 -0.0337
    1C        C  338   4.521   3.484   2.388  0.6371 -0.1105  0.1149
    1C        C  339   4.518   3.342   2.394  0.4423 -0.1154  0.0171
    1C        C  340   4.516   3.556   2.511  0.7379 -0.0711  0.0988
    1C        C  341   4.521   3.485   2.634 -0.2528  0.1162  0.2500
    1C        C  342   4.491   3.699   2.756 -0.2542  0.1427  0.1218
    1C        C  343   4.517   3.559   2.756  0.0082  0.1894  0.2156
    1C        C  344   4.472   3.770   2.878  0.1862 -0.2643  0.4274
    1C        C  345   4.490   3.701   3.002 -0.3765  0.0894  0.7071
    1C        C  346   4.417   3.907   3.124  0.0353  0.7131 -0.1970
    1C        C  347   4.470   3.774   3.123 -0.0274  0.6763  0.4100
    1C        C  348   4.386   3.970   3.248  0.2542 -0.4011  0.4389
    1C        C  349   4.422   3.907   3.371 -0.0046  0.2718  0.8652
    1C        C  350   4.310   4.096   3.493 -0.2482  0.7500 -0.3934
    1C        C  351   4.388   3.976   3.491 -0.6565  0.4605  0.5686
    1C        C  352   4.272   4.157   3.616  0.7139 -0.3714  0.4777
    1C        C  353   4.317   4.100   3.739  0.6144  0.3030  0.8352
    1C        C  354   4.172   4.265   3.859 -0.1494  0.4584 -0.4358
    1C        C  355   4.269   4.161   3.859 -0.3160  0.2902  0.4808
    1C        C  356   4.120   4.314   3.983  0.0608 -0.2677 -0.0535
    1C        C  357   4.177   4.269   4.105  0.1566  0.2334  0.0900
    1C        C  358   4.005   4.402   4.226 -0.3235 -0.0770 -0.2815
    1C        C  359   4.123   4.322   4.227 -0.2295  0.0608 -0.0041
    1C        C  360   3.945   4.440   4.349 -0.2986 -0.9687  0.0205
    1C        C  361   4.010   4.409   4.471 -0.1469 -0.4184  0.0860
    1C        C  362   3.820   4.512   4.594  0.2379  0.5323 -0.0277
    1C        C  363   3.950   4.455   4.592  0.0813  0.1677 -0.0154
    1C        C  364   3.754   4.544   4.715  0.1161  0.0013  0.0549
    1C        C  365   3.830   4.536   4.834 -0.3815  0.3042  0.4001
    1C        C  366   3.619   4.584   4.954 -0.3191  0.1212  0.0278
    1C        C  367   3.756   4.560   4.951 -0.2592  0.4000  0.4621
    1C        C  368   4.499   3.555   2.032 -0.3384  0.1832  0.2118
    1C        C  369   4.522   3.480   2.147 -0.4941 -0.0219  0.1130
    1C        C  370   4.506   3.698   2.265 -0.3137 -0.0574  0.0493
    1C        C  371   4.518   3.556   2.267 -0.3750 -0.0647  0.1475
    1C        C  372   4.485   3.769   2.386  0.0296 -0.0166  0.0874
    1C        C  373   4.493   3.696   2.508  0.2262 -0.1540 -0.0027
    1C        C  374   4.423   3.899   2.629 -0.2192 -0.2045  0.0486
    1C        C  375   4.472   3.765   2.631  0.1804 -0.0611 -0.0578
    1C        C  376   4.390   3.966   2.750  0.2196  0.1154 -0.0031
    1C        C  377   4.421   3.903   2.874  0.3124 -0.2314 -0.1979
    1C        C  378   4.311   4.087   2.996  0.5683  0.4574  0.5569
    1C        C  379   4.387   3.966   2.998  0.6020  0.4582 -0.4563
    1C        C  380   4.267   4.148   3.117 -0.4353  0.1937  0.3334
    1C        C  381   4.311   4.091   3.241  0.4376 -0.3256 -0.2035
    1C        C  382   4.171   4.250   3.365 -0.6004 -0.2341  0.7051
    1C        C  383   4.271   4.148   3.365  0.0323  0.3634 -0.6389
    1C        C  384   4.115   4.303   3.485  0.1634  0.9192  0.5680
    1C        C  385   4.170   4.257   3.608  0.7062 -0.4231 -0.1527
    1C        C  386   4.001   4.386   3.733  0.0707  0.0734  0.3283
    1C        C  387   4.119   4.306   3.733  0.2798  0.3818 -0.6377
    1C        C  388   3.936   4.423   3.855 -0.1941  0.2439  0.1404
    1C        C  389   4.000   4.391   3.979 -0.0127 -0.3814 -0.1100
    1C        C  390   3.811   4.488   4.104 -0.0953  0.1602  0.2167
    1C        C  391   3.942   4.432   4.102 -0.0816  0.2065 -0.3356
    1C        C  392   3.743   4.513   4.227 -0.1124  0.3541  0.1729
    1C        C  393   3.814   4.496   4.349 -0.0735 -0.4341  0.0465
    1C        C  394   3.607   4.549   4.474 -0.0012 -0.1361  0.1874
    1C        C  395   3.747   4.524   4.472 -0.0352 -0.3244  0.0439
    1C        C  396   3.537   4.560   4.597  0.0788  0.3226  0.1954
    1C        C  397   3.613   4.561   4.717  0.1331  0.1540  0.1658
    1C        C  398   3.401   4.541   4.838 -0.1867 -0.4110 -0.1470
    1C        C  399   3.541   4.567   4.839 -0.1842 -0.4173  0.0107
    1C        C  400   3.332   4.503   4.954 -0.4708  0.2032 -0.1105
    1C        C  401   4.496   3.695   2.030 -0.0409  0.1877 -0.1526
    1C        C  402   4.451   3.909   2.141 -0.4069 -0.2759 -0.1982
    1C        C  403   4.495   3.774   2.146  0.3587 -0.0250 -0.0016
    1C        C  404   4.412   3.971   2.262 -0.3994 -0.2227 -0.2223
    1C        C  405   4.438   3.903   2.384 -0.1164 -0.0677 -0.1923
    1C        C  406   4.323   4.085   2.505 -0.0116 -0.3282  0.0066
    1C        C  407   4.399   3.966   2.506  0.2322 -0.1735 -0.0229
    1C        C  408   4.273   4.142   2.626 -0.0531 -0.1529 -0.0870
    1C        C  409   4.313   4.086   2.751  0.0011 -0.0213 -0.0423
    1C        C  410   4.167   4.245   2.868  0.4923 -0.2894 -0.1567
    1C        C  411   4.266   4.142   2.873  0.6469 -0.1305  0.2639
    1C        C  412   4.115   4.293   2.992 -0.5284 -0.4726 -0.5001
    1C        C  413   4.169   4.252   3.118 -0.3400  0.2965 -0.3199
    1C        C  414   3.997   4.377   3.237  0.4267 -0.2470 -0.4230
    1C        C  415   4.115   4.297   3.242  0.2896 -0.4140  0.2208
    1C        C  416   3.935   4.410   3.361 -0.3340 -0.3126 -0.7767
    1C        C  417   3.997   4.384   3.486 -0.5394 -0.0440 -0.6110
    1C        C  418   3.804   4.473   3.606  0.7315  0.3287 -0.1585
    1C        C  419   3.935   4.417   3.611  0.2797 -0.7405 -0.0016
    1C        C  420   3.738   4.497   3.731 -0.1534  0.0432 -0.5542
    1C        C  421   3.804   4.477   3.856 -0.5567 -0.5956 -0.4406
    1C        C  422   3.600   4.534   3.980  0.3943 -0.0170  0.1449
    1C        C  423   3.740   4.505   3.981  0.4515  0.2412 -0.0937
    1C        C  424   3.531   4.539   4.105 -0.0548 -0.2919 -0.0899
    1C        C  425   3.602   4.539   4.229 -0.0852  0.5269 -0.0663
    1C        C  426   3.391   4.546   4.354  0.1072  0.7276 -0.1674
    1C        C  427   3.533   4.549   4.353  0.1298 -0.0129  0.1025
    1C        C  428   3.321   4.539   4.478 -0.0298  0.2377 -0.2726
    1C        C  429   3.395   4.552   4.599  0.0543  0.5900 -0.3595
    1C        C  430   3.182   4.513   4.723  0.0768  0.2785 -0.3286
    1C        C  431   3.323   4.539   4.720  0.1413 -0.0648 -0.3738
    1C        C  432   3.112   4.484   4.844 -0.0167  0.1212 -0.4176
    1C        C  433   3.194   4.482   4.958 -0.4821  0.2819 -0.0780
    1C        C  434   4.376   4.115   2.027  0.1796  0.5997 -0.2479
    1C        C  435   4.440   3.990   2.027 -0.2896  0.3527  0.2369
    1C        C  436   4.294   4.151   2.139 -0.1441 -0.1984 -0.2174
    1C        C  437   4.333   4.089   2.262 -0.1818 -0.0743 -0.1399
    1C        C  438   4.179   4.243   2.380  0.4242  0.1040  0.1161
    1C        C  439   4.282   4.145   2.382  0.3106 -0.0199  0.0457
    1C        C  440   4.120   4.289   2.501  0.3729  0.1389  0.0789
    1C        C  441   4.173   4.243   2.624 -0.1215 -0.2105  0.1680
    1C        C  442   3.997   4.372   2.745 -0.0966 -0.1616 -0.3333
    1C        C  443   4.115   4.292   2.745  0.0737  0.0712  0.1502
    1C        C  444   3.936   4.410   2.868  0.3044  0.1165 -0.2138
    1C        C  445   3.996   4.372   2.992 -0.5944 -0.5608  0.0248
    1C        C  446   3.801   4.465   3.115 -0.6562 -0.7059 -0.5428
    1C        C  447   3.933   4.410   3.114 -0.5097 -0.3869  0.0154
    1C        C  448   3.735   4.490   3.240  0.3476 -0.5110 -0.0387
    1C        C  449   3.804   4.468   3.363 -0.1419  0.1094  0.3536
    1C        C  450   3.593   4.523   3.486 -0.3469 -0.0008 -0.4562
    1C        C  451   3.733   4.494   3.484 -0.4253 -0.5284  0.3358
    1C        C  452   3.527   4.538   3.612  0.6636  0.6527  0.0078
    1C        C  453   3.600   4.530   3.734 -0.1016  0.1889  0.4419
    1C        C  454   3.385   4.542   3.860 -0.1436  0.6735 -0.4332
    1C        C  455   3.528   4.540   3.858 -0.1263  0.0058  0.4485
    1C        C  456   3.318   4.534   3.986  0.4082 -0.2927 -0.1860
    1C        C  457   3.389   4.541   4.109 -0.0459  0.6479  0.0421
    1C        C  458   3.180   4.501   4.235 -0.0698  0.0473 -0.2633
    1C        C  459   3.318   4.538   4.233 -0.1160  0.2470 -0.0030
    1C        C  460   3.113   4.480   4.359  0.0158  0.2500 -0.1817
    1C        C  461   3.182   4.505   4.480  0.0532 -0.0997 -0.1298
    1C        C  462   2.983   4.427   4.604  0.0875 -0.3440 -0.0776
    1C        C  463   3.112   4.487   4.602 -0.0606 -0.0226 -0.1837
    1C        C  464   2.916   4.396   4.725  0.2343 -0.3493  0.0053
    1C        C  465   2.976   4.439   4.847 -0.0267  0.1731 -0.0464
    1C        C  466   2.787   4.335   4.961 -0.1276 -0.3460  0.0848
    1C        C  467   2.892   4.428   4.963 -0.2599 -0.1799 -0.2464
    1C        C  468   4.112   4.269   2.019  0.1248  0.2548  0.0317
    1C        C  469   4.181   4.239   2.137  0.2010  0.2558 -0.0113
    1C        C  470   4.000   4.362   2.256 -0.2692 -0.7739 -0.0321
    1C        C  471   4.122   4.287   2.258 -0.0423 -0.4106  0.1411
    1C        C  472   3.935   4.398   2.377  0.0570  0.0249 -0.0867
    1C        C  473   4.001   4.367   2.499  0.2936  0.0222 -0.2104
    1C        C  474   3.803   4.457   2.622 -0.0509 -0.1583  0.1211
    1C        C  475   3.935   4.403   2.621  0.0485  0.0768 -0.3512
    1C        C  476   3.734   4.482   2.743 -0.0210  0.5198  0.0039
    1C        C  477   3.804   4.465   2.866  0.2913  0.0934 -0.2281
    1C        C  478   3.598   4.521   2.991 -0.1830  0.5749  0.3259
    1C        C  479   3.737   4.488   2.990 -0.1851  0.5750 -0.5664
    1C        C  480   3.523   4.526   3.113 -0.2576  0.2418  0.2990
    1C        C  481   3.596   4.521   3.236  0.4269 -0.1488 -0.1125
    1C        C  482   3.384   4.535   3.364 -0.1115 -0.0126  0.5009
    1C        C  483   3.527   4.534   3.360 -0.1247  0.8312 -0.5051
    1C        C  484   3.312   4.527   3.487 -0.0673  0.4810  0.5657
    1C        C  485   3.384   4.539   3.610  0.6556  0.2537  0.1684
    1C        C  486   3.178   4.497   3.739 -0.2341  0.2474  0.3526
    1C        C  487   3.317   4.532   3.735 -0.3126  0.5148 -0.3287
    1C        C  488   3.112   4.474   3.863 -0.4654  0.6070  0.3010
    1C        C  489   3.180   4.497   3.986  0.3060  0.0610 -0.0265
    1C        C  490   2.987   4.413   4.114  0.3811 -0.6462  0.1618
    1C        C  491   3.113   4.480   4.111 -0.2145  0.4745 -0.2543
    1C        C  492   2.925   4.376   4.236 -0.2142  0.1479  0.1141
    1C        C  493   2.984   4.418   4.359  0.2337 -0.2121  0.0244
    1C        C  494   2.810   4.297   4.484 -0.4940  0.4581  0.0664
    1C        C  495   2.922   4.385   4.482 -0.0722 -0.0750 -0.0911
    1C        C  496   2.756   4.250   4.607 -0.0323 -0.1354  0.0493
    1C        C  497   2.802   4.309   4.727  0.3906 -0.5596  0.1004
    1C        C  498   2.651   4.157   4.848  0.1351 -0.3429  0.0715
    1C        C  499   2.740   4.267   4.847 -0.5514  0.2257 -0.0946
    1C        C  500   2.581   4.108   4.959 -0.5581  0.0392 -0.1876
    1C        C  501   3.990   4.335   2.020  0.1732  0.3445 -0.0035
    1C        C  502   3.806   4.454   2.133  0.0105  0.2575  0.2625
    1C        C  503   3.932   4.391   2.135 -0.1885 -0.1574  0.0659
    1C        C  504   3.734   4.472   2.255 -0.1948 -0.2684  0.2217
    1C        C  505   3.802   4.450   2.377 -0.1253 -0.4285  0.1579
    1C        C  506   3.595   4.506   2.499 -0.0650  0.0087  0.1761
    1C        C  507   3.734   4.475   2.499 -0.1534 -0.4068  0.1412
    1C        C  508   3.523   4.514   2.622 -0.2829 -0.0276  0.0570
    1C        C  509   3.594   4.511   2.745 -0.0866  0.2348 -0.0434
    1C        C  510   3.382   4.524   2.867  0.1271  0.5472  0.0418
    1C        C  511   3.525   4.521   2.869  0.1217 -0.3875  0.1331
    1C        C  512   3.312   4.520   2.991 -0.3059 -0.4302 -0.2129
    1C        C  513   3.381   4.529   3.115 -0.2672  0.8105 -0.3020
    1C        C  514   3.175   4.488   3.239  0.5009  0.2327 -0.0867
    1C        C  515   3.313   4.524   3.241  0.5187  0.1813  0.1119
    1C        C  516   3.110   4.466   3.364  0.1555 -0.7621 -0.4270
    1C        C  517   3.173   4.493   3.489  0.0562 -0.1456 -0.4984
    1C        C  518   2.984   4.405   3.614  0.3528  0.6323  0.0419
    1C        C  519   3.112   4.468   3.616  0.9231 -0.4753 -0.1289
    1C        C  520   2.928   4.368   3.740  0.0826 -0.3181 -0.3470
    1C        C  521   2.987   4.404   3.865  0.3266 -0.8526 -0.3057
    1C        C  522   2.818   4.282   3.990 -0.1574  0.6110  0.2738
    1C        C  523   2.932   4.367   3.991  0.1919  0.1489 -0.0592
    1C        C  524   2.768   4.233   4.114  0.2885 -0.4878  0.0222
    1C        C  525   2.812   4.289   4.237 -0.3153  0.2760 -0.1064
    1C        C  526   2.676   4.128   4.363 -0.0656  0.2848  0.1640
    1C        C  527   2.763   4.241   4.362 -0.1951  0.3852 -0.0167
    1C        C  528   2.635   4.072   4.488 -0.1236  0.0557  0.0439
    1C        C  529   2.671   4.136   4.609 -0.3385  0.0860  0.0939
    1C        C  530   2.565   3.951   4.732  0.0327 -0.3165  0.1074
    1C        C  531   2.625   4.081   4.731  0.1189 -0.3518  0.0773
    1C        C  532   2.523   3.891   4.854 -0.2015 -0.2383  0.0684
    1C        C  533   2.512   3.985   4.962 -0.2037 -0.1574  0.0025
    1C        C  534   3.608   4.553   2.020 -0.2524 -0.1155 -0.0335
    1C        C  535   3.740   4.507   2.021 -0.1902  0.0664  0.2865
    1C        C  536   3.524   4.528   2.134 -0.2328  0.3323  0.0848
    1C        C  537   3.596   4.507   2.255 -0.1738 -0.1646 -0.0281
    1C        C  538   3.381   4.513   2.377  0.0547 -0.6017 -0.2280
    1C        C  539   3.523   4.514   2.377  0.0544  0.0078  0.1014
    1C        C  540   3.308   4.507   2.499  0.2594 -0.2241 -0.0790
    1C        C  541   3.380   4.515   2.622 -0.2866  0.2988  0.2154
    1C        C  542   3.170   4.482   2.746 -0.2104  0.0360  0.0951
    1C        C  543   3.309   4.514   2.745 -0.2026  0.0344  0.2702
    1C        C  544   3.103   4.463   2.871 -0.3406  0.8683  0.1539
    1C        C  545   3.174   4.484   2.993 -0.2881 -0.5063  0.3662
    1C        C  546   2.978   4.399   3.119  0.0720 -0.6332 -0.2844
    1C        C  547   3.105   4.465   3.117 -0.5138  0.5662  0.4134
    1C        C  548   2.922   4.363   3.246  0.1925  0.3683  0.0665
    1C        C  549   2.981   4.404   3.369 -0.1870 -0.0127  0.3824
    1C        C  550   2.813   4.272   3.495  0.3359 -0.5113 -0.4996
    1C        C  551   2.919   4.368   3.492 -0.0361 -0.0581  0.4481
    1C        C  552   2.764   4.228   3.621  0.5308  0.4938 -0.0670
    1C        C  553   2.815   4.280   3.744  0.0763 -0.2752  0.4550
    1C        C  554   2.681   4.113   3.869 -0.1875 -0.0050 -0.2218
    1C        C  555   2.768   4.226   3.868  0.4450 -0.4730  0.5142
    1C        C  556   2.638   4.061   3.994  0.3198  0.0741 -0.0075
    1C        C  557   2.678   4.122   4.117 -0.5035  0.1558  0.2245
    1C        C  558   2.580   3.935   4.242  0.4333 -0.2807  0.0158
    1C        C  559   2.637   4.066   4.241  0.1958 -0.1743  0.3107
    1C        C  560   2.552   3.873   4.367  0.2359 -0.0015  0.1109
    1C        C  561   2.575   3.943   4.489 -0.0635  0.0249  0.1578
    1C        C  562   2.513   3.740   4.614 -0.0717 -0.1846 -0.1400
    1C        C  563   2.545   3.878   4.612 -0.1884 -0.1515  0.0395
    1C        C  564   2.502   3.670   4.737 -0.2162 -0.2122 -0.1650
    1C        C  565   2.503   3.749   4.856 -0.5026 -0.2036 -0.1647
    1C        C  566   2.518   3.535   4.979  0.1973 -0.2263  0.2640
    1C        C  567   2.514   3.675   4.975 -0.6590 -0.2593 -0.1855
    1C        C  568   3.313   4.458   2.024 -0.2953 -0.6539 -0.4524
    1C        C  569   3.383   4.506   2.135 -0.0598 -0.9710 -0.4562
    1C        C  570   3.168   4.470   2.257  0.0964 -0.2337 -0.0493
    1C        C  571   3.307   4.503   2.256  0.1444 -0.4242 -0.3042
    1C        C  572   3.099   4.453   2.379  0.2436 -0.0387  0.0656
    1C        C  573   3.170   4.476   2.500  0.2580 -0.2241  0.0954
    1C        C  574   2.972   4.399   2.626  0.1054 -0.1573  0.1948
    1C        C  575   3.101   4.459   2.624 -0.0801  0.2398 -0.0203
    1C        C  576   2.914   4.357   2.750 -0.2682  0.2223  0.1514
    1C        C  577   2.976   4.399   2.871  0.0573  0.0674  0.0436
    1C        C  578   2.807   4.271   3.000 -0.8742  0.4614  0.4464
    1C        C  579   2.921   4.357   2.996 -0.5399 -0.0061 -0.2308
    1C        C  580   2.760   4.217   3.124  0.3374 -0.6389  0.4533
    1C        C  581   2.812   4.272   3.245  0.1648  0.3922  0.0757
    1C        C  582   2.677   4.110   3.374 -0.0315 -0.4005  0.4032
    1C        C  583   2.764   4.223   3.370 -0.6832  0.0914 -0.3547
    1C        C  584   2.640   4.049   3.498  0.0049 -0.0193  0.6066
    1C        C  585   2.677   4.115   3.619  0.5936  0.4403  0.1837
    1C        C  586   2.579   3.927   3.749  0.4899 -0.3664  0.3336
    1C        C  587   2.643   4.055   3.744  0.2869 -0.2822 -0.2408
    1C        C  588   2.552   3.862   3.872 -0.8802  0.1849  0.3391
    1C        C  589   2.581   3.930   3.994  0.7022 -0.0949  0.1369
    1C        C  590   2.515   3.730   4.123  0.5449 -0.1747  0.0711
    1C        C  591   2.552   3.868   4.119 -0.1952  0.0227 -0.0097
    1C        C  592   2.505   3.661   4.248  0.6293 -0.2856  0.0211
    1C        C  593   2.516   3.735   4.369  0.2927 -0.0216 -0.1053
    1C        C  594   2.496   3.524   4.496 -0.1518 -0.1421 -0.0965
    1C        C  595   2.504   3.666   4.493  0.2926 -0.1650 -0.1828
    1C        C  596   2.498   3.452   4.619  0.3042 -0.0272 -0.0314
    1C        C  597   2.499   3.527   4.739 -0.0848 -0.2128  0.0924
    1C        C  598   2.515   3.317   4.860 -0.6276 -0.0477 -0.0576
    1C        C  599   2.507   3.458   4.863 -0.8293 -0.0627  0.2359
    1C        C  600   2.514   3.238   4.977  0.6777 -0.2190 -0.1469
    1C        C  601   3.180   4.423   2.023 -0.3860 -0.3215 -0.3686
    1C        C  602   2.963   4.387   2.137 -0.0908  0.0590  0.2450
    1C        C  603   3.099   4.434   2.137  0.1322 -0.5727  0.0289
    1C        C  604   2.903   4.356   2.263 -0.0965  0.1726  0.2705
    1C        C  605   2.969   4.395   2.382  0.3089 -0.1853  0.1659
    1C        C  606   2.798   4.269   2.508 -0.2500  0.4768  0.0490
    1C        C  607   2.908   4.360   2.506  0.0766  0.0882  0.1303
    1C        C  608   2.751   4.215   2.631 -0.1400  0.1060 -0.0667
    1C        C  609   2.803   4.267   2.753 -0.3812  0.3476 -0.0620
    1C        C  610   2.670   4.104   2.878 -0.0293  0.2417  0.1230
    1C        C  611   2.757   4.216   2.878  0.8974 -0.4523  0.1015
    1C        C  612   2.628   4.047   3.002 -0.4919 -0.2420 -0.2375
    1C        C  613   2.672   4.104   3.126 -0.7164  0.1355 -0.3182
    1C        C  614   2.571   3.922   3.251  0.1783  0.2664  0.1410
    1C        C  615   2.635   4.049   3.252  0.0176  0.3525  0.0019
    1C        C  616   2.547   3.857   3.376  0.1066 -0.4122 -0.2163
    1C        C  617   2.573   3.923   3.500 -0.6718  0.3084 -0.4175
    1C        C  618   2.511   3.723   3.626 -0.3625  0.6770  0.1736
    1C        C  619   2.551   3.859   3.626  0.6821  0.3805 -0.1322
    1C        C  620   2.500   3.655   3.751 -0.3850 -0.2256 -0.3152
    1C        C  621   2.512   3.725   3.875  0.0028 -0.0973 -0.4228
    1C        C  622   2.489   3.516   4.002 -0.5489  0.3864  0.1566
    1C        C  623   2.504   3.658   4.001  0.3335  0.2937 -0.1928
    1C        C  624   2.493   3.447   4.127  0.4824 -0.2502 -0.2113
    1C        C  625   2.492   3.519   4.251 -0.4867 -0.2023 -0.2355
    1C        C  626   2.518   3.308   4.377 -0.0298 -0.0933  0.2233
    1C        C  627   2.497   3.449   4.375  0.3593 -0.0343 -0.1635
    1C        C  628   2.534   3.238   4.499  0.3367 -0.1150  0.1675
    1C        C  629   2.515   3.311   4.620 -0.3462 -0.1100  0.0601
    1C        C  630   2.577   3.105   4.745 -0.3291 -0.1206  0.2197
    1C        C  631   2.531   3.241   4.742 -0.4696 -0.1698  0.0425
    1C        C  632   2.601   3.037   4.868  0.0598 -0.0907  0.1618
    1C        C  633   2.541   3.100   4.982  0.5016 -0.2322  0.4773
    1C        C  634   2.765   4.290   2.029  0.2904  0.0522  0.2159
    1C        C  635   2.879   4.372   2.022  0.2788  0.0473 -0.0268
    1C        C  636   2.732   4.219   2.146  0.1316 -0.1787  0.0304
    1C        C  637   2.790   4.269   2.265  0.1900 -0.2111  0.0177
    1C        C  638   2.662   4.099   2.388  0.2499 -0.0748  0.1395
    1C        C  639   2.745   4.214   2.388  0.0970  0.0341  0.0926
    1C        C  640   2.624   4.040   2.512 -0.0026  0.1314  0.1619
    1C        C  641   2.666   4.101   2.633  0.1071 -0.0805  0.2331
    1C        C  642   2.565   3.914   2.758  0.4162 -0.1657 -0.0630
    1C        C  643   2.626   4.043   2.757 -0.2242  0.1476  0.2358
    1C        C  644   2.543   3.849   2.883 -0.6506  0.2383 -0.0213
    1C        C  645   2.570   3.917   3.005  0.9538 -0.8923  0.2834
    1C        C  646   2.506   3.714   3.133 -0.1401 -0.1889 -0.1706
    1C        C  647   2.546   3.851   3.129 -0.5945 -0.0325  0.4642
    1C        C  648   2.495   3.648   3.259 -0.2584  0.5067  0.1872
    1C        C  649   2.509   3.719   3.382 -0.3965 -0.2463  0.6421
    1C        C  650   2.489   3.506   3.508  0.0395 -0.1654 -0.3771
    1C        C  651   2.493   3.649   3.505 -0.5667 -0.1195  0.6877
    1C        C  652   2.491   3.440   3.634 -0.1675  0.4051 -0.0749
    1C        C  653   2.488   3.512   3.757 -0.4303 -0.1992  0.2812
    1C        C  654   2.515   3.301   3.883  0.6939  0.0265 -0.4258
    1C        C  655   2.490   3.441   3.881  0.4002 -0.0026  0.3919
    1C        C  656   2.529   3.235   4.009 -0.5797  0.1773 -0.1928
    1C        C  657   2.516   3.306   4.131  0.1666 -0.3009  0.1733
    1C        C  658   2.587   3.105   4.256  0.4155 -0.0661  0.1357
    1C        C  659   2.534   3.237   4.255  0.2930 -0.1109  0.2724
    1C        C  660   2.617   3.040   4.379  0.0742 -0.0907  0.2100
    1C        C  661   2.582   3.104   4.502  0.1192 -0.1935  0.2790
    1C        C  662   2.689   2.919   4.625  0.2288 -0.0013  0.2350
    1C        C  663   2.611   3.038   4.625 -0.0236 -0.1652  0.3303
    1C        C  664   2.731   2.860   4.747  0.2929 -0.0255  0.2008
    1C        C  665   2.681   2.918   4.867  0.4660  0.1810  0.1723
    1C        C  666   2.730   2.860   4.986 -0.3941 -0.3190  0.2880
    1C        C  667   2.677   4.009   2.033 -0.0570  0.3208  0.0283
    1C        C  668   2.668   4.093   2.144 -1.0343  0.4064 -0.1080
    1C        C  669   2.571   3.903   2.270  0.0192  0.0990  0.3120
    1C        C  670   2.628   4.034   2.267  0.1136  0.0507  0.1092
    1C        C  671   2.536   3.840   2.392 -0.4521  0.2409  0.2516
    1C        C  672   2.562   3.912   2.512 -0.4083  0.3254  0.1905
    1C        C  673   2.498   3.709   2.639 -0.2690 -0.0063  0.0641
    1C        C  674   2.535   3.846   2.636 -0.5531  0.0739  0.0281
    1C        C  675   2.491   3.639   2.763  0.5497 -0.1210  0.0480
    1C        C  676   2.505   3.712   2.884 -0.2660  0.1287 -0.0022
    1C        C  677   2.484   3.501   3.015 -0.9172 -0.0905  0.4594
    1C        C  678   2.499   3.643   3.009  0.6121 -0.2694 -0.1694
    1C        C  679   2.484   3.430   3.138 -0.1074  0.0861  0.5692
    1C        C  680   2.485   3.506   3.259 -0.3676  0.5167  0.2984
    1C        C  681   2.508   3.294   3.388 -0.0157 -0.3253  0.3301
    1C        C  682   2.489   3.436   3.383 -0.9547 -0.4609 -0.2203
    1C        C  683   2.531   3.227   3.511  0.5845  0.1206  0.4643
    1C        C  684   2.511   3.298   3.633 -0.5012  0.3578  0.1480
    1C        C  685   2.581   3.099   3.762  0.4002 -0.1674  0.2943
    1C        C  686   2.528   3.232   3.758 -0.1568 -0.3952 -0.2916
    1C        C  687   2.617   3.038   3.885 -0.0206 -0.1931  0.4162
    1C        C  688   2.583   3.103   4.008  0.6432  0.6687  0.1578
    1C        C  689   2.693   2.920   4.133 -0.2622 -0.2021  0.3044
    1C        C  690   2.617   3.041   4.132  0.1981  0.0870  0.0012
    1C        C  691   2.737   2.863   4.256  0.2453 -0.0195  0.2126
    1C        C  692   2.694   2.920   4.379 -0.0101 -0.1448  0.1837
    1C        C  693   2.735   2.863   4.502  0.5162  0.2838  0.2103
    1C        C  694   2.621   3.880   2.038 -0.0731  0.3398  0.3180
    1C        C  695   2.514   3.691   2.154 -0.0054  0.1526 -0.1353
    1C        C  696   2.566   3.823   2.153  0.3007  0.0353  0.3451
    1C        C  697   2.487   3.626   2.277 -0.2355  0.2467 -0.1356
    1C        C  698   2.496   3.703   2.395 -0.1867  0.1545 -0.0774
    1C        C  699   2.468   3.493   2.521  0.1248  0.1152 -0.0654
    1C        C  700   2.483   3.635   2.519  0.1381  0.1158 -0.0644
    1C        C  701   2.475   3.424   2.645  0.8259 -0.0278 -0.1725
    1C        C  702   2.477   3.497   2.767 -0.0736 -0.0708 -0.1156
    1C        C  703   2.505   3.287   2.893 -0.1364  0.1907  0.1934
    1C        C  704   2.481   3.428   2.892  0.8685  0.3706  0.1163
    1C        C  705   2.521   3.219   3.017 -0.4634 -0.3517 -0.0608
    1C        C  706   2.509   3.289   3.140  0.3770  0.1514 -0.2586
    1C        C  707   2.579   3.090   3.263 -0.3448  0.2842 -0.0704
    1C        C  708   2.528   3.223   3.265 -0.3327  0.2883 -0.0798
    1C        C  709   2.614   3.031   3.388  0.3762 -0.1115 -0.4564
    1C        C  710   2.585   3.094   3.513 -0.1964 -0.2207 -0.5333
    1C        C  711   2.695   2.916   3.636 -0.0774  0.4666  0.0401
    1C        C  712   2.614   3.034   3.639  0.0722  0.5800 -0.2052
    1C        C  713   2.737   2.862   3.762  0.1030 -0.0698 -0.2457
    1C        C  714   2.693   2.917   3.886 -0.4712 -0.4870 -0.2567
    1C        C  715   2.738   2.863   4.010  0.1590  0.6875  0.0364
    1C        C  716   2.428   3.489   2.038 -0.0881 -0.0971 -0.0814
    1C        C  717   2.478   3.620   2.038  0.0306 -0.1428  0.0329
    1C        C  718   2.444   3.411   2.157  0.0559  0.1696  0.0732
    1C        C  719   2.459   3.485   2.278 -0.0205  0.2052  0.0596
    1C        C  720   2.490   3.277   2.403 -0.0503  0.0270  0.0909
    1C        C  721   2.464   3.416   2.402  0.1196  0.0572 -0.0288
    1C        C  722   2.518   3.212   2.526  0.1172  0.1191  0.1022
    1C        C  723   2.500   3.284   2.648 -0.0518 -0.1849  0.2564
    1C        C  724   2.572   3.083   2.771 -0.1472  0.0365  0.0873
    1C        C  725   2.518   3.215   2.771 -0.6559 -0.1730  0.3522
    1C        C  726   2.607   3.022   2.895  0.0081  0.1797  0.1134
    1C        C  727   2.574   3.086   3.018  0.7481  0.1234  0.3478
    1C        C  728   2.690   2.905   3.143  0.1663 -0.2537 -0.2214
    1C        C  729   2.611   3.024   3.141  0.2131 -0.2103  0.3438
    1C        C  730   2.738   2.855   3.268 -0.0688  0.2833  0.0855
    1C        C  731   2.698   2.915   3.391  0.5334  0.0131  0.4193
    1C        C  732   2.738   2.856   3.514 -0.4060 -0.5925  0.4392
    1C        C  733   2.476   3.187   2.047 -0.3654 -0.1917  0.0359
    1C        C  734   2.472   3.270   2.160  0.1500  0.1821 -0.2157
    1C        C  735   2.558   3.071   2.283 -0.1210  0.3055  0.0186
    1C        C  736   2.502   3.203   2.282 -0.1375  0.2950 -0.0824
    1C        C  737   2.603   3.013   2.404  0.2126  0.4271 -0.0472
    1C        C  738   2.574   3.081   2.525  0.1272  0.1267  0.1001
    1C        C  739   2.682   2.898   2.649 -0.3254 -0.0816  0.1240
    1C        C  740   2.606   3.018   2.649 -0.4519 -0.1621  0.1061
    1C        C  741   2.728   2.843   2.772  0.1795  0.1789  0.0510
    1C        C  742   2.685   2.903   2.895  0.2376  0.3287  0.0003
    1C        C  743   2.732   2.849   3.018  1.1363  0.5123 -0.2509
    1C        C  744   2.532   3.060   2.048  0.0254 -0.0209  0.2398
    1C        C  745   2.671   2.887   2.163  0.3048  0.1649 -0.0717
    1C        C  746   2.588   3.002   2.163  0.4505  0.2714  0.1796
    1C        C  747   2.720   2.831   2.284  0.0543  0.1929  0.0436
    1C        C  748   2.681   2.894   2.405  0.1703  0.4010 -0.0255
    1C        C  749   2.723   2.836   2.528 -0.1686  0.2360  0.0156
    1C        C  750   2.722   2.829   2.046 -0.0369 -0.2160 -0.0353
    1C        C  751   3.655   2.296   1.963  0.0603  0.4160 -0.2447
    1C        O  752   3.675   2.183   2.015  0.1528  0.5327 -0.0306
    1C        O  753   3.659   2.299   1.823  0.1191  0.1196 -0.2504
    1C        C  754   4.626   3.046   1.957 -0.2120 -0.5133 -0.5033
    1C        O  755   4.605   3.036   1.833  0.3818  0.2886 -0.6774
    1C        O  756   4.730   2.964   2.003  0.1402 -0.2116 -0.7528
    1C        C  757   4.418   4.213   1.923  0.4007  0.8057  0.0296
    1C        O  758   4.523   4.280   1.945  0.2937  1.0732 -0.2790
    1C        O  759   4.410   4.185   1.786  0.0421  0.5996  0.0906
    1C        C  760   3.583   4.676   1.940  0.3067  0.0801  0.0873
    1C        O  761   3.581   4.790   1.994  0.2023  0.0820  0.0826
    1C        O  762   3.612   4.681   1.804  0.2692 -0.1952  0.0688
    1C        C  763   2.849   4.485   1.930 -0.5045 -0.0315  0.1184
    1C        O  764   2.897   4.482   1.813 -0.5134  1.0030  0.0874
    1C        O  765   2.798   4.610   1.964  0.1625  0.2520  0.0922
    1C        C  766   2.307   3.477   1.953 -0.2002 -0.0611  0.0722
    1C        O  767   2.319   3.470   1.828 -0.1465  0.0618  0.0710
    1C        O  768   2.198   3.393   1.980 -0.0509 -0.2005  0.2491
    1C        C  769   4.677   3.584   5.068  0.1243 -0.0288  0.0973
    1C        O  770   4.650   3.588   5.191 -0.1479  0.2425  0.0291
    1C        O  771   4.789   3.501   5.051  0.4223  0.4793 -0.4264
    1C        C  772   4.254   4.431   5.060 -0.7216  0.4855  0.1675
    1C        O  773   4.227   4.377   5.171  1.0846 -0.1933  0.3051
    1C        O  774   4.306   4.559   5.079  0.2612  0.2256 -0.6850
    1C        C  775   4.131   2.528   5.087  0.2623  0.2037 -0.1207
    1C        O  776   4.202   2.425   5.073  0.4423  0.3296 -0.1320
    1C        O  777   4.128   2.582   5.217 -0.5101 -0.0676 -0.0176
    1C        C  778   2.891   4.535   5.066  0.2788 -0.3876 -0.0197
    1C        O  779   2.865   4.655   5.038 -0.2942 -0.4332  0.3033
    1C        O  780   2.837   4.509   5.192  0.1453 -0.1841 -0.0348
    1C        C  781   2.441   3.030   5.067 -0.1754  0.1437  0.0052
    1C        O  782   2.376   2.930   5.027 -0.0945  0.0932 -0.0002
    1C        O  783   2.458   3.015   5.204  0.0179  0.4838  0.0215
    1C        C  784   2.387   3.986   5.041  0.0179  0.1334  0.3609
    1C        O  785   2.275   3.965   4.986  0.1260 -0.3399  0.3193
    1C        O  786   2.369   4.028   5.173 -0.7311  0.1747  0.2553
    1C        C  787   2.932   2.432   1.963 -0.0075  0.1984 -0.2974
    1C        O  788   2.951   2.437   1.839  0.2631 -0.2599 -0.2785
    1C        O  789   2.892   2.303   1.998  0.3856  0.0893 -0.2425
    1C        C  790   3.155   2.353   5.063 -0.3801  0.2781  0.5108
    1C        O  791   3.067   2.265   5.045 -0.2122  0.1121  0.4942
    1C        O  792   3.212   2.342   5.190  0.1889 -0.4896  0.1998
    1C        H  793   4.241   3.023   5.046  0.3670 -0.8092  0.6689
    1C        H  794   4.188   2.787   5.072  1.7463 -0.0295  0.2086
    1C        H  795   4.485   3.113   5.054  0.5361  1.4228  0.5286
    1C        H  796   4.541   3.352   5.066 -2.1375  2.6477 -0.1824
    1C        H  797   4.519   3.788   5.057  1.7450  0.9685 -0.0092
    1C        H  798   4.427   3.981   5.052 -1.5857 -1.4979  0.2054
    1C        H  799   4.271   4.152   5.050  3.4973  0.9216  1.5727
    1C        H  800   4.037   4.553   5.013 -0.3412  1.0245 -1.2507
    1C        H  801   3.800   4.540   5.048 -0.8961 -3.2010  0.1657
    1C        H  802   3.575   4.597   5.051  0.5369 -0.1487  0.4650
    1C        H  803   3.387   4.471   5.040  1.5520  0.5410 -1.2370
    1C        H  804   3.162   4.424   5.042  0.4097 -0.6533 -0.3498
    1C        H  805   3.895   2.431   5.045  2.2164 -3.0866 -1.8417
    1C        H  806   3.667   2.444   5.074  1.8494  1.7597 -0.2801
    1C        H  807   2.970   2.530   5.055 -0.2642 -2.4336 -0.6901
    1C        H  808   3.430   2.457   5.076  0.7953  0.5312  0.3681
    1C        H  809   2.891   2.756   5.075  0.0536 -1.4924  0.4065
    1C        H  810   2.659   2.854   5.066 -0.9798 -1.3984 -0.2811
    1C        H  811   2.537   3.288   5.069 -2.3250  1.1046 -0.0049
    1C        H  812   2.455   3.500   5.059 -0.9657  0.1144 -0.4716
    1C        H  813   2.482   3.718   5.068  1.4118 -0.1806  0.5272
    1C        H  814   2.613   4.143   5.055 -0.5148  1.6584 -0.7629
    1C        H  815   2.778   4.282   5.053 -0.2557 -0.8394 -0.2039
    1C        H  816   2.694   2.872   1.952 -2.3753 -0.6169  0.4166
    1C        H  817   2.804   2.661   1.956  0.7090  0.3980  0.0387
    1C        H  818   3.203   2.434   1.961 -0.5751 -0.0714  0.1357
    1C        H  819   3.416   2.377   1.961  1.2946 -0.9398 -0.8879
    1C        H  820   3.832   2.533   1.952  0.9063  0.1196 -0.4300
    1C        H  821   4.042   2.638   1.947  0.7563  0.4613  0.0759
    1C        H  822   4.258   2.702   1.950 -1.3544 -0.0357  0.0818
    1C        H  823   4.344   2.931   1.952 -1.4256 -0.2959  0.1393
    1C        H  824   4.564   3.301   1.947 -1.1202  0.0496  0.0829
    1C        H  825   4.521   3.516   1.934  0.2202  1.3246 -0.1419
    1C        H  826   4.525   3.744   1.939  1.8355 -0.5454  0.0004
    1C        H  827   3.790   4.511   1.926 -1.9109 -2.0027 -0.7895
    1C        H  828   3.940   4.356   1.927 -0.5324  1.0204  0.5093
    1C        H  829   4.111   4.194   1.941 -2.1342 -0.8954  1.0544
    1C        H  830   4.458   3.950   1.930  0.9290 -0.6950  0.8635
    1C        H  831   2.651   3.815   1.958  0.1842  0.4322  0.3406
    1C        H  832   2.762   4.012   1.968  0.5538 -0.2552  0.7937
    1C        H  833   2.695   4.280   1.949 -1.6587 -0.2628  1.8733
    1C        H  834   3.354   4.483   1.927 -0.5115  0.3746 -0.2956
    1C        H  835   3.139   4.400   1.927 -0.8207 -0.2726 -0.1963
    1C        H  836   2.495   2.990   1.975  1.8802 -0.1440 -0.6360
    1C        H  837   2.424   3.224   1.961  1.3511  2.5273  0.0323
    1C        H  838   2.489   3.674   1.946  0.5313 -0.1030  0.1137
    2V3OU   H29  839   2.793   3.536   0.612  1.4490 -0.4531 -0.0414
    2V3OU   C27  840   2.766   3.490   0.710  0.3018  0.0678 -0.0993
    2V3OU   H27  841   2.703   3.560   0.771 -0.4462  0.6004 -1.4567
    2V3OU   H28  842   2.712   3.393   0.695 -3.3596  1.7206  1.2253
    2V3OU   O11  843   2.894   3.467   0.771  0.2375  0.4548  0.1868
    2V3OU   C15  844   2.905   3.391   0.886 -0.1936 -0.0570 -0.1055
    2V3OU   C13  845   3.033   3.367   0.940 -0.2299  0.0805  0.0417
    2V3OU   C14  846   3.058   3.258   1.024  0.0710  0.2137  0.1225
    2V3OU   C16  847   2.954   3.174   1.064  0.1130 -0.0858 -0.3908
    2V3OU    H6  848   2.978   3.091   1.132  0.7606  0.2540 -0.1940
    2V3OU   C12  849   3.198   3.219   1.054 -0.0433  0.0557  0.4458
    2V3OU    O2  850   3.230   3.115   1.115  0.1591 -0.2220 -0.1249
    2V3OU   C10  851   3.310   3.296   0.999 -0.3132  0.0387 -0.1333
    2V3OU    C8  852   3.442   3.256   1.017 -0.3741 -0.3661 -0.6013
    2V3OU   O10  853   3.478   3.138   1.074 -0.2403 -0.2826 -0.5157
    2V3OU   H26  854   3.393   3.101   1.105  0.6541 -1.4803  0.6025
    2V3OU    C6  855   3.551   3.335   0.969 -0.2767 -0.1925 -0.0912
    2V3OU    C5  856   3.521   3.453   0.901  0.1542  0.0392  0.1215
    2V3OU    C4  857   3.689   3.280   0.964 -0.1827  0.0427 -0.0706
    2V3OU    H4  858   3.706   3.215   1.055  0.1831 -0.7105 -0.6694
    2V3OU    H5  859   3.701   3.214   0.873  1.2903  0.5145 -0.2454
    2V3OU    C2  860   3.803   3.382   0.964 -0.0833 -0.0662  0.2120
    2V3OU    O6  861   3.793   3.460   1.083 -0.5277 -0.2819  0.3192
    2V3OU   H21  862   3.760   3.544   1.048  1.3125  1.2314  1.9244
    2V3OU    C3  863   3.767   3.481   0.853  0.0743 -0.1207  0.1119
    2V3OU    H2  864   3.848   3.559   0.848  1.3179 -1.3919 -0.1283
    2V3OU    H3  865   3.768   3.426   0.756 -1.6625 -0.5993  0.3221
    2V3OU   C25  866   3.940   3.317   0.947  0.0011  0.0554  0.4297
    2V3OU    O7  867   3.991   3.285   0.840 -0.4268  0.0179  0.2359
    2V3OU   C26  868   4.020   3.274   1.069  0.6351 -0.3079 -0.1056
    2V3OU   H22  869   4.049   3.368   1.121  1.6465 -1.4785  1.5574
    2V3OU   H23  870   4.112   3.218   1.038  0.4669 -0.0555 -1.0828
    2V3OU    O8  871   3.951   3.195   1.164  0.5425  0.2508  0.2940
    2V3OU   H24  872   3.920   3.257   1.232 -0.0310  1.2506 -0.8407
    2V3OU    C1  873   3.631   3.548   0.864  0.0673 -0.0552 -0.3705
    2V3OU    H1  874   3.610   3.601   0.766 -0.7619 -0.4878 -0.4351
    2V3OU    O3  875   3.650   3.642   0.970  0.0249  0.1509 -0.5437
    2V3OU   C19  876   3.607   3.777   0.954 -0.0786  0.1979  0.1176
    2V3OU    H9  877   3.510   3.785   0.898  1.1727  0.6809 -2.1104
    2V3OU    O4  878   3.702   3.836   0.868 -0.0923 -0.2778 -0.2239
    2V3OU   C20  879   3.833   3.861   0.920 -0.2242  0.2223 -0.1313
    2V3OU   H10  880   3.878   3.759   0.933  0.9188  0.8725  1.1705
    2V3OU   C24  881   3.601   3.845   1.091 -0.3168  0.8403 -0.2050
    2V3OU   H16  882   3.531   3.783   1.153 -0.0579 -0.4296 -1.1452
    2V3OU   H17  883   3.555   3.946   1.078  0.4506  1.6252  2.5034
    2V3OU   C23  884   3.741   3.863   1.150 -0.1490 -0.5449 -0.1434
    2V3OU   H15  885   3.781   3.758   1.172 -2.5940 -1.3594  0.6642
    2V3OU    N1  886   3.721   3.941   1.270  0.1816 -0.3740 -0.1971
    2V3OU   H19  887   3.796   3.919   1.333 -0.6685  1.3152  1.5045
    2V3OU   H20  888   3.630   3.929   1.309 -0.2301  3.2409  0.2733
    2V3OU   C21  889   3.840   3.936   1.053 -0.4222  0.0153 -0.0046
    2V3OU   H11  890   3.946   3.924   1.091 -0.9063  0.4973  1.5734
    2V3OU    O5  891   3.813   4.075   1.051 -0.6817 -0.0417 -0.5945
    2V3OU   H18  892   3.777   4.092   1.140  2.1766  2.3084  0.2863
    2V3OU   C22  893   3.902   3.940   0.809 -0.2605 -0.0730 -0.3671
    2V3OU   H12  894   3.846   4.035   0.787 -1.3172 -0.0078  2.2194
    2V3OU   H13  895   3.910   3.882   0.714  3.4859  2.4742 -1.8276
    2V3OU   H14  896   4.010   3.952   0.835 -0.0630 -3.1432  0.6698
    2V3OU   C11  897   3.144   3.459   0.912  0.0095 -0.0508  0.5583
    2V3OU    O1  898   3.122   3.578   0.881  0.1088 -0.0343  0.5564
    2V3OU    C9  899   3.284   3.414   0.924  0.1755  0.3790  0.2271
    2V3OU    C7  900   3.387   3.495   0.876  0.2204  0.3864  0.3407
    2V3OU    O9  901   3.375   3.602   0.790  0.3198 -0.2612 -0.4884
    2V3OU   H25  902   3.280   3.618   0.783  0.1990 -0.6446  0.2402
    2V3OU   C17  903   2.806   3.304   0.937 -0.2049  0.0211  0.0059
    2V3OU    H7  904   2.702   3.327   0.915  0.0929  2.6235  0.8880
    2V3OU   C18  905   2.824   3.197   1.023  0.0946 -0.3087 -0.4586
    2V3OU    H8  906   2.742   3.132   1.059 -1.3721  1.5763 -0.1813
    3SOL     OW  907   0.865   1.544   3.209 -0.1671 -0.3977  0.6003
    3SOL    HW1  908   0.818   1.480   3.148 -1.3444  2.4529 -1.6849
    3SOL    HW2  909   0.952   1.504   3.238 -0.6641 -2.8493 -0.9532
    4SOL     OW  910   5.872   5.816   6.879  0.3057  0.4126 -0.0674
    4SOL    HW1  911   5.828   5.864   6.954 -1.4195 -1.9096  0.5335
    4SOL    HW2  912   5.843   5.857   6.792 -1.3918  0.2831  0.4024
    5SOL     OW  913   4.134   1.090   3.113 -0.3242  0.2237 -0.0544
    5SOL    HW1  914   4.099   1.176   3.152 -0.3579  0.0545  0.2962
    5SOL    HW2  915   4.166   1.106   3.020  1.7577  1.1482  0.7458
    6SOL     OW  916   1.402   0.632   6.992  0.3478  0.6989  0.4392
    6SOL    HW1  917   1.378   0.572   7.068 -1.8751  1.4865  0.4118
    6SOL    HW2  918   1.502   0.632   6.981  0.5486 -1.4747  1.6217
    7SOL     OW  919   2.288   5.785   2.216  0.4102 -0.4969 -0.1553
    7SOL    HW1  920   2.371   5.747   2.256  1.4177  0.9103 -0.8274
    7SOL    HW2  921   2.208   5.738   2.253  1.4776 -1.5808  0.8357
    8SOL     OW  922   0.044   0.925   3.790 -0.5792 -0.2343  1.1451
    8SOL    HW1  923   0.107   0.976   3.848 -1.7784  0.6992  1.6718
    8SOL    HW2  924   0.020   0.839   3.833 -0.7863  0.0633  1.6297
    9SOL     OW  925   0.469   2.260   2.135  0.1292 -0.6454 -0.2297
    9SOL    HW1  926   0.516   2.329   2.191 -0.5031 -1.0740  0.8454
    9SOL    HW2  927   0.516   2.172   2.143 -1.0785 -1.1884  1.2097
   10SOL     OW  928   0.893   4.195   3.265  0.5854  0.3992  0.2649
   10SOL    HW1  929   0.890   4.195   3.365 -2.0579 -1.3899  0.2757
   10SOL    HW2  930   0.891   4.290   3.232  3.4428  1.1259  1.8275
   11SOL     OW  931   6.573   3.518   2.566 -0.1476  0.4594  0.0167
   11SOL    HW1  932   6.485   3.523   2.519  1.3134  0.7478 -2.8820
   11SOL    HW2  933   6.609   3.424   2.561 -0.2843  0.3281  1.2349
   12SOL     OW  934   0.187   2.855   2.545  0.0642 -0.1953 -0.4763
   12SOL    HW1  935   0.156   2.766   2.511  1.5915 -0.4721 -1.2253
   12SOL    HW2  936   0.109   2.917   2.551 -0.8537 -1.2679 -0.9407
   13SOL     OW  937   4.846   0.276   1.080 -0.3499  0.2039  0.1892
   13SOL    HW1  938   4.833   0.271   1.179 -0.7495 -0.9520  0.0988
   13SOL    HW2  939   4.927   0.222   1.055 -1.0353 -0.6556 -0.2368
   14SOL     OW  940   5.330   1.704   6.668 -0.0623 -0.0175 -0.2420
   14SOL    HW1  941   5.278   1.785   6.640 -1.1145 -0.6705 -0.2451
   14SOL    HW2  942   5.334   1.639   6.591  2.1009  0.6396 -0.7676
   15SOL     OW  943   4.362   6.420   5.302  0.8616 -0.6679 -0.2409
   15SOL    HW1  944   4.331   6.432   5.208 -0.4688  0.4759  0.3089
   15SOL    HW2  945   4.425   6.494   5.326 -1.4339  1.1081  0.7636
   16SOL     OW  946   0.861   1.713   0.662 -0.9201 -0.3347  0.3325
   16SOL    HW1  947   0.851   1.639   0.729  1.6170 -2.1843 -1.1445
   16SOL    HW2  948   0.783   1.714   0.600 -1.6970 -0.7651  1.2807
   17SOL     OW  949   5.467   6.236   1.998  0.6799  0.1853  0.0760
   17SOL    HW1  950   5.541   6.302   2.009  1.4498 -0.5853 -0.3324
   17SOL    HW2  951   5.491   6.150   2.043 -0.1979  0.0839  0.3824
   18SOL     OW  952   2.426   6.348   3.759 -0.0054 -0.1756 -0.4772
   18SOL    HW1  953   2.517   6.381   3.731 -0.0944 -0.0878 -0.6619
   18SOL    HW2  954   2.437   6.270   3.821  0.2177  0.4757  0.3207
   19SOL     OW  955   3.628   6.108   2.805 -0.0145 -0.3227  0.3903
   19SOL    HW1  956   3.719   6.085   2.838  0.3271  0.2101 -0.1784
   19SOL    HW2  957   3.610   6.060   2.719  0.7237  1.4802 -0.8392
   20SOL     OW  958   3.825   0.425   2.807 -0.6350  0.0897 -0.6570
   20SOL    HW1  959   3.886   0.411   2.885 -0.7365  1.1342 -0.3761
   20SOL    HW2  960   3.867   0.491   2.744 -1.7672  1.3780 -0.1055
   21SOL     OW  961   3.677   1.998   2.426 -0.2242 -0.2387 -0.4980
   21SOL    HW1  962   3.613   2.054   2.374  0.8014 -0.1617 -1.7038
   21SOL    HW2  963   3.640   1.905   2.436 -0.4997 -0.2077 -1.2119
   22SOL     OW  964   2.861   6.927   1.041  0.1482  0.2277  0.1105
   22SOL    HW1  965   2.909   6.857   0.988  0.4983 -0.4604  1.2899
   22SOL    HW2  966   2.925   6.995   1.075 -0.2712  1.5121 -1.5374
   23SOL     OW  967   5.928   0.015   0.399 -0.9036  0.4502 -0.2501
   23SOL    HW1  968   5.922   0.110   0.429 -1.3198  0.1387  0.6949
   23SOL    HW2  969   5.880  -0.044   0.464  0.3351 -0.5500 -0.2061
   24SOL     OW  970   6.575   4.380   4.370  0.1705 -0.7960 -0.2719
   24SOL    HW1  971   6.588   4.282   4.359 -0.5244 -0.9253  0.0222
   24SOL    HW2  972   6.478   4.402   4.362  0.3389 -0.1076 -0.5145
   25SOL     OW  973   1.415   5.216   3.197 -0.4302 -0.2174  0.0475
   25SOL    HW1  974   1.420   5.152   3.274  1.0672 -0.5696 -0.3120
   25SOL    HW2  975   1.339   5.280   3.211 -1.5327 -1.6192  0.7562
   26SOL     OW  976   2.767   0.782   4.503  0.8831  0.0392 -0.0517
   26SOL    HW1  977   2.767   0.779   4.403  1.5414 -0.3025 -0.0481
   26SOL    HW2  978   2.827   0.855   4.535  1.3100 -0.3746  0.0984
   27SOL     OW  979   3.870   2.968   4.063 -0.1793 -0.4202 -0.2866
   27SOL    HW1  980   3.880   2.947   4.160  1.1564  0.8789 -0.1159
   27SOL    HW2  981   3.774   2.987   4.043 -0.6659 -1.8852  0.5058
   28SOL     OW  982   2.980   4.734   1.832  0.6589 -0.0414  0.2103
   28SOL    HW1  983   2.919   4.679   1.890  0.9731  0.6813  1.2584
   28SOL    HW2  984   2.956   4.720   1.736 -1.6700  0.7849  0.5975
   29SOL     OW  985   2.310   4.253   1.402 -0.3162 -0.1457 -0.1910
   29SOL    HW1  986   2.321   4.253   1.502 -0.3042 -0.3112 -0.1917
   29SOL    HW2  987   2.388   4.298   1.360 -0.8150  0.8638 -0.0767
   30SOL     OW  988   4.872   3.620   4.324 -0.2897  0.0965  0.1112
   30SOL    HW1  989   4.877   3.687   4.250 -2.9154 -0.7439 -0.9431
   30SOL    HW2  990   4.787   3.632   4.375  1.5539  0.8115  3.2722
   31SOL     OW  991   4.527   6.420   3.726 -0.6426  0.0321 -0.0378
   31SOL    HW1  992   4.496   6.463   3.641 -0.5033 -0.9951 -0.6317
   31SOL    HW2  993   4.495   6.473   3.804 -1.8015  0.3494 -0.6985
   32SOL     OW  994   1.140   3.407   1.575 -0.6514 -0.2289  0.6834
   32SOL    HW1  995   1.186   3.496   1.567  0.3589 -0.6636  1.4814
   32SOL    HW2  996   1.208   3.335   1.587 -1.5290 -0.9134  1.7057
   33SOL     OW  997   6.379   4.265   5.645 -1.0518 -0.5097 -1.0181
   33SOL    HW1  998   6.296   4.238   5.694 -0.1328  1.8595  2.2349
   33SOL    HW2  999   6.373   4.362   5.621  0.8141 -0.2018 -0.4331
   34SOL     OW 1000   2.440   6.048   1.481 -0.3416  0.3403 -0.0758
   34SOL    HW1 1001   2.397   6.070   1.393 -0.8888  1.0631  0.3666
   34SOL    HW2 1002   2.369   6.024   1.548  0.1742 -2.1553 -0.3391
   35SOL     OW 1003   3.604   6.790   6.275 -0.3649 -0.0064 -0.1963
   35SOL    HW1 1004   3.516   6.811   6.234 -0.7409 -0.2801  0.4533
   35SOL    HW2 1005   3.603   6.697   6.311  0.4666 -0.3004 -0.9065
   36SOL     OW 1006   6.539   3.216   1.639 -0.0193  0.2548 -0.1599
   36SOL    HW1 1007   6.634   3.184   1.648 -0.2956 -0.6768 -0.4453
   36SOL    HW2 1008   6.492   3.160   1.571 -0.6000  1.1307 -0.4888
   37SOL     OW 1009   3.311   3.320   5.288 -0.3420 -0.2903 -0.0507
   37SOL    HW1 1010   3.399   3.331   5.333 -0.5225  0.6723  0.1015
   37SOL    HW2 1011   3.243   3.287   5.354 -0.2685 -0.3135  0.0128
   38SOL     OW 1012   0.099   5.417   6.100  0.0660 -0.1730  0.2046
   38SOL    HW1 1013   0.035   5.413   6.023 -0.1292 -2.7186  0.4208
   38SOL    HW2 1014   0.099   5.510   6.138 -0.4057  0.9426 -2.3340
   39SOL     OW 1015   6.387   0.297   4.909  0.2931 -0.2549  0.2828
   39SOL    HW1 1016   6.295   0.336   4.911  0.2707 -0.3095  0.3242
   39SOL    HW2 1017   6.409   0.268   4.816  0.0129 -0.8522  0.3984
   40SOL     OW 1018   2.985   4.917   4.349  0.1953  0.0179  0.2146
   40SOL    HW1 1019   2.948   4.990   4.291 -2.4483 -1.1150  0.2999
   40SOL    HW2 1020   3.066   4.950   4.397  0.8993  1.8574 -2.0389
   41SOL     OW 1021   1.306   6.958   3.590  0.3916  0.4033  0.3089
   41SOL    HW1 1022   1.342   6.891   3.654  1.3553  0.3596 -0.2560
   41SOL    HW2 1023   1.376   6.979   3.521 -0.0754  1.5992  0.1765
   42SOL     OW 1024   1.873   0.339   6.961  0.0514 -0.2327 -0.7644
   42SOL    HW1 1025   1.795   0.277   6.965 -0.8872  0.8405 -1.4833
   42SOL    HW2 1026   1.872   0.388   6.873  0.7316  0.8191 -0.2130
   43SOL     OW 1027   6.747   0.029   6.284 -0.6136  0.2532  0.1474
   43SOL    HW1 1028   6.809   0.037   6.363  2.0364 -1.6713 -1.5667
   43SOL    HW2 1029   6.689  -0.051   6.295  0.2716 -0.4425 -0.1353
   44SOL     OW 1030   1.110   6.162   5.884 -0.6684  0.3218 -0.1125
   44SOL    HW1 1031   1.015   6.177   5.911 -0.7884 -2.3592  1.2526
   44SOL    HW2 1032   1.113   6.094   5.810  0.1753  1.1394 -0.8584
   45SOL     OW 1033   0.058   6.153   5.371  0.0140  0.2122 -0.2312
   45SOL    HW1 1034   0.113   6.229   5.406 -0.6824 -0.0023  1.3804
   45SOL    HW2 1035   0.104   6.067   5.391  0.6661  0.1627 -1.8122
   46SOL     OW 1036   6.455   5.394   1.941 -0.6299 -0.8710  0.4185
   46SOL    HW1 1037   6.466   5.408   1.843  2.8713 -0.2936  0.7696
   46SOL    HW2 1038   6.425   5.479   1.984  0.3894 -0.3340  0.1078
   47SOL     OW 1039   4.669   5.208   3.955  0.7131 -0.2357 -0.7278
   47SOL    HW1 1040   4.759   5.247   3.977  0.5970 -0.6225  0.5186
   47SOL    HW2 1041   4.650   5.131   4.017 -1.8905  1.8792  1.3392
   48SOL     OW 1042   4.417   6.564   0.478 -0.3392  0.2907  0.4996
   48SOL    HW1 1043   4.386   6.549   0.572  1.1621 -0.9621  0.8394
   48SOL    HW2 1044   4.467   6.483   0.446 -0.4861  0.8499 -1.2456
   49SOL     OW 1045   1.136   4.630   6.117 -0.0501 -0.9732 -0.3609
   49SOL    HW1 1046   1.081   4.650   6.198 -2.7108 -1.4552 -1.9102
   49SOL    HW2 1047   1.132   4.709   6.055  0.4632 -1.2765 -0.7833
   50SOL     OW 1048   0.026   6.932   0.672  0.3321  0.7605  0.5105
   50SOL    HW1 1049   0.063   6.960   0.760  0.0317  0.0083  0.8844
   50SOL    HW2 1050  -0.072   6.915   0.681  0.5682 -0.7908  0.4086
   51SOL     OW 1051   0.802   1.179   0.685 -0.2320  0.7287 -0.1003
   51SOL    HW1 1052   0.770   1.104   0.626  0.5300 -1.2819  1.8802
   51SOL    HW2 1053   0.901   1.175   0.692 -0.2834  1.1493  1.0263
   52SOL     OW 1054   6.953   1.008   1.201 -0.4494  0.3383  0.1339
   52SOL    HW1 1055   6.900   1.052   1.273 -0.5659 -0.1841  0.3782
   52SOL    HW2 1056   6.946   1.061   1.117 -1.5509  0.1732  0.0956
   53SOL     OW 1057   2.192   2.820   0.773  0.5746 -0.4595  0.1834
   53SOL    HW1 1058   2.145   2.745   0.726 -0.1432  0.1756 -0.1330
   53SOL    HW2 1059   2.246   2.872   0.706 -2.2692  1.8636 -0.4889
   54SOL     OW 1060   1.491   6.792   2.194  0.3088  0.1624  0.2375
   54SOL    HW1 1061   1.418   6.861   2.195 -0.7972 -0.9554 -0.2872
   54SOL    HW2 1062   1.464   6.715   2.251 -1.1146 -2.3423 -3.4231
   55SOL     OW 1063   5.693   2.734   1.882 -0.2628  0.4008  0.4087
   55SOL    HW1 1064   5.704   2.717   1.979  0.2761 -1.4614  0.0647
   55SOL    HW2 1065   5.599   2.712   1.855 -1.0262  2.8487  0.8190
   56SOL     OW 1066   2.805   0.172   1.239  0.0408  0.1869 -0.1970
   56SOL    HW1 1067   2.885   0.208   1.288  0.3727  0.0431 -0.6267
   56SOL    HW2 1068   2.776   0.087   1.282 -0.0206  0.3523  0.0971
   57SOL     OW 1069   4.651   5.163   6.487 -0.5392 -0.3825 -0.0022
   57SOL    HW1 1070   4.615   5.256   6.483  1.2879  0.3275 -2.1108
   57SOL    HW2 1071   4.614   5.110   6.410  1.4358 -0.1351 -1.1965
   58SOL     OW 1072   2.036   1.737   4.208  0.3533  0.5151 -0.1859
   58SOL    HW1 1073   2.076   1.772   4.293  0.3866  0.1409 -0.0453
   58SOL    HW2 1074   1.985   1.652   4.228 -0.4098  0.9155 -0.3758
   59SOL     OW 1075   6.945   0.285   4.205 -0.2291  0.0652 -0.0843
   59SOL    HW1 1076   6.994   0.318   4.286  0.8268 -2.5612  0.4500
   59SOL    HW2 1077   6.873   0.222   4.234 -0.2995 -0.3584 -1.1526
   60SOL     OW 1078   5.544   0.302   2.603  0.0089  0.4251 -0.5428
   60SOL    HW1 1079   5.587   0.250   2.529  3.0175  0.8685  0.7737
   60SOL    HW2 1080   5.554   0.252   2.689 -2.9611  0.1727 -0.2360
   61SOL     OW 1081   2.261   3.954   6.354  0.2310 -0.7150 -0.5376
   61SOL    HW1 1082   2.285   3.909   6.440 -0.6653  0.7370  0.5145
   61SOL    HW2 1083   2.268   3.889   6.279  2.0624 -1.7558  0.4611
   62SOL     OW 1084   1.569   2.599   5.122 -0.0204 -0.8436  0.1223
   62SOL    HW1 1085   1.638   2.530   5.145 -0.7700 -2.0245 -1.0230
   62SOL    HW2 1086   1.522   2.628   5.205  1.0065 -0.9449  0.7501
   63SOL     OW 1087   2.462   0.706   6.692 -0.6766  0.3315  0.7018
   63SOL    HW1 1088   2.419   0.792   6.722 -1.9412  0.3736 -1.0249
   63SOL    HW2 1089   2.393   0.634   6.690 -0.4222  0.0876 -0.9367
   64SOL     OW 1090   1.056   0.017   5.474 -0.0329  0.1293  0.4389
   64SOL    HW1 1091   1.069  -0.033   5.560  0.1916  0.1105  0.3934
   64SOL    HW2 1092   1.131   0.082   5.461  1.3136 -1.6062 -0.9674
   65SOL     OW 1093   2.444   1.698   3.398  0.5428 -0.1339  0.0508
   65SOL    HW1 1094   2.540   1.680   3.374  0.2264 -0.9113 -0.7125
   65SOL    HW2 1095   2.390   1.702   3.314 -0.3534 -1.3209  0.5383
   66SOL     OW 1096   5.900   1.431   2.859  0.2796  0.4446  0.0779
   66SOL    HW1 1097   5.838   1.509   2.852  1.4296  1.4332  0.6323
   66SOL    HW2 1098   5.870   1.371   2.933 -0.7199  0.2242 -0.4795
   67SOL     OW 1099   3.598   5.072   2.272  0.3754  0.0543 -0.4530
   67SOL    HW1 1100   3.537   5.069   2.192  1.4356  2.7026 -1.4479
   67SOL    HW2 1101   3.693   5.069   2.242  0.8063 -0.6962  0.8848
   68SOL     OW 1102   2.893   2.119   0.180  0.0515  0.2333  0.4682
   68SOL    HW1 1103   2.828   2.180   0.226 -1.0117 -0.9169  0.5721
   68SOL    HW2 1104   2.876   2.122   0.082 -0.2267 -0.1156  0.5010
   69SOL     OW 1105   1.528   4.851   5.444  0.5020  0.2818  0.0087
   69SOL    HW1 1106   1.460   4.916   5.413  0.3505  0.8314  1.4168
   69SOL    HW2 1107   1.592   4.896   5.506  2.0437 -0.2688 -1.1193
   70SOL     OW 1108   5.250   5.173   0.433  0.6492  0.4603  0.3569
   70SOL    HW1 1109   5.323   5.147   0.369 -0.5370  1.7293 -1.6020
   70SOL    HW2 1110   5.255   5.270   0.453 -0.6372  0.6183 -0.0015
   71SOL     OW 1111   5.223   4.714   4.367  0.2623  0.0728  0.2100
   71SOL    HW1 1112   5.146   4.771   4.395 -0.1719 -0.9921  1.2601
   71SOL    HW2 1113   5.308   4.754   4.400  0.1683  1.2096 -0.8796
   72SOL     OW 1114   2.926   5.544   0.215 -0.2536  0.1178  0.1913
   72SOL    HW1 1115   2.947   5.562   0.311 -0.8357  0.4259  0.2656
   72SOL    HW2 1116   2.870   5.619   0.178  0.6002  0.3845 -0.6040
   73SOL     OW 1117   5.180   4.730   2.057  0.0101  0.4837 -0.3624
   73SOL    HW1 1118   5.170   4.663   1.984 -0.9905  0.7836 -0.5269
   73SOL    HW2 1119   5.176   4.684   2.145 -2.0172  0.4163 -0.4365
   74SOL     OW 1120   0.512   0.347   5.191 -0.1226 -0.1607  0.3826
   74SOL    HW1 1121   0.578   0.422   5.183  0.9071 -1.2502 -3.0488
   74SOL    HW2 1122   0.451   0.364   5.269  2.6621  2.0822  2.2670
   75SOL     OW 1123   0.781   5.015   2.152 -0.0156  0.2530  0.1259
   75SOL    HW1 1124   0.748   4.949   2.220 -0.6380  2.0222  1.6597
   75SOL    HW2 1125   0.773   4.976   2.061 -0.5975 -1.6699  0.9414
   76SOL     OW 1126   4.112   5.779   3.789  0.5406 -0.1566 -0.2614
   76SOL    HW1 1127   4.201   5.823   3.786 -0.2908  1.6002  0.1079
   76SOL    HW2 1128   4.124   5.681   3.806  2.4249 -0.1113 -1.1134
   77SOL     OW 1129   5.586   5.923   1.258  0.0911  0.0961  0.3052
   77SOL    HW1 1130   5.557   5.975   1.339 -1.0471  0.1937 -0.1447
   77SOL    HW2 1131   5.520   5.850   1.241  0.4011 -0.0123 -0.4426
   78SOL     OW 1132   0.631   6.280   5.190 -0.4882 -0.2002  0.0467
   78SOL    HW1 1133   0.603   6.195   5.145 -0.0847 -0.6235  0.5762
   78SOL    HW2 1134   0.581   6.357   5.150  0.6121 -0.4056 -1.8374
   79SOL     OW 1135   0.878   0.173   6.234  0.4895 -0.1643  0.7381
   79SOL    HW1 1136   0.781   0.176   6.258  0.0293  0.0487 -1.0022
   79SOL    HW2 1137   0.908   0.265   6.207  1.1168 -0.2806  1.0236
   80SOL     OW 1138   6.448   1.254   1.600 -1.0314 -0.6551 -0.0466
   80SOL    HW1 1139   6.479   1.345   1.572 -2.0823 -0.6033 -1.1169
   80SOL    HW2 1140   6.504   1.222   1.675 -0.2613  0.6338 -0.0386
   81SOL     OW 1141   5.320   2.482   4.456 -0.2872  0.5771  0.6751
   81SOL    HW1 1142   5.306   2.520   4.364  1.4638  0.0195  0.1286
   81SOL    HW2 1143   5.241   2.503   4.513 -2.3332 -0.7254 -1.4971
   82SOL     OW 1144   1.725   0.175   2.496 -0.1312 -0.2162  0.0612
   82SOL    HW1 1145   1.751   0.184   2.592 -1.2573 -1.5721  0.5301
   82SOL    HW2 1146   1.780   0.237   2.440 -0.4818  1.7252  1.7462
   83SOL     OW 1147   5.017   6.780   2.910  0.0489  0.6018 -0.1569
   83SOL    HW1 1148   5.104   6.735   2.891  0.9512  1.4748  1.6716
   83SOL    HW2 1149   4.958   6.720   2.964  0.5674  0.9714  0.8255
   84SOL     OW 1150   1.869   6.764   3.289 -0.4126 -0.2901  0.0887
   84SOL    HW1 1151   1.909   6.736   3.202 -1.6595 -1.7381 -0.0474
   84SOL    HW2 1152   1.781   6.808   3.273  0.2986  1.3734  0.5072
   85SOL     OW 1153   0.187   4.176   0.228 -0.2804 -0.0354  0.4595
   85SOL    HW1 1154   0.171   4.241   0.154 -2.0093 -1.4251 -0.4741
   85SOL    HW2 1155   0.211   4.087   0.189 -0.1328 -0.5120  1.6190
   86SOL     OW 1156   1.649   6.394   1.688 -0.1482  0.0470 -0.1434
   86SOL    HW1 1157   1.580   6.464   1.670 -1.4672 -1.2064 -0.1416
   86SOL    HW2 1158   1.660   6.335   1.608  1.1586  0.3959 -0.2477
   87SOL     OW 1159   2.215   6.750   0.347  0.4445 -0.2241  0.0176
   87SOL    HW1 1160   2.194   6.657   0.377 -0.4296 -0.0955 -0.1487
   87SOL    HW2 1161   2.247   6.747   0.252  0.0352 -0.3251 -0.1213
   88SOL     OW 1162   0.042   4.264   2.797 -0.1309 -0.0419 -0.0917
   88SOL    HW1 1163   0.108   4.191   2.815 -0.7530 -0.4096  0.7110
   88SOL    HW2 1164   0.091   4.344   2.760  0.4897 -1.0152 -1.4844
   89SOL     OW 1165   0.418   4.386   0.671 -0.3086 -0.3470  0.1670
   89SOL    HW1 1166   0.416   4.312   0.738  0.6979 -0.2653  0.3102
   89SOL    HW2 1167   0.371   4.358   0.588  0.5007 -1.3410  0.0276
   90SOL     OW 1168   6.059   4.045   0.276  0.5094 -0.5750 -0.5983
   90SOL    HW1 1169   6.121   4.067   0.351 -1.8740  0.3712  1.2212
   90SOL    HW2 1170   6.097   3.969   0.223  2.1927 -1.4658  1.7182
   91SOL     OW 1171   6.452   3.073   4.741  0.2938 -0.0614 -0.8463
   91SOL    HW1 1172   6.380   3.116   4.796 -1.5205 -0.9215 -2.3991
   91SOL    HW2 1173   6.410   3.004   4.681  2.8026 -2.6244  0.1689
   92SOL     OW 1174   6.611   5.487   4.109 -0.0310 -0.6826  0.2411
   92SOL    HW1 1175   6.576   5.408   4.159 -4.0578  0.0383 -1.0424
   92SOL    HW2 1176   6.706   5.471   4.083  0.3499 -3.5878  2.8381
   93SOL     OW 1177   4.642   0.977   2.182  0.2400 -0.5165 -0.1946
   93SOL    HW1 1178   4.584   1.058   2.172  0.4109 -0.3029  0.5127
   93SOL    HW2 1179   4.661   0.961   2.278  1.6416 -0.3810 -0.4265
   94SOL     OW 1180   4.019   1.058   3.537  0.4990  0.7078 -0.0200
   94SOL    HW1 1181   3.981   1.097   3.621 -0.9182  2.0678 -1.2348
   94SOL    HW2 1182   4.082   1.123   3.495  1.4152 -0.0767  0.1072
   95SOL     OW 1183   0.096   2.508   6.053 -0.2078 -0.1671  0.1093
   95SOL    HW1 1184   0.062   2.543   6.141 -0.0039  1.5221 -0.4400
   95SOL    HW2 1185   0.038   2.543   5.979  0.6054 -0.2059 -0.5565
   96SOL     OW 1186   2.913   3.271   4.936 -0.4892 -0.3534  0.1538
   96SOL    HW1 1187   2.854   3.340   4.978  1.9597  1.6114  0.5466
   96SOL    HW2 1188   2.868   3.235   4.854 -1.1082  3.1309 -1.2094
   97SOL     OW 1189   5.613   1.336   6.185  0.5665 -0.1503  0.0438
   97SOL    HW1 1190   5.599   1.413   6.122 -0.0722 -1.6836 -1.7952
   97SOL    HW2 1191   5.696   1.352   6.238  0.8259  1.4922 -0.7735
   98SOL     OW 1192   6.616   6.804   4.397 -0.4317 -0.2819 -0.1633
   98SOL    HW1 1193   6.525   6.830   4.366 -0.2817 -0.4615 -0.7678
   98SOL    HW2 1194   6.632   6.707   4.376 -1.1810 -1.0704  2.4964
   99SOL     OW 1195   5.778   6.756   6.797 -0.2393 -0.6441 -0.1655
   99SOL    HW1 1196   5.837   6.802   6.864  0.0704 -0.4118 -0.5946
   99SOL    HW2 1197   5.697   6.721   6.844  0.3174 -1.1301  0.4628
  100SOL     OW 1198   2.136   2.953   2.343  0.1809 -0.0142 -0.1734
  100SOL    HW1 1199   2.153   2.943   2.245  0.4219 -0.5310 -0.0814
  100SOL    HW2 1200   2.134   3.050   2.366  2.3243  0.1062 -0.3218
  101SOL     OW 1201   1.676   1.480   0.527 -0.1291  0.5241  0.0159
  101SOL    HW1 1202   1.635   1.564   0.562 -1.7565  0.0525 -0.6809
  101SOL    HW2 1203   1.766   1.467   0.569  0.5772  3.0650 -0.5082
  102SOL     OW 1204   1.367   5.774   3.829 -0.1248  0.3574  0.0127
  102SOL    HW1 1205   1.429   5.844   3.863 -0.7610  0.9989 -0.1439
  102SOL    HW2 1206   1.315   5.809   3.751  0.4437 -0.6992 -0.8745
  103SOL     OW 1207   3.633   2.206   6.546 -0.3266  0.1300 -0.6766
  103SOL    HW1 1208   3.711   2.185   6.604 -2.1319 -0.2895  1.7660
  103SOL    HW2 1209   3.635   2.303   6.521 -0.0960  0.6172  1.1265
  104SOL     OW 1210   5.877   4.494   5.140  0.1508  0.2324  0.1088
  104SOL    HW1 1211   5.800   4.538   5.187  1.1614  2.6850 -0.3393
  104SOL    HW2 1212   5.917   4.424   5.200 -0.9679  0.5805  1.3057
  105SOL     OW 1213   1.493   2.466   2.135  0.1847  0.0416 -0.3674
  105SOL    HW1 1214   1.460   2.513   2.217  0.3953 -0.1477 -0.1697
  105SOL    HW2 1215   1.592   2.480   2.126  0.1111  0.3143 -0.7586
  106SOL     OW 1216   4.091   1.943   0.335  0.1390  0.0552  0.5291
  106SOL    HW1 1217   3.999   1.954   0.298 -0.0400 -1.4393  0.4756
  106SOL    HW2 1218   4.154   1.916   0.262  1.4403  4.2967 -0.2011
  107SOL     OW 1219   2.912   4.859   3.510  0.0840  0.8812  0.1488
  107SOL    HW1 1220   2.977   4.865   3.586  0.1975  0.7464  0.0624
  107SOL    HW2 1221   2.834   4.803   3.538 -0.7069  2.2139  0.7636
  108SOL     OW 1222   1.756   4.162   1.772  0.0508 -0.8037 -0.1702
  108SOL    HW1 1223   1.752   4.190   1.868  2.1153 -0.7403 -0.0700
  108SOL    HW2 1224   1.833   4.100   1.758  0.4261  0.0075 -1.9788
  109SOL     OW 1225   5.246   5.109   4.373 -0.0892  0.1879 -0.0942
  109SOL    HW1 1226   5.304   5.051   4.315  0.6210  1.0300 -0.2660
  109SOL    HW2 1227   5.258   5.083   4.469  0.2950  0.1004 -0.1625
  110SOL     OW 1228   2.316   6.652   2.773 -0.2227 -0.5884  0.1704
  110SOL    HW1 1229   2.318   6.750   2.755  0.8286 -0.9507 -2.0852
  110SOL    HW2 1230   2.376   6.630   2.850  0.3646  0.4284  0.0075
  111SOL     OW 1231   1.333   1.296   5.241 -0.2388  0.2064 -0.3892
  111SOL    HW1 1232   1.313   1.359   5.316 -1.0900 -0.2953 -0.1801
  111SOL    HW2 1233   1.411   1.238   5.266 -0.2015  0.3804 -0.0981
  112SOL     OW 1234   0.667   6.131   1.388 -0.5599  0.8011  0.2284
  112SOL    HW1 1235   0.576   6.105   1.419  0.0615 -2.4205 -0.2877
  112SOL    HW2 1236   0.726   6.050   1.384  0.9682  1.8082 -4.0059
  113SOL     OW 1237   0.263   1.340   4.310  0.0593  0.0828  0.0960
  113SOL    HW1 1238   0.307   1.380   4.231  1.4647  1.2076  1.3865
  113SOL    HW2 1239   0.332   1.299   4.370 -1.2720 -5.2446 -1.4830
  114SOL     OW 1240   6.115   4.311   0.224  0.0604 -0.1435  0.0578
  114SOL    HW1 1241   6.057   4.233   0.247 -0.8182  0.7134  0.8428
  114SOL    HW2 1242   6.203   4.303   0.271 -0.4135 -0.1659  0.9548
  115SOL     OW 1243   6.943   1.688   4.556  0.7805  0.0015  0.2151
  115SOL    HW1 1244   6.864   1.626   4.567 -0.1224  0.9754 -0.5599
  115SOL    HW2 1245   6.984   1.705   4.645 -0.5246  0.2603  0.7975
  116SOL     OW 1246   3.860   6.315   0.010  0.2554  0.0522 -0.0959
  116SOL    HW1 1247   3.912   6.343  -0.071  0.5703  1.1780  0.4688
  116SOL    HW2 1248   3.816   6.227  -0.007  0.7469  0.0198 -1.2945
  117SOL     OW 1249   1.905   2.156   6.482 -0.2286  0.1837  0.1860
  117SOL    HW1 1250   1.952   2.241   6.505 -1.8992  3.1805 -5.4176
  117SOL    HW2 1251   1.972   2.090   6.446  0.7074  0.4728  1.3411
  118SOL     OW 1252   1.792   5.121   2.681 -0.1883 -0.1702 -0.4783
  118SOL    HW1 1253   1.835   5.203   2.643 -0.3529  1.2839  2.2209
  118SOL    HW2 1254   1.801   5.121   2.781 -1.2152 -2.8884 -0.2876
  119SOL     OW 1255   0.748   5.494   2.575 -0.3952  0.2254  0.6039
  119SOL    HW1 1256   0.761   5.582   2.529 -3.3068  0.9831  0.9895
  119SOL    HW2 1257   0.836   5.451   2.591  0.9639  1.7895 -2.0284
  120SOL     OW 1258   6.044   5.812   0.125  0.6357 -0.0659 -0.2243
  120SOL    HW1 1259   6.057   5.890   0.186  0.8770 -0.2162 -0.0857
  120SOL    HW2 1260   5.996   5.843   0.042 -1.9167 -0.2855  1.0525
  121SOL     OW 1261   1.622   5.674   6.072 -0.3572 -0.7148  0.6637
  121SOL    HW1 1262   1.563   5.740   6.026  2.0399  1.6074  0.7336
  121SOL    HW2 1263   1.585   5.653   6.163 -1.0891  0.6759  0.7102
  122SOL     OW 1264   2.838   0.493   0.630  0.1878 -0.6083  0.8289
  122SOL    HW1 1265   2.937   0.486   0.639  0.2038 -1.1048  0.3092
  122SOL    HW2 1266   2.797   0.402   0.640 -0.1669 -0.4838  0.5386
  123SOL     OW 1267   2.071   5.141   6.399  0.0451  0.3528  0.2321
  123SOL    HW1 1268   2.046   5.067   6.462 -0.1963 -0.4699 -0.7886
  123SOL    HW2 1269   2.103   5.220   6.451 -0.6688 -0.0974  1.4044
  124SOL     OW 1270   2.199   5.189   2.421  0.4483 -0.0253  0.7899
  124SOL    HW1 1271   2.195   5.119   2.492  1.4458 -0.5184  0.3697
  124SOL    HW2 1272   2.292   5.197   2.386  0.7764  2.6703  1.9801
  125SOL     OW 1273   2.404   3.560   6.426  0.0521  0.0554  0.2739
  125SOL    HW1 1274   2.424   3.605   6.340 -0.8523 -0.8690 -0.4590
  125SOL    HW2 1275   2.362   3.625   6.489  1.1512  0.8543  0.2070
  126SOL     OW 1276   6.234   0.790   4.484  0.5185 -0.0113  0.1077
  126SOL    HW1 1277   6.248   0.721   4.556  0.9349 -0.8534 -0.7551
  126SOL    HW2 1278   6.152   0.843   4.504  1.4610  0.8259  2.0174
  127SOL     OW 1279   1.432   4.584   0.881  0.3254 -0.1694 -0.9299
  127SOL    HW1 1280   1.445   4.683   0.877 -0.6936 -0.0318 -1.1762
  127SOL    HW2 1281   1.486   4.540   0.810 -1.2475  0.4493 -2.5781
  128SOL     OW 1282   1.150   1.342   2.842  0.3585 -0.0742 -0.4462
  128SOL    HW1 1283   1.162   1.434   2.879 -1.5797 -0.8869  2.4662
  128SOL    HW2 1284   1.204   1.277   2.895  0.0259 -0.9222 -1.1247
  129SOL     OW 1285   0.342   3.997   6.385 -0.1438  0.0788  0.2978
  129SOL    HW1 1286   0.373   3.957   6.299 -1.5074 -2.2667  0.8035
  129SOL    HW2 1287   0.420   4.015   6.445  0.5883 -1.3278 -0.2030
  130SOL     OW 1288   1.659   2.572   5.806  1.1404 -0.1404 -0.4058
  130SOL    HW1 1289   1.711   2.569   5.891  0.7575  0.0507 -0.1608
  130SOL    HW2 1290   1.596   2.495   5.803  0.6834  0.2240 -0.2096
  131SOL     OW 1291   0.328   2.813   3.956  0.3506  0.0840 -0.4243
  131SOL    HW1 1292   0.264   2.803   4.032  1.2212 -0.3779  0.2780
  131SOL    HW2 1293   0.315   2.901   3.912 -0.4604  0.1738 -0.0097
  132SOL     OW 1294   3.138   6.162   1.723  0.2280  0.5649 -0.0049
  132SOL    HW1 1295   3.068   6.098   1.755  0.4511 -0.1867 -0.9696
  132SOL    HW2 1296   3.113   6.255   1.751  0.9686 -0.0975  3.2763
  133SOL     OW 1297   6.470   0.232   5.592  0.2920  0.2806 -0.5860
  133SOL    HW1 1298   6.418   0.210   5.675  1.1721 -0.5890 -0.2416
  133SOL    HW2 1299   6.472   0.331   5.580  2.7117  0.7177  2.2131
  134SOL     OW 1300   4.900   4.916   3.027 -0.2143  0.2585  0.4574
  134SOL    HW1 1301   4.970   4.919   2.956  0.6167 -1.7374  1.1498
  134SOL    HW2 1302   4.811   4.939   2.986  0.1581 -1.2900 -1.3823
  135SOL     OW 1303   2.650   4.916   4.937 -0.1456  0.1863  0.3044
  135SOL    HW1 1304   2.588   4.842   4.910 -0.1758  0.8598 -1.6516
  135SOL    HW2 1305   2.687   4.897   5.028 -1.4719 -1.3538  0.5754
  136SOL     OW 1306   6.064   2.380   6.517 -0.3923  0.0518  0.1845
  136SOL    HW1 1307   6.153   2.353   6.480 -1.3452 -2.0672 -0.6754
  136SOL    HW2 1308   6.079   2.436   6.599  1.7182  0.9528 -0.7320
  137SOL     OW 1309   6.053   0.597   2.462 -0.5185  1.4752  0.1173
  137SOL    HW1 1310   5.985   0.659   2.424 -0.1948  2.1524  0.6280
  137SOL    HW2 1311   6.012   0.546   2.538 -0.9386  0.6709 -0.6349
  138SOL     OW 1312   1.804   2.443   2.244 -0.3072  0.3150  0.2098
  138SOL    HW1 1313   1.764   2.360   2.205 -2.0082  0.7018  1.0397
  138SOL    HW2 1314   1.851   2.420   2.329 -0.0236  0.0862 -0.0055
  139SOL     OW 1315   6.379   5.545   6.940  0.2018 -0.2316  0.4819
  139SOL    HW1 1316   6.369   5.644   6.954  2.4791  0.3088 -1.0802
  139SOL    HW2 1317   6.463   5.513   6.983  0.6310 -1.0148 -0.8612
  140SOL     OW 1318   5.930   2.524   6.346  0.4474  0.2380 -0.5508
  140SOL    HW1 1319   5.981   2.448   6.386 -2.2785 -1.7138 -0.5173
  140SOL    HW2 1320   5.947   2.607   6.400  2.3292 -0.6546  0.3341
  141SOL     OW 1321   0.364   4.740   4.980 -0.3878  0.2298 -0.4624
  141SOL    HW1 1322   0.371   4.818   4.918 -0.0904  2.1399  1.8259
  141SOL    HW2 1323   0.270   4.731   5.012 -0.1580  0.4980  0.2990
  142SOL     OW 1324   1.564   4.533   3.058  0.0246 -0.4611  0.1803
  142SOL    HW1 1325   1.471   4.567   3.048 -0.3326 -1.8253 -1.5611
  142SOL    HW2 1326   1.579   4.505   3.153 -1.3501 -0.2369  0.4784
  143SOL     OW 1327   5.221   6.829   3.993 -0.1696  0.0201  0.5276
  143SOL    HW1 1328   5.271   6.743   4.002  0.1060  0.1084 -0.1407
  143SOL    HW2 1329   5.253   6.879   3.913 -1.6499 -0.1435 -0.2147
  144SOL     OW 1330   5.902   1.265   3.986 -0.3268  0.4480 -0.2690
  144SOL    HW1 1331   5.824   1.209   4.014  0.3792 -0.0725  0.7158
  144SOL    HW2 1332   5.985   1.231   4.030  0.6363  0.4345 -1.9996
  145SOL     OW 1333   4.723   1.779   4.922  0.3303  0.2948 -0.3010
  145SOL    HW1 1334   4.758   1.744   4.835 -0.3541  0.3898 -0.6248
  145SOL    HW2 1335   4.799   1.799   4.983  0.8386  0.5137 -0.9881
  146SOL     OW 1336   3.172   0.118   6.642  0.0707  0.3856  0.7639
  146SOL    HW1 1337   3.100   0.175   6.602  0.6728  0.3604 -0.4086
  146SOL    HW2 1338   3.261   0.148   6.607  0.2362 -3.4656 -2.8456
  147SOL     OW 1339   5.879   5.719   0.872  0.1444 -0.9756  0.3725
  147SOL    HW1 1340   5.847   5.720   0.778  0.4314  3.2594  0.1621
  147SOL    HW2 1341   5.808   5.755   0.932  1.9315  2.1476  0.8137
  148SOL     OW 1342   3.513   3.351   3.538  0.1619  0.2010  0.1875
  148SOL    HW1 1343   3.538   3.407   3.459  2.1643 -0.1644  0.5142
  148SOL    HW2 1344   3.495   3.410   3.617 -2.7539  0.6411 -0.6609
  149SOL     OW 1345   4.125   2.248   2.161 -0.3205 -0.4479  0.2787
  149SOL    HW1 1346   4.029   2.241   2.188 -0.4789 -1.3800 -0.4839
  149SOL    HW2 1347   4.130   2.259   2.061  0.3654 -0.2050  0.3362
  150SOL     OW 1348   6.646   0.119   1.402  0.2628 -0.1155  0.3969
  150SOL    HW1 1349   6.582   0.154   1.334 -0.8624 -3.8100 -0.7209
  150SOL    HW2 1350   6.603   0.119   1.492  0.7770  2.3369  0.7042
  151SOL     OW 1351   0.957   3.573   6.576  0.1715  0.0133 -0.0131
  151SOL    HW1 1352   0.947   3.502   6.506 -1.1062  1.3915 -1.3226
  151SOL    HW2 1353   0.998   3.655   6.535  1.5510  0.0844  1.4411
  152SOL     OW 1354   1.153   3.568   3.916 -0.3490  0.0100  0.4504
  152SOL    HW1 1355   1.108   3.550   3.828 -2.2877 -0.0169  1.3817
  152SOL    HW2 1356   1.089   3.617   3.976 -0.4191 -2.9442  3.0311
  153SOL     OW 1357   2.881   2.818   0.527 -0.2288 -0.1269  0.4470
  153SOL    HW1 1358   2.836   2.737   0.565 -1.0212  0.2377  0.3001
  153SOL    HW2 1359   2.881   2.891   0.595  1.7088 -0.6484  1.0903
  154SOL     OW 1360   3.466   5.335   1.158 -0.2806  0.1566  0.5362
  154SOL    HW1 1361   3.438   5.286   1.241 -1.1167  0.4932  0.4619
  154SOL    HW2 1362   3.565   5.336   1.152 -0.2365 -0.9967  0.8606
  155SOL     OW 1363   0.560   6.762   0.782  0.3541 -0.0717  0.6604
  155SOL    HW1 1364   0.482   6.712   0.821  0.3317  0.0628  0.7888
  155SOL    HW2 1365   0.528   6.848   0.743  0.3636 -0.2486  0.2622
  156SOL     OW 1366   3.471   4.825   1.423  0.1435 -0.9746  0.5026
  156SOL    HW1 1367   3.376   4.855   1.425  0.1275 -1.0270  1.9243
  156SOL    HW2 1368   3.495   4.794   1.331 -1.1450 -0.7591  0.0776
  157SOL     OW 1369   2.911   3.604   3.663 -0.0760  0.6593  0.5228
  157SOL    HW1 1370   2.942   3.583   3.571  0.8259 -1.0104  1.1689
  157SOL    HW2 1371   2.959   3.684   3.697  0.7536  0.3434  0.1176
  158SOL     OW 1372   0.944   2.181   1.706 -0.2453  0.1218 -0.4770
  158SOL    HW1 1373   0.920   2.161   1.611  1.3561 -0.5259 -0.7645
  158SOL    HW2 1374   0.860   2.194   1.759 -1.1589  0.8626 -2.0341
  159SOL     OW 1375   3.491   2.742   1.874  0.5791  0.2309 -0.0856
  159SOL    HW1 1376   3.526   2.655   1.837  2.3787  0.9423 -0.1065
  159SOL    HW2 1377   3.525   2.755   1.967 -1.1530  0.0962  0.6026
  160SOL     OW 1378   6.574   0.047   2.356 -0.2239 -0.0360 -0.8774
  160SOL    HW1 1379   6.650   0.086   2.409 -0.3849  0.6119 -1.1231
  160SOL    HW2 1380   6.504   0.014   2.419 -0.8078  1.5144 -0.6835
  161SOL     OW 1381   4.572   0.706   6.148  0.1937  0.1110  0.0220
  161SOL    HW1 1382   4.532   0.668   6.231  1.2569 -1.7274 -0.2647
  161SOL    HW2 1383   4.628   0.637   6.102  1.7357  1.8600 -0.8742
  162SOL     OW 1384   5.998   0.947   0.666 -0.2673 -0.1706  0.1484
  162SOL    HW1 1385   6.004   0.849   0.685  0.2010 -0.0587  0.6164
  162SOL    HW2 1386   6.073   0.974   0.605  1.0701  0.3178  1.9365
  163SOL     OW 1387   6.417   6.345   2.616  0.6670  0.3975  0.6730
  163SOL    HW1 1388   6.338   6.301   2.574  0.7222 -0.8764  1.8434
  163SOL    HW2 1389   6.387   6.423   2.670  0.4117  0.9159 -0.1854
  164SOL     OW 1390   4.361   2.946   0.757 -0.2905  0.3803 -0.1762
  164SOL    HW1 1391   4.364   2.982   0.664  0.9766 -0.8450 -0.6563
  164SOL    HW2 1392   4.267   2.923   0.781 -0.4038 -1.3326 -2.0224
  165SOL     OW 1393   4.522   1.534   1.725  0.1736 -0.1507  0.1261
  165SOL    HW1 1394   4.569   1.515   1.639  1.2402  0.8025  0.4709
  165SOL    HW2 1395   4.479   1.625   1.719  1.5673  0.6053  1.1107
  166SOL     OW 1396   1.397   1.689   6.644  0.2209 -0.2800 -0.2448
  166SOL    HW1 1397   1.443   1.615   6.596  1.5365  1.2009 -1.3550
  166SOL    HW2 1398   1.306   1.658   6.672 -0.9284 -1.1189 -4.2159
  167SOL     OW 1399   3.463   4.888   2.430 -0.6697  0.3098  0.2601
  167SOL    HW1 1400   3.448   4.812   2.367  1.4776  0.4706 -0.5197
  167SOL    HW2 1401   3.484   4.971   2.379  0.9650  0.4833  1.1330
  168SOL     OW 1402   4.575   2.331   3.333 -0.2559 -0.5010  0.3795
  168SOL    HW1 1403   4.577   2.353   3.235  0.9692 -1.5437  0.1475
  168SOL    HW2 1404   4.641   2.388   3.382  2.2978 -2.8453 -0.0964
  169SOL     OW 1405   3.830   6.365   4.551 -0.2713  0.4631 -0.2201
  169SOL    HW1 1406   3.749   6.357   4.493  0.8945 -0.1834 -1.8321
  169SOL    HW2 1407   3.880   6.449   4.528  0.3297  0.0803 -0.3437
  170SOL     OW 1408   1.335   3.990   0.590 -0.4297  0.0730 -0.1550
  170SOL    HW1 1409   1.365   3.896   0.610 -1.7780 -0.1072  1.1695
  170SOL    HW2 1410   1.382   4.054   0.651 -2.3014 -0.1668  1.6231
  171SOL     OW 1411   1.908   1.037   4.161 -0.3327 -0.6256 -0.0369
  171SOL    HW1 1412   1.938   0.943   4.177 -1.2817 -0.8303  0.6253
  171SOL    HW2 1413   1.920   1.091   4.244  2.0531  0.3865 -0.9673
  172SOL     OW 1414   5.989   2.045   2.562 -0.1000 -0.4875 -0.1281
  172SOL    HW1 1415   5.925   2.099   2.509  0.2548 -0.8094 -0.9038
  172SOL    HW2 1416   6.027   2.101   2.636 -0.8623 -0.1431  0.0138
  173SOL     OW 1417   1.060   3.540   2.684  0.3720  0.1964 -0.6953
  173SOL    HW1 1418   1.151   3.510   2.656  1.3139  0.2347  1.9820
  173SOL    HW2 1419   1.010   3.462   2.722  0.0321  0.5423 -0.4298
  174SOL     OW 1420   2.062   6.980   0.340  0.1017  0.0766 -0.0808
  174SOL    HW1 1421   2.116   6.895   0.342 -0.1529 -0.1122  2.9840
  174SOL    HW2 1422   2.123   7.058   0.348  0.1023 -0.0168  0.8852
  175SOL     OW 1423   4.759   6.649   5.804 -0.3154 -0.2928  0.0985
  175SOL    HW1 1424   4.746   6.647   5.903  1.7835  2.1524  0.5167
  175SOL    HW2 1425   4.825   6.579   5.777  0.1427 -0.0604  0.6175
  176SOL     OW 1426   6.232   2.638   6.368  0.5369  0.1700  0.0752
  176SOL    HW1 1427   6.218   2.595   6.279 -0.7299 -0.7555  0.6867
  176SOL    HW2 1428   6.284   2.576   6.427 -0.4981 -0.1741  0.6602
  177SOL     OW 1429   1.755   1.787   2.854  0.0142  0.5486 -0.0542
  177SOL    HW1 1430   1.850   1.817   2.868 -1.1478  3.6382  2.3296
  177SOL    HW2 1431   1.718   1.835   2.774 -0.5211  2.2514  1.1525
  178SOL     OW 1432   4.418   6.443   6.340 -0.3059 -0.1632  0.1224
  178SOL    HW1 1433   4.480   6.453   6.419  0.3721  1.0220 -0.5306
  178SOL    HW2 1434   4.465   6.394   6.267 -0.0326  0.9234 -0.4530
  179SOL     OW 1435   1.668   1.400   4.240  0.0294  0.2018 -0.2533
  179SOL    HW1 1436   1.679   1.344   4.158  0.3632  2.1202 -1.6044
  179SOL    HW2 1437   1.751   1.455   4.254 -0.5303  0.8611  0.5969
  180SOL     OW 1438   1.890   4.151   4.764  0.1657 -0.6301 -0.7874
  180SOL    HW1 1439   1.987   4.171   4.781 -0.0295  1.4305 -1.7881
  180SOL    HW2 1440   1.872   4.152   4.666 -0.9810 -0.3020 -0.5914
  181SOL     OW 1441   3.693   4.272   5.667 -0.1765 -0.0749  0.0462
  181SOL    HW1 1442   3.674   4.236   5.576  0.0425 -0.2209  0.0570
  181SOL    HW2 1443   3.640   4.221   5.735 -0.9533  0.5560 -0.0718
  182SOL     OW 1444   1.681   1.824   6.308 -0.2016 -0.0967 -0.2929
  182SOL    HW1 1445   1.594   1.861   6.277 -1.3941 -0.5889  2.1512
  182SOL    HW2 1446   1.749   1.831   6.235 -1.0358  4.2741 -0.9287
  183SOL     OW 1447   2.125   4.086   5.937 -0.1271  0.8223 -0.4195
  183SOL    HW1 1448   2.223   4.069   5.925  0.0339  1.2118  0.2307
  183SOL    HW2 1449   2.097   4.055   6.028 -1.2319 -1.8322 -1.5573
  184SOL     OW 1450   2.849   6.436   4.177 -0.0844 -0.3374 -0.3726
  184SOL    HW1 1451   2.898   6.378   4.242  1.1712  1.8011  0.7366
  184SOL    HW2 1452   2.916   6.485   4.121 -1.0700  0.3642 -0.9549
  185SOL     OW 1453   5.339   2.797   2.551 -0.7507  0.0086  0.0921
  185SOL    HW1 1454   5.397   2.845   2.486  1.7091  0.5557  2.5330
  185SOL    HW2 1455   5.274   2.861   2.592 -1.5746 -0.1159 -0.9660
  186SOL     OW 1456   4.934   3.981   3.928 -0.0878  0.5341  0.6630
  186SOL    HW1 1457   5.029   3.989   3.956  0.0147 -2.3383  1.4758
  186SOL    HW2 1458   4.881   3.937   4.001 -1.7749  0.8859 -0.2831
  187SOL     OW 1459   3.933   5.064   6.098 -0.7110 -0.4688  0.1311
  187SOL    HW1 1460   3.894   4.982   6.139 -0.9910  0.2439  1.3147
  187SOL    HW2 1461   3.987   5.113   6.165  2.0495 -1.2526 -1.3662
  188SOL     OW 1462   6.235   5.883   4.671 -0.1828  0.0258 -0.7624
  188SOL    HW1 1463   6.243   5.894   4.572 -0.2959 -0.1706 -0.7941
  188SOL    HW2 1464   6.251   5.788   4.696 -1.0309 -0.1078 -0.6913
  189SOL     OW 1465   2.040   3.915   1.017 -0.8272 -0.3219 -0.1289
  189SOL    HW1 1466   2.115   3.968   1.058  0.6489  0.4115 -3.4701
  189SOL    HW2 1467   1.978   3.886   1.089  0.3262  2.7234  2.3587
  190SOL     OW 1468   2.275   2.287   0.149  0.2520  0.0414  0.4631
  190SOL    HW1 1469   2.202   2.243   0.096  1.0994 -2.4187  1.2029
  190SOL    HW2 1470   2.264   2.387   0.144 -1.7781 -0.1888 -1.3219
  191SOL     OW 1471   5.872   3.968   2.937 -0.7660  0.2751 -0.0352
  191SOL    HW1 1472   5.965   3.991   2.964 -0.5299 -0.5605 -0.1161
  191SOL    HW2 1473   5.823   3.930   3.016 -0.6720 -0.3792 -0.2921
  192SOL     OW 1474   1.754   4.096   2.236 -0.0684  0.1368  0.0793
  192SOL    HW1 1475   1.675   4.112   2.294  0.7113  1.0090  0.9341
  192SOL    HW2 1476   1.744   4.149   2.151 -1.5785 -1.7473 -1.0015
  193SOL     OW 1477   0.436   2.065   0.369 -0.1275  0.4042 -0.1338
  193SOL    HW1 1478   0.485   2.121   0.436  0.8601  0.9061 -1.2339
  193SOL    HW2 1479   0.502   2.015   0.314 -0.9827 -1.4792  0.4772
  194SOL     OW 1480   4.359   4.982   2.234 -0.1872 -0.5518 -0.1719
  194SOL    HW1 1481   4.315   4.910   2.288  2.1022 -0.9412  1.3554
  194SOL    HW2 1482   4.360   5.067   2.286  1.7308 -0.8430  0.3798
  195SOL     OW 1483   6.440   3.028   6.398 -0.0570  0.5740  0.0565
  195SOL    HW1 1484   6.425   3.124   6.373 -3.5033 -0.1542 -1.2035
  195SOL    HW2 1485   6.502   2.986   6.331 -0.0667  1.4494 -0.5245
  196SOL     OW 1486   6.550   6.041   1.339  0.2360 -0.5670 -0.4053
  196SOL    HW1 1487   6.505   5.962   1.381  0.5948  0.7022  2.6770
  196SOL    HW2 1488   6.644   6.046   1.371  0.0044  1.4708  0.0912
  197SOL     OW 1489   2.579   0.036   1.901  0.2076 -0.1574 -0.1572
  197SOL    HW1 1490   2.626  -0.021   1.834 -0.1647 -0.5559 -0.0843
  197SOL    HW2 1491   2.521  -0.021   1.958 -0.1666  0.2957 -0.0777
  198SOL     OW 1492   2.070   6.858   4.848 -0.2999  0.8778  0.2452
  198SOL    HW1 1493   2.083   6.909   4.763  1.4399 -0.3099 -0.2597
  198SOL    HW2 1494   2.089   6.761   4.832  0.2050  0.6565  2.0105
  199SOL     OW 1495   5.864   3.034   4.267  0.3933 -0.5139 -0.0276
  199SOL    HW1 1496   5.948   2.984   4.286  1.0731  0.4787 -0.3582
  199SOL    HW2 1497   5.885   3.131   4.251 -0.7738 -0.3065 -0.4105
  200SOL     OW 1498   2.127   3.138   2.715  0.2681  0.1627  0.2727
  200SOL    HW1 1499   2.101   3.206   2.783  1.1310  2.2367 -1.3395
  200SOL    HW2 1500   2.115   3.176   2.623  0.8977 -1.8470 -0.7122
  201SOL     OW 1501   5.498   2.460   6.227  0.4120  0.3318 -0.8029
  201SOL    HW1 1502   5.422   2.491   6.285 -1.4079  0.4483 -3.0880
  201SOL    HW2 1503   5.561   2.406   6.282 -0.0103  2.2050  1.7529
  202SOL     OW 1504   2.679   5.942   6.520 -0.0023  0.3854 -0.3133
  202SOL    HW1 1505   2.736   5.992   6.454 -0.2358  0.2468 -0.6158
  202SOL    HW2 1506   2.629   6.008   6.576  1.4070  0.5633  0.8156
  203SOL     OW 1507   4.112   3.711   4.935  0.1698  0.6515 -0.4292
  203SOL    HW1 1508   4.164   3.706   5.020 -0.4555 -0.6065 -0.0993
  203SOL    HW2 1509   4.084   3.806   4.918  1.1515  1.0645  0.2366
  204SOL     OW 1510   5.652   6.221   5.531 -0.3035  0.0004 -0.6398
  204SOL    HW1 1511   5.664   6.129   5.570  0.6237 -0.0850 -1.1050
  204SOL    HW2 1512   5.601   6.277   5.595  0.1874 -0.4827  0.1951
  205SOL     OW 1513   2.700   4.152   0.887 -0.2670  0.4449 -0.8056
  205SOL    HW1 1514   2.624   4.095   0.855  0.4150 -0.5314 -0.7445
  205SOL    HW2 1515   2.765   4.095   0.937  0.1578  1.4012 -0.2494
  206SOL     OW 1516   2.424   4.435   3.650  0.4010  0.4268  0.1078
  206SOL    HW1 1517   2.348   4.420   3.714  0.7523 -1.3050  0.1627
  206SOL    HW2 1518   2.507   4.456   3.701  0.5437 -0.3554  0.2178
  207SOL     OW 1519   6.841   2.339   4.513  0.1707 -0.0893 -0.0789
  207SOL    HW1 1520   6.919   2.278   4.504 -0.7737 -1.7236  1.8438
  207SOL    HW2 1521   6.757   2.289   4.495 -0.6284  0.6895  1.2425
  208SOL     OW 1522   2.748   1.749   5.593 -0.4376  0.2725 -0.0255
  208SOL    HW1 1523   2.696   1.832   5.609 -0.6512  0.0582  0.4159
  208SOL    HW2 1524   2.845   1.768   5.603 -0.5856 -0.1220  3.0024
  209SOL     OW 1525   3.386   3.592   0.207 -0.1272  0.7110 -0.0414
  209SOL    HW1 1526   3.471   3.612   0.257 -1.1197 -0.7447  2.4252
  209SOL    HW2 1527   3.328   3.673   0.207 -0.5226  0.5024  2.1886
  210SOL     OW 1528   5.269   2.158   4.562 -0.1479  0.4594 -0.2870
  210SOL    HW1 1529   5.354   2.137   4.610 -0.4882 -1.4474 -0.4214
  210SOL    HW2 1530   5.285   2.230   4.495  1.7248 -0.7495 -1.2311
  211SOL     OW 1531   0.362   5.830   6.238 -0.2135  0.4142 -0.1560
  211SOL    HW1 1532   0.408   5.855   6.324  0.4285  1.3506 -0.7482
  211SOL    HW2 1533   0.416   5.864   6.161 -1.6948  1.1746 -0.8944
  212SOL     OW 1534   2.541   1.971   1.613 -0.7072 -0.2152 -0.2367
  212SOL    HW1 1535   2.442   1.989   1.614 -0.4275  1.5033 -0.5001
  212SOL    HW2 1536   2.589   2.047   1.655  0.5024 -1.2715  0.3524
  213SOL     OW 1537   1.778   2.746   2.621  0.2307  0.6666 -0.1112
  213SOL    HW1 1538   1.814   2.776   2.533 -1.1458  0.2047 -0.8525
  213SOL    HW2 1539   1.846   2.764   2.692  0.1165  4.1904 -0.6995
  214SOL     OW 1540   0.658   2.169   1.858 -0.3968  0.1849 -0.2272
  214SOL    HW1 1541   0.735   2.158   1.921  0.3936 -0.6835 -1.3004
  214SOL    HW2 1542   0.572   2.170   1.910  0.2211 -0.6374  0.8608
  215SOL     OW 1543   2.057   2.393   2.955 -0.4511  0.4798  0.0870
  215SOL    HW1 1544   2.101   2.441   3.031  0.5824 -2.5221  1.5844
  215SOL    HW2 1545   2.124   2.376   2.883  0.7569 -2.8697  1.7639
  216SOL     OW 1546   5.669   5.391   3.968 -0.1531  0.1300 -0.0428
  216SOL    HW1 1547   5.684   5.490   3.974 -0.7324  0.3010 -1.2136
  216SOL    HW2 1548   5.757   5.344   3.973  0.0482  0.6051  1.7469
  217SOL     OW 1549   5.616   5.382   6.035  0.3421  0.0756 -0.1368
  217SOL    HW1 1550   5.633   5.417   5.943 -0.7227  1.0406  0.0213
  217SOL    HW2 1551   5.701   5.385   6.088  0.7462  0.3803 -0.7938
  218SOL     OW 1552   2.043   5.873   6.895 -0.1875  0.2281 -0.0623
  218SOL    HW1 1553   2.084   5.922   6.973 -0.7820  0.5239  0.0778
  218SOL    HW2 1554   2.057   5.775   6.906  1.4391  0.3787 -0.5853
  219SOL     OW 1555   4.346   0.606   5.561  0.4376 -0.5645  0.5651
  219SOL    HW1 1556   4.337   0.596   5.660  2.1956  2.6085  1.2022
  219SOL    HW2 1557   4.262   0.644   5.524 -0.0904 -1.3945  0.8900
  220SOL     OW 1558   0.305   1.668   6.916  0.1223 -0.7643 -0.2112
  220SOL    HW1 1559   0.262   1.628   6.997  0.1895  1.8486  1.2197
  220SOL    HW2 1560   0.239   1.724   6.866  0.1402 -2.1649 -1.9230
  221SOL     OW 1561   3.154   6.227   6.444 -0.2066 -0.1830 -0.7264
  221SOL    HW1 1562   3.097   6.294   6.398  0.0888 -0.4000 -1.4301
  221SOL    HW2 1563   3.119   6.135   6.426  0.4265 -0.3275 -1.2818
  222SOL     OW 1564   1.905   4.647   4.012  0.4619 -0.4442 -0.2772
  222SOL    HW1 1565   1.857   4.566   4.044 -0.0756 -0.2576 -0.5975
  222SOL    HW2 1566   1.957   4.687   4.087  0.2990 -0.7768  0.0138
  223SOL     OW 1567   1.995   1.416   6.589  0.1957  0.7700 -0.2637
  223SOL    HW1 1568   2.060   1.443   6.517  2.0440  1.2316  1.5037
  223SOL    HW2 1569   1.906   1.459   6.570  0.8634  1.5764 -1.8054
  224SOL     OW 1570   3.812   1.846   3.164  0.5018  0.1687 -0.1745
  224SOL    HW1 1571   3.893   1.808   3.119 -0.6237 -1.8505 -0.6288
  224SOL    HW2 1572   3.823   1.837   3.263  1.3513  1.1061 -0.1626
  225SOL     OW 1573   2.296   1.051   5.140 -0.1257 -0.1449  0.0987
  225SOL    HW1 1574   2.199   1.063   5.163 -0.3090 -1.6428  0.2331
  225SOL    HW2 1575   2.317   0.953   5.136  1.0114  0.1267 -1.5330
  226SOL     OW 1576   5.347   2.724   1.026 -0.0289 -0.0348  0.6262
  226SOL    HW1 1577   5.322   2.781   1.105 -1.0050 -0.5125  0.6739
  226SOL    HW2 1578   5.386   2.782   0.955 -0.9189  0.6978  0.7054
  227SOL     OW 1579   1.643   2.386   1.390 -0.2174 -0.1825 -0.9082
  227SOL    HW1 1580   1.559   2.377   1.337 -1.1118  0.2605  0.3890
  227SOL    HW2 1581   1.666   2.483   1.399 -0.5922 -0.1880  0.2638
  228SOL     OW 1582   3.373   4.354   1.257 -0.1293 -0.2193  0.5002
  228SOL    HW1 1583   3.375   4.322   1.162 -0.8024 -0.5458  0.5928
  228SOL    HW2 1584   3.319   4.290   1.312 -1.6345  1.1335  0.6685
  229SOL     OW 1585   0.193   0.310   0.485  0.2542  0.0218 -0.1904
  229SOL    HW1 1586   0.267   0.330   0.421 -0.4118 -1.3907 -1.4737
  229SOL    HW2 1587   0.114   0.367   0.462  1.3155  2.6693  2.1351
  230SOL     OW 1588   6.828   2.051   1.321 -0.5356  0.1310  0.5246
  230SOL    HW1 1589   6.922   2.082   1.335 -0.3734 -0.5721  1.0641
  230SOL    HW2 1590   6.827   1.951   1.315 -1.2669  0.1263  0.6494
  231SOL     OW 1591   2.497   0.207   0.429  0.5403 -0.4860 -0.0538
  231SOL    HW1 1592   2.551   0.287   0.403  1.3662 -0.6069  1.2022
  231SOL    HW2 1593   2.417   0.199   0.369  0.3799  1.3428 -0.1187
  232SOL     OW 1594   0.259   1.737   5.642 -0.2699  0.6345  0.6214
  232SOL    HW1 1595   0.347   1.746   5.689  0.6260 -3.7001  0.1664
  232SOL    HW2 1596   0.185   1.764   5.703  1.0897 -0.9890  3.1589
  233SOL     OW 1597   3.818   0.971   2.317  0.0385  0.1802  0.1436
  233SOL    HW1 1598   3.731   1.013   2.342  0.7162  1.2849  0.7297
  233SOL    HW2 1599   3.862   0.934   2.400  0.0386 -0.5724 -0.1816
  234SOL     OW 1600   5.234   1.550   5.368  0.0853  0.3199 -0.6248
  234SOL    HW1 1601   5.178   1.622   5.326  0.3361  0.6764 -0.3592
  234SOL    HW2 1602   5.185   1.510   5.445  0.0915  0.4554 -0.5506
  235SOL     OW 1603   2.035   4.548   0.942  0.1642 -0.2257 -0.0596
  235SOL    HW1 1604   1.951   4.591   0.910  0.2191  0.0885  0.2099
  235SOL    HW2 1605   2.028   4.529   1.040  0.9447  1.1431  0.2895
  236SOL     OW 1606   0.358   2.853   1.005 -0.2692  0.5038 -0.5369
  236SOL    HW1 1607   0.267   2.815   0.985 -0.0485  0.0381 -0.6808
  236SOL    HW2 1608   0.386   2.827   1.097  0.3423 -0.6392 -1.0148
  237SOL     OW 1609   0.406   6.958   6.333  0.8072 -0.5838  0.2133
  237SOL    HW1 1610   0.360   6.898   6.399  1.0848 -0.3233  0.6509
  237SOL    HW2 1611   0.378   6.933   6.240 -0.3074 -0.3672  0.4698
  238SOL     OW 1612   3.399   1.966   4.190  0.0889  0.0528 -0.2751
  238SOL    HW1 1613   3.402   1.866   4.184  1.4638  0.1138 -1.1945
  238SOL    HW2 1614   3.464   1.998   4.258 -0.4932  0.3221  0.1623
  239SOL     OW 1615   4.800   4.564   2.018  0.1294  0.1409  0.5215
  239SOL    HW1 1616   4.886   4.543   1.971 -1.0356 -1.0122 -1.2417
  239SOL    HW2 1617   4.806   4.655   2.060  2.1081  0.1743  0.2589
  240SOL     OW 1618   1.956   0.152   6.136 -0.0561  0.1882  0.4358
  240SOL    HW1 1619   1.969   0.204   6.052  1.8481 -1.7051 -0.5403
  240SOL    HW2 1620   1.862   0.120   6.142 -0.0372 -0.2630 -1.3558
  241SOL     OW 1621   0.491   5.100   5.309  0.0574 -0.0412  0.4428
  241SOL    HW1 1622   0.480   5.131   5.215  2.7520  0.3355  0.1548
  241SOL    HW2 1623   0.456   5.169   5.372 -0.6253  0.2682 -0.2699
  242SOL     OW 1624   3.359   1.306   1.391  0.2271 -0.0076  0.1627
  242SOL    HW1 1625   3.261   1.288   1.394 -0.3792  2.2486 -2.2373
  242SOL    HW2 1626   3.381   1.385   1.448  0.8133 -0.9368  1.2626
  243SOL     OW 1627   5.766   6.868   0.928 -0.2475 -0.1980 -0.2985
  243SOL    HW1 1628   5.724   6.803   0.865  0.2534 -0.9166  0.0886
  243SOL    HW2 1629   5.825   6.818   0.992  0.9723  0.7545 -0.6557
  244SOL     OW 1630   1.742   0.189   1.762 -1.0456 -0.1359 -0.1415
  244SOL    HW1 1631   1.776   0.276   1.726 -0.5225 -0.9435 -1.7031
  244SOL    HW2 1632   1.777   0.176   1.856  1.8372 -0.2296 -1.1185
  245SOL     OW 1633   3.356   1.549   1.527 -0.3318 -0.7333  0.1452
  245SOL    HW1 1634   3.356   1.551   1.627  0.0045  1.1949  0.1478
  245SOL    HW2 1635   3.436   1.599   1.493  0.6579 -3.0098 -1.1245
  246SOL     OW 1636   6.699   3.087   4.880 -0.0636  0.2559 -0.1716
  246SOL    HW1 1637   6.619   3.094   4.821  0.9655  1.1440 -1.5162
  246SOL    HW2 1638   6.671   3.055   4.970 -2.1667  2.1822 -0.0661
  247SOL     OW 1639   0.451   2.318   6.393 -0.1940 -0.2225 -0.4100
  247SOL    HW1 1640   0.451   2.407   6.440  0.9513  0.9829 -2.5330
  247SOL    HW2 1641   0.368   2.268   6.416 -1.3347  1.8055  0.1407
  248SOL     OW 1642   0.290   1.451   4.922 -0.1436 -0.4613  0.1303
  248SOL    HW1 1643   0.220   1.385   4.896 -0.3915  0.2640 -1.1553
  248SOL    HW2 1644   0.377   1.427   4.878 -0.2119  0.0077 -0.2691
  249SOL     OW 1645   1.091   2.683   6.669 -0.6200  0.5167 -0.2380
  249SOL    HW1 1646   1.078   2.607   6.732 -0.6924  1.5978  1.1159
  249SOL    HW2 1647   1.006   2.702   6.621 -1.9634  2.4673  2.6603
  250SOL     OW 1648   2.827   2.756   5.771 -0.2469  0.2602  0.0044
  250SOL    HW1 1649   2.757   2.773   5.840  0.6938  0.2856  0.9648
  250SOL    HW2 1650   2.791   2.783   5.681 -2.1314 -1.4221  0.1878
  251SOL     OW 1651   0.060   3.142   2.531  0.3112  0.1677 -0.4024
  251SOL    HW1 1652  -0.011   3.204   2.563  0.4101  1.0222 -1.7527
  251SOL    HW2 1653   0.150   3.184   2.544  0.4915 -0.3388  0.0494
  252SOL     OW 1654   6.357   6.202   2.889 -0.4019  0.3266 -0.5386
  252SOL    HW1 1655   6.289   6.269   2.919 -1.5262 -1.3174  0.7604
  252SOL    HW2 1656   6.393   6.153   2.968  0.1357 -0.8501 -1.4803
  253SOL     OW 1657   2.843   2.639   1.437  0.5285  0.8166  0.2780
  253SOL    HW1 1658   2.777   2.564   1.427  0.0061  1.0788  1.5488
  253SOL    HW2 1659   2.936   2.603   1.431  0.3729 -0.4551  3.4321
  254SOL     OW 1660   0.343   0.690   3.701  0.9456 -0.3681 -0.1931
  254SOL    HW1 1661   0.338   0.789   3.688  0.9928 -0.3949 -0.4137
  254SOL    HW2 1662   0.251   0.651   3.701  0.8945 -0.2558  0.4330
  255SOL     OW 1663   0.445   2.171   5.127  0.1388 -0.5381  0.3127
  255SOL    HW1 1664   0.533   2.218   5.132 -0.2648  0.5934 -1.9186
  255SOL    HW2 1665   0.372   2.239   5.122 -0.5870 -1.3872 -1.3309
  256SOL     OW 1666   5.394   6.197   1.726 -0.3371 -0.2191 -0.0634
  256SOL    HW1 1667   5.401   6.217   1.824 -0.1102  2.7507 -0.5894
  256SOL    HW2 1668   5.476   6.148   1.696  1.6100  2.3350  0.6020
  257SOL     OW 1669   2.875   4.812   1.482 -0.3104 -0.4627 -0.1070
  257SOL    HW1 1670   2.821   4.757   1.546  0.0397 -1.3319 -0.5499
  257SOL    HW2 1671   2.824   4.896   1.460 -1.4087 -1.1837 -0.3873
  258SOL     OW 1672   0.574   2.277   0.050 -0.1991  0.1967  0.4638
  258SOL    HW1 1673   0.625   2.254   0.133 -0.8429  0.2494  0.8806
  258SOL    HW2 1674   0.546   2.193   0.004  0.8762  0.1676 -0.1545
  259SOL     OW 1675   2.845   0.586   0.358 -0.1599 -0.4324  0.0321
  259SOL    HW1 1676   2.863   0.677   0.321  0.2823 -0.6212 -0.2211
  259SOL    HW2 1677   2.883   0.580   0.451 -0.1762 -0.3660  0.0434
  260SOL     OW 1678   5.623   2.931   5.776  0.1329  0.5791 -0.1139
  260SOL    HW1 1679   5.697   2.866   5.759  0.2700  0.8231 -0.4520
  260SOL    HW2 1680   5.542   2.881   5.810  0.4350  0.3094  0.2154
  261SOL     OW 1681   5.036   2.950   0.449 -0.1652 -0.1485 -0.1260
  261SOL    HW1 1682   4.964   3.018   0.462  0.6394  0.5113  1.1032
  261SOL    HW2 1683   5.029   2.881   0.521  1.2182  0.6714  0.8440
  262SOL     OW 1684   0.165   2.436   1.596  0.2483  0.1949 -0.1755
  262SOL    HW1 1685   0.115   2.374   1.657  1.2397 -0.0436  0.4020
  262SOL    HW2 1686   0.158   2.401   1.502 -1.1382  0.4723 -0.2022
  263SOL     OW 1687   4.861   1.274   3.980  0.3625  0.3100  0.6870
  263SOL    HW1 1688   4.832   1.220   4.059 -0.5885  1.9053  1.4800
  263SOL    HW2 1689   4.791   1.271   3.910  1.1690 -1.0354 -0.0996
  264SOL     OW 1690   5.888   0.086   3.365 -0.0993  0.3544 -0.0546
  264SOL    HW1 1691   5.823   0.156   3.393  0.0904  0.0688  1.1558
  264SOL    HW2 1692   5.975   0.098   3.413  0.3535  0.0168 -0.7566
  265SOL     OW 1693   0.406   0.683   5.141 -0.3455  0.1662  0.0714
  265SOL    HW1 1694   0.451   0.731   5.216 -1.1110  2.6229 -0.9744
  265SOL    HW2 1695   0.472   0.620   5.099  1.7354  2.4860 -0.4061
  266SOL     OW 1696   2.711   5.346   1.305  0.4286  0.0699 -0.4574
  266SOL    HW1 1697   2.746   5.258   1.274  0.1384  0.1086 -0.9094
  266SOL    HW2 1698   2.612   5.340   1.316  0.6424 -0.3369  1.7835
  267SOL     OW 1699   6.231   3.952   4.955 -0.0888  0.2256 -0.5008
  267SOL    HW1 1700   6.140   3.975   4.918 -0.4968 -0.0532  0.3195
  267SOL    HW2 1701   6.226   3.865   5.002 -0.6507  2.3695  3.8862
  268SOL     OW 1702   5.356   0.351   6.547 -0.2443 -0.5694 -0.6409
  268SOL    HW1 1703   5.347   0.265   6.598 -0.4062  0.8568  1.8996
  268SOL    HW2 1704   5.266   0.395   6.539  0.1699  0.4839  0.2274
  269SOL     OW 1705   1.464   1.579   4.415  0.2717  0.3191 -0.5545
  269SOL    HW1 1706   1.526   1.507   4.381  2.4551  0.6670  2.2890
  269SOL    HW2 1707   1.382   1.537   4.454  1.0912 -0.6059  0.2269
  270SOL     OW 1708   3.757   5.488   6.990 -0.2028 -0.0435 -0.1029
  270SOL    HW1 1709   3.825   5.552   7.026  1.3761 -2.5080  1.5968
  270SOL    HW2 1710   3.769   5.480   6.891  2.6841 -1.0421  0.2392
  271SOL     OW 1711   1.923   2.043   2.552  0.2871 -0.3784 -0.1246
  271SOL    HW1 1712   2.008   2.005   2.588 -0.2744 -0.8540  0.7280
  271SOL    HW2 1713   1.861   2.064   2.627 -0.0478  0.7140 -0.6914
  272SOL     OW 1714   5.957   3.598   5.930  0.4836 -0.4090 -0.0686
  272SOL    HW1 1715   5.973   3.554   6.018 -1.2744 -1.8776 -0.4287
  272SOL    HW2 1716   5.902   3.538   5.872  0.6596  0.9899 -1.7699
  273SOL     OW 1717   1.618   2.308   5.242  0.2540  0.4289  0.0691
  273SOL    HW1 1718   1.553   2.234   5.258  1.6739 -0.6117  1.3756
  273SOL    HW2 1719   1.660   2.296   5.152 -0.4577  0.3953 -0.2614
  274SOL     OW 1720   2.376   6.649   0.762  0.1019 -0.0108  0.4361
  274SOL    HW1 1721   2.453   6.587   0.746 -1.0384 -1.1524 -0.9954
  274SOL    HW2 1722   2.371   6.714   0.686  2.0979  2.8805  2.5546
  275SOL     OW 1723   6.165   2.668   5.273 -0.1896  0.4818  0.8745
  275SOL    HW1 1724   6.251   2.655   5.224  0.9864  1.7886  2.5060
  275SOL    HW2 1725   6.148   2.588   5.331 -0.0910  0.2248  0.5549
  276SOL     OW 1726   1.041   2.450   1.214 -0.0326  0.3920  0.3609
  276SOL    HW1 1727   1.085   2.443   1.304  0.8657 -0.0125 -0.0944
  276SOL    HW2 1728   0.942   2.447   1.225  0.0795 -0.6121  1.2682
  277SOL     OW 1729   3.471   4.342   0.501 -0.0703  0.0790 -0.0361
  277SOL    HW1 1730   3.501   4.294   0.419 -1.1638  0.7515 -0.8416
  277SOL    HW2 1731   3.504   4.436   0.499 -2.3835  0.9294 -1.0912
  278SOL     OW 1732   6.700   6.614   2.068  0.1402 -0.2179 -0.1286
  278SOL    HW1 1733   6.675   6.573   1.980 -2.7593  3.2400 -1.1831
  278SOL    HW2 1734   6.653   6.566   2.142 -0.5713 -0.7760 -0.9198
  279SOL     OW 1735   0.117   6.260   4.693 -0.4143  1.1088 -0.1529
  279SOL    HW1 1736   0.161   6.349   4.683 -0.6241  1.0945 -1.3088
  279SOL    HW2 1737   0.137   6.224   4.784  0.9963  1.6136 -0.2354
  280SOL     OW 1738   5.905   5.882   6.596 -0.2382 -0.0383  0.0143
  280SOL    HW1 1739   5.957   5.921   6.520 -0.0396 -0.8108 -0.2589
  280SOL    HW2 1740   5.928   5.785   6.606  0.0167  0.1285  1.2986
  281SOL     OW 1741   1.061   2.865   3.474 -0.3875 -0.0601  0.4972
  281SOL    HW1 1742   1.145   2.918   3.490 -0.3888  0.7719 -1.8807
  281SOL    HW2 1743   1.085   2.781   3.425 -1.0522  1.2098 -2.2086
  282SOL     OW 1744   4.677   2.992   5.950 -0.0853 -0.1874  0.4511
  282SOL    HW1 1745   4.693   2.924   6.022 -1.1632 -1.5348 -0.5165
  282SOL    HW2 1746   4.622   2.950   5.878 -2.2772  2.2153  0.5983
  283SOL     OW 1747   3.272   6.223   3.242 -0.6387 -0.1543  0.0341
  283SOL    HW1 1748   3.197   6.283   3.216 -1.6112 -1.2546  0.2292
  283SOL    HW2 1749   3.286   6.228   3.341 -0.2389  0.2782 -0.0396
  284SOL     OW 1750   6.440   2.702   2.558  0.1501 -0.0395  0.4835
  284SOL    HW1 1751   6.479   2.650   2.482 -0.5583 -1.3946  1.0306
  284SOL    HW2 1752   6.422   2.796   2.527  2.0424  0.1162 -0.3221
  285SOL     OW 1753   5.593   6.462   5.660  0.2559  0.2433  0.1926
  285SOL    HW1 1754   5.656   6.529   5.622  0.6921  0.3524  1.0809
  285SOL    HW2 1755   5.630   6.427   5.746 -0.3414 -0.5564  0.1318
  286SOL     OW 1756   3.119   6.846   2.077  0.1945 -0.3338 -0.2968
  286SOL    HW1 1757   3.045   6.785   2.105 -0.2961  0.3604 -0.0512
  286SOL    HW2 1758   3.190   6.846   2.148  0.0774 -0.4201 -0.1776
  287SOL     OW 1759   6.117   5.521   5.437  0.0417  0.4103 -0.2725
  287SOL    HW1 1760   6.084   5.569   5.355  0.2554  0.5560 -0.2746
  287SOL    HW2 1761   6.075   5.430   5.442  1.9270 -0.6292 -1.9095
  288SOL     OW 1762   1.788   1.984   5.347 -0.4068  0.3609  0.4314
  288SOL    HW1 1763   1.870   1.930   5.364 -2.0863 -1.8428  2.2053
  288SOL    HW2 1764   1.797   2.074   5.391  0.4448 -0.4614  2.0094
  289SOL     OW 1765   4.630   1.364   1.399 -0.5813  0.4490 -0.4070
  289SOL    HW1 1766   4.538   1.394   1.372 -1.1582  0.4418  1.3830
  289SOL    HW2 1767   4.680   1.334   1.319 -2.5257 -0.5710 -1.3204
  290SOL     OW 1768   2.710   1.965   5.818 -0.2578 -0.2476  0.3752
  290SOL    HW1 1769   2.769   2.037   5.782 -2.0159  0.8109 -0.4944
  290SOL    HW2 1770   2.624   1.964   5.768 -1.4226 -1.0491  2.2818
  291SOL     OW 1771   0.543   0.063   1.512  0.5045  0.0262  0.3916
  291SOL    HW1 1772   0.594   0.066   1.426 -1.0124 -0.4294 -0.5753
  291SOL    HW2 1773   0.599   0.101   1.585  1.3983  1.6309 -1.0287
  292SOL     OW 1774   4.299   5.276   3.254  0.0612  0.1646  0.4046
  292SOL    HW1 1775   4.394   5.249   3.270  0.6087  1.0270 -1.1588
  292SOL    HW2 1776   4.289   5.374   3.272 -0.1149  0.4235 -0.9747
  293SOL     OW 1777   2.813   6.419   1.437 -0.2833 -0.0515  0.2325
  293SOL    HW1 1778   2.770   6.369   1.362  0.1048  2.2892 -1.6689
  293SOL    HW2 1779   2.891   6.367   1.471  1.2730  0.0140 -2.9246
  294SOL     OW 1780   1.655   2.629   6.856  0.2623  0.2439  0.6074
  294SOL    HW1 1781   1.734   2.656   6.801 -0.4086  2.3590  0.5952
  294SOL    HW2 1782   1.612   2.549   6.814  2.0795 -0.6564  0.3552
  295SOL     OW 1783   1.585   0.452   0.850 -0.7059 -0.0904  0.0576
  295SOL    HW1 1784   1.633   0.518   0.792 -1.2958 -0.8091 -1.3015
  295SOL    HW2 1785   1.570   0.367   0.799 -1.2379 -0.7575  1.2830
  296SOL     OW 1786   6.596   0.401   4.406  0.3853  0.4391  0.6217
  296SOL    HW1 1787   6.620   0.304   4.398 -0.1791  0.1745  1.9846
  296SOL    HW2 1788   6.543   0.429   4.325 -3.2141 -1.5474  2.0619
  297SOL     OW 1789   1.207   6.784   0.201  0.3201  0.6425 -0.6788
  297SOL    HW1 1790   1.111   6.756   0.212 -0.5752  3.0095 -1.8032
  297SOL    HW2 1791   1.253   6.778   0.289 -0.6325 -1.1545 -0.2338
  298SOL     OW 1792   4.390   0.863   1.853  0.0107  0.3722  0.1886
  298SOL    HW1 1793   4.310   0.920   1.872 -0.2480 -0.3753  1.4329
  298SOL    HW2 1794   4.381   0.776   1.901  1.6319  0.3231  0.4537
  299SOL     OW 1795   0.515   5.936   3.940 -0.1294  0.3913  0.2173
  299SOL    HW1 1796   0.600   5.951   3.992 -0.3361  1.1444  0.3381
  299SOL    HW2 1797   0.535   5.940   3.842 -0.0863  0.9518  0.2454
  300SOL     OW 1798   1.362   6.358   0.159  0.1949 -0.4188 -0.5422
  300SOL    HW1 1799   1.262   6.358   0.149  0.1260  0.7584 -0.0164
  300SOL    HW2 1800   1.385   6.342   0.255  0.4810  0.2581 -0.4962
  301SOL     OW 1801   0.418   0.960   0.413  0.1085 -0.0658 -0.0350
  301SOL    HW1 1802   0.320   0.980   0.418  0.3989  2.0031 -1.2484
  301SOL    HW2 1803   0.460   0.982   0.501 -0.6829 -2.4741  1.0339
  302SOL     OW 1804   4.020   0.215   6.182  0.3813  0.0829 -0.2246
  302SOL    HW1 1805   4.021   0.120   6.152  3.6936 -0.2231  0.4908
  302SOL    HW2 1806   4.043   0.219   6.279 -0.2702  1.6218 -0.1001
  303SOL     OW 1807   1.642   2.919   2.312  0.0855 -0.3441 -0.0552
  303SOL    HW1 1808   1.729   2.908   2.359 -0.0642 -2.0457 -0.1105
  303SOL    HW2 1809   1.655   2.903   2.214 -0.0840  0.5564 -0.2280
  304SOL     OW 1810   0.257   3.293   4.074 -0.2233 -0.2583  0.3526
  304SOL    HW1 1811   0.239   3.317   3.979 -1.2233  0.2204  0.6527
  304SOL    HW2 1812   0.276   3.195   4.081 -1.2860 -0.5117 -0.1847
  305SOL     OW 1813   5.962   2.497   1.759  0.1154 -0.4483 -0.0773
  305SOL    HW1 1814   5.904   2.560   1.708 -0.7156 -0.8744  0.3201
  305SOL    HW2 1815   6.040   2.547   1.798 -0.2000  0.2054 -0.2705
  306SOL     OW 1816   0.308   4.496   1.221  0.0812  0.1532  0.0536
  306SOL    HW1 1817   0.214   4.472   1.200 -0.1001  1.0709 -0.1936
  306SOL    HW2 1818   0.355   4.416   1.260 -0.7625 -0.3292  0.0900
  307SOL     OW 1819   2.177   5.602   0.158 -0.5363  0.1028  0.0151
  307SOL    HW1 1820   2.178   5.529   0.227  1.3655 -0.1375 -0.2141
  307SOL    HW2 1821   2.269   5.642   0.151 -1.3712  2.0353 -0.3931
  308SOL     OW 1822   0.713   6.336   3.853 -0.3735 -0.5588 -0.0180
  308SOL    HW1 1823   0.616   6.354   3.867 -0.8935 -3.4161  0.6635
  308SOL    HW2 1824   0.725   6.273   3.776  1.1174  1.0122 -1.1569
  309SOL     OW 1825   4.525   0.200   5.566 -0.0955  0.4372 -0.6511
  309SOL    HW1 1826   4.479   0.112   5.575  2.2996 -0.8220  0.2676
  309SOL    HW2 1827   4.620   0.185   5.539  0.5917  2.6887  0.2669
  310SOL     OW 1828   4.135   6.610   2.255  0.3027  0.1208 -0.0084
  310SOL    HW1 1829   4.163   6.528   2.305 -3.2279  0.2445  2.5612
  310SOL    HW2 1830   4.061   6.587   2.192  0.2180  1.0854 -0.2756
  311SOL     OW 1831   5.318   5.158   2.479 -0.0175  0.1181  0.4324
  311SOL    HW1 1832   5.390   5.195   2.538 -0.7439 -0.0124  1.4384
  311SOL    HW2 1833   5.233   5.208   2.495  0.0538  0.9029 -1.4409
  312SOL     OW 1834   1.689   6.761   2.006  0.0760  0.0621  0.0633
  312SOL    HW1 1835   1.753   6.834   2.030  0.8472 -0.2451 -1.0094
  312SOL    HW2 1836   1.613   6.761   2.071  0.2630  1.5657  0.3284
  313SOL     OW 1837   3.800   5.400   5.973 -0.1633  1.1672 -0.4572
  313SOL    HW1 1838   3.847   5.379   6.058 -0.0871 -0.0200 -0.7722
  313SOL    HW2 1839   3.713   5.350   5.969  1.1782 -1.2938 -2.3372
  314SOL     OW 1840   0.558   0.393   2.767 -0.0378 -0.3401  0.9834
  314SOL    HW1 1841   0.595   0.366   2.856 -0.1265  2.4608  1.9612
  314SOL    HW2 1842   0.563   0.492   2.758 -3.4910 -0.1861 -0.5865
  315SOL     OW 1843   1.924   5.914   0.912 -0.1700 -0.2484  0.1097
  315SOL    HW1 1844   1.980   5.860   0.975 -1.1259 -1.4959 -0.0739
  315SOL    HW2 1845   1.912   5.863   0.827  1.0532  1.3872 -1.1134
  316SOL     OW 1846   5.488   6.073   1.028 -0.0448  0.5592  0.1190
  316SOL    HW1 1847   5.540   6.022   1.097  1.8743 -0.1212 -1.7290
  316SOL    HW2 1848   5.496   6.171   1.046  1.6874  0.4538  0.0421
  317SOL     OW 1849   6.755   4.074   2.326  0.6812  0.0628 -0.3655
  317SOL    HW1 1850   6.833   4.125   2.363 -0.1968  0.4881  0.9651
  317SOL    HW2 1851   6.677   4.136   2.315  0.8057 -0.1051 -2.7470
  318SOL     OW 1852   1.752   3.695   1.745 -0.3426 -0.0139 -1.0042
  318SOL    HW1 1853   1.713   3.657   1.829  0.2335 -1.1325 -1.2240
  318SOL    HW2 1854   1.680   3.706   1.676 -0.5201 -0.7049 -0.9325
  319SOL     OW 1855   2.437   1.272   6.019  0.2745 -0.1978  0.5730
  319SOL    HW1 1856   2.508   1.212   6.056  1.2199  0.1098 -0.6658
  319SOL    HW2 1857   2.357   1.218   5.994  0.8990 -0.8858 -0.0058
  320SOL     OW 1858   6.543   4.245   6.196 -0.8195 -0.1546 -0.6490
  320SOL    HW1 1859   6.579   4.319   6.140 -0.0098  0.1364  0.2289
  320SOL    HW2 1860   6.499   4.177   6.137  1.4924 -0.7269 -1.8753
  321SOL     OW 1861   5.963   0.588   4.714  0.0480 -0.6808  0.4250
  321SOL    HW1 1862   5.982   0.649   4.791 -1.0729  0.3580 -0.0860
  321SOL    HW2 1863   5.872   0.547   4.726  0.4073 -1.5174  0.2971
  322SOL     OW 1864   0.574   3.003   0.414 -0.4122 -0.0541 -0.0907
  322SOL    HW1 1865   0.485   2.959   0.399  0.0443 -1.5802  1.4125
  322SOL    HW2 1866   0.647   2.935   0.406  0.4109  0.6294  1.3038
  323SOL     OW 1867   1.633   3.612   3.777  0.6016  0.4833 -1.1098
  323SOL    HW1 1868   1.687   3.606   3.693 -0.1585 -2.2305 -1.4761
  323SOL    HW2 1869   1.677   3.558   3.849  0.2171  1.1941 -0.3093
  324SOL     OW 1870   1.213   3.868   2.382  0.4102  0.5462  0.2899
  324SOL    HW1 1871   1.159   3.894   2.302 -0.9466 -0.8632  0.6978
  324SOL    HW2 1872   1.266   3.785   2.361  0.8417  0.7556  0.5406
  325SOL     OW 1873   2.212   3.051   3.593 -0.3061  0.0921 -0.6941
  325SOL    HW1 1874   2.281   2.993   3.550  1.8434  1.0065  1.3193
  325SOL    HW2 1875   2.206   3.138   3.544  1.9770  1.0471  0.5402
  326SOL     OW 1876   3.553   1.798   4.529 -0.3841 -0.2197  0.0788
  326SOL    HW1 1877   3.567   1.721   4.590 -0.7653  1.1828  2.0378
  326SOL    HW2 1878   3.547   1.882   4.583  3.3790  1.7282 -2.1308
  327SOL     OW 1879   5.643   3.843   5.091  0.1372  0.7381 -0.3273
  327SOL    HW1 1880   5.694   3.759   5.073  0.7756  1.0816 -0.1709
  327SOL    HW2 1881   5.688   3.894   5.165 -1.0107  0.5596  0.5237
  328SOL     OW 1882   5.016   6.503   6.079 -0.6967  0.2465  0.1260
  328SOL    HW1 1883   4.954   6.575   6.113 -0.6637 -0.6122  2.1365
  328SOL    HW2 1884   4.962   6.433   6.032 -0.7466  1.4711 -1.7053
  329SOL     OW 1885   3.344   1.586   5.541 -0.2164  0.1654  0.5132
  329SOL    HW1 1886   3.403   1.666   5.546  0.0745  0.0039 -0.2275
  329SOL    HW2 1887   3.280   1.586   5.619  1.2395 -0.0469  1.7544
  330SOL     OW 1888   6.656   3.842   2.207  0.0949 -0.0898 -0.1864
  330SOL    HW1 1889   6.677   3.766   2.269 -0.8910 -1.5486 -1.5631
  330SOL    HW2 1890   6.698   3.926   2.242  1.9868 -1.4171  0.9356
  331SOL     OW 1891   4.250   2.297   2.423  0.1484  0.2084  0.0534
  331SOL    HW1 1892   4.202   2.281   2.336  0.7139 -1.0830 -0.0546
  331SOL    HW2 1893   4.275   2.393   2.430 -0.8333  0.5429 -0.7251
  332SOL     OW 1894   3.155   5.891   4.483 -0.3026 -0.1418  0.8457
  332SOL    HW1 1895   3.155   5.819   4.551 -1.5608  0.3842  1.4325
  332SOL    HW2 1896   3.114   5.973   4.521  0.8694  0.8284  0.1092
  333SOL     OW 1897   5.702   3.459   5.182 -0.6865 -0.2809  0.1059
  333SOL    HW1 1898   5.667   3.466   5.089 -1.3566 -0.4963  0.3424
  333SOL    HW2 1899   5.781   3.520   5.192 -0.2066 -0.7353 -0.7843
  334SOL     OW 1900   5.594   2.931   5.108  0.5084 -0.5954 -0.4685
  334SOL    HW1 1901   5.514   2.942   5.167 -0.9810 -3.3404 -1.7917
  334SOL    HW2 1902   5.646   2.851   5.138  0.9295 -0.7559 -1.5803
  335SOL     OW 1903   2.569   2.594   6.321 -0.6925  0.1697 -0.1972
  335SOL    HW1 1904   2.513   2.537   6.261 -0.7959  0.9142 -0.8186
  335SOL    HW2 1905   2.595   2.541   6.402 -1.1809 -0.6041 -0.5330
  336SOL     OW 1906   1.528   6.190   1.886  0.3909 -0.5366 -0.2806
  336SOL    HW1 1907   1.435   6.213   1.857 -0.3645  2.7255  3.7610
  336SOL    HW2 1908   1.591   6.262   1.858  1.0658 -1.0889 -0.2182
  337SOL     OW 1909   0.314   1.718   0.709 -0.4928 -0.3337 -0.9380
  337SOL    HW1 1910   0.276   1.687   0.621  0.2819 -0.8717 -1.0920
  337SOL    HW2 1911   0.391   1.661   0.734  0.0057  0.5261 -0.4559
  338SOL     OW 1912   0.025   1.327   4.442 -0.0109 -0.2467 -0.6650
  338SOL    HW1 1913   0.118   1.340   4.408 -0.3253  0.5481 -1.2476
  338SOL    HW2 1914   0.029   1.292   4.536  0.8760  0.1006 -0.5578
  339SOL     OW 1915   5.922   2.217   1.993 -0.1653  0.1916  0.1888
  339SOL    HW1 1916   5.980   2.237   2.071  1.7192  0.7710 -1.2899
  339SOL    HW2 1917   5.977   2.216   1.909 -2.2016  0.2215 -1.2292
  340SOL     OW 1918   0.418   1.968   0.670 -0.0290 -0.2974 -0.3118
  340SOL    HW1 1919   0.346   2.018   0.622 -0.8455 -0.4142  0.7516
  340SOL    HW2 1920   0.381   1.881   0.704  1.2479 -1.4717 -1.7776
  341SOL     OW 1921   0.806   6.792   4.445  0.1358 -0.5505 -0.5702
  341SOL    HW1 1922   0.899   6.826   4.456 -0.7735  2.2123 -0.7594
  341SOL    HW2 1923   0.796   6.753   4.353  1.0106 -0.6878 -0.6237
  342SOL     OW 1924   4.875   5.759   4.670  0.3633  0.1870 -0.4512
  342SOL    HW1 1925   4.929   5.735   4.589  1.2408 -0.4403  0.3032
  342SOL    HW2 1926   4.933   5.803   4.738 -0.4280  0.9611 -0.2624
  343SOL     OW 1927   2.405   3.350   5.505  0.1005 -0.2074  0.3021
  343SOL    HW1 1928   2.390   3.253   5.525 -1.3868 -0.0168  0.2766
  343SOL    HW2 1929   2.402   3.402   5.590 -1.9288  0.1039  0.1063
  344SOL     OW 1930   1.218   0.943   1.206 -0.1052 -0.5408  0.5090
  344SOL    HW1 1931   1.188   0.867   1.263 -0.8962 -0.2002  0.5609
  344SOL    HW2 1932   1.144   0.969   1.143  0.3752 -0.2158  0.0691
  345SOL     OW 1933   0.106   4.919   1.891 -0.1681  0.1566  0.3969
  345SOL    HW1 1934   0.032   4.959   1.945 -0.5412 -0.1568  0.1254
  345SOL    HW2 1935   0.068   4.867   1.815  0.3515  0.5473 -0.1410
  346SOL     OW 1936   3.825   1.838   5.397 -0.6103 -0.2672  0.2092
  346SOL    HW1 1937   3.876   1.880   5.322 -0.4173  0.7540  0.8981
  346SOL    HW2 1938   3.888   1.813   5.471 -0.5470 -2.8139 -0.5971
  347SOL     OW 1939   1.704   6.512   3.584 -0.3742  0.3249 -0.2800
  347SOL    HW1 1940   1.648   6.535   3.664  1.3619  1.5980  0.6549
  347SOL    HW2 1941   1.688   6.578   3.512 -0.9833 -0.0510 -0.4909
  348SOL     OW 1942   4.147   1.450   4.677  0.8260  0.2330  0.7994
  348SOL    HW1 1943   4.212   1.379   4.704  0.5134 -0.1286  0.6094
  348SOL    HW2 1944   4.056   1.410   4.666  0.8044  0.5043 -0.0876
  349SOL     OW 1945   5.449   6.686   3.143 -0.2065 -0.0518  0.2843
  349SOL    HW1 1946   5.380   6.758   3.146  0.3620  0.5102 -0.0586
  349SOL    HW2 1947   5.540   6.725   3.156  0.2758 -0.4451 -1.5770
  350SOL     OW 1948   1.950   1.069   3.502 -0.0384 -0.0104 -0.0214
  350SOL    HW1 1949   1.856   1.076   3.537 -1.1136  1.1688 -2.8732
  350SOL    HW2 1950   2.006   1.142   3.541 -0.9474  0.7136 -0.0308
  351SOL     OW 1951   6.872   5.322   3.007 -0.6511 -0.7956  0.2643
  351SOL    HW1 1952   6.947   5.342   3.070 -0.5012 -0.8189  0.0956
  351SOL    HW2 1953   6.887   5.233   2.964 -0.2656 -0.3665 -0.5079
  352SOL     OW 1954   1.534   3.748   2.546  0.1484 -0.1039 -0.5859
  352SOL    HW1 1955   1.551   3.797   2.461 -1.1432 -0.7624 -1.2371
  352SOL    HW2 1956   1.456   3.789   2.593 -0.6747 -1.2532 -0.9297
  353SOL     OW 1957   3.529   3.918   4.978 -0.1958  0.4485  0.3015
  353SOL    HW1 1958   3.447   3.974   4.965  0.7317  1.9848  0.7655
  353SOL    HW2 1959   3.610   3.971   4.954  0.7297 -0.7367  0.6887
  354SOL     OW 1960   6.108   5.472   6.897  0.0407  0.4492 -0.3666
  354SOL    HW1 1961   6.205   5.483   6.922 -0.6665  1.6371  2.2097
  354SOL    HW2 1962   6.092   5.513   6.807  2.0323 -0.4961 -1.2295
  355SOL     OW 1963   1.014   6.053   6.886 -0.2960  0.1733 -0.2730
  355SOL    HW1 1964   0.987   6.128   6.825  1.3023 -0.2992 -1.6464
  355SOL    HW2 1965   1.090   6.083   6.943 -1.1788  0.3110  0.8580
  356SOL     OW 1966   1.350   4.593   0.383 -0.3354 -0.7198 -0.0965
  356SOL    HW1 1967   1.444   4.627   0.387 -0.2013 -1.1891  1.0238
  356SOL    HW2 1968   1.316   4.600   0.289  1.5089 -2.3450 -0.9571
  357SOL     OW 1969   1.890   6.751   5.600 -0.5115 -0.0208 -0.2486
  357SOL    HW1 1970   1.976   6.765   5.648 -1.3211  1.8050  0.7615
  357SOL    HW2 1971   1.814   6.752   5.665 -1.4267 -0.2170 -1.2736
  358SOL     OW 1972   1.226   6.077   4.675  0.2215  0.2008  0.2403
  358SOL    HW1 1973   1.165   6.008   4.715 -0.2529  1.2112  1.3081
  358SOL    HW2 1974   1.180   6.119   4.597  1.1775 -1.8218 -1.5158
  359SOL     OW 1975   3.351   6.719   5.707 -0.2203 -0.4636  0.4078
  359SOL    HW1 1976   3.378   6.765   5.622 -1.4151 -2.2113 -1.0212
  359SOL    HW2 1977   3.287   6.644   5.685 -1.0101 -0.6247  2.9280
  360SOL     OW 1978   2.615   0.532   1.126  0.5232 -0.0249  0.3952
  360SOL    HW1 1979   2.681   0.522   1.051  0.5522  0.5311  0.3367
  360SOL    HW2 1980   2.604   0.445   1.174  1.9155  0.0729  0.9232
  361SOL     OW 1981   2.046   3.795   5.872 -0.2245  0.6160 -0.1524
  361SOL    HW1 1982   1.995   3.804   5.787 -0.8906  2.1732  0.3918
  361SOL    HW2 1983   2.134   3.843   5.864  0.4420 -0.6075 -0.4911
  362SOL     OW 1984   5.013   3.113   3.971 -0.2122  0.4346  0.4866
  362SOL    HW1 1985   4.981   3.131   4.064 -1.5173  0.7045  0.0015
  362SOL    HW2 1986   4.945   3.057   3.923 -0.2112  1.4580 -0.7449
  363SOL     OW 1987   0.901   3.666   1.865 -0.0948 -0.0253 -0.1027
  363SOL    HW1 1988   0.922   3.572   1.839 -0.8559  0.0683 -1.0984
  363SOL    HW2 1989   0.911   3.676   1.964  3.0039 -0.3562 -0.3032
  364SOL     OW 1990   5.855   4.294   6.121  0.3572 -0.0963 -0.0285
  364SOL    HW1 1991   5.916   4.233   6.171  1.3410  0.1980 -0.8409
  364SOL    HW2 1992   5.778   4.321   6.180  2.0539  1.1238  1.7407
  365SOL     OW 1993   4.938   4.793   4.954  0.2819 -0.4974 -0.9272
  365SOL    HW1 1994   4.910   4.875   5.005  0.4023 -1.4820  0.7947
  365SOL    HW2 1995   5.024   4.758   4.993  0.6317 -1.0370 -2.1331
  366SOL     OW 1996   2.837   5.265   1.651  0.0055 -0.0775  0.2789
  366SOL    HW1 1997   2.896   5.336   1.689  1.3270 -0.6560 -0.6353
  366SOL    HW2 1998   2.744   5.301   1.641  0.7749  1.7285 -0.7604
  367SOL     OW 1999   4.021   0.592   5.515 -0.3051  0.6027 -0.2777
  367SOL    HW1 2000   3.934   0.602   5.564 -1.1902 -0.1694 -1.6277
  367SOL    HW2 2001   4.012   0.629   5.422  0.7208  0.2285 -0.5433
  368SOL     OW 2002   2.950   0.266   5.970  0.2222  0.2391 -0.4149
  368SOL    HW1 2003   2.933   0.308   5.881  0.6865  2.2826  0.4088
  368SOL    HW2 2004   2.982   0.335   6.034  1.4197 -1.4834  0.9429
  369SOL     OW 2005   0.893   0.846   6.029 -0.2338  0.4748 -0.6600
  369SOL    HW1 2006   0.967   0.836   6.095 -1.2043 -1.0459  0.2466
  369SOL    HW2 2007   0.806   0.853   6.077 -0.8055  1.1996 -1.7476
  370SOL     OW 2008   5.887   2.860   1.413  0.3771 -0.4318  0.1861
  370SOL    HW1 2009   5.938   2.823   1.335  1.1633 -1.2881  1.0677
  370SOL    HW2 2010   5.836   2.786   1.458 -2.1788  0.4942 -1.0017
  371SOL     OW 2011   2.423   3.680   0.431  0.1911 -0.1453 -0.1667
  371SOL    HW1 2012   2.336   3.686   0.481  0.9995 -2.6320  1.7265
  371SOL    HW2 2013   2.493   3.731   0.480  0.8568 -2.1405  1.0890
  372SOL     OW 2014   2.675   6.789   3.067 -0.6792  0.8820  0.4588
  372SOL    HW1 2015   2.629   6.873   3.037 -0.5471  1.9994  3.1024
  372SOL    HW2 2016   2.771   6.791   3.040 -1.2178  0.3307 -1.7020
  373SOL     OW 2017   4.061   4.430   5.871  0.2959 -0.3457  0.3057
  373SOL    HW1 2018   4.087   4.351   5.927  1.0078  0.2301  0.8081
  373SOL    HW2 2019   4.018   4.398   5.787 -0.5168 -1.2372  1.0296
  374SOL     OW 2020   4.725   0.250   3.896  0.1094 -0.4898 -0.6605
  374SOL    HW1 2021   4.769   0.246   3.985  0.9743  0.0201 -1.0522
  374SOL    HW2 2022   4.640   0.303   3.903  0.9613  0.8943 -0.4387
  375SOL     OW 2023   1.185   4.065   3.039 -0.5035 -0.0370  0.3487
  375SOL    HW1 2024   1.253   4.051   2.967 -1.0809 -1.3463  0.0234
  375SOL    HW2 2025   1.193   4.158   3.075  0.1904  0.4474 -0.9902
  376SOL     OW 2026   3.556   2.112   0.705  0.8535  0.1334 -0.0560
  376SOL    HW1 2027   3.474   2.170   0.706  0.8936  0.2251 -1.4021
  376SOL    HW2 2028   3.603   2.120   0.793  0.3999  1.4819  0.0813
  377SOL     OW 2029   6.404   0.263   4.629  0.1116  0.2361 -0.3854
  377SOL    HW1 2030   6.321   0.208   4.620 -0.2915  0.8199 -0.3140
  377SOL    HW2 2031   6.391   0.350   4.580  1.1416 -0.1766 -1.4385
  378SOL     OW 2032   0.428   1.849   6.558 -0.0066 -0.3422 -0.1080
  378SOL    HW1 2033   0.508   1.857   6.499  0.5539 -2.6575  0.2396
  378SOL    HW2 2034   0.458   1.847   6.654 -0.6905  0.9197  0.1470
  379SOL     OW 2035   3.083   0.062   1.185  0.6683  0.1525  0.0432
  379SOL    HW1 2036   3.147  -0.014   1.181  0.3239 -0.2661  1.7462
  379SOL    HW2 2037   3.090   0.107   1.274 -1.4746 -0.0090  0.3524
  380SOL     OW 2038   4.691   6.756   2.253  0.6917 -0.0738 -0.8083
  380SOL    HW1 2039   4.667   6.749   2.156 -0.5596  0.5915 -0.5717
  380SOL    HW2 2040   4.607   6.758   2.308  1.3707  0.0029  0.2563
  381SOL     OW 2041   3.851   6.917   0.945 -0.4666 -0.0649 -0.0834
  381SOL    HW1 2042   3.775   6.866   0.985 -0.6870 -0.9829 -1.6118
  381SOL    HW2 2043   3.870   6.883   0.853  1.9265 -0.0136  0.3132
  382SOL     OW 2044   1.703   0.958   6.712  0.6464 -0.1463 -0.7804
  382SOL    HW1 2045   1.662   1.046   6.688 -0.2070 -0.0994  0.7587
  382SOL    HW2 2046   1.779   0.973   6.775  0.7642 -0.4927 -0.8366
  383SOL     OW 2047   5.065   6.097   0.340  0.1035 -0.2210  0.1962
  383SOL    HW1 2048   5.060   6.053   0.429 -0.1073  1.2828  0.9695
  383SOL    HW2 2049   5.002   6.052   0.277 -0.6872 -0.5274  1.1744
  384SOL     OW 2050   0.274   1.984   1.744 -0.5396  0.5822 -0.3785
  384SOL    HW1 2051   0.337   2.042   1.693  1.0127 -1.8427 -1.4082
  384SOL    HW2 2052   0.196   1.961   1.686 -2.0528  2.8645  0.5997
  385SOL     OW 2053   1.120   5.587   3.492 -0.3499  0.8207  0.2252
  385SOL    HW1 2054   1.108   5.516   3.561 -1.7259  2.5513  1.8959
  385SOL    HW2 2055   1.030   5.623   3.465  0.0381 -0.5793 -3.4484
  386SOL     OW 2056   1.368   1.157   4.219  0.2505 -0.2849 -0.1183
  386SOL    HW1 2057   1.389   1.114   4.131  1.6451  2.1381 -1.0524
  386SOL    HW2 2058   1.454   1.177   4.268 -0.4901 -1.6666  1.9036
  387SOL     OW 2059   6.982   1.838   0.526  0.3513  0.0616 -0.2985
  387SOL    HW1 2060   7.044   1.761   0.509 -0.0326 -0.4876  0.6848
  387SOL    HW2 2061   6.907   1.807   0.584 -0.3360  0.9551 -0.6939
  388SOL     OW 2062   2.289   2.266   2.420 -0.2004 -0.2786  0.1756
  388SOL    HW1 2063   2.327   2.359   2.419 -0.5256 -0.1271  1.0963
  388SOL    HW2 2064   2.263   2.240   2.327  0.2546  0.4033 -0.1521
  389SOL     OW 2065   5.072   5.118   3.083  0.6211 -0.2654 -0.2317
  389SOL    HW1 2066   5.144   5.108   3.151  0.5667 -1.3091 -0.3089
  389SOL    HW2 2067   5.002   5.048   3.098 -0.0920  0.3769 -0.5070
  390SOL     OW 2068   4.037   0.303   4.366  0.2768 -0.2066 -0.2490
  390SOL    HW1 2069   4.091   0.377   4.327  1.3669 -0.8464 -0.0020
  390SOL    HW2 2070   3.992   0.252   4.293 -0.8817  0.9727 -0.3944
  391SOL     OW 2071   5.761   3.806   5.673  0.6231 -0.1219 -0.4256
  391SOL    HW1 2072   5.742   3.873   5.602  1.5541 -0.1739 -0.7404
  391SOL    HW2 2073   5.851   3.765   5.656  0.3155 -1.0241  0.0879
  392SOL     OW 2074   5.048   1.980   3.861 -0.6551 -0.6335  0.0850
  392SOL    HW1 2075   4.969   1.918   3.857 -0.7541 -0.4455 -1.1901
  392SOL    HW2 2076   5.119   1.948   3.798 -0.4017  0.1254 -0.0238
  393SOL     OW 2077   5.515   1.532   1.683 -0.2322  0.1835 -0.3039
  393SOL    HW1 2078   5.596   1.578   1.718 -0.0101 -0.5790  0.2083
  393SOL    HW2 2079   5.500   1.559   1.588  1.0848 -0.2600 -0.6633
  394SOL     OW 2080   3.636   1.780   6.741 -0.2818  0.0513  0.4263
  394SOL    HW1 2081   3.715   1.840   6.753  0.2962 -0.2919 -1.3977
  394SOL    HW2 2082   3.553   1.836   6.732  0.1133  0.5460 -0.2597
  395SOL     OW 2083   0.232   4.946   4.378 -0.1250 -0.0561  0.4991
  395SOL    HW1 2084   0.151   4.923   4.323 -0.9807  0.5463  1.4684
  395SOL    HW2 2085   0.245   4.877   4.449 -0.3591  0.3398  0.9353
  396SOL     OW 2086   5.702   6.010   0.002  0.3237 -0.4142 -0.7697
  396SOL    HW1 2087   5.625   5.948   0.019 -0.3512  1.1591  2.8952
  396SOL    HW2 2088   5.669   6.096  -0.036  0.1057  0.3568  1.0367
  397SOL     OW 2089   3.995   6.229   5.786 -0.2813 -0.6368  0.3587
  397SOL    HW1 2090   4.060   6.233   5.862 -0.0520 -0.0334  0.1385
  397SOL    HW2 2091   3.995   6.317   5.738 -0.8578 -0.8189  0.0206
  398SOL     OW 2092   2.892   5.982   4.728  0.0479 -0.1873  0.3298
  398SOL    HW1 2093   2.885   6.078   4.754 -0.2235 -0.1390  0.0862
  398SOL    HW2 2094   2.812   5.956   4.674 -0.1011 -0.6724  0.7807
  399SOL     OW 2095   1.619   6.277   1.000  0.8147  0.0464  0.3665
  399SOL    HW1 2096   1.704   6.224   1.003  1.0603  0.3514 -0.7456
  399SOL    HW2 2097   1.574   6.274   1.090  0.8936 -1.9197  0.3850
  400SOL     OW 2098   1.692   1.060   4.932  0.0738  0.2494  0.2660
  400SOL    HW1 2099   1.746   1.076   4.848 -1.5509 -0.0232 -0.8798
  400SOL    HW2 2100   1.712   0.969   4.968  0.4180  0.1716 -0.1104
  401SOL     OW 2101   0.210   3.583   4.497 -0.5675 -0.3788 -0.0300
  401SOL    HW1 2102   0.282   3.632   4.449 -0.9988  0.9460  0.6419
  401SOL    HW2 2103   0.136   3.645   4.521 -1.2866 -1.4220  0.5655
  402SOL     OW 2104   2.709   0.517   1.907 -0.3317  0.9922  0.1230
  402SOL    HW1 2105   2.747   0.494   1.996  0.7985 -1.4481 -0.8795
  402SOL    HW2 2106   2.613   0.493   1.904  0.1035 -0.9024  0.1004
  403SOL     OW 2107   4.919   5.277   3.966  0.0542  0.0269 -0.2783
  403SOL    HW1 2108   5.006   5.270   4.014  0.7140  1.8083 -1.1144
  403SOL    HW2 2109   4.932   5.249   3.871 -0.4092 -0.1558 -0.2891
  404SOL     OW 2110   3.928   6.287   3.508 -0.1907  0.0444 -0.3744
  404SOL    HW1 2111   3.987   6.206   3.510  1.6008  1.2511 -0.9950
  404SOL    HW2 2112   3.879   6.295   3.594  1.0753 -0.6865  0.4456
  405SOL     OW 2113   1.633   1.952   4.857  0.5670 -0.3309 -0.2510
  405SOL    HW1 2114   1.616   1.961   4.956  0.0519 -2.6089 -0.0779
  405SOL    HW2 2115   1.694   2.025   4.827  1.3117  0.0026  1.9005
  406SOL     OW 2116   0.782   5.532   0.212  0.3361  0.2190 -0.6585
  406SOL    HW1 2117   0.710   5.523   0.282 -0.1026 -0.2356 -1.1612
  406SOL    HW2 2118   0.859   5.583   0.250  0.5714 -0.9572  0.5322
  407SOL     OW 2119   5.894   6.902   5.677  0.0553 -0.0828 -0.5583
  407SOL    HW1 2120   5.875   6.954   5.593  1.1736 -0.2811 -0.9519
  407SOL    HW2 2121   5.898   6.965   5.754  1.2216  0.4289 -1.0062
  408SOL     OW 2122   2.146   3.333   1.096  0.5053  0.2293 -0.2204
  408SOL    HW1 2123   2.071   3.270   1.077  1.8707 -0.9181 -1.9910
  408SOL    HW2 2124   2.188   3.309   1.184 -0.2099 -0.0852  0.0419
  409SOL     OW 2125   0.863   2.072   5.518  0.0041 -0.5574 -0.5646
  409SOL    HW1 2126   0.834   2.145   5.456  0.8378  0.2973  0.0172
  409SOL    HW2 2127   0.950   2.098   5.560 -0.5076 -1.1552  0.9051
  410SOL     OW 2128   6.443   1.097   3.977 -0.4539  0.0444 -0.0421
  410SOL    HW1 2129   6.380   1.160   3.932 -0.2355 -0.0361 -0.4653
  410SOL    HW2 2130   6.531   1.100   3.930 -0.5439 -0.8277 -0.2725
  411SOL     OW 2131   3.159   4.403   0.828  0.1347  0.4030 -0.6748
  411SOL    HW1 2132   3.107   4.353   0.759 -0.8042 -0.7558  0.8165
  411SOL    HW2 2133   3.232   4.345   0.864  0.5884  0.9810 -0.6391
  412SOL     OW 2134   0.998   3.468   2.291 -0.3425 -0.1947  0.6498
  412SOL    HW1 2135   0.909   3.425   2.282 -0.6558  0.6118 -0.3065
  412SOL    HW2 2136   1.058   3.411   2.347 -1.4180 -0.7951  1.2123
  413SOL     OW 2137   2.869   0.776   3.505 -0.3501 -0.1799  0.3016
  413SOL    HW1 2138   2.899   0.688   3.542 -2.3365 -2.2344 -2.4973
  413SOL    HW2 2139   2.791   0.809   3.558 -2.5039 -2.5480 -1.1510
  414SOL     OW 2140   0.412   3.971   4.334  0.3201  0.3893  0.6665
  414SOL    HW1 2141   0.468   3.898   4.294  0.4925 -0.1769  1.8626
  414SOL    HW2 2142   0.463   4.057   4.332 -0.6826  1.0500 -2.6817
  415SOL     OW 2143   3.350   2.879   0.570 -0.3417  0.6402  0.5081
  415SOL    HW1 2144   3.417   2.819   0.526  0.3150  0.4764  1.6940
  415SOL    HW2 2145   3.322   2.950   0.505 -0.8597 -0.6957 -0.8093
  416SOL     OW 2146   3.778   4.976   0.671 -0.3858 -0.3373 -0.0984
  416SOL    HW1 2147   3.726   5.034   0.734  1.1902 -0.3844  1.3229
  416SOL    HW2 2148   3.716   4.914   0.623 -1.7814  0.6312  0.3896
  417SOL     OW 2149   1.347   5.003   4.864  0.7028 -0.2000 -0.2900
  417SOL    HW1 2150   1.389   4.964   4.782  1.6254  0.1073  0.0148
  417SOL    HW2 2151   1.362   4.941   4.941  2.2772  0.7539  0.2225
  418SOL     OW 2152   6.292   3.627   0.717  0.6538  0.1409  0.2402
  418SOL    HW1 2153   6.381   3.649   0.758  0.2648 -0.7259  1.6088
  418SOL    HW2 2154   6.219   3.665   0.773  0.0905 -1.3184  0.5381
  419SOL     OW 2155   0.510   2.077   0.902 -0.1884 -0.3993  0.5444
  419SOL    HW1 2156   0.475   2.043   0.815  1.1510 -0.4877  0.0138
  419SOL    HW2 2157   0.527   2.000   0.963 -0.1896 -0.4141  0.5261
  420SOL     OW 2158   4.594   5.038   6.245 -0.2702  0.3519  0.1980
  420SOL    HW1 2159   4.693   5.051   6.240 -0.6174  3.6268 -0.2380
  420SOL    HW2 2160   4.574   4.940   6.251  2.8863 -0.5421 -1.4561
  421SOL     OW 2161   1.825   6.931   0.212  0.3907 -0.2408 -0.4978
  421SOL    HW1 2162   1.908   6.948   0.266  0.1284  0.9286 -0.4339
  421SOL    HW2 2163   1.760   6.878   0.267  0.8811 -0.7145 -0.3638
  422SOL     OW 2164   4.833   3.079   6.780 -0.5656  0.0830  0.2793
  422SOL    HW1 2165   4.898   3.112   6.712 -2.3188  1.5824 -0.7472
  422SOL    HW2 2166   4.875   3.005   6.833  1.4423  0.0402 -1.2612
  423SOL     OW 2167   4.633   0.414   0.076  0.4393  0.1005  0.4873
  423SOL    HW1 2168   4.659   0.400   0.172 -0.4772 -0.9156  0.6213
  423SOL    HW2 2169   4.544   0.459   0.073  0.1625 -0.4538  0.1433
  424SOL     OW 2170   5.184   4.814   0.492 -0.0910 -0.4284 -0.1723
  424SOL    HW1 2171   5.200   4.890   0.555  0.7537 -0.8579  0.1361
  424SOL    HW2 2172   5.267   4.795   0.441 -0.1273 -1.5290  0.1636
  425SOL     OW 2173   0.254   4.941   2.166 -0.2445  0.0833 -0.5037
  425SOL    HW1 2174   0.189   4.930   2.242  0.7925 -2.4080  0.1289
  425SOL    HW2 2175   0.211   4.909   2.082 -0.9768  1.7193 -0.7960
  426SOL     OW 2176   5.306   4.344   4.518  0.2929 -0.1472 -0.1537
  426SOL    HW1 2177   5.229   4.402   4.493  0.4701  0.1427 -0.0315
  426SOL    HW2 2178   5.358   4.320   4.435 -0.6503 -1.3929 -0.4046
  427SOL     OW 2179   1.062   5.096   0.901 -0.0065 -0.2993  0.2783
  427SOL    HW1 2180   1.141   5.133   0.949  0.9576 -2.9112  0.8687
  427SOL    HW2 2181   0.978   5.129   0.944  0.7877  0.7026  1.0967
  428SOL     OW 2182   5.771   6.672   6.210 -0.2826  0.7199 -0.3787
  428SOL    HW1 2183   5.838   6.660   6.137 -0.0489  0.1082 -0.0681
  428SOL    HW2 2184   5.780   6.599   6.277 -0.4404  1.3108  0.3095
  429SOL     OW 2185   5.681   5.727   5.336 -0.1495  0.2864  0.6922
  429SOL    HW1 2186   5.752   5.789   5.304 -0.4745 -0.4247 -1.5840
  429SOL    HW2 2187   5.704   5.633   5.309 -1.6676 -0.0255  0.3932
  430SOL     OW 2188   2.302   5.576   6.770  0.6422  0.9130 -0.0504
  430SOL    HW1 2189   2.223   5.600   6.827  2.4875  0.8030  2.7534
  430SOL    HW2 2190   2.287   5.487   6.727  0.1668 -0.3129  2.4702
  431SOL     OW 2191   6.129   3.260   0.249 -0.1222  0.2349 -0.0407
  431SOL    HW1 2192   6.229   3.261   0.248 -0.1205 -0.0877 -1.0315
  431SOL    HW2 2193   6.097   3.190   0.312  0.2666  0.4137  0.3671
  432SOL     OW 2194   6.870   6.130   4.275  0.0816 -0.5135  0.2492
  432SOL    HW1 2195   6.893   6.063   4.205  0.0618 -0.5866  0.3132
  432SOL    HW2 2196   6.948   6.190   4.290 -0.4118  0.4829 -0.9445
  433SOL     OW 2197   4.242   6.946   5.224  0.3693  0.6499 -0.8799
  433SOL    HW1 2198   4.309   7.016   5.199  1.3051 -0.0762 -0.4610
  433SOL    HW2 2199   4.151   6.978   5.200  0.8303  1.7751 -1.2175
  434SOL     OW 2200   6.658   4.682   4.587 -0.6179 -0.0179 -0.3640
  434SOL    HW1 2201   6.586   4.689   4.519 -1.0092 -0.4775 -0.0030
  434SOL    HW2 2202   6.652   4.593   4.633 -0.3506  0.2768  0.2542
  435SOL     OW 2203   5.390   5.838   0.604  0.5551 -0.2999 -0.1642
  435SOL    HW1 2204   5.424   5.838   0.510  0.5233  0.2987 -0.1795
  435SOL    HW2 2205   5.350   5.749   0.625  1.7192 -0.8682 -0.2927
  436SOL     OW 2206   4.407   1.149   1.815 -0.3511 -0.2751  0.5080
  436SOL    HW1 2207   4.322   1.166   1.765 -1.1233 -0.7662  1.6116
  436SOL    HW2 2208   4.416   1.052   1.835  0.3671 -0.1992  0.5989
  437SOL     OW 2209   1.509   6.179   5.866  0.5595  0.2080  0.3554
  437SOL    HW1 2210   1.427   6.220   5.908 -1.0391 -1.7671 -0.6492
  437SOL    HW2 2211   1.504   6.189   5.767 -0.0271 -2.4666  0.0396
  438SOL     OW 2212   5.935   5.929   0.598  0.4279 -0.4917  0.2989
  438SOL    HW1 2213   5.911   6.002   0.661 -1.2708 -0.8041  0.0563
  438SOL    HW2 2214   5.866   5.856   0.602  1.0944 -1.2236 -0.8027
  439SOL     OW 2215   4.163   0.163   0.655  0.0626  0.1993  0.3909
  439SOL    HW1 2216   4.119   0.089   0.604 -0.5223  1.3570 -0.8522
  439SOL    HW2 2217   4.129   0.163   0.749  0.5397 -1.4743  0.5967
  440SOL     OW 2218   3.803   3.672   0.547 -0.1274 -0.1957 -0.6736
  440SOL    HW1 2219   3.895   3.647   0.576 -0.4771 -1.0719 -0.2856
  440SOL    HW2 2220   3.805   3.763   0.505  0.9721 -0.3549 -1.0045
  441SOL     OW 2221   0.202   5.898   5.483  0.7096 -0.1796  0.1666
  441SOL    HW1 2222   0.287   5.893   5.431  0.3996  0.2104 -0.3806
  441SOL    HW2 2223   0.178   5.807   5.516  1.7426 -0.1804  0.9869
  442SOL     OW 2224   2.330   5.953   3.045  0.2819  0.1968 -0.1303
  442SOL    HW1 2225   2.414   5.900   3.032 -0.3518 -1.0216  0.6485
  442SOL    HW2 2226   2.286   5.927   3.130 -0.1069  1.9314  0.2388
  443SOL     OW 2227   3.276   6.928   0.509  0.3646  0.4493 -0.5545
  443SOL    HW1 2228   3.340   6.852   0.515  1.2807  1.2932  0.8005
  443SOL    HW2 2229   3.262   6.952   0.413  0.6651 -0.9099 -0.9545
  444SOL     OW 2230   6.456   2.714   5.590 -0.1078 -0.2710 -0.1221
  444SOL    HW1 2231   6.374   2.656   5.594 -0.7470  0.6738  0.8341
  444SOL    HW2 2232   6.532   2.660   5.555 -1.2742 -1.0098 -1.6634
  445SOL     OW 2233   5.344   3.495   1.308 -0.5169 -0.8582  0.1456
  445SOL    HW1 2234   5.250   3.464   1.293 -0.3516 -0.8278 -1.0151
  445SOL    HW2 2235   5.369   3.564   1.240 -0.1571  0.2764  1.3964
  446SOL     OW 2236   5.512   0.373   1.896  0.1335 -0.0022  0.8076
  446SOL    HW1 2237   5.519   0.386   1.995  3.5321 -0.9571  0.8168
  446SOL    HW2 2238   5.496   0.277   1.875  1.0269 -0.0783  0.4277
  447SOL     OW 2239   6.715   2.726   2.113 -0.1591 -0.0214  0.0541
  447SOL    HW1 2240   6.740   2.809   2.064  0.6597  0.6831  1.6240
  447SOL    HW2 2241   6.792   2.694   2.168 -1.6515  0.4881  2.6144
  448SOL     OW 2242   6.168   4.245   5.788  0.2849  0.6286 -0.5415
  448SOL    HW1 2243   6.185   4.295   5.873 -1.2720  0.7047 -0.2328
  448SOL    HW2 2244   6.089   4.185   5.801  2.4207 -2.4512 -0.7116
  449SOL     OW 2245   0.182   5.146   0.576  0.0578  0.1326  0.0001
  449SOL    HW1 2246   0.173   5.242   0.553  2.9425  0.4378 -0.2266
  449SOL    HW2 2247   0.145   5.130   0.668 -1.0738  1.2746 -0.2324
  450SOL     OW 2248   3.735   4.920   3.200 -0.0712  0.7446 -0.3730
  450SOL    HW1 2249   3.779   4.993   3.149 -0.6336  0.6395 -1.0163
  450SOL    HW2 2250   3.795   4.890   3.274 -0.1952  2.4627  0.4758
  451SOL     OW 2251   2.286   6.333   2.876 -0.4739 -0.0448  0.6507
  451SOL    HW1 2252   2.262   6.237   2.895 -0.3528 -0.4106 -0.9025
  451SOL    HW2 2253   2.384   6.345   2.889 -0.3228 -0.3940 -0.1032
  452SOL     OW 2254   6.106   2.980   5.081  0.6727 -0.0652  0.1136
  452SOL    HW1 2255   6.061   2.951   5.165 -0.1972 -0.2691 -0.4103
  452SOL    HW2 2256   6.196   3.018   5.103  0.7681 -0.7974  1.0554
  453SOL     OW 2257   0.976   4.821   6.792 -0.2197  0.6607  0.2902
  453SOL    HW1 2258   1.039   4.899   6.789  1.3964 -0.6065 -0.1187
  453SOL    HW2 2259   1.026   4.739   6.821 -1.9171 -0.2007  0.8871
  454SOL     OW 2260   2.951   4.175   5.685  0.2820 -0.0466  0.4229
  454SOL    HW1 2261   2.887   4.123   5.628  1.9564 -0.1249 -1.4781
  454SOL    HW2 2262   3.031   4.200   5.632  1.1143  1.5076  2.2774
  455SOL     OW 2263   4.519   3.373   1.343 -0.6831 -0.0989  0.4125
  455SOL    HW1 2264   4.546   3.280   1.317 -0.8767 -0.5616  1.7960
  455SOL    HW2 2265   4.555   3.438   1.276 -1.1022 -1.2177 -0.9444
  456SOL     OW 2266   2.597   5.959   3.674 -0.3993  0.2312 -0.0604
  456SOL    HW1 2267   2.649   5.966   3.759 -0.9016  2.4264  0.1343
  456SOL    HW2 2268   2.640   6.015   3.604 -1.6782  0.9413 -0.3175
  457SOL     OW 2269   4.626   2.551   5.311  0.1481 -0.1623 -0.7326
  457SOL    HW1 2270   4.620   2.613   5.389 -1.0954 -0.0816 -0.8666
  457SOL    HW2 2271   4.718   2.513   5.306  0.4511  0.3730  0.3480
  458SOL     OW 2272   3.853   0.799   2.075  0.1963  0.1451  0.0285
  458SOL    HW1 2273   3.814   0.859   2.144  1.7563 -0.7515  1.7510
  458SOL    HW2 2274   3.839   0.840   1.984 -2.0895  1.2390  0.7870
  459SOL     OW 2275   4.679   1.611   2.509 -0.5438  1.0817 -0.1709
  459SOL    HW1 2276   4.687   1.710   2.516  0.4476  1.2690 -2.8641
  459SOL    HW2 2277   4.653   1.586   2.416  0.5764 -1.2381  0.0716
  460SOL     OW 2278   0.764   2.503   2.092 -0.3257  0.1574  0.5340
  460SOL    HW1 2279   0.824   2.583   2.095  0.3689 -0.3227 -0.3194
  460SOL    HW2 2280   0.708   2.506   2.009  1.9945 -1.8383 -1.2096
  461SOL     OW 2281   1.831   6.558   1.128 -0.2125 -0.3173  0.1301
  461SOL    HW1 2282   1.859   6.523   1.217 -0.1224 -1.1398 -0.2092
  461SOL    HW2 2283   1.902   6.538   1.060 -0.0944  0.6740 -0.0469
  462SOL     OW 2284   5.770   2.072   0.473  0.2411  0.3018  0.0407
  462SOL    HW1 2285   5.755   2.170   0.457  3.3483  0.8037 -0.4363
  462SOL    HW2 2286   5.759   2.022   0.387  0.5712  0.5191 -0.1280
  463SOL     OW 2287   4.488   6.661   4.254  0.5982 -0.0747 -0.2882
  463SOL    HW1 2288   4.567   6.679   4.312  1.0411  0.7757 -1.1386
  463SOL    HW2 2289   4.488   6.724   4.176 -0.7136 -0.3040 -0.5031
  464SOL     OW 2290   4.513   5.699   1.221 -0.0541 -0.4043 -0.1290
  464SOL    HW1 2291   4.427   5.699   1.170 -0.7033  0.1003  0.9321
  464SOL    HW2 2292   4.494   5.695   1.320  1.1528 -0.7489  0.1141
  465SOL     OW 2293   2.738   6.608   2.355 -0.6820  0.3893  0.0150
  465SOL    HW1 2294   2.748   6.510   2.342 -0.4953  0.3498  0.4355
  465SOL    HW2 2295   2.641   6.630   2.369 -0.4726 -0.1409  2.9440
  466SOL     OW 2296   1.385   6.173   2.183  0.4936 -0.2480  0.0170
  466SOL    HW1 2297   1.343   6.104   2.242 -0.3604  0.3247  0.0957
  466SOL    HW2 2298   1.454   6.129   2.125 -0.3814 -1.2737 -0.3018
  467SOL     OW 2299   5.566   0.347   3.913 -0.1145  0.5753  0.0324
  467SOL    HW1 2300   5.518   0.378   3.831 -0.6677 -0.4085 -0.0313
  467SOL    HW2 2301   5.596   0.253   3.901 -0.4060  0.3364  1.0450
  468SOL     OW 2302   5.476   6.074   5.352  0.7491  0.2773 -0.0146
  468SOL    HW1 2303   5.416   6.037   5.423  1.6638 -0.3745  0.4452
  468SOL    HW2 2304   5.519   6.157   5.386  0.4560  0.4924 -0.1699
  469SOL     OW 2305   5.238   5.990   2.637 -0.3824 -0.1863 -0.5976
  469SOL    HW1 2306   5.288   5.913   2.598 -1.4226 -0.4921 -1.3808
  469SOL    HW2 2307   5.148   5.998   2.592 -0.3298  1.4334 -0.4870
  470SOL     OW 2308   1.506   5.214   2.884 -0.6439  1.1428 -0.2071
  470SOL    HW1 2309   1.490   5.138   2.946 -0.7091 -0.6024 -2.2435
  470SOL    HW2 2310   1.562   5.283   2.930  0.4462 -0.6686  1.3492
  471SOL     OW 2311   2.288   5.512   5.554 -0.4509  0.1677  0.2291
  471SOL    HW1 2312   2.349   5.498   5.632 -0.4897  0.2870  0.2804
  471SOL    HW2 2313   2.336   5.567   5.485  0.2380 -1.4120 -0.6061
  472SOL     OW 2314   6.664   0.842   5.063 -0.8221 -0.3781 -0.1086
  472SOL    HW1 2315   6.635   0.911   4.996 -2.0313 -1.1051 -0.3667
  472SOL    HW2 2316   6.715   0.769   5.017 -1.2767 -0.6586 -0.1718
  473SOL     OW 2317   3.977   6.749   1.158 -0.3073 -0.3308  0.8204
  473SOL    HW1 2318   3.985   6.660   1.113 -1.8176 -0.0815 -0.0064
  473SOL    HW2 2319   3.942   6.816   1.093 -0.3270  0.5994  1.7590
  474SOL     OW 2320   4.978   4.576   1.780 -0.2219  0.4986  0.0071
  474SOL    HW1 2321   5.041   4.503   1.808 -1.0841  0.0764  0.9153
  474SOL    HW2 2322   5.008   4.663   1.819  0.8615  0.6587 -1.1524
  475SOL     OW 2323   6.320   1.706   5.738  0.1224 -0.1249 -0.3274
  475SOL    HW1 2324   6.407   1.740   5.773 -0.2296  1.6920 -1.1075
  475SOL    HW2 2325   6.322   1.606   5.735  2.6033 -0.1274 -1.3782
  476SOL     OW 2326   6.418   3.327   6.970  0.5767  0.0658 -0.0944
  476SOL    HW1 2327   6.370   3.349   6.885  2.2975 -0.4069 -1.2446
  476SOL    HW2 2328   6.462   3.238   6.961  1.3084  0.2958  1.0659
  477SOL     OW 2329   1.322   4.061   1.103  0.0992 -0.4797 -0.2496
  477SOL    HW1 2330   1.307   4.028   1.196 -0.4144  1.9887  0.6365
  477SOL    HW2 2331   1.320   3.984   1.039 -2.1262 -1.9892  1.4629
  478SOL     OW 2332   2.761   2.270   6.784 -0.2180  0.0002 -0.2195
  478SOL    HW1 2333   2.847   2.295   6.738  1.2739 -2.1226  1.2176
  478SOL    HW2 2334   2.777   2.192   6.844 -2.9396  0.2777  1.0159
  479SOL     OW 2335   3.924   2.190   4.001 -0.7836 -0.4096  0.6035
  479SOL    HW1 2336   3.904   2.192   3.903  0.1297 -2.6856  0.3184
  479SOL    HW2 2337   4.013   2.231   4.018 -1.3543  0.8654  0.6404
  480SOL     OW 2338   6.303   1.284   3.833 -0.2321 -0.6191 -0.7033
  480SOL    HW1 2339   6.257   1.258   3.748 -0.1832 -1.3710 -0.5124
  480SOL    HW2 2340   6.351   1.371   3.820  0.5385 -1.1696 -1.7331
  481SOL     OW 2341   4.082   5.854   6.507 -0.0455 -0.6544 -0.0358
  481SOL    HW1 2342   4.110   5.937   6.458 -0.8041 -0.6251 -0.4431
  481SOL    HW2 2343   4.055   5.785   6.440 -2.5976 -0.0979  0.3018
  482SOL     OW 2344   1.647   5.224   4.662 -0.0457  0.0533  0.0185
  482SOL    HW1 2345   1.694   5.137   4.645  1.4726  0.8918 -0.2449
  482SOL    HW2 2346   1.651   5.280   4.579  0.6072  1.0958  0.7444
  483SOL     OW 2347   6.611   2.859   6.247 -0.3870 -0.0112  0.7290
  483SOL    HW1 2348   6.611   2.784   6.182 -2.5810  0.1054  0.5092
  483SOL    HW2 2349   6.639   2.825   6.337  0.8050 -0.5714  0.1741
  484SOL     OW 2350   5.715   5.984   2.617 -0.4051 -0.0144  0.1637
  484SOL    HW1 2351   5.725   6.047   2.540  0.5837 -0.8850 -0.4522
  484SOL    HW2 2352   5.805   5.965   2.656 -0.7480 -0.6546  0.6575
  485SOL     OW 2353   6.356   0.040   6.618  0.1846  0.0933  0.0763
  485SOL    HW1 2354   6.343  -0.051   6.580 -0.4552 -0.2086  0.9883
  485SOL    HW2 2355   6.299   0.105   6.568 -0.5218 -0.2700  0.3923
  486SOL     OW 2356   0.535   2.365   6.089 -0.3554 -0.3805 -0.1300
  486SOL    HW1 2357   0.549   2.375   6.187  0.4294 -1.1298 -0.1553
  486SOL    HW2 2358   0.615   2.399   6.040 -0.3657 -0.8340 -0.4693
  487SOL     OW 2359   0.352   6.133   5.742 -0.5599 -0.1088 -0.0084
  487SOL    HW1 2360   0.267   6.181   5.718  0.1704  0.2096 -2.2395
  487SOL    HW2 2361   0.423   6.200   5.765 -0.5022 -0.2914  0.3428
  488SOL     OW 2362   6.910   2.473   0.291 -0.3702 -0.0747 -0.2307
  488SOL    HW1 2363   6.851   2.515   0.359  0.3305  0.8124 -0.1454
  488SOL    HW2 2364   6.908   2.374   0.301 -1.4703 -0.0284  0.0652
  489SOL     OW 2365   1.325   6.376   4.492 -0.2326  0.3177  0.6468
  489SOL    HW1 2366   1.347   6.426   4.576  0.2421  1.2285 -0.0003
  489SOL    HW2 2367   1.405   6.325   4.461 -0.2345  0.4396  0.4402
  490SOL     OW 2368   1.706   0.654   3.591 -0.4814 -0.0259  0.0434
  490SOL    HW1 2369   1.612   0.631   3.566 -0.6186 -0.7107  1.1210
  490SOL    HW2 2370   1.764   0.648   3.509 -1.5264  1.4472 -0.8613
  491SOL     OW 2371   6.839   5.755   3.232  0.4006  0.6166  0.6592
  491SOL    HW1 2372   6.860   5.697   3.154  2.0736  1.2925  0.5565
  491SOL    HW2 2373   6.875   5.714   3.315 -2.1595 -0.5503  1.2924
  492SOL     OW 2374   1.435   4.356   6.629 -0.1634  0.2250  0.2187
  492SOL    HW1 2375   1.523   4.323   6.663 -0.0651  1.4448  1.2449
  492SOL    HW2 2376   1.369   4.281   6.629  0.8113 -0.6473 -0.3464
  493SOL     OW 2377   0.114   5.788   4.466  0.3247  0.1717 -0.3570
  493SOL    HW1 2378   0.164   5.827   4.389  1.6803 -1.7805 -0.5541
  493SOL    HW2 2379   0.158   5.816   4.552  0.4794  0.1630 -0.4325
  494SOL     OW 2380   0.729   3.330   1.318 -0.2014  0.0766  0.3595
  494SOL    HW1 2381   0.802   3.386   1.357 -1.1806  1.2741  0.5015
  494SOL    HW2 2382   0.760   3.235   1.312  1.8516  0.7454 -0.7478
  495SOL     OW 2383   0.861   4.580   2.799 -0.2774  0.0777 -0.5654
  495SOL    HW1 2384   0.892   4.601   2.707  1.3641 -1.0340 -0.3144
  495SOL    HW2 2385   0.931   4.608   2.865 -1.5646  1.1653  0.4064
  496SOL     OW 2386   0.864   5.064   0.264 -0.3327  0.9465  0.6069
  496SOL    HW1 2387   0.960   5.043   0.280  0.1804  1.8609 -0.9605
  496SOL    HW2 2388   0.856   5.119   0.180 -2.3795 -0.6958 -0.3709
  497SOL     OW 2389   1.404   6.528   4.714  0.0415 -0.5521  0.6645
  497SOL    HW1 2390   1.404   6.628   4.714  0.4563 -0.4976 -1.4811
  497SOL    HW2 2391   1.486   6.495   4.761  1.4768  0.2306 -1.1771
  498SOL     OW 2392   6.087   4.811   0.651 -0.1614 -0.1005  0.2319
  498SOL    HW1 2393   6.014   4.747   0.627 -1.2213  1.4623 -0.9701
  498SOL    HW2 2394   6.161   4.762   0.696 -1.6285 -1.8667  0.8493
  499SOL     OW 2395   4.448   3.395   5.879  0.2873 -0.0376 -0.1300
  499SOL    HW1 2396   4.401   3.348   5.953 -1.9360 -1.5443 -2.3459
  499SOL    HW2 2397   4.533   3.347   5.857  0.2678 -0.3742  0.5186
  500SOL     OW 2398   2.017   3.043   5.643 -0.3851  0.6160  0.0086
  500SOL    HW1 2399   1.947   3.110   5.665 -0.0884  0.5526  1.2214
  500SOL    HW2 2400   2.078   3.080   5.574 -2.6848 -0.0342 -2.5683
  501SOL     OW 2401   6.797   6.226   6.916 -0.1833  0.3347  0.0073
  501SOL    HW1 2402   6.880   6.177   6.944 -0.2887  0.1288 -0.0411
  501SOL    HW2 2403   6.793   6.314   6.964 -0.3893 -0.0376  0.6888
  502SOL     OW 2404   1.437   4.448   2.548 -0.4108 -0.5027 -0.5614
  502SOL    HW1 2405   1.517   4.504   2.525  0.3871 -2.0528 -1.7326
  502SOL    HW2 2406   1.380   4.437   2.467 -1.0969 -0.5328 -0.0773
  503SOL     OW 2407   4.911   6.282   6.854 -0.3233  0.0905  0.7001
  503SOL    HW1 2408   4.985   6.214   6.862 -1.5978 -1.4355  0.0046
  503SOL    HW2 2409   4.891   6.319   6.944 -0.7454 -1.7446  1.4123
  504SOL     OW 2410   2.789   1.884   6.301  1.1157  0.5432 -0.2986
  504SOL    HW1 2411   2.784   1.984   6.305  0.3231  0.5130 -0.5130
  504SOL    HW2 2412   2.788   1.855   6.205  1.7207  0.3395 -0.2504
  505SOL     OW 2413   5.578   0.762   1.604 -0.0844 -0.0555 -0.5388
  505SOL    HW1 2414   5.570   0.759   1.504 -0.5688  1.3378 -0.5631
  505SOL    HW2 2415   5.627   0.845   1.631  0.0277 -0.4084  0.3908
  506SOL     OW 2416   0.544   3.227   1.865 -0.3391 -0.0850  0.0846
  506SOL    HW1 2417   0.565   3.324   1.849 -0.4570 -0.3779 -2.1450
  506SOL    HW2 2418   0.626   3.180   1.897 -0.5297  0.9046  2.2072
  507SOL     OW 2419   4.705   2.876   4.824 -0.0401 -0.1170 -0.1566
  507SOL    HW1 2420   4.686   2.801   4.761 -1.0495  0.3279 -0.4019
  507SOL    HW2 2421   4.620   2.925   4.844  0.5781  0.8761  0.1095
  508SOL     OW 2422   6.230   2.393   3.035  0.0142  0.1635  0.1140
  508SOL    HW1 2423   6.151   2.384   3.097 -0.3967 -0.9141 -0.5292
  508SOL    HW2 2424   6.205   2.451   2.958 -1.1902 -2.3902 -1.5771
  509SOL     OW 2425   4.055   4.977   2.145 -0.4353  0.2698 -0.3670
  509SOL    HW1 2426   4.102   4.911   2.203 -0.6450  0.3397 -0.1122
  509SOL    HW2 2427   4.115   5.055   2.127 -0.9747  1.1268  1.2959
  510SOL     OW 2428   0.355   6.239   1.396  0.0435 -0.3841  0.2825
  510SOL    HW1 2429   0.305   6.208   1.476 -0.6657 -1.4208 -0.5416
  510SOL    HW2 2430   0.329   6.333   1.375  0.1040 -0.1625  1.1487
  511SOL     OW 2431   5.231   3.437   4.280 -0.0685 -0.5496  0.1421
  511SOL    HW1 2432   5.181   3.474   4.201 -2.2629 -1.5547  0.9776
  511SOL    HW2 2433   5.323   3.410   4.251 -0.1834  0.7631 -1.6321
  512SOL     OW 2434   3.716   1.635   5.235 -0.1981 -0.5013  0.7759
  512SOL    HW1 2435   3.767   1.687   5.304 -0.4819  0.6754  0.1316
  512SOL    HW2 2436   3.625   1.612   5.271 -0.0272 -0.6633  1.1110
  513SOL     OW 2437   6.118   4.114   4.087  1.0386 -0.3919  0.5195
  513SOL    HW1 2438   6.043   4.176   4.109  1.3330  1.3642 -2.8699
  513SOL    HW2 2439   6.201   4.143   4.135  0.2507 -0.7242  2.1587
  514SOL     OW 2440   0.837   5.616   6.564  0.0838 -0.4200 -0.1513
  514SOL    HW1 2441   0.785   5.545   6.611  1.2576 -1.7649 -0.7858
  514SOL    HW2 2442   0.904   5.655   6.627 -0.2379 -0.2125  0.0650
  515SOL     OW 2443   5.684   2.467   5.248 -0.5951 -0.0784  0.1504
  515SOL    HW1 2444   5.642   2.481   5.338  0.7865 -0.3567  0.8758
  515SOL    HW2 2445   5.629   2.402   5.196 -0.1737 -1.8247  1.7581
  516SOL     OW 2446   0.077   1.021   2.534  0.4156 -0.0899 -0.2546
  516SOL    HW1 2447   0.167   1.041   2.495  0.4723  1.0250  0.3980
  516SOL    HW2 2448   0.006   1.049   2.470  0.5252 -1.3643 -0.9505
  517SOL     OW 2449   1.704   0.060   3.880  0.0767  0.2003 -0.5835
  517SOL    HW1 2450   1.630   0.125   3.893 -0.1925 -0.2237  0.0086
  517SOL    HW2 2451   1.730   0.019   3.967 -2.9588 -3.9990 -1.3305
  518SOL     OW 2452   2.233   5.445   4.138  0.1044 -0.1495  0.1162
  518SOL    HW1 2453   2.135   5.442   4.119 -0.1547 -0.0813  1.3048
  518SOL    HW2 2454   2.267   5.539   4.125  0.2322 -0.3754 -1.2431
  519SOL     OW 2455   6.868   1.917   4.385  0.2263  0.4360  0.3696
  519SOL    HW1 2456   6.933   1.992   4.370  1.2870 -0.7238 -1.0982
  519SOL    HW2 2457   6.908   1.848   4.444  0.7599 -0.7309 -1.2840
  520SOL     OW 2458   3.138   5.452   6.351  0.0840 -0.0671 -0.1649
  520SOL    HW1 2459   3.111   5.485   6.442  0.8693 -1.1864  0.5075
  520SOL    HW2 2460   3.182   5.526   6.301  2.5168 -0.2042  1.5950
  521SOL     OW 2461   1.088   5.026   4.709 -0.0079  0.6150 -0.0908
  521SOL    HW1 2462   1.162   4.995   4.769 -0.4927  0.9161  0.6915
  521SOL    HW2 2463   1.055   4.949   4.654 -0.0458  0.1493  0.5691
  522SOL     OW 2464   1.997   1.940   2.137  0.3625 -0.3438  0.4094
  522SOL    HW1 2465   1.924   1.969   2.198  0.9953  0.4800  0.7951
  522SOL    HW2 2466   1.999   1.840   2.133 -0.2003 -0.3909  1.0973
  523SOL     OW 2467   3.486   2.326   5.826 -0.1211 -0.0107  0.0845
  523SOL    HW1 2468   3.423   2.320   5.749  1.2742  0.2811 -1.1260
  523SOL    HW2 2469   3.457   2.263   5.898 -0.7892 -1.2037 -1.1816
  524SOL     OW 2470   0.287   1.561   3.356  0.5135 -0.2974 -0.1821
  524SOL    HW1 2471   0.318   1.491   3.292  0.0018 -0.5623 -0.1406
  524SOL    HW2 2472   0.274   1.647   3.307 -0.4882 -0.6536 -0.5660
  525SOL     OW 2473   0.510   5.295   2.271  0.2695 -0.6232  0.0803
  525SOL    HW1 2474   0.528   5.197   2.284  0.9683 -0.4974  0.0880
  525SOL    HW2 2475   0.559   5.328   2.191  0.3902 -0.1826  0.3297
  526SOL     OW 2476   1.601   6.644   6.592  0.1500  0.4632 -0.1039
  526SOL    HW1 2477   1.542   6.593   6.654  0.5836  0.0020 -0.0720
  526SOL    HW2 2478   1.587   6.613   6.498  1.7983 -1.1069  0.1097
  527SOL     OW 2479   2.287   0.069   4.948  0.0454  0.1233 -0.1053
  527SOL    HW1 2480   2.205   0.107   4.992 -0.5573 -0.3542 -0.7995
  527SOL    HW2 2481   2.268   0.052   4.851  1.0657  0.2889 -0.3414
  528SOL     OW 2482   0.999   5.398   2.988  0.5206 -0.4142  0.1809
  528SOL    HW1 2483   1.030   5.406   3.082  1.1020  0.4548 -0.0742
  528SOL    HW2 2484   1.016   5.305   2.955  1.3578 -0.4130  0.5812
  529SOL     OW 2485   1.755   4.609   6.182 -0.0766 -0.1037 -0.0175
  529SOL    HW1 2486   1.832   4.621   6.244 -0.0981  2.1026 -0.3323
  529SOL    HW2 2487   1.779   4.643   6.091 -0.9418 -0.7283 -0.4911
  530SOL     OW 2488   6.135   1.178   5.761  0.3062  0.6593  0.2243
  530SOL    HW1 2489   6.132   1.268   5.719 -0.1323  0.5358 -0.0208
  530SOL    HW2 2490   6.100   1.110   5.696  1.3021  0.2085  0.1444
  531SOL     OW 2491   1.753   6.533   6.963  0.1475 -0.3205  0.6148
  531SOL    HW1 2492   1.824   6.505   7.028  0.1277  1.4553  1.4800
  531SOL    HW2 2493   1.681   6.464   6.960  1.7407 -2.0332 -0.0694
  532SOL     OW 2494   6.665   1.841   0.983 -0.1729  0.0042  0.1820
  532SOL    HW1 2495   6.754   1.887   0.978 -0.0196 -0.4176 -2.9337
  532SOL    HW2 2496   6.600   1.900   1.031  1.3534  1.0187  1.1011
  533SOL     OW 2497   0.671   6.149   1.709 -0.1181 -0.5114 -0.0542
  533SOL    HW1 2498   0.689   6.234   1.659  0.7180 -0.0462  1.0216
  533SOL    HW2 2499   0.572   6.134   1.713 -0.2420 -0.1253 -1.1070
  534SOL     OW 2500   5.515   1.287   0.753  0.3833 -0.2779  0.0850
  534SOL    HW1 2501   5.578   1.313   0.826 -0.2727  0.6746  0.3441
  534SOL    HW2 2502   5.556   1.309   0.664  0.5266  0.1011  0.2408
  535SOL     OW 2503   2.992   5.770   4.304  0.1207 -0.6340 -0.6367
  535SOL    HW1 2504   3.036   5.838   4.362 -0.1863 -2.1726  1.5410
  535SOL    HW2 2505   3.034   5.770   4.213  2.3299  0.1857  0.3340
  536SOL     OW 2506   2.024   4.947   5.965  0.0047  0.5300 -0.5574
  536SOL    HW1 2507   2.083   4.908   5.895  0.5331 -1.2766  0.7994
  536SOL    HW2 2508   1.972   5.023   5.927 -0.1504 -0.7157 -3.0487
  537SOL     OW 2509   5.883   6.109   1.032 -0.5391  0.7264 -0.2626
  537SOL    HW1 2510   5.908   6.200   1.066 -0.6711  0.7114 -0.1223
  537SOL    HW2 2511   5.891   6.043   1.107  1.7765  0.2063 -0.8899
  538SOL     OW 2512   1.066   0.489   5.713 -0.5096 -0.0073 -0.1549
  538SOL    HW1 2513   0.992   0.505   5.779  0.4466  0.1273  0.9292
  538SOL    HW2 2514   1.075   0.569   5.653 -0.8111  0.2618  0.1528
  539SOL     OW 2515   6.023   5.827   4.912  0.2411  0.1284 -0.4789
  539SOL    HW1 2516   6.059   5.858   4.824  0.7180  0.3746 -0.1976
  539SOL    HW2 2517   6.067   5.878   4.986 -0.4605  0.2214 -0.1135
  540SOL     OW 2518   5.905   1.057   2.121 -0.0725 -0.9441 -0.0990
  540SOL    HW1 2519   5.849   1.083   2.042 -0.0822 -0.9120 -0.0815
  540SOL    HW2 2520   5.857   1.081   2.205 -0.4090 -1.6904 -0.0657
  541SOL     OW 2521   0.005   0.908   6.613 -0.4480  0.0118  0.2409
  541SOL    HW1 2522  -0.039   0.831   6.567 -0.7802  1.0094 -1.1856
  541SOL    HW2 2523  -0.017   0.907   6.710 -2.0985 -0.5578 -0.1148
  542SOL     OW 2524   4.836   1.061   0.884 -0.0193 -0.5634 -0.0684
  542SOL    HW1 2525   4.874   1.151   0.860 -0.2462  0.5631  3.2200
  542SOL    HW2 2526   4.910   1.001   0.916 -0.2006 -0.5643  0.3579
  543SOL     OW 2527   1.392   4.369   0.537  0.2285  0.1570 -0.2527
  543SOL    HW1 2528   1.370   4.456   0.493 -0.7567 -0.2593 -0.6060
  543SOL    HW2 2529   1.486   4.343   0.515  0.4925  1.0720 -0.2372
  544SOL     OW 2530   3.540   5.502   6.666  0.0067 -0.3783 -0.0552
  544SOL    HW1 2531   3.553   5.591   6.621  0.0087 -0.9475 -1.2280
  544SOL    HW2 2532   3.516   5.517   6.762  0.7904  0.8654 -0.0252
  545SOL     OW 2533   0.161   3.061   4.836  0.0073  0.0061  0.7156
  545SOL    HW1 2534   0.161   3.060   4.736  1.7003 -1.2233  0.6756
  545SOL    HW2 2535   0.069   3.042   4.869 -0.6897  0.9557 -0.5939
  546SOL     OW 2536   6.684   2.989   0.828 -0.7107 -0.8325  0.5572
  546SOL    HW1 2537   6.619   3.058   0.859 -2.1330 -1.7210 -0.3057
  546SOL    HW2 2538   6.775   3.010   0.863 -1.0399  1.5994  0.1513
  547SOL     OW 2539   2.523   0.414   2.274 -0.6652  0.5759  0.1652
  547SOL    HW1 2540   2.583   0.395   2.195 -1.1553  0.2530 -0.1335
  547SOL    HW2 2541   2.516   0.513   2.288  0.9000  0.6153  0.9491
  548SOL     OW 2542   0.237   2.655   4.640  0.4181  0.1662 -0.6389
  548SOL    HW1 2543   0.138   2.655   4.626  0.5478  0.4440 -1.6135
  548SOL    HW2 2544   0.283   2.691   4.559  1.4214 -1.4201 -0.8242
  549SOL     OW 2545   0.624   4.331   3.160 -0.0615 -0.1217 -0.1992
  549SOL    HW1 2546   0.612   4.416   3.210  0.0281 -0.3110  0.1475
  549SOL    HW2 2547   0.565   4.331   3.080 -0.4902  0.0216  0.1156
  550SOL     OW 2548   1.026   5.130   2.930 -0.3123 -0.4114  0.1137
  550SOL    HW1 2549   1.063   5.107   3.020 -1.1849 -1.3268  0.2506
  550SOL    HW2 2550   1.040   5.053   2.867 -0.2273  0.0003 -0.3820
  551SOL     OW 2551   2.284   4.440   2.168 -0.7948 -0.5665  0.1747
  551SOL    HW1 2552   2.329   4.529   2.163 -0.2102 -0.8684 -0.0915
  551SOL    HW2 2553   2.238   4.430   2.256  1.3258 -1.0152  1.3110
  552SOL     OW 2554   1.409   5.672   5.170 -0.2429 -0.1812 -0.3843
  552SOL    HW1 2555   1.431   5.755   5.221 -0.0057 -0.0161 -0.7520
  552SOL    HW2 2556   1.454   5.594   5.212 -2.5226 -0.5712  1.5448
  553SOL     OW 2557   0.115   0.388   4.385 -0.0568 -0.4057 -0.5488
  553SOL    HW1 2558   0.197   0.423   4.340  0.4211  0.0599  0.6441
  553SOL    HW2 2559   0.138   0.305   4.437 -0.0494  0.3728  0.7401
  554SOL     OW 2560   2.106   2.468   1.075 -0.4814  0.2951 -0.4110
  554SOL    HW1 2561   2.134   2.382   1.032  0.2276  0.7628 -0.8942
  554SOL    HW2 2562   2.049   2.448   1.154 -1.1550 -0.5992 -1.1011
  555SOL     OW 2563   2.760   0.348   4.733  0.4941 -0.0088 -0.3395
  555SOL    HW1 2564   2.712   0.265   4.704  0.0654  0.5705 -1.3277
  555SOL    HW2 2565   2.817   0.327   4.813  0.4259 -1.2631 -0.5955
  556SOL     OW 2566   6.748   2.716   1.558 -0.1259  0.0178 -0.1059
  556SOL    HW1 2567   6.729   2.765   1.472 -0.7051  0.3751  0.2167
  556SOL    HW2 2568   6.820   2.649   1.543 -0.3003  0.0005 -0.9025
  557SOL     OW 2569   1.084   6.362   2.959  0.1626  0.4500 -0.0443
  557SOL    HW1 2570   1.144   6.441   2.953  0.0243  0.4977 -0.9139
  557SOL    HW2 2571   1.138   6.279   2.969  0.3649  0.5187 -0.5474
  558SOL     OW 2572   2.245   4.139   3.121  0.0111 -0.0106 -0.0216
  558SOL    HW1 2573   2.288   4.207   3.181 -0.1425  2.3170 -2.3790
  558SOL    HW2 2574   2.297   4.131   3.037 -1.6573 -0.5151 -1.0643
  559SOL     OW 2575   2.360   2.290   6.426 -0.8260 -0.3104 -0.1065
  559SOL    HW1 2576   2.369   2.320   6.520 -0.5076 -1.1197  0.1328
  559SOL    HW2 2577   2.345   2.191   6.424 -0.1605 -0.4083 -0.9245
  560SOL     OW 2578   3.132   0.443   6.103  0.2915 -0.3314 -0.3714
  560SOL    HW1 2579   3.203   0.512   6.121 -0.2284  0.2948 -0.6676
  560SOL    HW2 2580   3.067   0.441   6.180 -1.1092  1.3161 -1.4336
  561SOL     OW 2581   2.935   0.876   3.237 -0.2767  0.0204  0.1576
  561SOL    HW1 2582   2.869   0.888   3.311  1.1696 -0.9278  1.6564
  561SOL    HW2 2583   2.941   0.961   3.184 -1.4610  0.6698  1.0212
  562SOL     OW 2584   3.226   0.896   4.921 -0.2428  0.2429  0.3889
  562SOL    HW1 2585   3.277   0.896   5.007  0.0071 -0.0787  0.2449
  562SOL    HW2 2586   3.201   0.802   4.897  0.3018  0.2539 -0.2408
  563SOL     OW 2587   6.291   5.205   0.204 -0.2082  0.8434  0.0717
  563SOL    HW1 2588   6.240   5.272   0.258 -0.8761 -1.1638  2.0643
  563SOL    HW2 2589   6.234   5.174   0.127 -1.8950 -0.9309  1.9236
  564SOL     OW 2590   5.168   1.399   3.818  0.5281  0.2402 -0.0082
  564SOL    HW1 2591   5.227   1.477   3.795  0.4308  0.1701 -0.5015
  564SOL    HW2 2592   5.081   1.408   3.770  0.4266 -0.0534  0.1206
  565SOL     OW 2593   4.624   5.076   5.708  0.1888  0.5023 -0.0353
  565SOL    HW1 2594   4.575   5.092   5.794  0.0229  0.9238 -0.2046
  565SOL    HW2 2595   4.714   5.039   5.727 -0.0282  0.1390  0.3026
  566SOL     OW 2596   6.090   5.050   1.564  0.4095  0.4211  0.7625
  566SOL    HW1 2597   6.015   5.099   1.609 -0.1420 -1.1635  1.6712
  566SOL    HW2 2598   6.061   5.023   1.472 -0.2816 -0.4597  1.2251
  567SOL     OW 2599   0.240   1.241   5.517 -0.7269 -0.6523 -0.4636
  567SOL    HW1 2600   0.318   1.303   5.513 -0.2287 -1.3161 -1.4701
  567SOL    HW2 2601   0.265   1.159   5.567 -0.5559 -1.1501 -1.3460
  568SOL     OW 2602   6.479   1.721   6.164 -0.4468  0.4481  0.3320
  568SOL    HW1 2603   6.533   1.656   6.110 -1.8159 -0.7373  0.3161
  568SOL    HW2 2604   6.521   1.811   6.159  0.9949 -0.2238 -0.4305
  569SOL     OW 2605   2.031   2.139   3.003  0.2775  0.2539 -0.0063
  569SOL    HW1 2606   2.036   2.236   2.978 -0.0620  0.5947  1.2040
  569SOL    HW2 2607   1.967   2.127   3.079  0.9619 -0.8022  0.4247
  570SOL     OW 2608   4.499   2.243   5.459  0.4299 -0.4312  0.4004
  570SOL    HW1 2609   4.419   2.196   5.498  0.3001 -1.0195 -0.5415
  570SOL    HW2 2610   4.484   2.259   5.362  1.1480  0.1561  0.3787
  571SOL     OW 2611   5.663   6.492   6.945  0.4054  0.1213  0.4259
  571SOL    HW1 2612   5.755   6.454   6.937  0.7406  0.8857  0.5723
  571SOL    HW2 2613   5.638   6.499   7.041 -0.4101 -1.4642  0.3725
  572SOL     OW 2614   4.776   2.146   5.108  0.1144  0.0046  0.0537
  572SOL    HW1 2615   4.789   2.173   5.203  1.2944  1.5012 -0.4913
  572SOL    HW2 2616   4.862   2.111   5.070 -0.6039 -1.6183 -0.1914
  573SOL     OW 2617   1.006   1.912   3.445  0.6995 -0.5689 -0.2677
  573SOL    HW1 2618   0.990   1.977   3.520  0.9846  1.6479 -2.0315
  573SOL    HW2 2619   0.937   1.926   3.374  1.0847 -1.8902 -0.9276
  574SOL     OW 2620   4.201   3.920   0.645 -0.4738 -1.0326 -0.0136
  574SOL    HW1 2621   4.148   3.986   0.592 -0.4238  1.4404  2.7938
  574SOL    HW2 2622   4.294   3.915   0.608 -0.5890  0.2058 -0.5232
  575SOL     OW 2623   0.784   5.556   5.041  0.2057  0.0686 -0.1144
  575SOL    HW1 2624   0.819   5.534   4.950  1.7587 -0.7137  0.6329
  575SOL    HW2 2625   0.800   5.479   5.103  0.3722  1.0704  1.1335
  576SOL     OW 2626   3.401   4.109   3.261 -0.3388  0.3507  0.4942
  576SOL    HW1 2627   3.484   4.060   3.236 -0.7802 -0.0402 -0.2436
  576SOL    HW2 2628   3.339   4.113   3.183 -0.2717  2.2131  0.4876
  577SOL     OW 2629   2.453   4.890   0.142 -0.4603  0.3381 -0.2151
  577SOL    HW1 2630   2.432   4.794   0.121  3.0678 -0.1954 -2.0040
  577SOL    HW2 2631   2.422   4.948   0.066  2.7645 -0.2864 -2.2083
  578SOL     OW 2632   2.660   6.819   3.733 -0.3291  0.7398 -0.2869
  578SOL    HW1 2633   2.624   6.775   3.650 -0.7634  1.4744 -0.4905
  578SOL    HW2 2634   2.706   6.750   3.789  0.8477  0.3956 -1.6022
  579SOL     OW 2635   2.790   5.052   2.135 -0.3235  0.0296  0.0586
  579SOL    HW1 2636   2.781   5.110   2.054 -0.2456  0.6992  0.5148
  579SOL    HW2 2637   2.881   5.011   2.138  0.0108  0.7653  0.2871
  580SOL     OW 2638   0.062   3.700   6.958  0.3958 -0.4199  0.0438
  580SOL    HW1 2639   0.053   3.778   6.896  3.4627 -0.0172 -0.0517
  580SOL    HW2 2640  -0.011   3.703   7.027 -0.2456  1.8503 -0.6567
  581SOL     OW 2641   1.202   5.626   2.188  0.2160 -0.6835  0.3015
  581SOL    HW1 2642   1.189   5.556   2.259  0.8165  0.5363  1.6652
  581SOL    HW2 2643   1.115   5.672   2.170  0.2653 -0.3108  0.9971
  582SOL     OW 2644   3.838   0.940   3.915 -0.3428 -0.0577  0.2340
  582SOL    HW1 2645   3.753   0.942   3.967  0.3822  0.8587  1.4494
  582SOL    HW2 2646   3.853   0.849   3.878 -1.5863 -0.3639  0.4415
  583SOL     OW 2647   1.740   2.648   1.433 -0.1384 -0.5811  0.2646
  583SOL    HW1 2648   1.715   2.655   1.336 -1.4918  0.5190  0.6790
  583SOL    HW2 2649   1.839   2.632   1.440 -0.1675 -1.7342 -1.3081
  584SOL     OW 2650   0.826   2.882   6.813 -0.3051  0.4367 -0.4061
  584SOL    HW1 2651   0.903   2.873   6.877 -0.1598  1.3988 -0.4395
  584SOL    HW2 2652   0.823   2.802   6.753 -0.8254 -0.8203  1.2065
  585SOL     OW 2653   3.536   0.276   6.815 -0.3189 -0.5234  0.1568
  585SOL    HW1 2654   3.575   0.338   6.746 -0.0952 -1.1929 -0.3265
  585SOL    HW2 2655   3.610   0.236   6.869 -0.4304 -0.7209  0.1619
  586SOL     OW 2656   5.976   1.226   0.530  0.0350  0.0132  0.3699
  586SOL    HW1 2657   5.954   1.256   0.623 -0.4253  0.9757 -0.0275
  586SOL    HW2 2658   6.056   1.166   0.532 -1.3924 -1.9959  1.6615
  587SOL     OW 2659   0.537   1.333   0.208 -0.4539  0.2228  0.0630
  587SOL    HW1 2660   0.521   1.268   0.133 -1.2142  0.0084  0.3973
  587SOL    HW2 2661   0.588   1.288   0.281  0.5918  0.5301 -0.4545
  588SOL     OW 2662   2.038   6.113   4.862 -0.2044  0.0278 -0.1381
  588SOL    HW1 2663   2.015   6.100   4.765 -0.6637  0.4144 -0.0879
  588SOL    HW2 2664   1.954   6.121   4.915 -0.0640 -3.3538  0.7935
  589SOL     OW 2665   1.697   6.905   4.615  0.1522 -0.6572 -0.1072
  589SOL    HW1 2666   1.743   6.984   4.655  0.2592 -0.7154 -0.1140
  589SOL    HW2 2667   1.629   6.869   4.680 -0.3292 -0.1884 -0.3472
  590SOL     OW 2668   5.771   1.145   4.519  0.3079 -0.5083  0.2974
  590SOL    HW1 2669   5.825   1.209   4.575 -1.5657  3.1425 -1.6958
  590SOL    HW2 2670   5.820   1.128   4.434 -0.8665  1.6703 -0.8998
  591SOL     OW 2671   3.805   1.836   0.375  0.4636 -0.8495  0.1092
  591SOL    HW1 2672   3.711   1.864   0.394  0.6806 -0.5108  0.6876
  591SOL    HW2 2673   3.826   1.752   0.426  0.7841 -0.3900  0.7394
  592SOL     OW 2674   0.911   2.331   3.140  0.8629  0.3017 -0.3689
  592SOL    HW1 2675   0.890   2.409   3.199  0.6354  1.4793 -1.9407
  592SOL    HW2 2676   0.895   2.246   3.190  1.5611  1.2376  1.5494
  593SOL     OW 2677   6.890   5.054   3.341 -0.2365  1.2018 -0.3668
  593SOL    HW1 2678   6.964   5.118   3.363  0.6057  0.4821 -1.0263
  593SOL    HW2 2679   6.835   5.038   3.423  1.1037  0.7872  0.4961
  594SOL     OW 2680   4.811   4.465   4.399  0.0215 -0.0446 -0.2649
  594SOL    HW1 2681   4.817   4.433   4.493 -0.3875 -1.7286 -0.7830
  594SOL    HW2 2682   4.766   4.555   4.397 -0.8595 -0.4326  1.0649
  595SOL     OW 2683   1.281   5.762   5.997 -0.1256  0.6931 -0.2157
  595SOL    HW1 2684   1.259   5.723   5.907  2.0590 -1.7415  0.1980
  595SOL    HW2 2685   1.222   5.720   6.066  3.6243 -4.1403  0.5703
  596SOL     OW 2686   2.071   1.273   3.896  0.3763 -0.2892 -0.4742
  596SOL    HW1 2687   1.990   1.331   3.909 -1.0193 -2.1938 -0.2763
  596SOL    HW2 2688   2.063   1.192   3.953  2.6710 -0.3197 -0.1427
  597SOL     OW 2689   6.312   5.804   7.000 -0.7456  0.0058  0.5592
  597SOL    HW1 2690   6.238   5.761   7.051 -1.9045  0.6976 -0.4833
  597SOL    HW2 2691   6.369   5.857   7.062 -1.0125 -0.6653  1.4053
  598SOL     OW 2692   2.872   0.476   2.192  0.0824 -1.0395  0.3379
  598SOL    HW1 2693   2.954   0.465   2.136 -1.2032  0.4945 -1.9866
  598SOL    HW2 2694   2.853   0.390   2.240  2.0690 -1.9399 -0.3768
  599SOL     OW 2695   2.076   6.389   3.984 -0.1985  0.0838 -0.3868
  599SOL    HW1 2696   2.008   6.390   3.910 -0.6717  0.9703  0.0465
  599SOL    HW2 2697   2.142   6.316   3.967 -2.5988 -2.4675  0.3934
  600SOL     OW 2698   2.959   3.777   4.077  0.1596  0.2272 -0.3225
  600SOL    HW1 2699   2.934   3.820   3.990 -0.9271  0.1689 -0.0610
  600SOL    HW2 2700   2.971   3.848   4.146  3.0869  0.4611 -0.9403
  601SOL     OW 2701   4.400   2.316   1.908 -0.2104 -0.3614  0.1240
  601SOL    HW1 2702   4.303   2.327   1.887 -0.0293 -2.3300 -2.1542
  601SOL    HW2 2703   4.410   2.256   1.988 -0.8769 -1.3309 -0.5031
  602SOL     OW 2704   1.306   5.007   5.397 -0.4597  0.6113  0.7025
  602SOL    HW1 2705   1.221   4.960   5.373 -0.1269 -0.1814  1.0629
  602SOL    HW2 2706   1.337   5.061   5.319 -0.2004 -0.7250 -0.1418
  603SOL     OW 2707   0.982   6.533   6.740 -0.7601 -0.0653 -0.1910
  603SOL    HW1 2708   1.073   6.571   6.723 -0.8177 -0.2250 -0.9047
  603SOL    HW2 2709   0.926   6.543   6.658 -0.8604 -1.4497 -0.3150
  604SOL     OW 2710   5.799   6.990   6.639  0.5005 -0.3392  0.5313
  604SOL    HW1 2711   5.757   6.959   6.553  1.3096 -0.4964  0.1824
  604SOL    HW2 2712   5.823   6.911   6.695 -1.4384 -0.2040  1.6169
  605SOL     OW 2713   4.258   6.673   6.320  0.5224 -0.0060 -0.1748
  605SOL    HW1 2714   4.323   6.599   6.335  1.5321  1.0221  0.7389
  605SOL    HW2 2715   4.292   6.733   6.248  0.9142  0.8721  0.7189
  606SOL     OW 2716   2.630   3.204   0.102 -0.1743  0.6821  0.6151
  606SOL    HW1 2717   2.724   3.180   0.125 -0.0748  1.6402  1.2319
  606SOL    HW2 2718   2.574   3.201   0.185 -0.7629 -0.1674  0.2053
  607SOL     OW 2719   4.773   0.812   5.793 -0.5462 -0.0289 -0.0081
  607SOL    HW1 2720   4.693   0.826   5.852 -1.2724 -1.5136 -0.6100
  607SOL    HW2 2721   4.766   0.873   5.714 -1.3303 -0.4755 -0.2957
  608SOL     OW 2722   5.627   5.045   4.418  0.2611  0.3178 -0.2922
  608SOL    HW1 2723   5.587   5.091   4.339 -1.8093  1.0178  1.0595
  608SOL    HW2 2724   5.694   5.106   4.461 -0.3281  0.9071 -0.1876
  609SOL     OW 2725   4.305   6.748   5.394  0.0642 -0.0635  0.1894
  609SOL    HW1 2726   4.402   6.737   5.375  0.2774  1.2168  0.4035
  609SOL    HW2 2727   4.265   6.811   5.327 -0.6568 -0.6788  0.0217
  610SOL     OW 2728   0.847   2.150   2.676  0.2228 -0.3508 -0.7367
  610SOL    HW1 2729   0.925   2.108   2.630  0.3149 -1.1087  0.0751
  610SOL    HW2 2730   0.839   2.113   2.769  0.7757  1.9781  0.3244
  611SOL     OW 2731   6.566   3.428   1.496  0.0994  0.7092  0.2342
  611SOL    HW1 2732   6.538   3.366   1.569  1.1668  0.1103  0.1445
  611SOL    HW2 2733   6.661   3.456   1.509  0.8793 -0.7346 -1.7910
  612SOL     OW 2734   5.495   1.703   0.481  0.5026  0.1129  0.1427
  612SOL    HW1 2735   5.437   1.624   0.458  2.6308 -0.7799 -2.7295
  612SOL    HW2 2736   5.590   1.681   0.460  1.2352  3.3066 -0.2772
  613SOL     OW 2737   0.555   1.547   3.501 -0.4112  0.4084 -0.3356
  613SOL    HW1 2738   0.535   1.494   3.584 -0.5595 -0.0637 -0.6707
  613SOL    HW2 2739   0.479   1.540   3.437  0.0050  0.1648 -0.8177
  614SOL     OW 2740   5.418   4.236   5.867 -0.2043  0.3956  0.8106
  614SOL    HW1 2741   5.396   4.185   5.950 -0.6871  1.6340  1.4786
  614SOL    HW2 2742   5.517   4.230   5.849  0.0490  0.7882  1.9702
  615SOL     OW 2743   5.261   2.778   1.529 -0.2370  0.5445 -0.0530
  615SOL    HW1 2744   5.336   2.719   1.556 -1.5992 -0.6974  1.1879
  615SOL    HW2 2745   5.284   2.873   1.549  0.4238  0.0452  1.7368
  616SOL     OW 2746   1.156   0.845   3.930  0.6076  0.2667  0.3903
  616SOL    HW1 2747   1.097   0.904   3.985  0.0110  0.2173 -0.1813
  616SOL    HW2 2748   1.099   0.781   3.877  1.0629  1.2125 -1.3176
  617SOL     OW 2749   4.230   6.108   1.342  0.0169  0.2148  0.2421
  617SOL    HW1 2750   4.156   6.171   1.317  0.6149  2.2357  3.0068
  617SOL    HW2 2751   4.192   6.017   1.358 -1.0922  0.0728 -2.5906
  618SOL     OW 2752   0.958   5.234   6.543  0.2577  0.7536  0.0487
  618SOL    HW1 2753   0.960   5.298   6.467 -0.3468  1.0076  0.2362
  618SOL    HW2 2754   0.889   5.164   6.526 -1.5856  2.1432  1.3825
  619SOL     OW 2755   1.184   4.278   1.055 -0.3445 -0.3495 -0.4645
  619SOL    HW1 2756   1.249   4.207   1.082 -1.6170 -2.0162 -1.5580
  619SOL    HW2 2757   1.130   4.246   0.977 -1.2215  1.7063 -0.7735
  620SOL     OW 2758   4.234   3.379   6.277 -0.2427  0.3129 -0.4985
  620SOL    HW1 2759   4.227   3.279   6.281  1.2960  0.1063 -1.9286
  620SOL    HW2 2760   4.165   3.415   6.215  1.3423 -0.2600 -2.7381
  621SOL     OW 2761   0.975   6.009   5.415  0.2571 -0.4469 -0.0239
  621SOL    HW1 2762   1.025   6.034   5.332 -1.1975 -0.2701 -0.8802
  621SOL    HW2 2763   0.897   6.070   5.427 -0.2757 -1.2515  0.7928
  622SOL     OW 2764   0.603   2.515   1.832 -0.3405  0.3654  0.2489
  622SOL    HW1 2765   0.577   2.602   1.790 -0.0824  0.2327 -0.1912
  622SOL    HW2 2766   0.522   2.475   1.875 -0.4828  0.7767  0.3728
  623SOL     OW 2767   4.807   3.903   0.862 -0.1249  0.3163 -0.4286
  623SOL    HW1 2768   4.729   3.907   0.925  0.4804  1.8069  0.2730
  623SOL    HW2 2769   4.828   3.807   0.842 -0.3562 -0.2264  1.6372
  624SOL     OW 2770   1.136   6.981   1.781 -0.3640  0.1972 -0.3507
  624SOL    HW1 2771   1.153   6.983   1.682  1.2043 -0.9228 -0.1448
  624SOL    HW2 2772   1.101   6.891   1.807 -0.8941  0.5297  0.1042
  625SOL     OW 2773   0.435   0.651   4.035 -0.1877 -0.4847  0.7114
  625SOL    HW1 2774   0.412   0.658   3.938 -1.9420 -0.0917  1.1358
  625SOL    HW2 2775   0.513   0.589   4.046  0.4034 -0.0894 -0.9852
  626SOL     OW 2776   2.269   4.286   4.402  0.2860 -0.7394 -0.2885
  626SOL    HW1 2777   2.269   4.191   4.432  2.0178 -0.6667  0.0517
  626SOL    HW2 2778   2.188   4.333   4.438 -0.7156 -2.1380 -0.6835
  627SOL     OW 2779   5.862   2.507   1.198  0.3774  0.3101  0.0966
  627SOL    HW1 2780   5.935   2.575   1.186  0.7269 -0.2302 -1.0306
  627SOL    HW2 2781   5.855   2.452   1.114  0.3988 -1.3205  1.1252
  628SOL     OW 2782   4.533   4.234   0.205  0.4932 -0.2319  0.6458
  628SOL    HW1 2783   4.632   4.228   0.208  0.5213 -0.6547 -0.4298
  628SOL    HW2 2784   4.500   4.191   0.121 -0.4203  2.2445 -0.3607
  629SOL     OW 2785   2.772   1.395   4.339 -0.2574 -0.2286  0.3343
  629SOL    HW1 2786   2.830   1.316   4.361  1.3987  1.5106  2.6966
  629SOL    HW2 2787   2.795   1.429   4.248 -0.7630 -2.1915 -0.5859
  630SOL     OW 2788   1.390   5.527   3.443  0.7160 -0.0263 -0.4083
  630SOL    HW1 2789   1.324   5.599   3.466 -0.1306 -0.8740 -0.0893
  630SOL    HW2 2790   1.351   5.438   3.467  1.5116 -0.6351 -1.3218
  631SOL     OW 2791   4.865   1.705   1.858 -0.5247  0.0267 -0.4248
  631SOL    HW1 2792   4.823   1.743   1.775 -1.1585 -0.2221 -0.2233
  631SOL    HW2 2793   4.893   1.610   1.840 -0.6670 -0.0291 -0.3539
  632SOL     OW 2794   2.480   2.550   1.829  0.6744 -0.2176  0.1802
  632SOL    HW1 2795   2.456   2.645   1.811 -1.3625 -1.0688 -2.0954
  632SOL    HW2 2796   2.398   2.498   1.852  1.0289 -2.1779 -2.5126
  633SOL     OW 2797   3.983   6.944   3.155  0.2905  0.1604  0.3363
  633SOL    HW1 2798   3.927   6.893   3.221 -0.5099 -0.5564 -0.8503
  633SOL    HW2 2799   3.956   6.918   3.062 -0.1057  2.7325 -0.3328
  634SOL     OW 2800   4.375   4.709   3.422  0.1909 -1.1016 -0.2440
  634SOL    HW1 2801   4.451   4.729   3.359  1.3875 -1.8777  0.9007
  634SOL    HW2 2802   4.292   4.693   3.369  1.1743 -1.8067 -1.6586
  635SOL     OW 2803   5.963   1.673   4.338 -0.4339 -0.5778  1.0417
  635SOL    HW1 2804   5.983   1.587   4.291 -0.5924 -0.2970  0.4443
  635SOL    HW2 2805   5.875   1.667   4.384  0.5638 -1.5159  2.9380
  636SOL     OW 2806   3.875   1.577   0.020  0.1736  0.1678 -0.2617
  636SOL    HW1 2807   3.860   1.673   0.044  0.8164 -0.0777  1.2695
  636SOL    HW2 2808   3.789   1.527   0.028  0.5231 -0.1601  3.0772
  637SOL     OW 2809   6.047   5.683   1.968 -0.6343  0.0498 -0.3032
  637SOL    HW1 2810   6.064   5.746   1.891 -1.4870  0.3249 -0.2769
  637SOL    HW2 2811   5.993   5.605   1.936  0.3085 -0.6254 -0.3054
  638SOL     OW 2812   1.021   0.605   1.964  0.0128 -0.4485  0.5492
  638SOL    HW1 2813   1.037   0.508   1.983 -0.6032 -0.8389 -0.7632
  638SOL    HW2 2814   0.989   0.615   1.870 -1.9781  0.8036  1.2871
  639SOL     OW 2815   3.195   1.235   0.931 -0.0443  0.8721  0.3500
  639SOL    HW1 2816   3.249   1.151   0.929 -0.9140  0.2996  0.3347
  639SOL    HW2 2817   3.123   1.226   0.999 -1.1753  0.9508 -0.8065
  640SOL     OW 2818   3.370   5.742   5.609  0.2901 -0.2902  0.1533
  640SOL    HW1 2819   3.365   5.836   5.577 -1.1144 -0.4475 -0.1464
  640SOL    HW2 2820   3.278   5.707   5.625  0.8256 -1.2905  1.2316
  641SOL     OW 2821   6.901   6.278   5.025 -0.2777 -0.3406 -0.5190
  641SOL    HW1 2822   6.887   6.211   4.953 -0.3582  2.0585 -2.8788
  641SOL    HW2 2823   6.992   6.320   5.015  0.0012 -0.4234  1.2398
  642SOL     OW 2824   4.787   4.756   6.786  0.3061  0.1399 -0.3369
  642SOL    HW1 2825   4.755   4.816   6.858 -0.2193 -0.9653  0.3808
  642SOL    HW2 2826   4.887   4.762   6.779  0.1251  3.1492 -2.1730
  643SOL     OW 2827   5.452   4.338   2.050  0.4312 -0.0781  0.0364
  643SOL    HW1 2828   5.386   4.311   2.121  0.9386 -0.4737  0.3644
  643SOL    HW2 2829   5.414   4.319   1.960 -0.1378  0.2374  0.2017
  644SOL     OW 2830   2.205   3.252   1.386 -0.2701 -0.5388 -0.3073
  644SOL    HW1 2831   2.211   3.157   1.354  1.2613 -1.0040  1.1977
  644SOL    HW2 2832   2.230   3.257   1.483 -1.3204  1.2878 -0.0690
  645SOL     OW 2833   1.095   6.606   3.213 -0.4576  0.1852  0.1189
  645SOL    HW1 2834   1.178   6.560   3.246  0.6076  0.5171 -1.9709
  645SOL    HW2 2835   1.034   6.622   3.290  0.5841 -1.7528  1.4328
  646SOL     OW 2836   0.988   6.076   3.211  0.2661  0.0610  0.3485
  646SOL    HW1 2837   1.062   6.066   3.145  2.0119 -0.2149  2.2586
  646SOL    HW2 2838   0.939   6.161   3.194  0.2053 -0.3316 -1.6900
  647SOL     OW 2839   5.054   0.110   6.581 -0.4144 -0.4006  0.1403
  647SOL    HW1 2840   4.990   0.187   6.577 -2.3263 -1.9355 -0.4488
  647SOL    HW2 2841   5.116   0.123   6.659 -2.1755  0.6336  1.4594
  648SOL     OW 2842   6.955   4.598   4.533  0.3652 -0.1910  0.1729
  648SOL    HW1 2843   6.987   4.637   4.447  1.4568 -1.9596 -0.2960
  648SOL    HW2 2844   6.857   4.613   4.543  0.2447  0.1407 -1.3186
  649SOL     OW 2845   6.653   6.915   5.698  0.3397  0.1052  0.6316
  649SOL    HW1 2846   6.638   6.826   5.655 -0.1239  0.5540 -0.1556
  649SOL    HW2 2847   6.637   6.907   5.797  1.1117 -0.8623  0.6865
  650SOL     OW 2848   5.959   4.972   2.618 -0.1251 -0.2315  0.2313
  650SOL    HW1 2849   5.989   4.933   2.705  0.1799  0.7158  0.5702
  650SOL    HW2 2850   5.867   5.010   2.629  0.6721  1.6854  0.7498
  651SOL     OW 2851   1.766   4.479   0.244  0.0254 -0.5738 -0.0345
  651SOL    HW1 2852   1.843   4.543   0.247  0.8407 -1.5683  0.8633
  651SOL    HW2 2853   1.720   4.487   0.156  0.7650  0.4858 -0.3477
  652SOL     OW 2854   6.350   4.149   5.400 -0.1692 -0.4389 -0.0450
  652SOL    HW1 2855   6.413   4.082   5.359  3.3802  2.2268  0.5595
  652SOL    HW2 2856   6.391   4.186   5.483 -3.2850  0.5764  1.1901
  653SOL     OW 2857   2.137   0.311   1.940  0.0785 -0.1119 -0.1773
  653SOL    HW1 2858   2.076   0.233   1.955  2.9712 -2.4611  0.2372
  653SOL    HW2 2859   2.141   0.331   1.842 -0.4047 -0.7524 -0.3344
  654SOL     OW 2860   5.805   2.955   4.884 -0.0460 -0.3757 -0.1045
  654SOL    HW1 2861   5.787   3.034   4.943 -2.3446  0.0836 -1.3150
  654SOL    HW2 2862   5.757   2.875   4.921 -1.4667 -0.0961 -1.2440
  655SOL     OW 2863   5.711   4.663   3.701 -0.8196 -0.3853 -0.0527
  655SOL    HW1 2864   5.737   4.758   3.688 -1.0879  0.0187  2.0071
  655SOL    HW2 2865   5.741   4.632   3.792  0.4742 -2.7081 -1.1755
  656SOL     OW 2866   5.471   3.400   5.856  0.4681 -0.1143 -0.6754
  656SOL    HW1 2867   5.400   3.366   5.794  1.0165  0.5387 -1.6906
  656SOL    HW2 2868   5.510   3.484   5.819 -0.4361  1.3250  1.4718
  657SOL     OW 2869   6.726   3.475   5.969  0.2742  0.5874  0.5555
  657SOL    HW1 2870   6.744   3.550   6.033 -1.0841  0.3965  1.1999
  657SOL    HW2 2871   6.734   3.388   6.016  0.0145  0.4121  0.2802
  658SOL     OW 2872   2.368   0.320   4.640  0.3401  0.0887 -0.0069
  658SOL    HW1 2873   2.451   0.368   4.665  0.4320  0.2847 -0.6555
  658SOL    HW2 2874   2.290   0.358   4.691  0.8461 -1.0619  1.6804
  659SOL     OW 2875   3.908   1.870   0.095  0.5471  0.9782 -0.0301
  659SOL    HW1 2876   3.820   1.886   0.141 -0.1100 -1.0458 -0.5107
  659SOL    HW2 2877   3.896   1.879  -0.003  0.1303 -2.1237 -0.3434
  660SOL     OW 2878   1.708   1.341   3.461 -0.2192 -0.1206 -0.5716
  660SOL    HW1 2879   1.723   1.336   3.559  0.5065  0.0725 -0.6674
  660SOL    HW2 2880   1.611   1.327   3.441 -0.9755  2.9034  0.4271
  661SOL     OW 2881   4.561   6.271   1.103 -0.3574 -0.8104  0.5700
  661SOL    HW1 2882   4.620   6.331   1.048 -0.2202 -1.8099 -0.4178
  661SOL    HW2 2883   4.521   6.323   1.178  1.7199 -0.0697  1.2292
  662SOL     OW 2884   0.981   5.358   5.539 -0.9140 -0.2930 -0.7264
  662SOL    HW1 2885   1.074   5.333   5.568 -0.6276  1.7580  0.3087
  662SOL    HW2 2886   0.985   5.443   5.488 -2.2207 -0.2924 -0.8408
  663SOL     OW 2887   2.938   5.479   2.248 -0.1249  0.2892  0.1083
  663SOL    HW1 2888   2.856   5.531   2.272  0.5042  1.2729  0.1673
  663SOL    HW2 2889   2.944   5.472   2.148  0.2220  1.0622  0.0662
  664SOL     OW 2890   5.339   6.362   5.098  0.4399  0.2165  0.4949
  664SOL    HW1 2891   5.289   6.436   5.143 -1.4364  0.2316 -1.4500
  664SOL    HW2 2892   5.286   6.277   5.106  1.6958 -0.5222  1.1536
  665SOL     OW 2893   0.182   1.008   4.018  0.2304  0.1078 -0.1923
  665SOL    HW1 2894   0.197   0.977   4.112  0.1687 -0.3215 -0.3226
  665SOL    HW2 2895   0.163   1.106   4.018  1.3417  0.3426  0.1418
  666SOL     OW 2896   3.104   0.898   3.526 -0.7991 -0.3277 -0.1317
  666SOL    HW1 2897   3.021   0.866   3.480 -0.2976 -0.7438 -0.7566
  666SOL    HW2 2898   3.177   0.830   3.515  0.3421  1.0811 -1.6214
  667SOL     OW 2899   6.655   0.700   1.009 -0.6303 -0.1398  0.0966
  667SOL    HW1 2900   6.673   0.609   1.047 -2.1937 -0.0421  1.1848
  667SOL    HW2 2901   6.615   0.758   1.079 -1.9591  0.6161 -1.2241
  668SOL     OW 2902   5.752   4.602   3.404 -0.1930  0.0936 -0.4474
  668SOL    HW1 2903   5.661   4.636   3.429  0.0816 -1.3890  3.2393
  668SOL    HW2 2904   5.763   4.509   3.440  1.8494 -0.9108 -3.3157
  669SOL     OW 2905   3.588   6.029   5.074 -0.1903  0.1738  0.0379
  669SOL    HW1 2906   3.614   5.941   5.114  0.4680  0.4141  0.1530
  669SOL    HW2 2907   3.621   6.034   4.980 -3.1488 -1.0594 -1.1706
  670SOL     OW 2908   4.318   3.334   5.644  0.1303  0.5371  0.1041
  670SOL    HW1 2909   4.380   3.363   5.571  1.2028  0.1051  0.8105
  670SOL    HW2 2910   4.360   3.354   5.733 -0.5181 -0.2369  0.5951
  671SOL     OW 2911   0.976   2.686   2.113 -0.0865 -0.4841  0.3961
  671SOL    HW1 2912   0.961   2.785   2.104 -0.2559 -0.5718 -0.3821
  671SOL    HW2 2913   1.043   2.669   2.186 -1.8566  0.0579  2.2492
  672SOL     OW 2914   6.697   2.238   6.175 -0.0876  0.1117 -0.7744
  672SOL    HW1 2915   6.763   2.283   6.115 -1.3990  2.8421 -0.3717
  672SOL    HW2 2916   6.707   2.273   6.268 -1.8391  0.3789 -0.6417
  673SOL     OW 2917   1.959   3.136   3.129  0.3444 -0.4579  0.2825
  673SOL    HW1 2918   1.964   3.232   3.104  0.1052 -0.0593  1.6838
  673SOL    HW2 2919   1.875   3.096   3.091  0.1374  0.0428  0.2061
  674SOL     OW 2920   0.640   2.386   4.645  0.2533  0.8055  0.3615
  674SOL    HW1 2921   0.717   2.448   4.661  1.6375 -0.6034 -0.4774
  674SOL    HW2 2922   0.577   2.390   4.722  2.5153  0.1313  2.3917
  675SOL     OW 2923   4.039   4.842   4.354 -0.2727  0.4021  0.5252
  675SOL    HW1 2924   4.051   4.745   4.332 -1.1897 -0.1930  2.3926
  675SOL    HW2 2925   4.052   4.897   4.272  3.1410 -1.0261 -0.0515
  676SOL     OW 2926   6.433   2.423   6.791  0.0875 -0.2391  0.3919
  676SOL    HW1 2927   6.462   2.435   6.886  0.0353 -1.6579  0.6122
  676SOL    HW2 2928   6.488   2.351   6.749  0.9998  1.2408 -1.0762
  677SOL     OW 2929   5.838   4.175   4.665  0.1742  0.1229 -0.2910
  677SOL    HW1 2930   5.744   4.140   4.657  0.2163 -0.0571 -0.0035
  677SOL    HW2 2931   5.842   4.245   4.735  0.6367 -1.2608  1.1261
  678SOL     OW 2932   0.516   4.618   3.241  0.1240 -0.3154 -0.1137
  678SOL    HW1 2933   0.531   4.662   3.330 -1.2754  1.6095 -0.7618
  678SOL    HW2 2934   0.433   4.562   3.245 -0.3746  0.3952 -0.4087
  679SOL     OW 2935   2.154   3.705   0.067  0.2877  0.2324  0.5574
  679SOL    HW1 2936   2.245   3.710   0.109  0.6548  2.6311 -0.3668
  679SOL    HW2 2937   2.133   3.792   0.024 -2.3261 -0.4066  0.4077
  680SOL     OW 2938   3.442   5.676   2.052 -0.0855 -0.3631 -0.1261
  680SOL    HW1 2939   3.449   5.579   2.076 -1.0392  0.0309  1.9377
  680SOL    HW2 2940   3.351   5.696   2.016 -0.2785 -0.0379  0.5236
  681SOL     OW 2941   1.825   3.170   5.354 -0.4458  0.1146  0.3429
  681SOL    HW1 2942   1.890   3.112   5.402 -1.3866 -1.8351 -0.6234
  681SOL    HW2 2943   1.865   3.260   5.338  1.8737 -0.9052  0.0796
  682SOL     OW 2944   6.814   1.565   0.854 -0.3418  0.3328  0.2810
  682SOL    HW1 2945   6.865   1.498   0.799 -1.5122  1.8655 -2.9069
  682SOL    HW2 2946   6.879   1.622   0.905  0.7596 -1.5988  1.1899
  683SOL     OW 2947   5.915   5.308   3.980  0.4019 -0.4818 -0.6409
  683SOL    HW1 2948   5.921   5.353   4.069 -2.4499 -0.7023 -0.2653
  683SOL    HW2 2949   5.968   5.223   3.983  0.6555 -0.2990  0.7074
  684SOL     OW 2950   2.185   5.547   1.932 -0.4274 -0.0000  0.0095
  684SOL    HW1 2951   2.194   5.489   2.013 -0.5818  0.1538  0.1366
  684SOL    HW2 2952   2.112   5.613   1.946 -1.9400 -1.3773 -1.0952
  685SOL     OW 2953   1.891   2.622   3.006  0.1290 -0.3989 -0.0464
  685SOL    HW1 2954   1.929   2.533   2.983 -1.5791 -1.2233  0.1015
  685SOL    HW2 2955   1.964   2.686   3.030  1.3664 -1.8468  0.1345
  686SOL     OW 2956   0.907   4.811   4.295 -0.0098 -0.5926  0.4268
  686SOL    HW1 2957   0.847   4.816   4.375 -0.2044 -0.5191  0.2774
  686SOL    HW2 2958   0.911   4.716   4.263  2.4129 -1.2239  2.2947
  687SOL     OW 2959   6.807   5.946   4.052  0.0676  0.4166  0.0228
  687SOL    HW1 2960   6.712   5.971   4.036 -0.4817 -2.3018 -1.5730
  687SOL    HW2 2961   6.862   5.967   3.971  0.2332 -0.5083 -0.1198
  688SOL     OW 2962   6.741   3.659   6.199 -0.1509  0.2306  0.3823
  688SOL    HW1 2963   6.836   3.663   6.230  0.1324  1.7533 -0.5453
  688SOL    HW2 2964   6.689   3.733   6.242 -0.7365 -0.1442  0.3214
  689SOL     OW 2965   4.775   1.164   3.179  0.2395  0.4719 -0.1722
  689SOL    HW1 2966   4.824   1.134   3.260 -0.0709 -0.4577 -0.3204
  689SOL    HW2 2967   4.824   1.133   3.097 -1.0468 -1.2971 -0.3274
  690SOL     OW 2968   5.484   2.131   4.105 -0.2783 -0.5679  0.1933
  690SOL    HW1 2969   5.495   2.227   4.133 -1.0358 -0.3234 -0.3065
  690SOL    HW2 2970   5.504   2.122   4.008  1.3031 -1.2191  0.5440
  691SOL     OW 2971   4.579   6.812   4.046 -0.2673  0.5192 -0.4805
  691SOL    HW1 2972   4.615   6.884   4.105  0.6081 -0.4274  0.1937
  691SOL    HW2 2973   4.655   6.765   4.001 -0.5624 -1.5513  0.9981
  692SOL     OW 2974   2.665   0.762   4.912  0.3374  0.3448  0.8249
  692SOL    HW1 2975   2.615   0.798   4.833 -1.2711 -0.9505  1.2019
  692SOL    HW2 2976   2.666   0.662   4.908  0.8555  0.2812  2.0952
  693SOL     OW 2977   4.864   1.023   2.007 -0.4666 -0.1802  0.5595
  693SOL    HW1 2978   4.873   0.952   1.938 -0.4431  0.7013 -0.3672
  693SOL    HW2 2979   4.789   1.000   2.070 -1.4954 -0.2721 -0.6584
  694SOL     OW 2980   4.424   1.612   3.383 -0.4510 -0.5310 -0.5405
  694SOL    HW1 2981   4.522   1.613   3.403 -0.6776 -2.3479  0.9500
  694SOL    HW2 2982   4.395   1.702   3.351  1.6213  0.1494 -0.6055
  695SOL     OW 2983   2.016   4.678   4.707  0.1757 -0.3321 -0.3587
  695SOL    HW1 2984   1.986   4.767   4.740  1.7194 -0.6998  2.3989
  695SOL    HW2 2985   1.938   4.615   4.705 -0.3624  0.2545  0.8770
  696SOL     OW 2986   5.802   2.201   3.763 -0.4761 -0.8985 -0.4482
  696SOL    HW1 2987   5.849   2.285   3.735 -0.7867 -0.5059  0.1811
  696SOL    HW2 2988   5.732   2.178   3.696  1.5213 -2.3012 -2.1955
  697SOL     OW 2989   2.941   5.633   3.192  0.0038 -0.6192 -0.3466
  697SOL    HW1 2990   2.865   5.664   3.248 -0.9840 -0.5473 -1.6663
  697SOL    HW2 2991   2.911   5.556   3.135  0.7810 -0.2921 -1.2199
  698SOL     OW 2992   4.228   6.331   0.268  0.0002  0.3413  0.1298
  698SOL    HW1 2993   4.279   6.394   0.327  0.3412 -0.8404  1.1383
  698SOL    HW2 2994   4.240   6.237   0.301 -1.4787 -0.1393 -0.6182
  699SOL     OW 2995   3.725   1.286   6.706 -1.1627  0.6284 -0.1401
  699SOL    HW1 2996   3.715   1.385   6.709 -1.7111  0.5559  1.0196
  699SOL    HW2 2997   3.748   1.258   6.613  0.0646  1.9242 -0.2721
  700SOL     OW 2998   4.446   2.135   1.708  0.6172 -0.1053 -0.1393
  700SOL    HW1 2999   4.366   2.076   1.721  0.5155 -0.3439 -1.6758
  700SOL    HW2 3000   4.448   2.203   1.781 -0.8417 -0.2603  0.0922
  701SOL     OW 3001   6.663   6.385   1.526 -0.0232  0.1265 -0.1079
  701SOL    HW1 3002   6.755   6.369   1.561  0.0425  1.4242  0.3473
  701SOL    HW2 3003   6.662   6.375   1.427  0.6629  0.3814 -0.1410
  702SOL     OW 3004   2.080   6.611   4.755 -0.6012 -0.1282 -0.2943
  702SOL    HW1 3005   2.014   6.565   4.696 -0.1880 -1.4398  0.2180
  702SOL    HW2 3006   2.084   6.563   4.843  0.7846  0.1313 -0.1999
  703SOL     OW 3007   3.152   5.478   5.177  0.1599  0.2571 -0.2350
  703SOL    HW1 3008   3.168   5.481   5.078 -2.3300  0.8567 -0.6782
  703SOL    HW2 3009   3.136   5.383   5.205 -2.8868  0.3916 -1.1685
  704SOL     OW 3010   5.546   5.118   4.166  0.4585  0.4674  0.6306
  704SOL    HW1 3011   5.594   5.079   4.087 -0.8837 -2.0929  0.9727
  704SOL    HW2 3012   5.494   5.198   4.136 -1.0635 -1.1805 -1.4560
  705SOL     OW 3013   6.626   1.058   2.096  0.2388 -0.3373 -0.4740
  705SOL    HW1 3014   6.586   1.002   2.023  0.4204 -0.5445 -0.4140
  705SOL    HW2 3015   6.725   1.042   2.101  0.2457 -0.2370 -0.2606
  706SOL     OW 3016   6.026   5.222   3.543  0.3791 -0.3300  0.1602
  706SOL    HW1 3017   6.099   5.185   3.602  1.3544  0.2812 -0.6446
  706SOL    HW2 3018   6.052   5.312   3.510 -0.9022  0.0362  0.1146
  707SOL     OW 3019   2.062   1.001   0.587 -0.0023  0.1127 -0.5414
  707SOL    HW1 3020   2.144   0.967   0.634  0.0402 -0.9854 -1.3697
  707SOL    HW2 3021   2.074   1.098   0.565  1.3040 -0.1489 -1.0810
  708SOL     OW 3022   3.309   1.641   4.773 -0.3794 -0.3672  0.2561
  708SOL    HW1 3023   3.382   1.700   4.807  0.8383 -1.3599 -0.5906
  708SOL    HW2 3024   3.263   1.597   4.851 -0.4902  0.7006  0.8208
  709SOL     OW 3025   6.140   2.966   0.137 -0.6499  0.3970 -0.5441
  709SOL    HW1 3026   6.127   2.883   0.083 -1.3281  0.8060 -1.0367
  709SOL    HW2 3027   6.050   3.002   0.164 -0.3499  0.7683 -0.0244
  710SOL     OW 3028   6.338   4.705   5.327  0.8127 -0.1547 -0.2345
  710SOL    HW1 3029   6.432   4.736   5.341  1.3847 -1.3103 -1.2741
  710SOL    HW2 3030   6.339   4.609   5.299 -0.7336 -0.3835  0.4299
  711SOL     OW 3031   6.128   4.051   3.024  0.0815 -0.2201  0.3002
  711SOL    HW1 3032   6.070   4.119   3.069 -0.4655 -1.1906  1.0903
  711SOL    HW2 3033   6.180   4.095   2.951 -0.4111  1.0032  0.6641
  712SOL     OW 3034   5.195   5.683   2.819 -0.3462  0.1539  0.2268
  712SOL    HW1 3035   5.167   5.777   2.800  0.8542  0.4579 -0.1032
  712SOL    HW2 3036   5.228   5.676   2.913 -0.5392  0.0284  0.2874
  713SOL     OW 3037   5.026   0.156   1.427 -0.2597 -0.4687 -0.2043
  713SOL    HW1 3038   5.113   0.121   1.393 -0.4286 -0.6662 -0.4377
  713SOL    HW2 3039   5.033   0.174   1.525  0.3541  0.4861 -0.4044
  714SOL     OW 3040   4.440   1.365   0.062 -0.1661  0.1175 -0.2048
  714SOL    HW1 3041   4.448   1.451   0.111 -1.6719  0.9180 -1.2780
  714SOL    HW2 3042   4.385   1.301   0.116  0.9303 -0.1923  0.5786
  715SOL     OW 3043   2.347   5.696   1.366  0.0213 -1.1449 -0.1059
  715SOL    HW1 3044   2.273   5.647   1.413 -1.3634  0.9466  0.0280
  715SOL    HW2 3045   2.359   5.658   1.274  0.2681 -2.8789  0.5879
  716SOL     OW 3046   1.397   2.557   4.295  0.2516  0.0213 -0.6975
  716SOL    HW1 3047   1.369   2.652   4.303 -0.3455 -0.1383 -0.8736
  716SOL    HW2 3048   1.336   2.499   4.348 -0.6155 -0.4758 -2.1804
  717SOL     OW 3049   0.664   1.719   0.470  0.0990  0.2098 -0.0475
  717SOL    HW1 3050   0.645   1.812   0.440  1.0911  0.2132 -0.6948
  717SOL    HW2 3051   0.591   1.658   0.438  0.5523  0.4040 -1.5080
  718SOL     OW 3052   0.683   6.897   6.629  0.3152 -0.1305 -0.3066
  718SOL    HW1 3053   0.715   6.876   6.721 -0.0958 -3.5461 -0.8282
  718SOL    HW2 3054   0.584   6.884   6.624  0.4286 -0.7085 -1.3844
  719SOL     OW 3055   0.187   0.035   5.151  0.2620 -0.0783 -0.5093
  719SOL    HW1 3056   0.145   0.123   5.128 -1.6758 -0.7133  0.3642
  719SOL    HW2 3057   0.234   0.042   5.239  0.2041  0.1205 -0.4939
  720SOL     OW 3058   1.824   6.017   1.314 -0.4001 -0.3619  0.4430
  720SOL    HW1 3059   1.897   5.950   1.318  1.1446  1.2307  0.2305
  720SOL    HW2 3060   1.740   5.978   1.352  0.5411 -2.2222  0.7212
  721SOL     OW 3061   4.472   1.965   2.666  0.0096  0.4483  0.0654
  721SOL    HW1 3062   4.382   1.942   2.630  0.4732 -0.2777 -0.6511
  721SOL    HW2 3063   4.532   1.991   2.592  0.9632 -1.0229  0.2696
  722SOL     OW 3064   2.184   4.925   4.026  0.1031  0.2054 -0.1403
  722SOL    HW1 3065   2.250   4.850   4.030  0.5048  0.5472 -0.3198
  722SOL    HW2 3066   2.223   5.006   4.070 -0.7595 -0.0075  1.0841
  723SOL     OW 3067   4.286   6.204   6.894  0.0458 -0.1479  0.5237
  723SOL    HW1 3068   4.193   6.236   6.878 -0.8915 -2.1996  1.5640
  723SOL    HW2 3069   4.320   6.158   6.811 -0.5065 -0.8392  0.6731
  724SOL     OW 3070   1.709   4.798   6.406  0.4586  0.0030  0.3603
  724SOL    HW1 3071   1.700   4.729   6.335 -2.8789  2.0776 -1.4956
  724SOL    HW2 3072   1.651   4.773   6.484  0.6872 -0.1362  0.4888
  725SOL     OW 3073   2.283   0.450   1.213  0.4193 -0.3652 -0.5869
  725SOL    HW1 3074   2.339   0.425   1.135 -1.5216  0.6984 -2.4217
  725SOL    HW2 3075   2.307   0.542   1.244  1.6558 -1.0440  0.5773
  726SOL     OW 3076   0.885   3.098   3.768 -0.5736 -0.0516 -0.2812
  726SOL    HW1 3077   0.808   3.043   3.801 -1.2190  0.0065 -1.5846
  726SOL    HW2 3078   0.956   3.037   3.733  0.0175 -0.1072  0.9796
  727SOL     OW 3079   5.478   1.246   1.428  0.0807 -0.8900  0.5166
  727SOL    HW1 3080   5.454   1.200   1.514  0.4824 -0.3919  0.9020
  727SOL    HW2 3081   5.440   1.339   1.429 -0.8370 -1.2369 -0.3131
  728SOL     OW 3082   0.742   5.379   5.650  0.1992 -0.1288  0.0558
  728SOL    HW1 3083   0.819   5.361   5.589 -0.4185 -0.1520 -0.7399
  728SOL    HW2 3084   0.758   5.463   5.701  0.2562  0.4590 -0.9189
  729SOL     OW 3085   6.741   6.770   4.634 -0.1506  0.0403  0.0653
  729SOL    HW1 3086   6.772   6.853   4.679  0.0726 -0.3022  0.5540
  729SOL    HW2 3087   6.688   6.793   4.553  1.3887  0.6405 -0.7991
  730SOL     OW 3088   6.287   1.448   5.304 -0.3049 -0.4180 -0.5990
  730SOL    HW1 3089   6.227   1.516   5.347 -0.3558 -1.1214  0.4637
  730SOL    HW2 3090   6.378   1.453   5.346  0.4062  0.6020 -2.1582
  731SOL     OW 3091   5.520   1.149   4.664  0.1765 -0.0105  0.6078
  731SOL    HW1 3092   5.597   1.170   4.604 -1.3282  1.0136 -1.0934
  731SOL    HW2 3093   5.532   1.196   4.751  0.4620  1.9799 -0.4355
  732SOL     OW 3094   2.315   2.850   4.367  0.1578  0.0758 -0.2076
  732SOL    HW1 3095   2.256   2.771   4.350  1.0123 -0.0501 -3.0755
  732SOL    HW2 3096   2.377   2.830   4.442 -0.8643 -1.2584  0.3224
  733SOL     OW 3097   4.644   5.794   5.355  0.5615 -0.0114  0.3995
  733SOL    HW1 3098   4.575   5.856   5.391 -1.9783 -0.7660 -2.7272
  733SOL    HW2 3099   4.636   5.705   5.399 -0.0735  0.0795  0.4678
  734SOL     OW 3100   5.895   3.866   6.907  0.3209  0.1414 -0.1972
  734SOL    HW1 3101   5.932   3.895   6.819  1.6511 -0.0166  0.2904
  734SOL    HW2 3102   5.970   3.850   6.972 -0.6178  0.1276  0.9298
  735SOL     OW 3103   4.970   0.789   5.370  0.2900  0.2183  0.1935
  735SOL    HW1 3104   4.912   0.857   5.324  0.8245 -0.4492 -1.5401
  735SOL    HW2 3105   4.977   0.812   5.467 -2.9600  0.2556  0.5315
  736SOL     OW 3106   5.301   1.491   4.565 -0.3855 -0.5301 -0.6976
  736SOL    HW1 3107   5.214   1.532   4.537 -0.0241  0.3721 -0.5318
  736SOL    HW2 3108   5.291   1.452   4.656  0.4571  3.3822  1.2787
  737SOL     OW 3109   4.430   0.292   0.618 -0.1874 -0.3386  0.5168
  737SOL    HW1 3110   4.464   0.384   0.602 -0.0168 -0.5112 -0.1383
  737SOL    HW2 3111   4.332   0.296   0.639 -0.7309 -0.1795 -1.8265
  738SOL     OW 3112   1.030   0.070   6.436 -0.2254  0.2109  0.0948
  738SOL    HW1 3113   0.983   0.110   6.357  2.9597  1.5056 -1.3503
  738SOL    HW2 3114   1.006   0.121   6.518 -0.5775  1.4560 -0.7520
  739SOL     OW 3115   4.791   3.488   6.802  0.6687 -0.1454 -0.0012
  739SOL    HW1 3116   4.726   3.412   6.802 -0.2739  0.6428  1.0523
  739SOL    HW2 3117   4.876   3.458   6.757 -0.3253 -1.2447 -1.2537
  740SOL     OW 3118   1.209   3.626   5.218 -0.0134  0.0517 -0.1765
  740SOL    HW1 3119   1.200   3.527   5.202  1.2489 -0.1750  0.4163
  740SOL    HW2 3120   1.137   3.657   5.280 -0.8864 -0.3418 -0.9786
  741SOL     OW 3121   0.141   5.296   6.530 -0.3268 -0.6043 -0.3193
  741SOL    HW1 3122   0.226   5.311   6.480 -0.3261 -0.6124 -0.3203
  741SOL    HW2 3123   0.107   5.204   6.511  0.3742 -1.0891  0.7450
  742SOL     OW 3124   6.092   5.872   1.768  0.0336 -0.0033 -0.5781
  742SOL    HW1 3125   6.033   5.858   1.688  1.2631 -0.5246 -1.4215
  742SOL    HW2 3126   6.177   5.916   1.740  0.9832 -1.2499  0.2426
  743SOL     OW 3127   1.982   6.930   4.432 -0.5681 -0.1255  0.2722
  743SOL    HW1 3128   1.895   6.880   4.430 -1.7283  1.8167 -0.2733
  743SOL    HW2 3129   2.026   6.922   4.342 -0.8679  0.0558  0.1097
  744SOL     OW 3130   3.746   4.288   5.351  0.1089 -0.2003  0.5857
  744SOL    HW1 3131   3.842   4.302   5.375  0.5663 -1.2803 -0.4806
  744SOL    HW2 3132   3.699   4.376   5.348  1.7122  0.6892 -1.4284
  745SOL     OW 3133   3.176   1.993   6.666 -0.1008 -0.3515  0.5167
  745SOL    HW1 3134   3.129   1.962   6.583  1.0655  0.5546 -0.5230
  745SOL    HW2 3135   3.110   2.004   6.740 -1.5144  0.7812 -0.8510
  746SOL     OW 3136   4.805   6.433   0.501 -0.2810 -0.2768 -0.0286
  746SOL    HW1 3137   4.896   6.412   0.465  0.1347 -0.2178  0.9723
  746SOL    HW2 3138   4.758   6.495   0.438  0.1611 -0.7207 -0.8092
  747SOL     OW 3139   5.747   1.356   6.905  0.0610 -0.0669 -0.7305
  747SOL    HW1 3140   5.658   1.320   6.878  0.0118 -0.8819  0.4495
  747SOL    HW2 3141   5.799   1.382   6.824 -0.9837 -0.2109 -1.4593
  748SOL     OW 3142   3.779   6.568   1.563 -0.0995 -0.0100  0.8560
  748SOL    HW1 3143   3.789   6.627   1.483  1.1390 -1.8195 -0.4151
  748SOL    HW2 3144   3.723   6.614   1.632  0.1187  2.2608 -0.3817
  749SOL     OW 3145   0.223   2.944   5.197  0.1329 -0.1119  0.3775
  749SOL    HW1 3146   0.138   2.908   5.157  0.5261 -1.4617  0.6940
  749SOL    HW2 3147   0.271   2.870   5.246  1.0585  0.8349  0.9479
  750SOL     OW 3148   4.814   1.256   5.334 -0.1169 -0.7610 -0.4786
  750SOL    HW1 3149   4.808   1.227   5.429 -1.3775 -0.0089 -0.3023
  750SOL    HW2 3150   4.826   1.355   5.329 -3.8984 -0.1724 -1.0264
  751SOL     OW 3151   5.939   0.647   5.084  0.6155 -0.3932 -0.7261
  751SOL    HW1 3152   5.985   0.573   5.133 -0.7716 -0.2680  0.8571
  751SOL    HW2 3153   5.854   0.612   5.044  0.6807  0.0143 -1.2268
  752SOL     OW 3154   1.224   0.238   1.179 -0.1914  0.3244  0.3796
  752SOL    HW1 3155   1.254   0.287   1.097 -2.7791  1.3810 -0.0391
  752SOL    HW2 3156   1.296   0.175   1.209  1.6197  1.3939 -1.4812
  753SOL     OW 3157   6.748   0.035   1.782  0.5941 -0.0866  0.1626
  753SOL    HW1 3158   6.693   0.005   1.860  1.2753  0.5718  0.9203
  753SOL    HW2 3159   6.821   0.095   1.815  0.0224  1.3770 -1.1367
  754SOL     OW 3160   0.325   4.082   2.638  0.0130 -0.4643 -0.1366
  754SOL    HW1 3161   0.403   4.033   2.675 -0.0962 -2.0501 -1.8863
  754SOL    HW2 3162   0.356   4.165   2.592  0.5392 -0.4877  0.1782
  755SOL     OW 3163   2.994   5.238   4.969 -0.1124 -0.1534 -0.3765
  755SOL    HW1 3164   3.029   5.312   4.911  0.6435 -0.7702 -0.7250
  755SOL    HW2 3165   2.927   5.275   5.034  3.1556  1.7433  2.2865
  756SOL     OW 3166   0.504   4.537   5.237  0.5959  0.1410  0.0934
  756SOL    HW1 3167   0.476   4.633   5.236 -0.2502 -0.0880 -1.9421
  756SOL    HW2 3168   0.603   4.532   5.249  0.6709  1.2761  0.0568
  757SOL     OW 3169   0.012   2.318   6.989 -0.0758  0.3243  0.5076
  757SOL    HW1 3170  -0.068   2.258   6.984  0.5543 -0.7971  2.6116
  757SOL    HW2 3171   0.080   2.289   6.922 -1.3520  1.3031 -1.3215
  758SOL     OW 3172   0.681   4.063   2.051 -0.2991 -0.2320 -0.3438
  758SOL    HW1 3173   0.636   4.071   2.140 -1.0451 -2.1963 -0.4889
  758SOL    HW2 3174   0.630   4.116   1.983  0.7279  1.9418  0.4940
  759SOL     OW 3175   6.046   4.418   0.611  0.5770 -0.1891 -0.4147
  759SOL    HW1 3176   5.996   4.332   0.623 -0.0003  0.4521  2.6374
  759SOL    HW2 3177   5.990   4.494   0.643  2.4185  0.8845  0.4220
  760SOL     OW 3178   1.964   4.703   1.254  0.5945  0.2565  0.7024
  760SOL    HW1 3179   2.025   4.624   1.269 -0.8220 -0.9737  0.2484
  760SOL    HW2 3180   1.869   4.672   1.255  0.0587  1.2796 -2.9262
  761SOL     OW 3181   3.661   6.889   2.468  0.7993  0.8434 -0.4117
  761SOL    HW1 3182   3.638   6.893   2.565  0.5201  0.9092 -0.4780
  761SOL    HW2 3183   3.597   6.948   2.417  0.5689  0.3457 -0.7018
  762SOL     OW 3184   4.622   2.028   6.133  0.1037  0.0221  0.0743
  762SOL    HW1 3185   4.634   2.123   6.162 -0.0905  0.5062 -1.3616
  762SOL    HW2 3186   4.612   2.024   6.034 -0.7533 -1.4295  0.1880
  763SOL     OW 3187   0.637   2.607   2.615  0.5294 -0.1493 -0.0353
  763SOL    HW1 3188   0.618   2.518   2.574  2.0194 -0.3975 -0.2664
  763SOL    HW2 3189   0.725   2.642   2.581  1.8869 -0.3739  2.8834
  764SOL     OW 3190   4.964   5.093   5.392 -0.3852 -0.0405 -0.1666
  764SOL    HW1 3191   4.885   5.155   5.394 -0.4948 -0.1552 -0.8322
  764SOL    HW2 3192   5.007   5.097   5.302 -0.2964 -0.8128 -0.1613
  765SOL     OW 3193   4.129   5.657   1.861  0.3323  0.0075 -0.7738
  765SOL    HW1 3194   4.041   5.612   1.845  0.7492 -0.0765 -3.1409
  765SOL    HW2 3195   4.133   5.687   1.956 -1.0555 -2.5548  0.2218
  766SOL     OW 3196   6.630   3.466   5.417 -0.1554  0.1440 -0.9148
  766SOL    HW1 3197   6.721   3.447   5.452 -0.5622 -0.4101 -0.1366
  766SOL    HW2 3198   6.636   3.494   5.321  1.0097  2.0156 -0.3486
  767SOL     OW 3199   3.102   6.304   5.448  0.0145  0.2372 -0.1661
  767SOL    HW1 3200   3.019   6.319   5.394  1.8302  1.4664 -2.8703
  767SOL    HW2 3201   3.147   6.220   5.417  0.8744  0.7306 -0.2996
  768SOL     OW 3202   0.706   0.694   4.765  0.4931 -0.0068  0.8187
  768SOL    HW1 3203   0.732   0.789   4.780  0.2713  0.8194 -2.9821
  768SOL    HW2 3204   0.763   0.655   4.693 -0.7006 -2.1518  0.9656
  769SOL     OW 3205   6.556   3.948   0.665  0.4908 -0.1427 -0.1279
  769SOL    HW1 3206   6.564   4.029   0.607  0.8144  1.1846  1.6722
  769SOL    HW2 3207   6.604   3.872   0.623  1.4986  1.0288 -1.1636
  770SOL     OW 3208   1.050   6.746   2.995 -0.0195 -0.7119 -0.1752
  770SOL    HW1 3209   1.080   6.694   3.075 -0.9455  0.9953  1.3270
  770SOL    HW2 3210   0.962   6.788   3.013  0.7065  1.4309 -1.2889
  771SOL     OW 3211   1.995   4.886   6.522 -0.8191  0.1023 -0.2890
  771SOL    HW1 3212   2.088   4.850   6.534 -0.5868  0.9305  0.4621
  771SOL    HW2 3213   1.929   4.812   6.536 -0.3372 -0.1224  0.9124
  772SOL     OW 3214   1.130   2.856   6.052 -0.0035 -0.0346 -0.4842
  772SOL    HW1 3215   1.073   2.916   5.995 -2.0588 -3.3427 -2.2442
  772SOL    HW2 3216   1.226   2.868   6.026 -0.4623  1.6073 -1.6053
  773SOL     OW 3217   6.006   1.323   1.410 -0.1684  0.9622  0.2115
  773SOL    HW1 3218   5.915   1.297   1.442  0.0879  0.3305  0.4295
  773SOL    HW2 3219   6.005   1.330   1.310 -0.2875  0.2678  0.1558
  774SOL     OW 3220   6.561   6.017   5.506  0.2195 -0.4816 -0.3612
  774SOL    HW1 3221   6.554   6.116   5.516  2.5446 -0.0231 -2.2760
  774SOL    HW2 3222   6.475   5.980   5.472 -0.8854  0.7526  0.9807
  775SOL     OW 3223   2.886   5.995   0.546 -0.2332 -0.6845 -0.0709
  775SOL    HW1 3224   2.866   5.897   0.543 -2.8956 -0.2070 -1.5588
  775SOL    HW2 3225   2.916   6.020   0.638 -2.3116 -2.4584  1.2007
  776SOL     OW 3226   4.471   5.860   6.931  0.5268  0.1852 -0.1826
  776SOL    HW1 3227   4.412   5.831   7.006  1.0847 -0.6107 -0.0391
  776SOL    HW2 3228   4.481   5.960   6.933  0.9220  0.1318  1.0968
  777SOL     OW 3229   2.986   3.243   1.492 -0.1547  0.1653  0.5969
  777SOL    HW1 3230   3.039   3.174   1.444 -0.3830 -1.2587  2.2943
  777SOL    HW2 3231   2.912   3.275   1.433  0.5427 -0.2834 -0.5701
  778SOL     OW 3232   2.779   1.880   4.219  0.2046  0.3500  0.4619
  778SOL    HW1 3233   2.840   1.807   4.250  0.4954  0.5191  0.2950
  778SOL    HW2 3234   2.692   1.875   4.269  0.1591 -0.2107  0.3379
  779SOL     OW 3235   1.106   0.625   5.109 -0.0155  0.6412 -0.3577
  779SOL    HW1 3236   1.017   0.670   5.105  0.2180  1.1537  0.1232
  779SOL    HW2 3237   1.165   0.672   5.175  0.6643  0.4027 -0.7802
  780SOL     OW 3238   2.735   1.576   3.366 -0.1567  0.1792 -0.0947
  780SOL    HW1 3239   2.785   1.662   3.372  1.0754 -0.5104 -0.3098
  780SOL    HW2 3240   2.771   1.521   3.291 -1.1211 -0.4154 -0.1408
  781SOL     OW 3241   4.308   1.439   2.839 -0.3882 -0.2327  0.3965
  781SOL    HW1 3242   4.386   1.377   2.830 -0.1988  0.0382  0.1394
  781SOL    HW2 3243   4.338   1.523   2.884 -0.3069  0.2570 -0.5421
  782SOL     OW 3244   1.330   6.473   6.179  0.4491  0.0161 -0.4853
  782SOL    HW1 3245   1.238   6.501   6.207  0.4439 -0.0579 -0.4272
  782SOL    HW2 3246   1.324   6.385   6.131  0.5568 -0.2904  0.0486
  783SOL     OW 3247   6.813   1.597   6.450  0.0015 -0.0125 -0.1276
  783SOL    HW1 3248   6.833   1.661   6.375 -2.1023  0.3404 -0.4434
  783SOL    HW2 3249   6.782   1.510   6.411 -3.1239  0.8273  0.2166
  784SOL     OW 3250   6.000   4.739   3.933 -0.4070 -0.0273  0.0201
  784SOL    HW1 3251   6.026   4.700   3.845 -0.5240 -3.0575  1.2000
  784SOL    HW2 3252   6.056   4.819   3.952  0.5163 -0.0850 -2.2066
  785SOL     OW 3253   6.642   1.061   3.785  0.0149  0.0807 -0.2532
  785SOL    HW1 3254   6.732   1.106   3.787 -0.0362  0.1874  1.7556
  785SOL    HW2 3255   6.593   1.090   3.703  1.6567  0.3067 -1.2134
  786SOL     OW 3256   2.256   2.963   4.786  0.1263 -0.4329 -0.2316
  786SOL    HW1 3257   2.309   2.963   4.871 -2.0202  0.8463  1.2260
  786SOL    HW2 3258   2.260   2.873   4.743 -0.3627 -1.7638  2.3425
  787SOL     OW 3259   3.903   0.803   2.549 -0.7766  0.7774  0.0047
  787SOL    HW1 3260   3.995   0.836   2.569 -1.0406  1.2711  0.4170
  787SOL    HW2 3261   3.853   0.788   2.634 -0.2405 -1.9644 -0.0880
  788SOL     OW 3262   5.608   5.464   3.450  0.0514 -0.6296  0.6085
  788SOL    HW1 3263   5.536   5.503   3.393  2.2782  1.8557 -0.7146
  788SOL    HW2 3264   5.631   5.529   3.523  0.2833 -1.8414  1.6546
  789SOL     OW 3265   2.752   2.026   5.337  0.4125  1.0001 -0.0776
  789SOL    HW1 3266   2.799   2.073   5.412  0.8244  0.5310 -0.0317
  789SOL    HW2 3267   2.802   1.942   5.315 -0.5580  0.3574  0.1340
  790SOL     OW 3268   4.178   4.812   2.324  0.3518  0.0825  0.1406
  790SOL    HW1 3269   4.125   4.801   2.408  0.4188  0.8834  0.2972
  790SOL    HW2 3270   4.225   4.727   2.302 -0.1403 -0.3070  0.5919
  791SOL     OW 3271   5.495   4.865   6.312 -0.5462  0.6233 -0.1499
  791SOL    HW1 3272   5.411   4.812   6.322 -0.1380 -0.2369 -1.1510
  791SOL    HW2 3273   5.545   4.863   6.399 -1.0164  0.2015  0.1200
  792SOL     OW 3274   3.721   4.602   0.696  0.2038  0.2950  0.1977
  792SOL    HW1 3275   3.816   4.576   0.708  0.6768  1.8064 -0.0205
  792SOL    HW2 3276   3.694   4.587   0.600 -0.0299 -0.8469  0.4277
  793SOL     OW 3277   2.473   6.597   3.013  0.5244 -0.0268  0.7551
  793SOL    HW1 3278   2.537   6.562   2.944  0.2250  1.8699 -0.5686
  793SOL    HW2 3279   2.516   6.672   3.063 -0.2328  0.4841  0.6567
  794SOL     OW 3280   5.116   5.154   5.164  0.3009  0.2371  0.6771
  794SOL    HW1 3281   5.143   5.238   5.116 -1.0747  0.8337  0.9180
  794SOL    HW2 3282   5.198   5.109   5.199  1.2514  0.3403 -1.2855
  795SOL     OW 3283   6.107   0.337   6.582  0.0289 -0.0952  0.1097
  795SOL    HW1 3284   6.193   0.387   6.588  0.4114 -0.7460  0.1839
  795SOL    HW2 3285   6.035   0.398   6.548  0.0313  1.0079  1.9721
  796SOL     OW 3286   2.954   5.625   6.869  0.1100 -0.0437 -0.2702
  796SOL    HW1 3287   3.014   5.546   6.852 -0.2931 -0.3193 -0.4302
  796SOL    HW2 3288   2.897   5.641   6.789  0.1005  0.3329 -0.1857
  797SOL     OW 3289   0.265   1.149   1.082 -0.2801  0.2074  0.8960
  797SOL    HW1 3290   0.204   1.194   1.147  1.1985  2.2202  0.9602
  797SOL    HW2 3291   0.256   1.050   1.092 -2.4082  0.4318  1.9216
  798SOL     OW 3292   4.656   0.871   3.251  0.4600 -0.2339 -0.6038
  798SOL    HW1 3293   4.727   0.931   3.214 -0.5089  1.1893 -0.2189
  798SOL    HW2 3294   4.569   0.919   3.255 -1.3495 -2.8079 -3.8611
  799SOL     OW 3295   5.123   6.204   3.892 -0.0477 -0.4900  0.1867
  799SOL    HW1 3296   5.058   6.277   3.915  1.3859  0.0896  2.7938
  799SOL    HW2 3297   5.097   6.120   3.941 -0.2121 -1.0033 -0.7522
  800SOL     OW 3298   6.306   4.419   5.305 -0.2705 -0.0408 -0.0648
  800SOL    HW1 3299   6.309   4.460   5.395 -1.3323 -0.5902  0.2477
  800SOL    HW2 3300   6.340   4.325   5.310 -1.9805 -0.6836  0.1608
  801SOL     OW 3301   4.886   3.628   3.767 -0.0615 -0.0321 -0.1807
  801SOL    HW1 3302   4.871   3.708   3.825 -0.9874  0.3581 -0.9356
  801SOL    HW2 3303   4.814   3.560   3.784  1.1699 -1.1068  1.0614
  802SOL     OW 3304   6.224   4.152   1.157  0.3913  0.0518 -0.1783
  802SOL    HW1 3305   6.228   4.113   1.065 -0.3255 -0.8715  0.1654
  802SOL    HW2 3306   6.313   4.140   1.202  0.9346  1.0672 -0.9599
  803SOL     OW 3307   3.545   6.838   0.733  0.0503  0.0257 -0.6146
  803SOL    HW1 3308   3.567   6.926   0.691 -1.0968  0.5858 -0.0734
  803SOL    HW2 3309   3.497   6.780   0.667  0.9660 -0.2824 -1.0290
  804SOL     OW 3310   6.770   4.861   4.768 -0.2833  0.6855  0.0926
  804SOL    HW1 3311   6.694   4.910   4.812 -0.8220 -0.5283  0.5755
  804SOL    HW2 3312   6.734   4.797   4.701  0.4734  1.6084 -1.2476
  805SOL     OW 3313   6.233   2.007   0.972 -0.4286 -0.0243 -0.2259
  805SOL    HW1 3314   6.193   1.920   1.001 -0.5015 -0.1893 -0.8144
  805SOL    HW2 3315   6.238   2.010   0.872 -2.0228  1.3592 -0.3030
  806SOL     OW 3316   5.597   5.008   2.141  1.0827  0.5380 -0.1164
  806SOL    HW1 3317   5.528   5.068   2.181  0.9197  0.1856  0.1378
  806SOL    HW2 3318   5.560   4.915   2.132  2.0267 -0.0437  1.5262
  807SOL     OW 3319   2.261   3.956   1.883  0.8664 -0.3264 -0.0331
  807SOL    HW1 3320   2.279   4.050   1.856 -1.4785 -0.5955 -2.9346
  807SOL    HW2 3321   2.320   3.894   1.831  2.3284 -0.5631  1.7890
  808SOL     OW 3322   6.934   4.856   1.340 -0.3367 -0.2903  0.1697
  808SOL    HW1 3323   6.992   4.873   1.420 -0.8524 -0.2645  0.5411
  808SOL    HW2 3324   6.989   4.868   1.257  0.3541 -0.8844  0.5267
  809SOL     OW 3325   6.662   1.328   3.008  0.8398 -0.0395  0.1324
  809SOL    HW1 3326   6.611   1.382   3.075 -1.0542  1.7508 -2.5713
  809SOL    HW2 3327   6.736   1.384   2.970  2.3769 -1.2891  1.1724
  810SOL     OW 3328   2.569   5.491   3.084  0.8766  0.2830  0.0960
  810SOL    HW1 3329   2.656   5.458   3.048  1.3293  1.3319  0.2052
  810SOL    HW2 3330   2.524   5.548   3.016  0.9648  0.9327  0.5742
  811SOL     OW 3331   6.396   1.082   1.051  0.3539 -0.4043  0.3912
  811SOL    HW1 3332   6.308   1.067   1.097 -0.1896 -2.2591 -1.1455
  811SOL    HW2 3333   6.382   1.144   0.974  0.8455  0.9606  1.3574
  812SOL     OW 3334   2.220   2.179   4.135 -0.3929  0.3899 -0.1736
  812SOL    HW1 3335   2.306   2.169   4.185 -0.5497 -1.5263 -0.2405
  812SOL    HW2 3336   2.143   2.178   4.199 -0.4183  2.2597 -0.0967
  813SOL     OW 3337   6.331   2.947   0.854 -0.0734  0.1385 -0.6100
  813SOL    HW1 3338   6.343   2.899   0.767  1.8756 -0.3365 -0.1335
  813SOL    HW2 3339   6.400   3.019   0.863  0.0804 -0.1460  0.7433
  814SOL     OW 3340   2.173   6.097   2.901  0.0469 -0.2051 -0.1336
  814SOL    HW1 3341   2.124   6.033   2.843  1.5317 -0.6826 -0.9182
  814SOL    HW2 3342   2.242   6.048   2.955  1.8864  0.7870 -1.4753
  815SOL     OW 3343   6.330   0.795   2.832  0.3875 -0.8970  0.3990
  815SOL    HW1 3344   6.243   0.814   2.788 -0.1817 -0.5033  1.6351
  815SOL    HW2 3345   6.347   0.696   2.833 -0.3664 -1.0287  0.7249
  816SOL     OW 3346   4.144   6.958   2.046  0.0896 -0.2946 -0.5726
  816SOL    HW1 3347   4.093   7.040   2.073 -0.8213 -0.8069 -0.7239
  816SOL    HW2 3348   4.084   6.896   1.995  1.0574 -0.5738 -1.4132
  817SOL     OW 3349   0.497   5.129   2.805 -0.6888 -0.4570 -0.4056
  817SOL    HW1 3350   0.545   5.160   2.723 -0.4091  2.5476  0.7542
  817SOL    HW2 3351   0.400   5.149   2.797 -0.5755  0.4169  0.1728
  818SOL     OW 3352   6.579   0.189   3.095 -0.1292 -0.3083 -0.2115
  818SOL    HW1 3353   6.544   0.095   3.091 -0.7292 -0.1146  0.3919
  818SOL    HW2 3354   6.532   0.239   3.167 -1.3393  1.0884 -1.9081
  819SOL     OW 3355   4.350   4.646   1.895 -0.0455 -0.2064 -0.1428
  819SOL    HW1 3356   4.358   4.745   1.892  0.0139 -0.1890  0.5165
  819SOL    HW2 3357   4.421   4.609   1.955  0.8657 -0.7627 -1.4897
  820SOL     OW 3358   2.571   0.768   3.490 -0.7451  0.1043 -0.3106
  820SOL    HW1 3359   2.561   0.778   3.391 -2.0056  3.2524  0.0100
  820SOL    HW2 3360   2.533   0.849   3.536 -0.1239 -1.1955  2.7691
  821SOL     OW 3361   6.935   4.900   0.955  0.5459 -0.1510  0.0316
  821SOL    HW1 3362   6.962   4.880   0.861  1.2411 -0.8734  0.3727
  821SOL    HW2 3363   6.837   4.881   0.966  1.0916 -3.2964  0.2687
  822SOL     OW 3364   2.233   1.391   5.209  0.0347  0.0732  0.3153
  822SOL    HW1 3365   2.210   1.488   5.199 -0.0709  0.1779  1.4656
  822SOL    HW2 3366   2.313   1.370   5.152 -0.3781  0.6600 -0.4957
  823SOL     OW 3367   1.815   2.378   1.686 -0.0924 -0.2524  0.1753
  823SOL    HW1 3368   1.787   2.289   1.723 -1.7181  0.8884  1.8608
  823SOL    HW2 3369   1.915   2.381   1.679  0.0361 -1.9327  0.8184
  824SOL     OW 3370   2.791   1.977   0.727 -0.4233  0.1321  0.0685
  824SOL    HW1 3371   2.785   1.931   0.639  0.9624 -2.9489  1.4478
  824SOL    HW2 3372   2.873   2.035   0.730  0.6335 -1.3204 -0.0440
  825SOL     OW 3373   5.481   2.259   2.940 -0.7036  0.2027 -0.0893
  825SOL    HW1 3374   5.474   2.223   2.847 -0.3464  0.1039 -0.0787
  825SOL    HW2 3375   5.429   2.344   2.946  0.9201  1.3167 -0.9453
  826SOL     OW 3376   3.011   5.993   2.273  0.2840 -0.1362 -0.8787
  826SOL    HW1 3377   3.106   5.962   2.264  0.2881 -0.6442  0.6013
  826SOL    HW2 3378   3.007   6.072   2.335 -0.1084  0.8302 -2.1000
  827SOL     OW 3379   3.149   3.262   4.479  0.7640 -0.3310 -0.0953
  827SOL    HW1 3380   3.081   3.264   4.405  0.6643 -0.8078 -0.0207
  827SOL    HW2 3381   3.230   3.315   4.451  0.2967  0.3942 -0.1132
  828SOL     OW 3382   4.377   4.922   2.880 -0.3142  0.3972  0.1892
  828SOL    HW1 3383   4.325   4.984   2.937  1.9536  1.6870  0.9964
  828SOL    HW2 3384   4.466   4.903   2.923 -0.3757 -2.3799 -0.6808
  829SOL     OW 3385   4.239   4.342   5.592 -0.4348  0.0444  0.5570
  829SOL    HW1 3386   4.269   4.317   5.500 -0.5181  1.1231  0.2196
  829SOL    HW2 3387   4.139   4.339   5.597 -0.3827 -1.5276  1.0786
  830SOL     OW 3388   1.930   2.447   5.574  0.3246 -0.2644  0.2202
  830SOL    HW1 3389   1.998   2.425   5.505  1.0060 -2.2748  1.4609
  830SOL    HW2 3390   1.938   2.544   5.598  0.7603  0.2239 -1.7255
  831SOL     OW 3391   6.449   5.815   0.873 -0.0239  0.0222  1.1051
  831SOL    HW1 3392   6.357   5.776   0.883 -0.3581  0.7152  0.8691
  831SOL    HW2 3393   6.458   5.893   0.936  0.4671 -0.1583  1.2580
  832SOL     OW 3394   1.692   0.226   1.150 -0.4354  0.1141  0.2866
  832SOL    HW1 3395   1.717   0.322   1.163 -0.7864  0.2791 -0.1966
  832SOL    HW2 3396   1.732   0.192   1.065  0.9133 -0.6143  1.1805
  833SOL     OW 3397   3.401   4.671   0.722  0.6113 -0.4885  0.3690
  833SOL    HW1 3398   3.377   4.644   0.816 -1.4138 -0.4037 -0.0658
  833SOL    HW2 3399   3.490   4.634   0.698  2.2815  1.4021  3.0950
  834SOL     OW 3400   1.813   2.133   0.747  0.1388  0.1414  0.1816
  834SOL    HW1 3401   1.903   2.145   0.705  2.4612 -2.2576  3.8814
  834SOL    HW2 3402   1.815   2.167   0.841 -2.8220 -0.1240  0.4196
  835SOL     OW 3403   6.792   3.684   4.220  0.4097  0.4968  0.1073
  835SOL    HW1 3404   6.802   3.666   4.318 -1.8134  0.0155  0.2818
  835SOL    HW2 3405   6.821   3.604   4.169 -2.5998 -1.0425  0.6093
  836SOL     OW 3406   4.927   2.246   2.514 -0.0629  0.3478 -0.0932
  836SOL    HW1 3407   4.852   2.281   2.569  0.3746  0.8661  0.1913
  836SOL    HW2 3408   4.911   2.269   2.418 -2.0176 -2.6108 -0.6126
  837SOL     OW 3409   0.778   2.711   4.860 -0.5534  0.6038 -0.6931
  837SOL    HW1 3410   0.689   2.704   4.906 -0.5217 -2.8983 -0.8805
  837SOL    HW2 3411   0.845   2.750   4.923 -1.7480  1.2868  0.1953
  838SOL     OW 3412   0.103   5.495   4.470 -0.8422  0.5006  0.2708
  838SOL    HW1 3413   0.108   5.595   4.465  1.4671  0.6054  2.8117
  838SOL    HW2 3414   0.065   5.467   4.558  2.8409 -0.7344  1.6635
  839SOL     OW 3415   4.902   4.413   6.768 -0.4122  0.7911  0.2728
  839SOL    HW1 3416   4.819   4.469   6.759 -0.8430  0.2644  0.9392
  839SOL    HW2 3417   4.959   4.451   6.841  0.1321  1.3887 -0.4512
  840SOL     OW 3418   4.320   3.427   1.062 -0.2769  0.3745  0.0978
  840SOL    HW1 3419   4.333   3.439   1.160  2.8215  1.2047 -0.2801
  840SOL    HW2 3420   4.360   3.340   1.033  0.8192  1.0873 -0.6512
  841SOL     OW 3421   5.426   1.895   3.541  0.3153 -0.3384 -0.4345
  841SOL    HW1 3422   5.337   1.880   3.585  2.0083 -3.6780  2.3032
  841SOL    HW2 3423   5.458   1.810   3.501  1.9707  1.0235 -2.1887
  842SOL     OW 3424   0.698   2.291   5.157  0.1704 -0.1390  0.4071
  842SOL    HW1 3425   0.742   2.209   5.121 -0.5439  0.1535 -1.2045
  842SOL    HW2 3426   0.721   2.302   5.254  1.0773 -1.6826  0.3848
  843SOL     OW 3427   5.059   3.264   0.139 -0.1899  0.0677 -0.0340
  843SOL    HW1 3428   5.080   3.167   0.148 -0.4385  0.0222  0.0651
  843SOL    HW2 3429   4.962   3.275   0.116 -0.3284  0.3245  0.6578
  844SOL     OW 3430   5.029   6.553   4.125  0.9050  0.7868 -0.6560
  844SOL    HW1 3431   4.963   6.496   4.173 -0.3625  2.4818 -0.3158
  844SOL    HW2 3432   5.041   6.518   4.031  1.3500 -0.9155 -0.0063
  845SOL     OW 3433   2.950   6.765   4.894 -1.0303 -0.3312 -0.6880
  845SOL    HW1 3434   3.008   6.758   4.976 -1.7946 -0.7528 -0.1701
  845SOL    HW2 3435   2.970   6.688   4.833  0.5657  0.7558 -1.5982
  846SOL     OW 3436   4.634   6.309   6.689  0.9060 -0.0646 -0.2549
  846SOL    HW1 3437   4.693   6.288   6.767 -1.0734 -0.2968  1.2525
  846SOL    HW2 3438   4.569   6.235   6.675 -0.1324  0.9114 -0.7834
  847SOL     OW 3439   4.064   5.949   5.740 -0.3440  0.2473  0.0933
  847SOL    HW1 3440   4.066   6.049   5.746  0.2929  0.2538 -0.0995
  847SOL    HW2 3441   4.010   5.912   5.815  0.4034  0.6853  0.8660
  848SOL     OW 3442   0.818   3.327   3.315 -0.3623  0.0253  0.4204
  848SOL    HW1 3443   0.905   3.347   3.270  0.0826 -0.0014  1.2502
  848SOL    HW2 3444   0.753   3.294   3.247  0.5862 -0.9267 -0.0688
  849SOL     OW 3445   3.124   1.051   4.691  0.4066 -0.0935 -0.1436
  849SOL    HW1 3446   3.188   1.095   4.628  1.4388 -2.5966 -0.9895
  849SOL    HW2 3447   3.176   1.005   4.764 -0.5169 -0.7334  0.1254
  850SOL     OW 3448   5.538   5.939   6.720 -0.0618 -0.8532 -0.5688
  850SOL    HW1 3449   5.506   5.852   6.682 -2.0092 -0.2800 -0.3227
  850SOL    HW2 3450   5.477   6.013   6.690  0.7990  0.2340  0.3005
  851SOL     OW 3451   0.668   0.364   3.020  0.1164  0.5184 -0.0571
  851SOL    HW1 3452   0.753   0.313   3.007 -0.3828 -1.1156  2.3457
  851SOL    HW2 3453   0.689   0.460   3.040  1.2281  0.6626 -1.7238
  852SOL     OW 3454   2.270   1.178   2.554  0.3804 -0.4428  0.3096
  852SOL    HW1 3455   2.257   1.232   2.637  2.7662  1.9952 -0.7764
  852SOL    HW2 3456   2.368   1.160   2.540 -0.1852 -4.2205 -0.0163
  853SOL     OW 3457   0.748   4.919   1.625 -0.6196 -0.0551 -0.7027
  853SOL    HW1 3458   0.660   4.916   1.672 -0.3614  0.1451 -0.1873
  853SOL    HW2 3459   0.736   4.901   1.528 -1.4305  1.4387 -0.9153
  854SOL     OW 3460   5.502   5.839   2.944 -0.2489 -0.0275  0.1496
  854SOL    HW1 3461   5.489   5.819   2.847  2.5322  0.8470 -0.4826
  854SOL    HW2 3462   5.553   5.924   2.955 -1.4167  0.4613  2.4486
  855SOL     OW 3463   5.577   2.425   4.155 -0.3964  0.1636 -0.1070
  855SOL    HW1 3464   5.612   2.513   4.123 -1.3650  1.3249  1.8058
  855SOL    HW2 3465   5.651   2.372   4.196  0.3969 -0.3955 -2.1511
  856SOL     OW 3466   4.552   6.636   5.315 -0.0626 -0.2007  0.0535
  856SOL    HW1 3467   4.617   6.638   5.239 -0.2736 -0.3317 -0.1312
  856SOL    HW2 3468   4.602   6.633   5.401  0.1887 -1.4352 -0.1138
  857SOL     OW 3469   5.852   2.340   2.730 -0.0252  0.4711  0.2835
  857SOL    HW1 3470   5.810   2.382   2.810  1.8633  0.5647  1.2822
  857SOL    HW2 3471   5.933   2.288   2.758  0.0195 -0.4714 -1.4358
  858SOL     OW 3472   1.959   5.710   0.346 -0.2507 -0.0715  0.1669
  858SOL    HW1 3473   2.040   5.701   0.289  0.5570  0.1243  1.2536
  858SOL    HW2 3474   1.890   5.766   0.299  0.1887 -0.3506 -0.8148
  859SOL     OW 3475   6.487   4.186   3.349 -0.3608 -0.2347 -0.0328
  859SOL    HW1 3476   6.456   4.280   3.341 -1.1890 -0.6185 -2.5077
  859SOL    HW2 3477   6.412   4.129   3.383 -0.2339 -0.1742  0.3493
  860SOL     OW 3478   6.150   2.829   5.517  0.2422  0.2135 -0.3491
  860SOL    HW1 3479   6.222   2.895   5.542  0.1699 -0.2034  1.0648
  860SOL    HW2 3480   6.158   2.807   5.420  2.0761  0.1348 -0.2266
  861SOL     OW 3481   5.193   4.228   4.748 -0.3741 -0.1401  0.1246
  861SOL    HW1 3482   5.246   4.285   4.685  0.5947 -0.7380  0.3863
  861SOL    HW2 3483   5.116   4.282   4.784  0.2405  0.8505  0.0015
  862SOL     OW 3484   6.304   0.665   3.697 -0.2649  0.2624 -0.0829
  862SOL    HW1 3485   6.325   0.719   3.778 -0.8403  0.8230 -0.2904
  862SOL    HW2 3486   6.227   0.604   3.716  1.1010 -1.3276  0.4886
  863SOL     OW 3487   4.548   2.962   5.674  0.4758 -0.0022  0.7373
  863SOL    HW1 3488   4.509   2.946   5.583  3.1323 -3.8556  0.0315
  863SOL    HW2 3489   4.628   3.021   5.666  0.9885 -0.7171  0.4134
  864SOL     OW 3490   1.434   6.136   2.970  0.6232 -0.1039  0.1592
  864SOL    HW1 3491   1.467   6.227   2.945 -1.3761  0.6507  0.0189
  864SOL    HW2 3492   1.458   6.116   3.065  2.7869 -0.3052 -0.3899
  865SOL     OW 3493   5.397   0.859   6.941  0.0443  0.0529  0.6490
  865SOL    HW1 3494   5.435   0.817   6.858  0.4002  2.8502 -0.7113
  865SOL    HW2 3495   5.379   0.788   7.008 -0.5695 -2.4013 -1.9118
  866SOL     OW 3496   2.201   4.721   0.422 -0.8907  0.4496 -0.0008
  866SOL    HW1 3497   2.234   4.814   0.408  0.7567 -0.0008  0.6345
  866SOL    HW2 3498   2.159   4.714   0.513 -2.9951  1.0612 -0.8693
  867SOL     OW 3499   6.096   5.835   6.182  0.0539 -0.0685 -0.0485
  867SOL    HW1 3500   6.193   5.860   6.184  0.2577 -0.8266 -0.0508
  867SOL    HW2 3501   6.071   5.805   6.091 -0.4568  1.1090 -0.3176
  868SOL     OW 3502   6.939   6.404   0.932  0.4234 -0.3261  0.3775
  868SOL    HW1 3503   6.952   6.342   1.009  0.0632 -1.7069 -0.6191
  868SOL    HW2 3504   6.943   6.351   0.846 -0.8326  0.8702 -0.4593
  869SOL     OW 3505   3.483   2.932   4.705  0.0915  0.3331  0.9295
  869SOL    HW1 3506   3.510   2.928   4.801 -2.1024  0.2899  1.5931
  869SOL    HW2 3507   3.389   2.900   4.695  0.6770 -0.8995 -1.4447
  870SOL     OW 3508   6.029   6.262   2.863  0.2503  0.3374 -0.7908
  870SOL    HW1 3509   5.931   6.264   2.840  0.3449  0.1592 -1.2214
  870SOL    HW2 3510   6.059   6.167   2.871  0.3753  0.3929 -0.5875
  871SOL     OW 3511   5.416   4.078   2.224  0.2185 -0.3518 -0.2001
  871SOL    HW1 3512   5.424   4.093   2.323 -0.6343 -1.7623  0.1010
  871SOL    HW2 3513   5.487   4.014   2.195 -0.4410 -1.0875 -0.2213
  872SOL     OW 3514   1.700   0.687   2.925 -0.0171  0.5660 -0.3014
  872SOL    HW1 3515   1.704   0.785   2.948  0.9118  0.0703  1.8481
  872SOL    HW2 3516   1.620   0.646   2.968  0.6148  0.0262  0.3793
  873SOL     OW 3517   5.511   0.084   1.854 -0.1337 -0.1948 -0.7020
  873SOL    HW1 3518   5.518   0.019   1.930 -1.1974  0.2566 -0.2015
  873SOL    HW2 3519   5.420   0.077   1.813 -0.9251  2.2090  0.4918
  874SOL     OW 3520   1.236   1.860   3.160 -0.5285 -0.3458  0.6907
  874SOL    HW1 3521   1.322   1.809   3.155 -0.2385  0.2066 -0.2378
  874SOL    HW2 3522   1.240   1.926   3.235  0.1755  0.2119  0.1816
  875SOL     OW 3523   4.488   5.912   1.771 -0.1073  0.3065  0.3569
  875SOL    HW1 3524   4.454   5.860   1.693  1.0231  0.1916 -0.0758
  875SOL    HW2 3525   4.422   5.984   1.794 -0.3430  0.4987 -0.8593
  876SOL     OW 3526   5.557   2.049   5.435  0.5136  0.0694 -0.3822
  876SOL    HW1 3527   5.546   1.955   5.404 -0.6007  0.3085 -0.7682
  876SOL    HW2 3528   5.638   2.089   5.392  1.7329 -1.0812  0.7645
  877SOL     OW 3529   0.186   2.678   2.154 -0.2239  0.0280 -0.1157
  877SOL    HW1 3530   0.095   2.641   2.174 -0.3683 -0.1397 -1.0142
  877SOL    HW2 3531   0.251   2.650   2.225 -1.2102  1.5406  1.4705
  878SOL     OW 3532   1.246   4.850   0.479 -0.3284 -0.4761 -0.6524
  878SOL    HW1 3533   1.250   4.856   0.579 -0.6603  0.5378 -0.6904
  878SOL    HW2 3534   1.301   4.772   0.448  0.3472 -0.3829  0.2712
  879SOL     OW 3535   6.166   3.654   4.371 -0.0202 -0.2673 -0.4840
  879SOL    HW1 3536   6.191   3.739   4.418  0.8251 -1.6196  1.6236
  879SOL    HW2 3537   6.066   3.647   4.367 -0.1088 -0.0072  0.9194
  880SOL     OW 3538   3.320   3.536   3.167 -0.1435 -0.3699  0.3350
  880SOL    HW1 3539   3.241   3.483   3.198 -1.2887  2.2819  2.4046
  880SOL    HW2 3540   3.391   3.534   3.238  0.3945 -0.3394 -0.2012
  881SOL     OW 3541   4.524   5.843   6.650 -0.2246  0.7230  0.0607
  881SOL    HW1 3542   4.527   5.837   6.750  2.1875 -0.5148 -0.0205
  881SOL    HW2 3543   4.441   5.798   6.617 -0.5002  0.1597  1.4339
  882SOL     OW 3544   0.180   4.616   1.508  0.5528  0.2307  0.0096
  882SOL    HW1 3545   0.243   4.540   1.488 -0.4042 -1.0021  1.4678
  882SOL    HW2 3546   0.093   4.580   1.540 -0.2023  1.9588  0.0132
  883SOL     OW 3547   4.938   6.077   3.282  0.3142 -0.4881  0.8135
  883SOL    HW1 3548   4.947   6.107   3.377  1.9659  1.7830  0.0104
  883SOL    HW2 3549   4.872   6.135   3.234  3.2859  1.9326 -0.6711
  884SOL     OW 3550   5.816   4.410   4.867  0.8840 -0.3982  0.3758
  884SOL    HW1 3551   5.831   4.484   4.932 -2.1762  0.5476  0.1666
  884SOL    HW2 3552   5.797   4.326   4.916  1.5967 -0.4274  0.6261
  885SOL     OW 3553   6.413   4.966   0.531  0.1610 -0.2938  0.2391
  885SOL    HW1 3554   6.405   4.896   0.460 -0.5655  0.5928 -0.5789
  885SOL    HW2 3555   6.483   5.033   0.505 -2.3612  1.9291 -1.3928
  886SOL     OW 3556   6.852   2.011   4.033  0.4279  0.2080 -0.5446
  886SOL    HW1 3557   6.789   1.949   3.986 -0.7112  1.2479 -0.4635
  886SOL    HW2 3558   6.907   1.960   4.099 -0.9009 -0.6397 -0.0509
  887SOL     OW 3559   0.550   5.488   0.427 -0.2945  0.4760  0.3930
  887SOL    HW1 3560   0.634   5.434   0.438 -1.2426 -1.0919  0.3544
  887SOL    HW2 3561   0.542   5.553   0.502  1.5185  1.4971 -0.2398
  888SOL     OW 3562   5.610   2.307   0.803 -0.2404 -0.4697  0.1830
  888SOL    HW1 3563   5.635   2.220   0.761 -0.1686  0.0193 -0.8010
  888SOL    HW2 3564   5.514   2.303   0.833 -0.7038 -0.4007 -1.2050
  889SOL     OW 3565   1.650   2.142   6.549 -0.1251  0.1828  0.3082
  889SOL    HW1 3566   1.647   2.152   6.648  0.7626  1.3072  0.2374
  889SOL    HW2 3567   1.744   2.127   6.519 -0.7527 -4.8901 -0.0069
  890SOL     OW 3568   3.100   6.456   1.755  0.2472  0.1379  0.7069
  890SOL    HW1 3569   3.150   6.528   1.801 -1.4720  0.9907  1.3276
  890SOL    HW2 3570   3.091   6.478   1.658  1.1357 -0.0815  0.5660
  891SOL     OW 3571   4.100   3.343   3.624  0.4071  0.2390 -0.4821
  891SOL    HW1 3572   4.078   3.257   3.577 -1.2690 -0.6811  1.8170
  891SOL    HW2 3573   4.047   3.418   3.584 -1.4714 -0.6391  0.2443
  892SOL     OW 3574   4.675   1.087   3.647 -0.1209 -0.4004  0.1759
  892SOL    HW1 3575   4.660   1.146   3.567  0.8554 -0.2987  0.0487
  892SOL    HW2 3576   4.693   0.994   3.617 -1.3041 -0.6976  0.3613
  893SOL     OW 3577   0.162   0.367   1.947  0.2066 -0.0834  0.3050
  893SOL    HW1 3578   0.112   0.348   1.862 -0.2809  0.3709  0.4857
  893SOL    HW2 3579   0.105   0.423   2.007  0.3181 -0.8737  1.1736
  894SOL     OW 3580   6.283   6.081   2.647  0.3866 -0.3525 -0.0072
  894SOL    HW1 3581   6.221   6.022   2.698 -1.2143  1.8129  0.7247
  894SOL    HW2 3582   6.337   6.137   2.710  2.0927 -1.1789 -0.6721
  895SOL     OW 3583   5.014   4.628   0.575 -0.0227 -0.0492 -0.2359
  895SOL    HW1 3584   5.022   4.652   0.672  1.9180 -1.6362  0.0594
  895SOL    HW2 3585   5.086   4.674   0.523 -0.9213  0.6237 -0.9153
  896SOL     OW 3586   6.574   3.718   6.836  0.3090  0.7880 -0.2582
  896SOL    HW1 3587   6.661   3.760   6.860  0.5325  1.2532 -1.8258
  896SOL    HW2 3588   6.589   3.644   6.771 -0.4193  0.5236 -0.1366
  897SOL     OW 3589   4.886   0.654   3.682  0.4166  0.1586 -0.2915
  897SOL    HW1 3590   4.863   0.676   3.777  1.7938  1.3465 -0.2023
  897SOL    HW2 3591   4.971   0.701   3.656  0.8987 -1.3533 -1.6390
  898SOL     OW 3592   0.480   4.416   0.031  0.5185 -0.0397  0.3511
  898SOL    HW1 3593   0.545   4.433  -0.044  1.0490 -1.5807  0.4282
  898SOL    HW2 3594   0.528   4.418   0.118  0.1950  0.2090  0.5238
  899SOL     OW 3595   4.874   3.909   2.253  0.3573 -0.0455  0.6519
  899SOL    HW1 3596   4.798   3.858   2.294 -0.6545 -0.7137 -1.8373
  899SOL    HW2 3597   4.872   4.004   2.285 -1.1381 -0.2190  1.1637
  900SOL     OW 3598   5.708   1.931   6.119 -0.4217 -0.4102 -0.6019
  900SOL    HW1 3599   5.766   2.006   6.153 -0.7528 -1.2626  2.0943
  900SOL    HW2 3600   5.765   1.852   6.098 -0.4417 -0.7954  0.7246
  901SOL     OW 3601   2.757   1.521   6.766  0.1691  0.4326 -0.4420
  901SOL    HW1 3602   2.809   1.440   6.738 -1.0172  0.1215 -1.8345
  901SOL    HW2 3603   2.686   1.494   6.831 -0.0694  0.3883 -0.7190
  902SOL     OW 3604   2.346   1.368   1.481 -0.1383  0.0082 -0.2899
  902SOL    HW1 3605   2.428   1.425   1.478 -0.3357  0.2656 -1.3833
  902SOL    HW2 3606   2.266   1.426   1.496 -0.0962 -0.2976  1.3071
  903SOL     OW 3607   2.520   1.398   5.774 -0.0527  0.2521  0.1713
  903SOL    HW1 3608   2.593   1.450   5.820 -0.1801  0.0939  0.5529
  903SOL    HW2 3609   2.500   1.316   5.826 -1.2498  0.8249  0.6417
  904SOL     OW 3610   3.207   5.711   3.896  0.2834 -0.4656  0.3589
  904SOL    HW1 3611   3.289   5.756   3.859 -0.0684 -1.3322 -1.6430
  904SOL    HW2 3612   3.152   5.777   3.946  2.2805  0.0914  1.9325
  905SOL     OW 3613   0.714   3.432   0.020  0.1550  0.0320  0.1074
  905SOL    HW1 3614   0.769   3.461   0.097  0.1724  0.1813  0.0388
  905SOL    HW2 3615   0.724   3.497  -0.056 -0.1937  0.1167  0.1301
  906SOL     OW 3616   0.680   3.033   6.323  0.4097 -0.3188 -0.2315
  906SOL    HW1 3617   0.777   3.007   6.324  0.2628 -1.0170  2.2488
  906SOL    HW2 3618   0.667   3.114   6.381 -0.5865 -0.6279 -0.0113
  907SOL     OW 3619   2.051   6.410   6.138 -0.1424 -0.2583  0.0661
  907SOL    HW1 3620   1.953   6.429   6.130 -0.3476 -1.4191 -0.3451
  907SOL    HW2 3621   2.103   6.493   6.116 -1.0375  0.7056  1.3865
  908SOL     OW 3622   1.803   5.309   4.882 -0.3562  0.4533  0.2697
  908SOL    HW1 3623   1.782   5.220   4.923 -1.3265  0.5930  0.1070
  908SOL    HW2 3624   1.772   5.309   4.786  1.2803  0.3529 -0.2914
  909SOL     OW 3625   4.987   2.406   4.991 -0.4447  0.0792 -0.1086
  909SOL    HW1 3626   5.057   2.458   5.041  0.7669 -0.2383 -1.4097
  909SOL    HW2 3627   4.945   2.464   4.922 -1.2912  0.1841  0.4790
  910SOL     OW 3628   3.445   1.507   1.844  0.4891  0.2369 -0.5301
  910SOL    HW1 3629   3.407   1.468   1.928  1.2881 -1.2612 -0.8272
  910SOL    HW2 3630   3.536   1.543   1.862  1.0695 -0.9734 -0.9301
  911SOL     OW 3631   3.954   0.012   0.541 -0.2647  0.2655 -0.3809
  911SOL    HW1 3632   3.923  -0.054   0.610  0.3200  0.5960  0.2130
  911SOL    HW2 3633   3.987  -0.037   0.461  0.3301 -0.1824  0.1258
  912SOL     OW 3634   3.020   5.804   6.232  0.6443 -0.8104  0.1484
  912SOL    HW1 3635   3.109   5.770   6.205  0.9343 -1.5284  1.8928
  912SOL    HW2 3636   3.028   5.853   6.319 -0.5848 -0.4855  0.0985
  913SOL     OW 3637   1.807   0.435   3.006  0.0996 -0.2883 -0.7292
  913SOL    HW1 3638   1.738   0.364   2.991 -0.3754 -0.0912  0.4572
  913SOL    HW2 3639   1.773   0.523   2.973 -0.7429  0.0487  0.9520
  914SOL     OW 3640   5.125   1.199   0.699  0.0579 -0.1167  0.1915
  914SOL    HW1 3641   5.190   1.195   0.775 -0.5676  0.0967  0.7459
  914SOL    HW2 3642   5.096   1.106   0.675  0.7567 -0.2307 -0.2285
  915SOL     OW 3643   4.265   1.476   0.599  0.4639  0.1032  0.0455
  915SOL    HW1 3644   4.212   1.498   0.518  2.7884  0.0217 -1.5877
  915SOL    HW2 3645   4.230   1.393   0.641  0.9025 -1.4906 -2.5547
  916SOL     OW 3646   4.258   2.454   6.861 -0.2343 -0.2059 -0.0333
  916SOL    HW1 3647   4.316   2.535   6.847 -0.9266 -0.0881 -2.9162
  916SOL    HW2 3648   4.163   2.483   6.871 -0.3011 -0.6081  0.5535
  917SOL     OW 3649   0.808   0.285   4.606  0.1192  0.4507  0.4139
  917SOL    HW1 3650   0.710   0.293   4.628 -0.5995 -1.9679 -1.4481
  917SOL    HW2 3651   0.856   0.241   4.682 -0.5318  0.3129  0.7547
  918SOL     OW 3652   0.749   5.427   6.781  0.0334  0.9470 -0.4857
  918SOL    HW1 3653   0.767   5.507   6.837 -1.2628  0.5184  0.6005
  918SOL    HW2 3654   0.806   5.351   6.812  1.1323  1.3724 -1.4007
  919SOL     OW 3655   1.465   6.861   2.769  0.4471 -0.1955  0.5218
  919SOL    HW1 3656   1.552   6.891   2.810  1.8174 -0.2625 -2.1254
  919SOL    HW2 3657   1.459   6.896   2.676 -1.8941 -1.1472  0.2652
  920SOL     OW 3658   5.158   1.084   2.268 -0.3633  0.1767  0.0314
  920SOL    HW1 3659   5.126   1.155   2.205  0.3315  1.5767  1.1763
  920SOL    HW2 3660   5.223   1.124   2.333  0.6087 -1.6938  0.2853
  921SOL     OW 3661   3.526   5.964   2.588  0.4796  0.4608 -0.1101
  921SOL    HW1 3662   3.586   6.006   2.520  0.7572  1.3064  0.6449
  921SOL    HW2 3663   3.443   5.932   2.543  0.7402  0.8462 -0.8844
  922SOL     OW 3664   2.172   3.062   0.521  0.2791  0.3800 -0.3183
  922SOL    HW1 3665   2.084   3.032   0.558  0.9567 -0.2225  0.8382
  922SOL    HW2 3666   2.226   2.982   0.494  0.7895  0.7074 -0.2762
  923SOL     OW 3667   6.116   0.454   4.230  0.5489 -0.7439 -0.4060
  923SOL    HW1 3668   6.093   0.529   4.168  0.8429 -0.0426  0.3134
  923SOL    HW2 3669   6.055   0.377   4.213 -0.2737 -0.0585 -0.6366
  924SOL     OW 3670   5.166   3.189   4.391 -0.1905 -0.0560  0.5277
  924SOL    HW1 3671   5.199   3.247   4.316 -0.1392 -0.1015  0.5158
  924SOL    HW2 3672   5.239   3.129   4.422 -0.5458 -0.8551 -0.1640
  925SOL     OW 3673   6.174   3.190   5.916  0.4489  0.0532  0.1840
  925SOL    HW1 3674   6.265   3.158   5.890 -0.2815  0.6311 -3.5022
  925SOL    HW2 3675   6.105   3.137   5.868 -1.0990  1.4569  0.7854
  926SOL     OW 3676   1.807   2.859   6.118 -0.0171 -0.4742 -0.6319
  926SOL    HW1 3677   1.817   2.841   6.215  0.9622  3.2028  0.1111
  926SOL    HW2 3678   1.882   2.816   6.068 -1.0338 -3.1836 -0.0169
  927SOL     OW 3679   5.596   1.824   0.883 -0.4889  0.5620  0.5817
  927SOL    HW1 3680   5.576   1.749   0.945  0.5586  0.2818  0.6092
  927SOL    HW2 3681   5.682   1.805   0.834 -0.7783  1.2332 -0.2213
  928SOL     OW 3682   2.487   4.416   4.271 -0.3231  0.8031 -0.0586
  928SOL    HW1 3683   2.438   4.347   4.323 -1.9351  1.8649 -0.1085
  928SOL    HW2 3684   2.550   4.465   4.331 -0.3553  0.3814  0.3228
  929SOL     OW 3685   5.705   0.995   6.806 -0.6019  0.3530 -0.2678
  929SOL    HW1 3686   5.752   0.914   6.842  0.7622  0.3667 -1.8536
  929SOL    HW2 3687   5.620   0.967   6.762 -0.3250 -0.1857 -0.4792
  930SOL     OW 3688   4.083   0.247   6.434 -0.2411 -0.7659 -0.0384
  930SOL    HW1 3689   4.107   0.201   6.519 -0.5536  0.0010  0.4789
  930SOL    HW2 3690   4.129   0.336   6.429 -0.9500 -0.3950 -0.2208
  931SOL     OW 3691   2.718   6.852   5.337  0.3331 -0.5058 -0.3516
  931SOL    HW1 3692   2.803   6.800   5.337  0.6686  0.0422 -0.6635
  931SOL    HW2 3693   2.733   6.942   5.296 -0.6441 -0.8343 -1.5125
  932SOL     OW 3694   3.741   6.619   4.159  0.0956 -0.7169 -0.4465
  932SOL    HW1 3695   3.839   6.603   4.167 -0.0833 -1.9691 -0.6295
  932SOL    HW2 3696   3.721   6.650   4.066  0.1312 -2.0300 -0.9103
  933SOL     OW 3697   1.365   0.057   0.959 -0.0728 -0.0233 -0.7856
  933SOL    HW1 3698   1.421   0.106   1.027 -0.8003  0.5956 -0.6236
  933SOL    HW2 3699   1.409  -0.030   0.937  0.8211  0.3334 -0.4617
  934SOL     OW 3700   4.445   4.745   4.230 -0.6901 -0.1733 -0.2840
  934SOL    HW1 3701   4.389   4.751   4.147 -1.6358 -0.9337  0.2789
  934SOL    HW2 3702   4.461   4.650   4.252 -0.0359  0.0370  0.1436
  935SOL     OW 3703   1.854   1.011   2.113  0.4263  0.2604  0.3416
  935SOL    HW1 3704   1.877   1.108   2.122  1.9718  0.1246 -1.5168
  935SOL    HW2 3705   1.788   0.999   2.039  1.2316 -0.2217 -0.3043
  936SOL     OW 3706   6.353   4.543   3.989 -0.5997 -0.1151  0.5196
  936SOL    HW1 3707   6.333   4.558   3.892  0.3103 -0.6149  0.2419
  936SOL    HW2 3708   6.452   4.543   4.002 -0.7011  1.9094  1.7647
  937SOL     OW 3709   4.050   0.705   0.560 -0.0246 -0.1126  0.0871
  937SOL    HW1 3710   4.061   0.694   0.659 -0.3952  2.5804  0.5025
  937SOL    HW2 3711   3.971   0.653   0.529 -2.4494  2.1748  2.0000
  938SOL     OW 3712   3.997   4.595   1.105 -0.4908 -0.4963 -0.1739
  938SOL    HW1 3713   3.975   4.589   1.008 -0.6014  0.4721 -0.2165
  938SOL    HW2 3714   3.985   4.506   1.148  0.8986 -1.2871 -1.3271
  939SOL     OW 3715   6.931   4.725   1.769 -0.0580 -0.0331  0.0579
  939SOL    HW1 3716   6.921   4.640   1.717  1.6177 -0.0359 -0.2926
  939SOL    HW2 3717   6.840   4.758   1.795 -0.8668 -0.7464 -1.7134
  940SOL     OW 3718   2.083   4.023   0.545 -0.0158 -0.7783 -0.8436
  940SOL    HW1 3719   1.993   4.058   0.523 -0.8251 -2.0344  0.3018
  940SOL    HW2 3720   2.126   4.081   0.615  0.2905  0.0814 -1.7165
  941SOL     OW 3721   3.905   6.338   1.763  0.2382  1.0032  0.1158
  941SOL    HW1 3722   3.980   6.403   1.748  1.1613  0.0317  0.3801
  941SOL    HW2 3723   3.899   6.276   1.685  0.3497  0.4753  0.5198
  942SOL     OW 3724   6.537   5.022   6.041 -0.3058  0.4901  0.0388
  942SOL    HW1 3725   6.593   4.976   5.972  1.0886  0.0909  1.3908
  942SOL    HW2 3726   6.477   4.955   6.086  0.3500  0.3302  0.6909
  943SOL     OW 3727   5.112   3.537   5.328  0.0545 -0.2374 -0.7975
  943SOL    HW1 3728   5.113   3.577   5.420  0.6662  0.6557 -1.1756
  943SOL    HW2 3729   5.045   3.585   5.271 -0.5088 -0.9586 -0.7553
  944SOL     OW 3730   1.527   4.175   0.813 -0.0792 -0.2934 -0.0916
  944SOL    HW1 3731   1.567   4.143   0.899 -0.3306 -0.0632  0.1124
  944SOL    HW2 3732   1.564   4.265   0.791  1.1007 -0.9659 -0.9870
  945SOL     OW 3733   1.311   6.559   1.627 -0.0868 -0.1355  1.3561
  945SOL    HW1 3734   1.300   6.520   1.536 -0.3204 -2.1597  2.1984
  945SOL    HW2 3735   1.385   6.626   1.626  0.5049 -0.7732 -0.1219
  946SOL     OW 3736   4.422   6.141   1.514  0.1167  0.3147 -0.3803
  946SOL    HW1 3737   4.345   6.131   1.451 -1.5780  1.1997  1.4440
  946SOL    HW2 3738   4.456   6.235   1.510  0.2706  0.2652 -0.2434
  947SOL     OW 3739   4.617   2.884   1.399 -0.3130 -0.0531  0.0863
  947SOL    HW1 3740   4.687   2.893   1.470  0.2622 -1.6765 -0.2179
  947SOL    HW2 3741   4.601   2.973   1.356  0.2548  0.6984  1.3737
  948SOL     OW 3742   1.031   5.884   4.826 -0.1035  0.2050 -0.1431
  948SOL    HW1 3743   1.029   5.843   4.917 -1.3480  0.7716  0.1089
  948SOL    HW2 3744   0.956   5.847   4.771  0.5598 -0.0370 -0.9090
  949SOL     OW 3745   1.204   1.079   0.267  0.0142  0.9784  0.5201
  949SOL    HW1 3746   1.218   1.105   0.363 -0.6859 -0.3731  1.0037
  949SOL    HW2 3747   1.205   1.162   0.211 -0.5994  1.9098  1.8157
  950SOL     OW 3748   1.085   4.602   0.440  0.0129  0.3007  0.5127
  950SOL    HW1 3749   1.136   4.590   0.525  0.3784  0.1541  0.2752
  950SOL    HW2 3750   1.140   4.570   0.363 -0.8425 -0.8458  0.3531
  951SOL     OW 3751   6.383   1.517   6.375  0.5715  0.0266  0.3303
  951SOL    HW1 3752   6.428   1.430   6.354 -1.0528 -0.4977 -1.2434
  951SOL    HW2 3753   6.363   1.565   6.290  0.3307  1.3743  1.1274
  952SOL     OW 3754   3.276   6.529   0.767  0.3433  0.2756 -0.5984
  952SOL    HW1 3755   3.227   6.507   0.682 -0.0086 -0.6611 -0.1716
  952SOL    HW2 3756   3.239   6.473   0.841  1.6631 -0.0199 -0.1362
  953SOL     OW 3757   6.580   6.888   5.947 -0.2722  0.3667  0.0459
  953SOL    HW1 3758   6.670   6.861   5.980 -0.8773  1.2706  2.6546
  953SOL    HW2 3759   6.511   6.824   5.980 -0.7739  0.6083 -0.5174
  954SOL     OW 3760   3.736   6.153   5.751  0.6924 -0.0808  0.0282
  954SOL    HW1 3761   3.699   6.138   5.843  1.9176 -0.2394  0.5213
  954SOL    HW2 3762   3.836   6.155   5.756  0.7746 -0.1623 -1.3186
  955SOL     OW 3763   2.661   1.438   3.592 -0.1473  0.1094 -0.4029
  955SOL    HW1 3764   2.678   1.341   3.579  1.0040  0.3813 -1.0064
  955SOL    HW2 3765   2.692   1.489   3.511 -1.1276  0.9481 -0.2833
  956SOL     OW 3766   3.570   0.485   2.743  0.1703  0.3733 -0.6668
  956SOL    HW1 3767   3.651   0.450   2.791 -0.1911 -2.0545 -1.7038
  956SOL    HW2 3768   3.488   0.442   2.781 -0.6695  2.4746  0.0705
  957SOL     OW 3769   2.739   4.841   0.101  0.3063  0.3454  0.3770
  957SOL    HW1 3770   2.721   4.899   0.021 -0.3213  1.1938  1.1175
  957SOL    HW2 3771   2.661   4.843   0.163 -0.6523 -2.9627 -0.5046
  958SOL     OW 3772   6.554   0.131   2.099 -0.2665  0.4147  0.0015
  958SOL    HW1 3773   6.546   0.104   2.195  1.8250  1.5538  0.5734
  958SOL    HW2 3774   6.613   0.067   2.051  1.5501  1.7057  0.4061
  959SOL     OW 3775   6.452   6.881   3.707  0.2750 -0.1478 -0.0924
  959SOL    HW1 3776   6.355   6.893   3.726  0.2946  0.5944 -0.4129
  959SOL    HW2 3777   6.506   6.916   3.783  0.2849 -1.9634  0.7766
  960SOL     OW 3778   2.211   1.176   4.277 -0.1889 -0.2764 -0.4257
  960SOL    HW1 3779   2.200   1.275   4.272  0.3734 -0.0501  1.8105
  960SOL    HW2 3780   2.132   1.136   4.325 -0.5854 -0.9804 -1.6192
  961SOL     OW 3781   2.839   1.400   3.155  0.2350 -0.1517  0.7439
  961SOL    HW1 3782   2.828   1.322   3.094 -1.2948 -0.3571  1.2361
  961SOL    HW2 3783   2.931   1.437   3.146  1.1952 -2.3786  0.9592
  962SOL     OW 3784   5.001   3.255   2.039  0.1497 -0.2811  0.3064
  962SOL    HW1 3785   4.943   3.219   2.112  1.5187 -0.1995  1.4743
  962SOL    HW2 3786   4.977   3.350   2.021 -1.3039 -0.7678 -0.5405
  963SOL     OW 3787   6.905   5.663   3.510  0.2390 -0.1398 -0.8304
  963SOL    HW1 3788   7.002   5.664   3.483  0.4830 -1.2699 -0.0965
  963SOL    HW2 3789   6.896   5.704   3.600  0.5346 -2.7044  0.4497
  964SOL     OW 3790   6.956   0.750   1.129 -0.3687  0.4452  0.4830
  964SOL    HW1 3791   7.010   0.761   1.046 -0.6620 -1.5808 -0.0532
  964SOL    HW2 3792   6.953   0.836   1.179  1.5064  1.1810 -0.5634
  965SOL     OW 3793   4.217   1.216   0.654  0.1706 -0.1005 -0.1978
  965SOL    HW1 3794   4.213   1.158   0.735 -2.7753 -0.7088 -0.6939
  965SOL    HW2 3795   4.275   1.173   0.585  2.7250  0.4292  1.4673
  966SOL     OW 3796   2.210   1.451   4.275 -0.9734 -0.2189 -0.1588
  966SOL    HW1 3797   2.256   1.520   4.330 -1.8156  0.2088  0.0249
  966SOL    HW2 3798   2.236   1.461   4.179 -0.7039  0.0294 -0.0595
  967SOL     OW 3799   5.191   3.674   4.828 -0.6935 -0.2877  0.0690
  967SOL    HW1 3800   5.122   3.741   4.854  0.3217  1.7865 -2.1728
  967SOL    HW2 3801   5.164   3.631   4.741  0.3574 -0.1510 -0.3392
  968SOL     OW 3802   6.613   4.902   5.295 -0.3396  0.5772 -0.1704
  968SOL    HW1 3803   6.683   4.834   5.318 -0.7745  0.1177 -0.1868
  968SOL    HW2 3804   6.637   4.990   5.336 -0.0500  0.2776  0.3098
  969SOL     OW 3805   6.975   6.295   6.124  0.2479 -1.0444  0.2860
  969SOL    HW1 3806   7.011   6.202   6.117 -1.9947 -1.9453 -0.0984
  969SOL    HW2 3807   6.954   6.315   6.220  0.5786 -0.9828  0.3476
  970SOL     OW 3808   0.652   3.395   4.855 -0.2546 -0.2076  0.5836
  970SOL    HW1 3809   0.633   3.368   4.949  0.8330  1.2220  1.2552
  970SOL    HW2 3810   0.596   3.474   4.831  0.0950 -0.0273  0.3404
  971SOL     OW 3811   2.511   5.540   0.134 -0.5294  0.0713  0.2323
  971SOL    HW1 3812   2.530   5.561   0.038  0.3108 -1.4199  0.0477
  971SOL    HW2 3813   2.496   5.442   0.145 -1.6007  0.3406  1.4830
  972SOL     OW 3814   3.517   3.093   0.752 -0.0900  0.0911  0.2282
  972SOL    HW1 3815   3.553   3.061   0.840  2.1305 -0.9638 -0.9821
  972SOL    HW2 3816   3.417   3.094   0.756 -0.0950 -1.3046  2.2984
  973SOL     OW 3817   0.594   3.262   6.412 -0.3261 -0.1948  0.1669
  973SOL    HW1 3818   0.496   3.245   6.417 -1.0673  2.6280 -2.2944
  973SOL    HW2 3819   0.625   3.303   6.499 -1.4198 -0.6355  0.7815
  974SOL     OW 3820   1.292   0.797   3.496  0.3743 -0.0440  0.1202
  974SOL    HW1 3821   1.216   0.847   3.456  1.1841 -0.7925 -2.5270
  974SOL    HW2 3822   1.372   0.856   3.503  0.1098  0.2168  1.1644
  975SOL     OW 3823   1.872   2.434   0.896  0.5444  0.3788  0.0494
  975SOL    HW1 3824   1.920   2.504   0.949 -2.3966  1.6904  1.1956
  975SOL    HW2 3825   1.860   2.352   0.952  0.0615  0.6526  0.3524
  976SOL     OW 3826   6.314   5.670   2.948  0.0182 -0.4732  0.1278
  976SOL    HW1 3827   6.306   5.645   3.045 -0.6710  0.6727  0.3801
  976SOL    HW2 3828   6.366   5.755   2.940 -1.7206  0.5991 -0.3129
  977SOL     OW 3829   4.671   4.190   2.629 -0.3812  0.4880 -0.4242
  977SOL    HW1 3830   4.677   4.091   2.639 -1.0190  0.5362  0.5640
  977SOL    HW2 3831   4.643   4.231   2.716  1.8042  1.7369 -0.2269
  978SOL     OW 3832   0.827   0.937   4.773  0.0621 -0.1626 -0.1704
  978SOL    HW1 3833   0.883   0.978   4.845 -1.2445 -0.0455  0.7982
  978SOL    HW2 3834   0.863   0.964   4.683  0.8888  0.8021  0.4323
  979SOL     OW 3835   2.387   4.849   1.747  0.3280 -0.2351  0.0496
  979SOL    HW1 3836   2.459   4.794   1.705 -0.1988 -0.2379 -0.8738
  979SOL    HW2 3837   2.358   4.920   1.683 -1.6596 -1.2849 -0.2908
  980SOL     OW 3838   0.024   5.363   0.996  0.0626 -0.1472  0.3143
  980SOL    HW1 3839   0.040   5.459   1.019  1.1284 -0.4448  0.8827
  980SOL    HW2 3840  -0.056   5.330   1.045 -1.0224  0.7539 -0.7908
  981SOL     OW 3841   6.845   5.579   3.035  0.1857 -0.6568 -0.0995
  981SOL    HW1 3842   6.855   5.481   3.021 -1.4807 -0.7536 -0.8301
  981SOL    HW2 3843   6.837   5.625   2.947 -1.0410 -0.1128  0.2828
  982SOL     OW 3844   0.692   0.084   0.527 -0.1394 -0.7581  0.0274
  982SOL    HW1 3845   0.779   0.073   0.575 -0.2223 -2.1838 -0.0952
  982SOL    HW2 3846   0.688   0.018   0.451 -0.7902  0.1784 -0.7797
  983SOL     OW 3847   0.291   2.785   1.917  0.4108  0.0371 -0.1989
  983SOL    HW1 3848   0.382   2.815   1.947  0.6983 -0.2524 -0.7563
  983SOL    HW2 3849   0.242   2.746   1.995 -0.3018  2.6373  0.7457
  984SOL     OW 3850   4.214   1.900   5.170  0.0706 -0.5809  0.3757
  984SOL    HW1 3851   4.209   1.996   5.197  0.0058 -0.1755 -1.0025
  984SOL    HW2 3852   4.145   1.881   5.100 -0.2346 -1.7597  0.9723
  985SOL     OW 3853   0.645   1.900   0.241  0.0370  0.1429 -0.2460
  985SOL    HW1 3854   0.583   1.821   0.236  2.0122 -1.4997 -0.4283
  985SOL    HW2 3855   0.714   1.892   0.169 -0.9157  3.2404 -1.6861
  986SOL     OW 3856   6.556   0.916   1.876 -0.3005  0.1504 -0.2443
  986SOL    HW1 3857   6.456   0.923   1.874 -0.1987  2.3648  0.0769
  986SOL    HW2 3858   6.592   0.926   1.783 -0.3802 -2.0138 -0.5715
  987SOL     OW 3859   5.322   2.338   5.110 -0.4340 -0.5682  0.0650
  987SOL    HW1 3860   5.417   2.319   5.085 -0.6527 -0.9207 -0.5051
  987SOL    HW2 3861   5.296   2.279   5.187 -0.7235 -1.7372 -0.8962
  988SOL     OW 3862   1.615   4.027   0.119 -0.7370 -0.4553  0.0579
  988SOL    HW1 3863   1.705   3.985   0.134 -1.3364 -1.7320  0.2188
  988SOL    HW2 3864   1.586   4.074   0.202  0.6132  1.6830 -0.5962
  989SOL     OW 3865   2.765   1.259   1.348 -0.4785  0.3501  0.3390
  989SOL    HW1 3866   2.794   1.338   1.295  0.3412  0.1624  0.4981
  989SOL    HW2 3867   2.753   1.180   1.287  2.6806 -0.5033  0.6063
  990SOL     OW 3868   2.532   1.127   2.820 -0.1275 -0.4409 -0.0757
  990SOL    HW1 3869   2.573   1.157   2.734 -2.9440 -0.6451 -1.6140
  990SOL    HW2 3870   2.493   1.206   2.868  0.8811 -0.4143  0.7226
  991SOL     OW 3871   2.714   6.668   3.987  0.4393 -0.4708  0.0411
  991SOL    HW1 3872   2.623   6.640   3.955  0.4515 -1.5788  0.9017
  991SOL    HW2 3873   2.709   6.692   4.084  0.9039  0.3356 -0.1298
  992SOL     OW 3874   5.247   1.543   0.873  0.2885  0.3101 -0.3207
  992SOL    HW1 3875   5.261   1.619   0.937 -1.3874  0.1749  0.2498
  992SOL    HW2 3876   5.235   1.579   0.780  0.4685  0.6672 -0.2062
  993SOL     OW 3877   1.783   3.306   6.609  0.4270 -0.0018  0.5511
  993SOL    HW1 3878   1.844   3.316   6.531 -0.6033 -2.2026 -0.6192
  993SOL    HW2 3879   1.722   3.228   6.595 -0.2479 -0.0877  3.2866
  994SOL     OW 3880   2.085   6.887   3.985  0.2667 -0.1897  0.3113
  994SOL    HW1 3881   2.036   6.802   3.966 -0.5658 -0.1404  2.0084
  994SOL    HW2 3882   2.040   6.963   3.938  0.2826 -0.5069 -0.2235
  995SOL     OW 3883   2.217   5.497   6.286  0.4199  0.1361  0.3786
  995SOL    HW1 3884   2.136   5.506   6.229 -0.1266  1.8501  1.3495
  995SOL    HW2 3885   2.192   5.453   6.373  0.4122  1.0909  0.8691
  996SOL     OW 3886   6.187   0.782   0.078 -0.4780 -0.5892 -0.2071
  996SOL    HW1 3887   6.118   0.717   0.046 -1.1781  0.0508 -0.0125
  996SOL    HW2 3888   6.197   0.855   0.011 -0.4389 -0.3501  0.0578
  997SOL     OW 3889   3.519   2.900   2.136 -0.1486 -0.2240 -0.1952
  997SOL    HW1 3890   3.566   2.892   2.224 -1.5232  1.2148  0.7120
  997SOL    HW2 3891   3.550   2.983   2.090  1.4993 -1.6033 -1.7113
  998SOL     OW 3892   3.208   5.322   1.754  0.2152  0.2638 -0.2706
  998SOL    HW1 3893   3.160   5.244   1.712 -0.0397  0.1487  0.2266
  998SOL    HW2 3894   3.141   5.391   1.781  0.4835  0.9322 -1.2504
  999SOL     OW 3895   5.982   6.582   2.914  0.0294 -0.2810 -0.1058
  999SOL    HW1 3896   5.923   6.576   2.833 -0.1656  2.5920 -0.2686
  999SOL    HW2 3897   6.012   6.490   2.940 -2.4284 -1.5966 -1.5413
 1000SOL     OW 3898   3.423   1.355   5.078 -0.4496 -0.0291 -0.0409
 1000SOL    HW1 3899   3.348   1.404   5.033 -0.6447  0.5012  0.8356
 1000SOL    HW2 3900   3.450   1.404   5.161  0.7161 -0.3464 -0.2178
 1001SOL     OW 3901   4.365   4.178   6.234  0.3044 -0.1644 -0.4593
 1001SOL    HW1 3902   4.286   4.224   6.275 -0.6822  0.3228 -2.7376
 1001SOL    HW2 3903   4.335   4.093   6.190  0.9576  0.1564 -1.5690
 1002SOL     OW 3904   4.114   0.531   6.620  0.4689  0.2514  0.6229
 1002SOL    HW1 3905   4.147   0.487   6.703  0.0740  0.2039  0.7593
 1002SOL    HW2 3906   4.172   0.609   6.597  0.5941  0.2473  0.9277
 1003SOL     OW 3907   6.987   0.479   4.988 -0.5255  0.3563 -0.3025
 1003SOL    HW1 3908   6.899   0.501   4.947 -0.0951  2.1194 -0.3797
 1003SOL    HW2 3909   7.060   0.523   4.935  0.2257  0.7034  0.9694
 1004SOL     OW 3910   0.330   4.884   3.151  0.1253 -0.0589  0.1111
 1004SOL    HW1 3911   0.247   4.868   3.205  0.9233 -0.6181  1.2201
 1004SOL    HW2 3912   0.399   4.816   3.176  2.2566  2.6101  1.9878
 1005SOL     OW 3913   6.959   4.931   4.231 -0.6447  0.4327 -0.3687
 1005SOL    HW1 3914   6.908   4.890   4.156  1.5981 -3.1628 -0.1370
 1005SOL    HW2 3915   6.898   4.948   4.308 -1.7168 -3.5462 -0.1403
 1006SOL     OW 3916   3.059   6.607   4.114  0.2759 -0.6436 -0.0507
 1006SOL    HW1 3917   3.044   6.661   4.031  0.2477  2.3151  1.7270
 1006SOL    HW2 3918   3.056   6.667   4.193  0.2927 -3.3557  2.1482
 1007SOL     OW 3919   4.193   1.656   4.097  0.1851  0.7689  0.2240
 1007SOL    HW1 3920   4.141   1.588   4.046  0.6497  0.7916 -0.2963
 1007SOL    HW2 3921   4.151   1.746   4.084 -1.0412  0.4644  1.7496
 1008SOL     OW 3922   0.088   6.782   5.277  0.3131  0.2074  0.1137
 1008SOL    HW1 3923   0.145   6.702   5.255 -0.3874  0.1870 -1.7540
 1008SOL    HW2 3924   0.114   6.858   5.218 -0.3568  0.7672  0.5370
 1009SOL     OW 3925   0.994   0.128   2.114 -0.1458 -0.4016  0.4887
 1009SOL    HW1 3926   0.988   0.029   2.127 -1.0130 -0.2715  1.1843
 1009SOL    HW2 3927   0.902   0.166   2.104  0.2238  0.1249 -1.5801
 1010SOL     OW 3928   5.735   1.665   1.758 -0.2386 -0.5706  0.2001
 1010SOL    HW1 3929   5.813   1.603   1.766 -0.3397 -0.8289 -0.7369
 1010SOL    HW2 3930   5.767   1.760   1.762  0.1277 -0.6764 -0.1658
 1011SOL     OW 3931   5.960   0.262   2.367  0.1336 -0.8864 -0.1390
 1011SOL    HW1 3932   6.059   0.250   2.380  0.2065  0.7555  1.0991
 1011SOL    HW2 3933   5.913   0.244   2.453 -0.5391 -0.6505 -0.4514
 1012SOL     OW 3934   3.951   1.471   2.959 -1.3173 -0.0513 -0.2314
 1012SOL    HW1 3935   3.975   1.453   2.863 -2.7957 -1.8569 -0.3052
 1012SOL    HW2 3936   4.016   1.424   3.019 -0.8732  0.4175 -0.3310
 1013SOL     OW 3937   6.568   5.570   5.619  0.0014 -0.6589 -0.2543
 1013SOL    HW1 3938   6.495   5.502   5.618  0.7929 -1.5187 -0.3624
 1013SOL    HW2 3939   6.563   5.624   5.703 -0.3249 -1.1814  0.0637
 1014SOL     OW 3940   4.863   5.284   3.089 -0.4262 -0.0346 -0.1526
 1014SOL    HW1 3941   4.804   5.249   3.162 -0.6599 -0.0402 -0.3406
 1014SOL    HW2 3942   4.950   5.237   3.090 -0.1522  0.4776  0.5878
 1015SOL     OW 3943   4.852   1.978   6.930  0.2223 -0.2506  0.2865
 1015SOL    HW1 3944   4.853   2.074   6.902  0.9389 -0.7648 -1.6061
 1015SOL    HW2 3945   4.801   1.924   6.863  0.6047 -1.3282  0.8411
 1016SOL     OW 3946   6.232   3.372   0.619  0.7313 -0.2014 -0.6142
 1016SOL    HW1 3947   6.265   3.343   0.709  0.2677  0.0058 -0.3767
 1016SOL    HW2 3948   6.245   3.471   0.609 -2.0002  0.3426  0.4461
 1017SOL     OW 3949   1.998   0.234   3.431 -0.0639  0.5078  0.2845
 1017SOL    HW1 3950   1.902   0.205   3.439  0.2156 -1.2234 -1.8531
 1017SOL    HW2 3951   2.049   0.201   3.510 -1.1169  1.1065  1.2573
 1018SOL     OW 3952   4.557   3.950   0.125 -0.5623  0.2545  0.4207
 1018SOL    HW1 3953   4.490   3.882   0.094 -1.4372  0.3948  1.8834
 1018SOL    HW2 3954   4.633   3.955   0.060 -0.0942 -2.6428  0.6209
 1019SOL     OW 3955   5.316   5.222   3.787  0.3002  0.0964 -0.2640
 1019SOL    HW1 3956   5.406   5.256   3.759 -0.1749  1.4614 -0.2240
 1019SOL    HW2 3957   5.309   5.229   3.887  0.1901 -0.0919 -0.2604
 1020SOL     OW 3958   2.360   4.884   3.380 -0.9060  0.5513  0.2650
 1020SOL    HW1 3959   2.419   4.856   3.303 -1.9216  2.0676 -1.1380
 1020SOL    HW2 3960   2.357   4.983   3.384 -0.5382  0.5027  2.5991
 1021SOL     OW 3961   6.215   2.055   5.085 -0.4851  0.6421 -0.4495
 1021SOL    HW1 3962   6.266   1.971   5.066  1.3736  0.9138  2.6269
 1021SOL    HW2 3963   6.265   2.133   5.047  0.4910  0.7428  0.9786
 1022SOL     OW 3964   2.428   0.657   4.166  0.0349  0.0796 -0.3660
 1022SOL    HW1 3965   2.481   0.616   4.240  0.6962  0.5458 -0.5686
 1022SOL    HW2 3966   2.491   0.690   4.095 -0.5222  0.7249 -0.5722
 1023SOL     OW 3967   2.846   1.637   2.132  0.0367  0.4316  0.5154
 1023SOL    HW1 3968   2.916   1.706   2.153  0.1009  0.1784  1.1691
 1023SOL    HW2 3969   2.845   1.621   2.034  0.8042  0.5457  0.4746
 1024SOL     OW 3970   5.434   3.461   2.711  0.6907  0.4501  1.3289
 1024SOL    HW1 3971   5.532   3.454   2.730  1.1161 -0.1380 -0.8049
 1024SOL    HW2 3972   5.417   3.537   2.648  0.1143 -0.8888 -0.1821
 1025SOL     OW 3973   4.128   4.935   1.836  0.0263  0.2501 -1.0691
 1025SOL    HW1 3974   4.126   4.876   1.917 -1.4882  1.5057 -0.1258
 1025SOL    HW2 3975   4.040   4.930   1.789 -0.5059  2.3610 -0.4409
 1026SOL     OW 3976   1.380   3.562   1.883 -0.2181 -0.5185  0.0123
 1026SOL    HW1 3977   1.378   3.652   1.927 -3.3388  0.3429 -1.6204
 1026SOL    HW2 3978   1.431   3.568   1.797 -0.0243 -0.4734  0.1272
 1027SOL     OW 3979   2.434   6.186   4.010  0.7930 -0.3945 -0.0400
 1027SOL    HW1 3980   2.490   6.256   4.055 -1.3123  0.4560  1.4177
 1027SOL    HW2 3981   2.454   6.097   4.051  0.6624  0.0043  0.9350
 1028SOL     OW 3982   1.727   0.150   2.171 -0.1224 -0.3120 -0.2899
 1028SOL    HW1 3983   1.785   0.198   2.237 -0.6777  0.8952 -0.6534
 1028SOL    HW2 3984   1.773   0.065   2.143  0.2727 -0.6797  1.3590
 1029SOL     OW 3985   1.308   2.213   1.570  0.0280 -0.1910 -0.0079
 1029SOL    HW1 3986   1.278   2.202   1.664  0.1174 -0.1182  0.0295
 1029SOL    HW2 3987   1.407   2.222   1.567 -0.0234  0.4381 -0.0464
 1030SOL     OW 3988   6.444   4.431   6.983  0.6071  0.2675 -0.2597
 1030SOL    HW1 3989   6.374   4.360   6.987  0.7111  0.2020  0.6526
 1030SOL    HW2 3990   6.450   4.478   7.071  1.8812  0.0925 -0.2257
 1031SOL     OW 3991   1.484   4.104   0.368 -0.6245 -0.6866 -0.5242
 1031SOL    HW1 3992   1.536   4.188   0.383  1.3183 -1.6412 -1.4424
 1031SOL    HW2 3993   1.421   4.089   0.445 -0.2888  1.0704  0.1339
 1032SOL     OW 3994   0.504   4.208   1.516 -0.5032 -0.0728  0.1479
 1032SOL    HW1 3995   0.491   4.207   1.416  0.0701 -1.3905  0.0714
 1032SOL    HW2 3996   0.590   4.253   1.538 -0.8671  0.6744  0.1006
 1033SOL     OW 3997   5.305   1.245   2.461 -0.1038  0.3452 -0.1922
 1033SOL    HW1 3998   5.281   1.341   2.479  0.5439  0.3944  0.4895
 1033SOL    HW2 3999   5.320   1.198   2.548 -0.9956 -0.5419 -0.4978
 1034SOL     OW 4000   0.368   2.505   0.923  0.1442 -0.0311 -0.3605
 1034SOL    HW1 4001   0.365   2.605   0.925  0.8010  0.0018 -0.8123
 1034SOL    HW2 4002   0.276   2.469   0.908 -0.3035  0.4648  1.0123
 1035SOL     OW 4003   5.582   0.690   0.348  0.3515 -0.4310 -0.3525
 1035SOL    HW1 4004   5.573   0.738   0.435  0.1402  1.0005 -1.1377
 1035SOL    HW2 4005   5.662   0.725   0.299 -0.6274  0.1938 -1.5713
 1036SOL     OW 4006   1.063   2.274   6.507  0.8099 -0.5669 -0.2166
 1036SOL    HW1 4007   1.143   2.247   6.561  0.3251  1.8032  1.8551
 1036SOL    HW2 4008   1.081   2.361   6.462 -1.2813  1.2852  2.2335
 1037SOL     OW 4009   2.499   4.463   0.561 -0.0877 -0.6327  0.5912
 1037SOL    HW1 4010   2.500   4.552   0.608 -1.2573 -1.2719  1.9099
 1037SOL    HW2 4011   2.443   4.470   0.478  0.6854  0.1139  0.1225
 1038SOL     OW 4012   3.514   4.210   6.378  0.8750 -0.7429 -0.1118
 1038SOL    HW1 4013   3.430   4.157   6.385 -0.2200  0.9880  0.6857
 1038SOL    HW2 4014   3.496   4.305   6.407  3.2431 -0.4708  0.7005
 1039SOL     OW 4015   0.702   6.835   1.003  0.4357  0.3286 -0.5647
 1039SOL    HW1 4016   0.641   6.791   0.937 -1.1271 -0.5815  1.3680
 1039SOL    HW2 4017   0.747   6.765   1.058  1.1715  1.0747 -0.1922
 1040SOL     OW 4018   3.071   1.290   6.231  0.5406 -0.3537 -0.0339
 1040SOL    HW1 4019   3.086   1.195   6.204 -1.3400 -0.4450 -0.9367
 1040SOL    HW2 4020   3.142   1.318   6.295  1.3440 -2.2518 -0.0269
 1041SOL     OW 4021   2.160   5.694   2.596 -0.5584  1.1487  0.2678
 1041SOL    HW1 4022   2.193   5.607   2.633 -0.1747  1.3742  0.4687
 1041SOL    HW2 4023   2.231   5.735   2.539 -0.8295  1.2162 -0.0216
 1042SOL     OW 4024   5.365   4.330   3.865  0.6799 -0.4461 -0.2039
 1042SOL    HW1 4025   5.399   4.407   3.918  0.8021 -0.7308  0.1355
 1042SOL    HW2 4026   5.266   4.321   3.879  0.6412 -0.2675 -0.3550
 1043SOL     OW 4027   6.345   2.664   0.312  0.0533  0.8468  0.0861
 1043SOL    HW1 4028   6.358   2.754   0.269  2.3172  1.3156  1.5657
 1043SOL    HW2 4029   6.258   2.662   0.361  0.0592  2.3299  0.2009
 1044SOL     OW 4030   3.152   0.608   4.447 -0.6993 -0.4622  0.1769
 1044SOL    HW1 4031   3.063   0.613   4.493 -0.9130 -1.0359 -0.1666
 1044SOL    HW2 4032   3.192   0.517   4.462  0.3176  0.1169  1.2143
 1045SOL     OW 4033   3.204   4.957   4.536 -0.2211  0.0435 -0.5276
 1045SOL    HW1 4034   3.302   4.941   4.554 -0.0529  1.1326 -0.4038
 1045SOL    HW2 4035   3.150   4.906   4.603  0.2816 -0.0732 -0.2003
 1046SOL     OW 4036   2.333   1.857   5.884  0.2935  0.0675  0.5516
 1046SOL    HW1 4037   2.399   1.902   5.823 -0.8812  0.9079 -0.1565
 1046SOL    HW2 4038   2.381   1.822   5.965  1.5461  0.9738  0.2449
 1047SOL     OW 4039   5.505   3.597   4.497  0.1698  0.5175  0.2312
 1047SOL    HW1 4040   5.567   3.520   4.491 -0.1478  0.2699  0.0853
 1047SOL    HW2 4041   5.556   3.682   4.487  0.4057  0.2987 -0.4897
 1048SOL     OW 4042   6.186   0.433   1.199  0.2329 -0.4242 -0.1052
 1048SOL    HW1 4043   6.118   0.487   1.149  0.7000 -1.2365 -1.6609
 1048SOL    HW2 4044   6.140   0.376   1.267 -1.0161 -2.7004 -2.6555
 1049SOL     OW 4045   5.104   1.591   4.964  0.0079  0.4782  0.3866
 1049SOL    HW1 4046   5.099   1.652   4.885  1.9492 -1.0804 -1.0588
 1049SOL    HW2 4047   5.037   1.517   4.954 -0.6051  0.9667  0.8476
 1050SOL     OW 4048   6.330   1.489   1.930  0.0150  0.4853 -0.4800
 1050SOL    HW1 4049   6.234   1.491   1.902 -0.0411  0.1004 -0.3228
 1050SOL    HW2 4050   6.340   1.431   2.010  0.6564 -0.9157 -1.5411
 1051SOL     OW 4051   6.784   1.838   1.727 -0.0642  0.9598  0.2292
 1051SOL    HW1 4052   6.739   1.927   1.737  0.6432  1.2119  1.3204
 1051SOL    HW2 4053   6.717   1.766   1.747 -0.1202  1.3175  1.4277
 1052SOL     OW 4054   2.240   4.786   6.539  0.1254  0.0901 -0.0874
 1052SOL    HW1 4055   2.300   4.777   6.619 -0.8219  1.1473  0.7754
 1052SOL    HW2 4056   2.295   4.812   6.459  0.8283  1.2144  0.7264
 1053SOL     OW 4057   2.552   3.546   6.681 -0.3480  0.5625  0.4622
 1053SOL    HW1 4058   2.571   3.513   6.589  0.8767  1.6380  0.2923
 1053SOL    HW2 4059   2.569   3.474   6.747 -0.0801  0.1379 -0.0652
 1054SOL     OW 4060   4.489   6.383   4.181  0.1949 -0.0189  0.4998
 1054SOL    HW1 4061   4.407   6.327   4.192 -0.5387  0.5997 -1.3950
 1054SOL    HW2 4062   4.478   6.469   4.230 -0.0739 -0.1443  0.6590
 1055SOL     OW 4063   6.508   3.190   3.884  0.1936 -0.2866  0.3864
 1055SOL    HW1 4064   6.508   3.281   3.924 -0.7019 -0.0018 -0.2222
 1055SOL    HW2 4065   6.598   3.169   3.846  0.5874  0.0723  1.1238
 1056SOL     OW 4066   2.889   4.524   0.069 -0.1104 -0.1296 -0.2352
 1056SOL    HW1 4067   2.947   4.451   0.033  0.3505 -0.4163  1.0073
 1056SOL    HW2 4068   2.801   4.524   0.021  0.3662 -0.6547 -1.1347
 1057SOL     OW 4069   4.047   5.312   1.328 -0.0944  0.5083  0.8059
 1057SOL    HW1 4070   4.138   5.289   1.362 -0.0939 -4.3055 -1.6269
 1057SOL    HW2 4071   3.980   5.248   1.366 -1.3271 -0.1538 -2.2467
 1058SOL     OW 4072   5.582   2.844   3.136  0.2573  0.9794 -0.0075
 1058SOL    HW1 4073   5.556   2.751   3.112  0.3552  0.3668  2.0566
 1058SOL    HW2 4074   5.671   2.865   3.095  0.4112  0.0344 -0.1899
 1059SOL     OW 4075   3.499   3.126   1.686 -0.3608  0.1111  0.5685
 1059SOL    HW1 4076   3.596   3.104   1.696 -0.3397  0.4121  1.0609
 1059SOL    HW2 4077   3.488   3.224   1.672 -0.5619  0.0081 -0.0580
 1060SOL     OW 4078   5.335   2.335   3.760 -0.4909  0.4028 -0.3864
 1060SOL    HW1 4079   5.388   2.398   3.702  0.6861  1.1282  1.3817
 1060SOL    HW2 4080   5.238   2.354   3.750 -0.1901  2.0570 -0.4230
 1061SOL     OW 4081   1.096   4.691   5.095 -0.1430 -0.5992  0.3609
 1061SOL    HW1 4082   1.068   4.760   5.162 -2.8505 -2.1412  0.9535
 1061SOL    HW2 4083   1.085   4.600   5.135  0.0557 -1.5056 -1.5528
 1062SOL     OW 4084   6.796   6.389   3.883  0.2418 -0.2366 -0.0952
 1062SOL    HW1 4085   6.833   6.424   3.969 -0.6199  0.2495  0.0815
 1062SOL    HW2 4086   6.706   6.349   3.899 -0.2726  0.5598 -0.8969
 1063SOL     OW 4087   2.834   4.106   0.644  0.3197  0.0186 -0.3650
 1063SOL    HW1 4088   2.788   4.156   0.570  0.3233 -1.3552 -1.3220
 1063SOL    HW2 4089   2.795   4.133   0.732 -2.1007 -0.8510 -1.1221
 1064SOL     OW 4090   1.460   4.951   3.073  0.1116 -0.0998 -0.3616
 1064SOL    HW1 4091   1.449   5.037   3.123  1.6088  0.8439 -1.5723
 1064SOL    HW2 4092   1.525   4.893   3.120 -0.1200 -0.1378 -0.0845
 1065SOL     OW 4093   1.585   0.359   0.105  0.3236 -0.5553 -0.1317
 1065SOL    HW1 4094   1.627   0.271   0.084  1.5810 -0.1398  0.5024
 1065SOL    HW2 4095   1.626   0.430   0.047 -1.1228 -0.4476 -1.0868
 1066SOL     OW 4096   1.159   2.641   5.667 -0.2033 -0.1475  0.0951
 1066SOL    HW1 4097   1.244   2.588   5.660 -0.1686  0.1905 -3.4559
 1066SOL    HW2 4098   1.182   2.738   5.673 -0.3776 -0.1780  2.2708
 1067SOL     OW 4099   1.967   2.928   2.815  0.2952  0.0328 -0.0517
 1067SOL    HW1 4100   2.022   2.909   2.897 -0.1499  0.9654  0.4748
 1067SOL    HW2 4101   1.998   3.013   2.774 -2.1319  1.7732  1.5067
 1068SOL     OW 4102   0.924   6.518   0.866  0.7241 -0.0035 -0.0152
 1068SOL    HW1 4103   0.825   6.510   0.874  0.7568 -0.2153  0.1813
 1068SOL    HW2 4104   0.952   6.611   0.891  0.6968 -0.2869  1.0954
 1069SOL     OW 4105   1.706   1.328   3.736  0.6154  0.5062  0.6423
 1069SOL    HW1 4106   1.617   1.355   3.772  1.0793 -0.6367  2.7785
 1069SOL    HW2 4107   1.777   1.353   3.801  1.2492 -4.0164  2.0662
 1070SOL     OW 4108   5.434   6.977   0.586 -0.0086  0.2387  0.3547
 1070SOL    HW1 4109   5.388   7.059   0.619 -1.9395 -0.6941  0.1554
 1070SOL    HW2 4110   5.399   6.953   0.496  2.3876  0.5876 -0.7349
 1071SOL     OW 4111   5.489   4.491   4.862 -0.4270 -0.0037  0.0884
 1071SOL    HW1 4112   5.514   4.477   4.767  0.2674  2.2838 -0.1210
 1071SOL    HW2 4113   5.529   4.577   4.895  0.0808 -1.1345  2.7064
 1072SOL     OW 4114   3.837   3.972   6.298  0.1900  0.1058  0.2506
 1072SOL    HW1 4115   3.823   4.060   6.344  0.7356  0.2896  0.0749
 1072SOL    HW2 4116   3.825   3.898   6.363 -1.3394  0.2543  0.1645
 1073SOL     OW 4117   3.305   1.759   0.883 -0.1492  0.1506  0.5826
 1073SOL    HW1 4118   3.297   1.660   0.893 -0.8474  0.1282 -0.1185
 1073SOL    HW2 4119   3.399   1.787   0.902  0.1606 -0.7022  0.3316
 1074SOL     OW 4120   0.592   3.550   5.488  0.5591  0.0709 -0.3896
 1074SOL    HW1 4121   0.525   3.520   5.555  0.9981 -0.3669 -0.1357
 1074SOL    HW2 4122   0.577   3.503   5.402  0.7548 -0.2987 -0.2259
 1075SOL     OW 4123   1.456   1.603   2.253 -0.5879 -0.3086  0.4839
 1075SOL    HW1 4124   1.413   1.680   2.208  0.1680 -0.0700  0.1569
 1075SOL    HW2 4125   1.502   1.634   2.336  1.4740  0.0022 -0.7025
 1076SOL     OW 4126   5.762   5.434   2.545 -1.3728  0.4265  0.0447
 1076SOL    HW1 4127   5.835   5.477   2.492 -2.0038  2.0690  0.4746
 1076SOL    HW2 4128   5.780   5.446   2.643 -1.2553 -0.8444  0.2046
 1077SOL     OW 4129   5.860   6.930   2.380 -0.0663 -0.4421  0.0206
 1077SOL    HW1 4130   5.786   6.920   2.448  0.3420  2.1424  0.9611
 1077SOL    HW2 4131   5.928   6.995   2.414  2.0337 -1.7686 -1.3917
 1078SOL     OW 4132   6.663   4.700   3.143  0.1515 -0.0533 -0.1091
 1078SOL    HW1 4133   6.595   4.769   3.169 -0.6590 -1.1999  0.8771
 1078SOL    HW2 4134   6.618   4.627   3.092  0.7283 -0.6150  0.1783
 1079SOL     OW 4135   3.200   1.643   4.150  0.5254  0.2264  0.5570
 1079SOL    HW1 4136   3.171   1.669   4.058 -0.7562  0.6717  1.0630
 1079SOL    HW2 4137   3.299   1.652   4.157  0.7119 -0.3951 -0.9454
 1080SOL     OW 4138   5.060   6.964   0.959  0.3916 -0.0779  0.2667
 1080SOL    HW1 4139   5.089   6.901   1.030  1.0176  1.1898  1.1767
 1080SOL    HW2 4140   5.085   7.058   0.985  1.5385  0.3306 -2.0504
 1081SOL     OW 4141   5.651   3.156   3.926  0.4997 -0.1084 -0.3558
 1081SOL    HW1 4142   5.580   3.219   3.956 -0.7040 -1.1530 -0.9130
 1081SOL    HW2 4143   5.675   3.176   3.831 -0.8863 -1.3087 -0.9984
 1082SOL     OW 4144   6.982   2.860   5.167  0.0613  0.0837 -0.3903
 1082SOL    HW1 4145   6.886   2.839   5.186  0.4493 -1.0811  0.4196
 1082SOL    HW2 4146   6.989   2.919   5.086 -1.1880 -2.4438 -2.4891
 1083SOL     OW 4147   4.097   1.174   6.405  0.4302 -0.2524  0.0643
 1083SOL    HW1 4148   4.044   1.237   6.348 -1.3473  1.2283  3.0989
 1083SOL    HW2 4149   4.182   1.218   6.434  0.0344  0.0808  0.7376
 1084SOL     OW 4150   5.001   0.158   6.298 -0.4943  0.3806  0.2384
 1084SOL    HW1 4151   4.964   0.074   6.259  3.3060 -0.5720 -1.8426
 1084SOL    HW2 4152   5.001   0.151   6.398  0.6614 -2.6441  0.1263
 1085SOL     OW 4153   5.658   4.872   6.526  0.2459  0.8987 -0.4897
 1085SOL    HW1 4154   5.597   4.892   6.603  0.2352 -2.9504  0.7339
 1085SOL    HW2 4155   5.751   4.858   6.560  0.6179  1.0287 -1.4456
 1086SOL     OW 4156   6.985   1.653   1.893 -0.1880  0.3153 -0.2016
 1086SOL    HW1 4157   6.985   1.736   1.949  0.7087 -0.1931  0.5739
 1086SOL    HW2 4158   6.954   1.675   1.801 -0.7591  1.3541  0.2224
 1087SOL     OW 4159   0.693   0.704   3.390 -0.3705  0.0944  0.0798
 1087SOL    HW1 4160   0.724   0.752   3.472 -3.0945  0.5421  0.9478
 1087SOL    HW2 4161   0.712   0.759   3.309  1.3717  0.1364  0.4825
 1088SOL     OW 4162   4.873   3.909   0.595 -0.4937  0.3640 -0.3647
 1088SOL    HW1 4163   4.832   3.912   0.687  0.1177  0.0464 -0.0779
 1088SOL    HW2 4164   4.801   3.920   0.527 -0.9877  0.3729  0.1479
 1089SOL     OW 4165   2.589   1.882   1.355  0.0604 -0.3279  0.2237
 1089SOL    HW1 4166   2.492   1.861   1.344 -0.5939  2.4300  0.1531
 1089SOL    HW2 4167   2.604   1.928   1.442  0.8969  1.2889 -0.7259
 1090SOL     OW 4168   0.367   6.946   3.552 -0.5336 -0.3718  0.6463
 1090SOL    HW1 4169   0.288   6.964   3.611  0.7379  0.3728  2.1776
 1090SOL    HW2 4170   0.449   6.937   3.607  1.1943  2.8633 -1.0687
 1091SOL     OW 4171   6.943   6.906   4.128  0.5939  0.0414  1.4172
 1091SOL    HW1 4172   6.874   6.848   4.084  2.6106 -0.9261 -0.7239
 1091SOL    HW2 4173   6.898   6.979   4.179 -2.0043 -0.2553 -0.2529
 1092SOL     OW 4174   4.278   6.222   4.215 -0.1625 -0.4819  0.4994
 1092SOL    HW1 4175   4.214   6.242   4.289 -1.1009  0.9485 -0.6475
 1092SOL    HW2 4176   4.305   6.126   4.220 -1.0105 -0.6774  2.0522
 1093SOL     OW 4177   4.536   0.826   5.922  0.1635 -0.6190 -0.5074
 1093SOL    HW1 4178   4.550   0.760   5.995  1.0650  0.2179  0.0996
 1093SOL    HW2 4179   4.509   0.915   5.961 -3.2595 -1.1179 -1.4113
 1094SOL     OW 4180   1.457   6.699   3.273  0.1339  0.1474  0.2833
 1094SOL    HW1 4181   1.529   6.694   3.342  0.2230 -0.1915  0.1632
 1094SOL    HW2 4182   1.385   6.634   3.295  0.2946 -0.1585 -0.0975
 1095SOL     OW 4183   5.560   4.855   1.087 -0.4556  0.3854 -0.2606
 1095SOL    HW1 4184   5.558   4.939   1.142 -0.2411 -0.7563  1.5781
 1095SOL    HW2 4185   5.478   4.851   1.030 -0.8488  1.4630  0.1901
 1096SOL     OW 4186   5.778   3.816   6.200  0.1617 -0.3779 -0.8277
 1096SOL    HW1 4187   5.722   3.870   6.263  0.4887 -0.5323 -0.3940
 1096SOL    HW2 4188   5.875   3.840   6.214  0.2125 -0.1813 -1.4992
 1097SOL     OW 4189   1.364   1.275   2.536  0.0331 -0.1674 -0.6199
 1097SOL    HW1 4190   1.437   1.293   2.470 -1.2189  1.7424 -1.5700
 1097SOL    HW2 4191   1.385   1.322   2.622 -1.2591  2.7100 -1.7630
 1098SOL     OW 4192   3.790   5.915   0.187  0.7055 -0.7699 -0.2526
 1098SOL    HW1 4193   3.757   5.986   0.124  1.9156 -0.7155 -0.8645
 1098SOL    HW2 4194   3.846   5.957   0.258 -0.2044 -0.8986  0.5493
 1099SOL     OW 4195   4.901   6.067   2.532  0.3507 -0.5907 -0.6230
 1099SOL    HW1 4196   4.875   6.157   2.498  1.4945  0.3534  0.9256
 1099SOL    HW2 4197   4.951   6.018   2.460  0.0341  0.1298 -1.3519
 1100SOL     OW 4198   6.371   3.539   1.344 -0.1310 -0.3176  0.6362
 1100SOL    HW1 4199   6.423   3.482   1.407  0.8306 -0.9582 -0.6803
 1100SOL    HW2 4200   6.274   3.531   1.364 -0.0160 -2.3409  0.5816
 1101SOL     OW 4201   0.754   2.420   1.602  0.5948  0.5942 -0.0750
 1101SOL    HW1 4202   0.838   2.449   1.647  0.1616 -0.6972  1.6767
 1101SOL    HW2 4203   0.681   2.409   1.670  0.1361 -2.2704 -0.8797
 1102SOL     OW 4204   1.078   5.650   2.491 -0.4217 -0.1274 -0.0181
 1102SOL    HW1 4205   1.120   5.560   2.475 -3.3180 -1.7782  0.8821
 1102SOL    HW2 4206   1.062   5.662   2.589 -1.1035  0.8602 -0.2360
 1103SOL     OW 4207   6.707   5.163   0.859 -0.5256  0.3728  0.4003
 1103SOL    HW1 4208   6.614   5.193   0.839 -1.1324 -1.4080  0.2991
 1103SOL    HW2 4209   6.716   5.144   0.957 -1.2111 -2.1522  0.0628
 1104SOL     OW 4210   2.272   6.436   2.440 -0.6436 -0.1655 -0.5071
 1104SOL    HW1 4211   2.368   6.451   2.459 -0.6849  0.5418 -0.8363
 1104SOL    HW2 4212   2.216   6.482   2.509 -0.7546 -0.2601 -0.5326
 1105SOL     OW 4213   2.421   6.674   1.485  0.1793 -0.6380 -0.5581
 1105SOL    HW1 4214   2.493   6.721   1.434 -0.0368 -0.5841 -0.8139
 1105SOL    HW2 4215   2.347   6.738   1.505 -0.2582 -0.9359 -1.1766
 1106SOL     OW 4216   2.459   1.192   1.093 -0.3234 -0.0752  0.0382
 1106SOL    HW1 4217   2.528   1.138   1.140  0.9909  0.1928 -1.4839
 1106SOL    HW2 4218   2.483   1.289   1.100 -0.4751  0.0132 -0.5628
 1107SOL     OW 4219   2.901   0.703   5.943 -0.2721  0.5641  0.3487
 1107SOL    HW1 4220   2.991   0.670   5.969 -0.5300  0.2631  0.8700
 1107SOL    HW2 4221   2.844   0.626   5.914 -0.2206  0.8071 -0.4238
 1108SOL     OW 4222   4.800   3.957   4.401  0.2547 -0.6617  0.2933
 1108SOL    HW1 4223   4.798   4.005   4.489  3.1642 -0.8498  0.5596
 1108SOL    HW2 4224   4.838   3.865   4.414 -0.4287 -1.1472 -0.9926
 1109SOL     OW 4225   5.812   1.013   0.414  0.1884  0.2542  0.1384
 1109SOL    HW1 4226   5.785   0.971   0.501 -0.9054 -0.2892 -0.4399
 1109SOL    HW2 4227   5.885   1.080   0.430  0.1426  0.0130  1.4390
 1110SOL     OW 4228   6.395   3.280   6.631 -0.5106  0.3980  0.4017
 1110SOL    HW1 4229   6.340   3.208   6.673  0.6767 -0.8439 -0.1063
 1110SOL    HW2 4230   6.489   3.247   6.617 -0.7153  0.8226 -2.8949
 1111SOL     OW 4231   2.924   0.653   1.152  0.3156 -0.0850  0.3668
 1111SOL    HW1 4232   2.914   0.633   1.249  2.7258  2.4846  1.2947
 1111SOL    HW2 4233   3.007   0.611   1.117 -1.1080 -1.9578 -0.9990
 1112SOL     OW 4234   1.972   0.421   2.629 -0.2794 -0.4592  0.1918
 1112SOL    HW1 4235   1.973   0.498   2.692  2.1943 -0.1257 -0.1848
 1112SOL    HW2 4236   1.972   0.335   2.681  2.0441 -0.1930  0.7325
 1113SOL     OW 4237   1.912   4.259   5.011  0.0895 -0.3090  0.3587
 1113SOL    HW1 4238   1.827   4.289   5.055 -1.3288 -0.8320 -1.8895
 1113SOL    HW2 4239   1.893   4.225   4.920  2.7059 -0.8291 -0.0888
 1114SOL     OW 4240   0.714   0.105   2.149  0.0888  0.2832  0.1864
 1114SOL    HW1 4241   0.663   0.045   2.210  2.4023 -1.8235  0.1979
 1114SOL    HW2 4242   0.654   0.137   2.076 -2.0609  0.7580  2.0407
 1115SOL     OW 4243   3.588   0.840   5.883 -0.3881  0.0335  0.7500
 1115SOL    HW1 4244   3.634   0.911   5.830  1.9645 -1.8760  0.0404
 1115SOL    HW2 4245   3.649   0.808   5.956 -0.2404 -2.9858 -0.5489
 1116SOL     OW 4246   5.724   4.599   5.396 -0.2912 -0.1762  0.2144
 1116SOL    HW1 4247   5.699   4.528   5.463 -0.6239  1.0784  1.4607
 1116SOL    HW2 4248   5.663   4.677   5.406 -0.2583  0.0886 -1.5011
 1117SOL     OW 4249   0.700   4.226   3.877 -0.3745  0.3849 -0.0639
 1117SOL    HW1 4250   0.652   4.174   3.806 -3.3591  2.2652  0.3967
 1117SOL    HW2 4251   0.742   4.307   3.836 -0.5571  0.5310  0.0359
 1118SOL     OW 4252   3.755   3.207   3.339  0.5457 -0.6564 -0.3564
 1118SOL    HW1 4253   3.740   3.250   3.428 -0.5292  2.1192 -1.7602
 1118SOL    HW2 4254   3.782   3.277   3.272 -1.1091 -2.1759 -2.7751
 1119SOL     OW 4255   2.706   4.969   6.850 -0.0697  0.0448 -0.0181
 1119SOL    HW1 4256   2.760   4.912   6.788 -0.4802 -0.3476 -0.0227
 1119SOL    HW2 4257   2.662   5.042   6.798 -0.9829 -0.7019 -0.3247
 1120SOL     OW 4258   1.926   5.219   0.064  0.4667  0.1521  0.3514
 1120SOL    HW1 4259   1.986   5.248  -0.011 -0.4383  1.4169  0.0710
 1120SOL    HW2 4260   1.981   5.199   0.145  1.5847 -2.3078 -0.8888
 1121SOL     OW 4261   5.113   6.603   2.045  0.5497 -0.1339  0.1270
 1121SOL    HW1 4262   5.050   6.551   1.987 -1.6213  0.7742  1.5425
 1121SOL    HW2 4263   5.071   6.691   2.069  2.1467  0.2765  1.5784
 1122SOL     OW 4264   1.990   0.097   1.946  0.2418 -0.9407  0.9041
 1122SOL    HW1 4265   1.928   0.058   1.878  0.2994  1.3599 -0.5701
 1122SOL    HW2 4266   2.024   0.024   2.006  0.8695 -3.2382 -2.0200
 1123SOL     OW 4267   6.613   3.639   2.787  0.1404  0.2454 -0.1852
 1123SOL    HW1 4268   6.711   3.647   2.805  0.1170  0.1912 -0.0350
 1123SOL    HW2 4269   6.599   3.597   2.697  0.2533  0.9618 -0.5413
 1124SOL     OW 4270   1.147   6.576   6.368  0.2739  0.1116 -0.4700
 1124SOL    HW1 4271   1.086   6.512   6.415  0.7620  0.2391  0.3519
 1124SOL    HW2 4272   1.141   6.666   6.412  2.0497 -0.2112  0.4889
 1125SOL     OW 4273   1.295   1.236   5.759 -0.1819  0.5657 -0.3799
 1125SOL    HW1 4274   1.387   1.210   5.786 -0.3527  0.3177 -0.0273
 1125SOL    HW2 4275   1.230   1.168   5.793 -0.2162 -1.0725 -3.3635
 1126SOL     OW 4276   3.493   0.394   4.373 -0.6592  0.0017  0.1165
 1126SOL    HW1 4277   3.538   0.473   4.415  0.3632 -0.7125  0.3978
 1126SOL    HW2 4278   3.562   0.328   4.345 -1.5293 -1.0738  0.4621
 1127SOL     OW 4279   1.720   5.736   6.989 -0.3402  0.1909  0.0169
 1127SOL    HW1 4280   1.628   5.697   6.989 -0.2443 -0.0891 -1.6548
 1127SOL    HW2 4281   1.739   5.779   6.901  1.3064 -0.2190  0.1300
 1128SOL     OW 4282   3.675   5.782   1.756  0.3378 -0.2939  0.4637
 1128SOL    HW1 4283   3.714   5.734   1.835  1.2678 -0.2381  0.0468
 1128SOL    HW2 4284   3.625   5.717   1.699  0.3998 -0.4955  0.6371
 1129SOL     OW 4285   4.693   0.706   4.570  0.0015  0.4445 -0.7915
 1129SOL    HW1 4286   4.766   0.638   4.579  0.1925  0.5288 -1.6660
 1129SOL    HW2 4287   4.675   0.746   4.660 -0.5985 -1.2405 -0.1053
 1130SOL     OW 4288   4.905   0.230   1.703  0.3568  0.2650 -0.1130
 1130SOL    HW1 4289   4.806   0.243   1.705  0.0889 -1.6231 -0.0299
 1130SOL    HW2 4290   4.935   0.182   1.785  1.1270 -0.5228 -0.8271
 1131SOL     OW 4291   6.773   0.614   2.380  0.0586  0.0863 -0.9022
 1131SOL    HW1 4292   6.801   0.519   2.371 -0.6484 -0.3599  1.1478
 1131SOL    HW2 4293   6.681   0.626   2.343  0.3666  0.1274 -1.6820
 1132SOL     OW 4294   0.720   1.398   2.583 -0.3719 -0.2084  0.0433
 1132SOL    HW1 4295   0.800   1.436   2.536  1.2422 -1.1478  1.8732
 1132SOL    HW2 4296   0.714   1.300   2.564 -0.2550 -0.4101  0.9890
 1133SOL     OW 4297   6.351   5.112   1.648 -0.2915 -0.2955 -0.6908
 1133SOL    HW1 4298   6.390   5.149   1.564 -0.3506  0.1717 -0.5128
 1133SOL    HW2 4299   6.253   5.096   1.636 -0.7850  1.9143 -0.0043
 1134SOL     OW 4300   5.452   1.206   3.972  0.5353 -0.1567 -0.0116
 1134SOL    HW1 4301   5.491   1.161   4.052  0.0891 -1.2650 -0.4099
 1134SOL    HW2 4302   5.360   1.173   3.956  0.0661  1.1503 -0.1270
 1135SOL     OW 4303   0.774   3.476   3.033 -0.4532 -0.1194  0.4480
 1135SOL    HW1 4304   0.773   3.378   3.051  1.9147 -1.1039 -3.5302
 1135SOL    HW2 4305   0.735   3.494   2.942 -0.0816  2.5114  0.7267
 1136SOL     OW 4306   4.943   1.468   4.338 -0.3252  0.2887  0.7579
 1136SOL    HW1 4307   4.988   1.449   4.250 -0.3337  1.5993  0.4591
 1136SOL    HW2 4308   4.848   1.439   4.333 -0.3432  0.4176  0.3184
 1137SOL     OW 4309   3.041   7.000   4.641  0.2107  0.3387 -0.3859
 1137SOL    HW1 4310   3.034   6.943   4.722  1.6313  2.3316  1.2270
 1137SOL    HW2 4311   2.955   7.049   4.628  0.7435  1.8616  1.4288
 1138SOL     OW 4312   5.175   6.434   5.866  0.3159 -0.5750 -0.2155
 1138SOL    HW1 4313   5.139   6.471   5.951  0.3660 -0.9809 -0.0158
 1138SOL    HW2 4314   5.189   6.335   5.875 -0.5897 -0.7902 -1.0031
 1139SOL     OW 4315   1.930   5.697   1.957 -0.2002 -0.0523 -1.0155
 1139SOL    HW1 4316   1.901   5.775   2.012  0.3423  0.5489 -1.5629
 1139SOL    HW2 4317   1.934   5.723   1.860  0.5127 -0.5844 -1.1443
 1140SOL     OW 4318   5.474   3.864   3.440 -0.4252  0.0106 -0.5666
 1140SOL    HW1 4319   5.402   3.840   3.505 -0.4051  0.6214 -0.3066
 1140SOL    HW2 4320   5.542   3.921   3.485 -1.2747  1.8637 -1.5150
 1141SOL     OW 4321   2.764   0.778   1.837 -0.2973 -0.3011  0.2729
 1141SOL    HW1 4322   2.834   0.758   1.768 -3.3600  0.1866 -3.3357
 1141SOL    HW2 4323   2.733   0.692   1.878  1.4920 -0.6111  1.1037
 1142SOL     OW 4324   5.423   3.183   1.695 -0.3353 -0.4834 -0.2670
 1142SOL    HW1 4325   5.477   3.127   1.758 -1.1729 -1.2735 -0.2370
 1142SOL    HW2 4326   5.350   3.128   1.656 -1.7773  0.8204  0.4991
 1143SOL     OW 4327   5.155   3.459   6.984 -0.2713 -0.0367 -0.2192
 1143SOL    HW1 4328   5.138   3.366   7.016  0.5973 -0.0762  0.1564
 1143SOL    HW2 4329   5.132   3.524   7.057 -1.1208  0.0759 -0.5682
 1144SOL     OW 4330   2.093   2.082   5.444 -0.2714 -0.4674 -1.4013
 1144SOL    HW1 4331   2.140   2.168   5.424 -0.4564 -0.5942 -2.4184
 1144SOL    HW2 4332   1.995   2.100   5.457  0.1332 -0.0041  1.9743
 1145SOL     OW 4333   1.807   5.067   2.037  0.8081  0.5560 -0.0553
 1145SOL    HW1 4334   1.761   4.982   2.062  0.7350  0.1855 -1.3919
 1145SOL    HW2 4335   1.855   5.103   2.117 -0.9343  0.4274  1.1122
 1146SOL     OW 4336   6.170   0.840   2.425  0.4352 -0.2317 -0.3888
 1146SOL    HW1 4337   6.144   0.756   2.472  2.1366 -0.6331 -0.1085
 1146SOL    HW2 4338   6.269   0.846   2.418  0.5257  2.7764  1.4838
 1147SOL     OW 4339   2.610   5.383   2.718  0.1917 -0.4905 -0.0427
 1147SOL    HW1 4340   2.610   5.339   2.807  0.4143  0.0213  0.2114
 1147SOL    HW2 4341   2.622   5.314   2.647  2.3010 -0.6632  0.4408
 1148SOL     OW 4342   6.308   5.753   3.710  0.7664 -0.3172 -0.1339
 1148SOL    HW1 4343   6.273   5.659   3.712 -1.3863  0.2863  4.4978
 1148SOL    HW2 4344   6.403   5.754   3.741 -0.2330 -0.9377  3.4452
 1149SOL     OW 4345   1.929   2.751   5.635 -0.0152 -0.1073 -0.0145
 1149SOL    HW1 4346   1.981   2.836   5.627  1.7300 -1.1480 -0.2173
 1149SOL    HW2 4347   1.866   2.743   5.557  1.5126 -0.0958 -1.3007
 1150SOL     OW 4348   2.443   6.556   4.270  0.1006  0.1248 -0.1703
 1150SOL    HW1 4349   2.356   6.579   4.227 -0.4361 -1.3999  0.0331
 1150SOL    HW2 4350   2.427   6.523   4.363  0.9031 -0.0744 -0.0930
 1151SOL     OW 4351   3.371   1.988   5.951 -0.5084 -0.1711  0.2201
 1151SOL    HW1 4352   3.353   1.898   5.990 -1.5104  0.0465  0.2983
 1151SOL    HW2 4353   3.450   2.029   5.997 -1.0882 -0.3111  1.3821
 1152SOL     OW 4354   2.858   0.772   4.222  0.3482  0.1583  0.1567
 1152SOL    HW1 4355   2.849   0.854   4.167 -0.7376  0.7551  1.1650
 1152SOL    HW2 4356   2.954   0.745   4.227  0.8150  1.7600  0.3702
 1153SOL     OW 4357   2.503   1.185   4.744 -0.0247 -0.2486  0.0781
 1153SOL    HW1 4358   2.414   1.189   4.700 -0.8908  0.3464  1.8050
 1153SOL    HW2 4359   2.493   1.202   4.842  1.8713 -1.1376  0.4732
 1154SOL     OW 4360   5.509   3.452   4.140  0.0848 -0.1500  0.7921
 1154SOL    HW1 4361   5.583   3.517   4.157  1.5211 -1.6632  0.5941
 1154SOL    HW2 4362   5.499   3.438   4.042  2.6776 -3.2475  0.8050
 1155SOL     OW 4363   5.776   4.345   3.465 -0.2859  0.0436 -0.1856
 1155SOL    HW1 4364   5.852   4.288   3.498 -1.8121 -1.0082  1.7415
 1155SOL    HW2 4365   5.730   4.298   3.390 -0.8472 -0.7893  0.6522
 1156SOL     OW 4366   2.174   2.191   3.718 -0.2313  0.6504 -0.0483
 1156SOL    HW1 4367   2.219   2.143   3.642  1.2904  2.1387 -0.1524
 1156SOL    HW2 4368   2.196   2.143   3.804 -1.7143 -0.8657 -0.4638
 1157SOL     OW 4369   0.312   5.680   1.963 -0.2311 -0.0613 -0.4362
 1157SOL    HW1 4370   0.291   5.657   2.058 -0.1503  1.2769 -0.0718
 1157SOL    HW2 4371   0.303   5.778   1.950  2.2965  0.1552 -1.1417
 1158SOL     OW 4372   5.294   1.925   4.049  0.3362  0.4275 -0.2039
 1158SOL    HW1 4373   5.356   2.000   4.073  0.4288  1.2457 -2.6426
 1158SOL    HW2 4374   5.205   1.964   4.024 -0.2928 -0.4933  0.5637
 1159SOL     OW 4375   0.891   0.216   2.903 -0.0327  0.1300  0.0346
 1159SOL    HW1 4376   0.939   0.202   2.817 -0.1656 -0.1101 -0.0031
 1159SOL    HW2 4377   0.857   0.128   2.937 -0.5499  0.3082 -0.0045
 1160SOL     OW 4378   3.572   3.893   4.665  0.8073 -0.2047 -0.3117
 1160SOL    HW1 4379   3.663   3.922   4.633  0.2369  1.0511 -0.8363
 1160SOL    HW2 4380   3.508   3.969   4.658 -0.3217 -1.1051 -0.0341
 1161SOL     OW 4381   2.492   4.538   6.362  0.1488  0.5425  0.2356
 1161SOL    HW1 4382   2.421   4.608   6.361 -2.0421 -1.5625 -0.4934
 1161SOL    HW2 4383   2.451   4.449   6.383  2.3838 -0.9307 -1.1833
 1162SOL     OW 4384   5.872   0.021   5.121 -0.1348 -0.0870 -0.3774
 1162SOL    HW1 4385   5.911   0.105   5.082 -1.5955  1.2747  0.9553
 1162SOL    HW2 4386   5.945  -0.032   5.163  0.5546  1.6622  0.7751
 1163SOL     OW 4387   1.986   5.155   1.549 -0.1215  0.2125  0.1825
 1163SOL    HW1 4388   1.977   5.064   1.508 -1.1089  0.4382 -0.1391
 1163SOL    HW2 4389   1.986   5.146   1.648 -1.2426 -0.0741  0.1713
 1164SOL     OW 4390   5.641   4.623   4.489  0.2341  0.3455  0.3895
 1164SOL    HW1 4391   5.711   4.677   4.537 -1.9370  2.9226  0.9237
 1164SOL    HW2 4392   5.611   4.548   4.547  0.8239  0.6943  1.1687
 1165SOL     OW 4393   0.306   6.138   1.145 -0.3904  0.1022 -0.3688
 1165SOL    HW1 4394   0.249   6.058   1.166  2.4585 -2.3229 -1.1383
 1165SOL    HW2 4395   0.323   6.189   1.229  0.5128 -2.1747  0.9466
 1166SOL     OW 4396   1.884   3.034   3.857  0.1962  0.6086 -0.3892
 1166SOL    HW1 4397   1.952   3.093   3.901  1.0969 -0.5264 -0.2178
 1166SOL    HW2 4398   1.811   3.014   3.921  0.3573  0.7917 -0.1463
 1167SOL     OW 4399   3.778   0.767   6.080 -0.4896  0.2787 -0.6264
 1167SOL    HW1 4400   3.777   0.773   6.179 -3.1380 -0.8245 -0.5098
 1167SOL    HW2 4401   3.806   0.675   6.052 -0.1184  0.4732 -0.9226
 1168SOL     OW 4402   6.449   6.325   4.447 -0.3379  0.0715 -0.3024
 1168SOL    HW1 4403   6.485   6.238   4.413 -1.0681  0.4655 -2.1923
 1168SOL    HW2 4404   6.392   6.309   4.527 -1.0419 -1.2992 -1.0438
 1169SOL     OW 4405   5.865   6.852   3.903 -0.2296 -0.1173 -0.3443
 1169SOL    HW1 4406   5.818   6.924   3.954  0.7054 -0.6457  1.3703
 1169SOL    HW2 4407   5.828   6.846   3.810 -1.5726  1.3245  0.0614
 1170SOL     OW 4408   4.411   1.859   4.157  0.1575 -0.5698  0.3698
 1170SOL    HW1 4409   4.377   1.771   4.124  0.5618 -0.0012 -1.6779
 1170SOL    HW2 4410   4.505   1.849   4.189  0.3871 -0.8006 -0.3550
 1171SOL     OW 4411   2.456   4.341   5.965  0.0030 -0.1329  0.1469
 1171SOL    HW1 4412   2.492   4.254   5.996 -0.2541  0.4650  2.3214
 1171SOL    HW2 4413   2.357   4.345   5.982  0.1457  0.8599  0.9059
 1172SOL     OW 4414   5.952   4.935   4.366 -0.0639  0.2687 -0.5298
 1172SOL    HW1 4415   5.857   4.912   4.347  0.0189  0.5903 -1.4225
 1172SOL    HW2 4416   5.993   4.866   4.425 -0.8364  0.1096 -0.1703
 1173SOL     OW 4417   4.071   6.108   3.778  0.8059 -0.1195 -0.2245
 1173SOL    HW1 4418   3.980   6.067   3.784  0.2737  1.1084  0.5496
 1173SOL    HW2 4419   4.097   6.117   3.682 -0.4589  0.6807 -0.5249
 1174SOL     OW 4420   4.671   6.167   4.592 -0.2752  0.0329 -0.0362
 1174SOL    HW1 4421   4.622   6.231   4.532 -0.1869 -0.1127 -0.2644
 1174SOL    HW2 4422   4.748   6.128   4.543 -1.2772 -1.4930 -0.4635
 1175SOL     OW 4423   4.111   3.775   3.933  0.9987  0.2203 -0.8109
 1175SOL    HW1 4424   4.211   3.778   3.946  0.8715  0.0955  0.3154
 1175SOL    HW2 4425   4.073   3.866   3.951  0.8558  0.1468 -0.7387
 1176SOL     OW 4426   3.188   3.843   0.643 -0.6198 -0.1021  0.3346
 1176SOL    HW1 4427   3.187   3.826   0.742 -2.8902 -0.5539  0.3089
 1176SOL    HW2 4428   3.170   3.757   0.595  0.1791  0.1692 -0.4742
 1177SOL     OW 4429   6.555   1.669   1.175 -0.0838 -0.2466  0.0393
 1177SOL    HW1 4430   6.464   1.667   1.135  0.5193 -1.5539 -1.3531
 1177SOL    HW2 4431   6.616   1.723   1.118 -0.0766  1.0858  1.2529
 1178SOL     OW 4432   5.368   6.953   5.150 -0.2706  0.1762 -0.3415
 1178SOL    HW1 4433   5.466   6.938   5.133  0.1845 -0.5960  2.4513
 1178SOL    HW2 4434   5.354   7.044   5.188 -0.4797 -0.0667  0.1787
 1179SOL     OW 4435   5.439   2.492   0.950  0.6053  0.0015 -0.6900
 1179SOL    HW1 4436   5.432   2.521   0.854 -0.4136  0.5650 -0.4563
 1179SOL    HW2 4437   5.412   2.567   1.010  0.2029 -0.6835  0.0077
 1180SOL     OW 4438   3.734   1.820   5.037  0.1311  0.1154 -0.7514
 1180SOL    HW1 4439   3.733   1.744   5.102 -1.4576 -0.9013 -1.9048
 1180SOL    HW2 4440   3.802   1.888   5.066 -2.6503  1.3437  3.8220
 1181SOL     OW 4441   2.331   5.218   5.984 -0.5669  0.1780 -0.0141
 1181SOL    HW1 4442   2.376   5.307   5.990 -1.4558  0.6478 -0.2106
 1181SOL    HW2 4443   2.244   5.221   6.034 -0.6999 -0.5225 -0.1883
 1182SOL     OW 4444   5.150   3.192   2.925 -0.6078 -0.1471 -0.3012
 1182SOL    HW1 4445   5.219   3.162   2.859  1.6304 -1.5071  2.4613
 1182SOL    HW2 4446   5.110   3.113   2.971  0.0595  0.7461  1.9703
 1183SOL     OW 4447   2.458   2.761   5.257  0.4031 -0.2104  0.4956
 1183SOL    HW1 4448   2.481   2.698   5.182  2.0025 -0.7400  1.3742
 1183SOL    HW2 4449   2.458   2.855   5.222  0.0951 -0.5258 -0.3869
 1184SOL     OW 4450   0.364   0.267   3.902 -0.5140  0.0800  0.0645
 1184SOL    HW1 4451   0.376   0.232   3.809  2.0521  2.0212 -0.4362
 1184SOL    HW2 4452   0.401   0.201   3.967  0.8654  0.1843 -0.5808
 1185SOL     OW 4453   0.096   3.735   3.350  0.2267 -0.2967  0.1113
 1185SOL    HW1 4454   0.025   3.687   3.402 -0.3388 -0.0599 -0.4260
 1185SOL    HW2 4455   0.053   3.804   3.292  0.7724 -1.0949 -1.2754
 1186SOL     OW 4456   5.929   1.296   1.723 -0.2782 -0.0891 -0.2436
 1186SOL    HW1 4457   5.877   1.313   1.639  1.3683 -1.1001 -1.5575
 1186SOL    HW2 4458   6.012   1.245   1.700  0.8141  0.6085  1.8665
 1187SOL     OW 4459   1.540   4.302   5.836  0.1930  0.2132 -0.0060
 1187SOL    HW1 4460   1.496   4.358   5.905 -0.3816  0.5536 -0.6364
 1187SOL    HW2 4461   1.571   4.216   5.877 -1.2839 -0.1479  0.4003
 1188SOL     OW 4462   1.110   1.775   4.948 -0.0074 -0.7608  0.2277
 1188SOL    HW1 4463   1.059   1.859   4.931 -1.2387 -1.6821 -0.8446
 1188SOL    HW2 4464   1.170   1.787   5.028 -0.4253  0.9891  0.3035
 1189SOL     OW 4465   0.929   1.106   4.980  0.1559 -0.3024 -0.6440
 1189SOL    HW1 4466   0.952   1.138   5.072  1.4327  0.2280 -1.1314
 1189SOL    HW2 4467   0.892   1.181   4.926  1.7516  0.0356 -1.3204
 1190SOL     OW 4468   4.799   0.635   1.102  0.2708 -0.0625 -0.4317
 1190SOL    HW1 4469   4.729   0.596   1.043 -0.5904 -0.5722  0.8669
 1190SOL    HW2 4470   4.755   0.689   1.175  1.1914 -0.6080  0.5604
 1191SOL     OW 4471   1.747   3.045   2.984 -0.5390  0.3487 -0.0392
 1191SOL    HW1 4472   1.730   2.957   3.029  0.7046  0.6360  1.0430
 1191SOL    HW2 4473   1.804   3.030   2.903  0.4857  0.2395  0.6815
 1192SOL     OW 4474   4.361   0.993   6.284  0.0418 -0.6548  0.4898
 1192SOL    HW1 4475   4.387   0.994   6.381 -0.1345  0.7774  0.5519
 1192SOL    HW2 4476   4.273   0.948   6.274 -0.1568 -0.4126  1.0678
 1193SOL     OW 4477   0.875   0.743   2.652 -0.0644 -0.2974 -0.3386
 1193SOL    HW1 4478   0.933   0.715   2.576  0.4465 -0.0535 -0.0411
 1193SOL    HW2 4479   0.788   0.777   2.616  0.3204  0.1764 -0.8458
 1194SOL     OW 4480   2.123   4.899   6.850  0.0051  0.2710  0.3430
 1194SOL    HW1 4481   2.065   4.880   6.771 -0.7101  0.6503  0.7687
 1194SOL    HW2 4482   2.215   4.865   6.833 -0.1157  0.4512 -0.6996
 1195SOL     OW 4483   0.714   0.546   1.378 -0.0480 -0.1603  0.1546
 1195SOL    HW1 4484   0.702   0.498   1.291  2.0793  1.3534 -1.0616
 1195SOL    HW2 4485   0.674   0.637   1.372  2.5953  1.0690 -0.3896
 1196SOL     OW 4486   5.916   6.569   3.749 -0.2299  0.1689 -0.2035
 1196SOL    HW1 4487   6.015   6.576   3.736 -0.2582 -0.5721 -0.9369
 1196SOL    HW2 4488   5.882   6.488   3.700 -1.5442  1.6978 -1.9787
 1197SOL     OW 4489   3.269   2.029   3.725  0.8113 -0.0484  0.2265
 1197SOL    HW1 4490   3.259   2.075   3.637 -1.6121 -0.8086  0.0466
 1197SOL    HW2 4491   3.310   1.938   3.711  2.6411  0.7334  0.2185
 1198SOL     OW 4492   6.942   0.479   0.770 -0.1396  0.2452  0.0045
 1198SOL    HW1 4493   6.963   0.454   0.676 -0.3751  0.6368 -0.1570
 1198SOL    HW2 4494   6.926   0.397   0.824 -1.5300  0.0593 -0.6570
 1199SOL     OW 4495   0.986   2.100   4.471 -0.0670  0.1137  0.3716
 1199SOL    HW1 4496   0.923   2.036   4.427  0.5476  1.0613 -2.0524
 1199SOL    HW2 4497   1.016   2.168   4.404 -0.1381  2.5387  2.6296
 1200SOL     OW 4498   6.019   2.986   4.682 -0.5624  0.8413  0.6202
 1200SOL    HW1 4499   5.981   3.010   4.771 -1.2640 -3.8003  1.8039
 1200SOL    HW2 4500   5.945   2.979   4.615 -0.9053 -1.2485  1.1676
 1201SOL     OW 4501   5.777   2.519   4.415  0.4296  0.2028 -0.1850
 1201SOL    HW1 4502   5.740   2.587   4.351 -0.2955  0.3935  0.4242
 1201SOL    HW2 4503   5.703   2.463   4.451  0.8280  0.1104  0.5105
 1202SOL     OW 4504   2.786   1.927   2.456 -0.9768  0.2754  0.0990
 1202SOL    HW1 4505   2.851   1.868   2.409 -2.6662 -1.4808 -0.1575
 1202SOL    HW2 4506   2.811   2.023   2.441  0.9725 -0.3199 -0.7389
 1203SOL     OW 4507   6.180   3.829   4.579  0.1053 -0.3967  0.0807
 1203SOL    HW1 4508   6.265   3.803   4.624  0.5471 -0.6528 -0.8925
 1203SOL    HW2 4509   6.110   3.761   4.599 -0.5233  0.8350  2.6001
 1204SOL     OW 4510   0.904   5.378   3.480  0.0712  0.0194 -0.3124
 1204SOL    HW1 4511   0.815   5.420   3.464  0.6828  0.6461 -2.4379
 1204SOL    HW2 4512   0.910   5.292   3.428  0.5373 -0.2633  0.1934
 1205SOL     OW 4513   1.405   5.407   4.118 -1.0446 -0.7828 -0.2887
 1205SOL    HW1 4514   1.477   5.360   4.168  0.3549 -0.5823 -2.0011
 1205SOL    HW2 4515   1.326   5.347   4.108 -0.6963 -1.4213  0.6474
 1206SOL     OW 4516   5.057   4.416   1.543  0.4252  0.5401  0.0798
 1206SOL    HW1 4517   5.014   4.477   1.610  1.0787  2.2105 -0.9656
 1206SOL    HW2 4518   5.134   4.463   1.500 -0.3308 -0.2408 -2.2829
 1207SOL     OW 4519   5.569   2.617   6.842  0.8593  0.3066 -0.4396
 1207SOL    HW1 4520   5.654   2.669   6.837 -0.2313  2.0178 -3.1306
 1207SOL    HW2 4521   5.526   2.633   6.931  3.4281 -0.8999  1.1362
 1208SOL     OW 4522   0.656   6.813   1.311  0.1715 -0.0373 -0.6516
 1208SOL    HW1 4523   0.666   6.906   1.277 -0.5783  0.9059  1.5260
 1208SOL    HW2 4524   0.559   6.789   1.315  0.3310 -0.7045 -0.6355
 1209SOL     OW 4525   2.657   0.563   4.306  0.0836 -0.2286  0.1331
 1209SOL    HW1 4526   2.682   0.467   4.319 -0.2099 -0.1151  1.8760
 1209SOL    HW2 4527   2.737   0.614   4.275  0.0910 -1.1194 -1.3764
 1210SOL     OW 4528   1.428   0.798   5.020  0.5685 -0.5053 -0.2446
 1210SOL    HW1 4529   1.505   0.849   5.059 -0.4317 -0.3219  1.5776
 1210SOL    HW2 4530   1.364   0.862   4.978  1.0709 -0.6125 -1.2222
 1211SOL     OW 4531   6.683   1.397   2.198  0.1140 -0.2769  0.0619
 1211SOL    HW1 4532   6.782   1.392   2.211  0.3654  0.7151 -1.3380
 1211SOL    HW2 4533   6.658   1.487   2.163 -1.2323 -0.7128 -0.1463
 1212SOL     OW 4534   6.493   2.828   5.336 -0.3119 -0.1509  0.5574
 1212SOL    HW1 4535   6.426   2.801   5.267 -0.4073  1.4740 -0.0465
 1212SOL    HW2 4536   6.452   2.824   5.427 -0.5420 -1.2109  0.4146
 1213SOL     OW 4537   0.046   5.605   1.065 -0.2383  0.3992  0.1488
 1213SOL    HW1 4538  -0.011   5.674   1.110 -0.0497  1.0870 -0.6312
 1213SOL    HW2 4539   0.118   5.651   1.013  2.3368 -0.4566  2.7269
 1214SOL     OW 4540   3.722   2.039   4.612  0.2925  0.1152  0.0983
 1214SOL    HW1 4541   3.757   1.948   4.633  1.2609  0.2511 -0.8607
 1214SOL    HW2 4542   3.705   2.089   4.697  0.3630 -0.7273  0.6154
 1215SOL     OW 4543   1.033   6.678   6.133  0.5250  0.2378  0.2248
 1215SOL    HW1 4544   1.077   6.630   6.209 -1.2007  0.2095  1.2506
 1215SOL    HW2 4545   0.969   6.745   6.169 -0.2949  0.2604 -1.2163
 1216SOL     OW 4546   6.088   1.457   2.286 -0.4737 -0.3215 -0.4609
 1216SOL    HW1 4547   6.013   1.411   2.335 -0.6718  0.5394  0.0668
 1216SOL    HW2 4548   6.129   1.393   2.221  0.5808 -1.9099  1.6424
 1217SOL     OW 4549   0.235   2.436   5.539 -0.6276 -0.1898  0.0202
 1217SOL    HW1 4550   0.269   2.451   5.632 -2.1098  0.9003  0.4390
 1217SOL    HW2 4551   0.310   2.443   5.474  0.0646  1.6142  0.9344
 1218SOL     OW 4552   4.809   4.115   4.622  0.7351  0.4001 -0.0939
 1218SOL    HW1 4553   4.738   4.157   4.680  0.4475  0.8444 -0.7604
 1218SOL    HW2 4554   4.889   4.094   4.678 -0.5574 -1.7474  1.0644
 1219SOL     OW 4555   6.177   3.956   3.827  0.2330 -0.0192 -0.2650
 1219SOL    HW1 4556   6.087   3.928   3.795  0.1499 -0.8115  0.6194
 1219SOL    HW2 4557   6.179   3.956   3.927  1.1134  0.3172 -0.2686
 1220SOL     OW 4558   6.775   0.178   5.326 -0.5882 -0.0829 -0.3227
 1220SOL    HW1 4559   6.698   0.205   5.268 -0.8082  1.2317  0.5447
 1220SOL    HW2 4560   6.746   0.175   5.422  0.1371 -0.8117 -0.1064
 1221SOL     OW 4561   3.783   5.399   6.282  0.3782  0.6073  0.2817
 1221SOL    HW1 4562   3.866   5.371   6.331 -0.0987 -0.8041  0.3360
 1221SOL    HW2 4563   3.724   5.319   6.270  0.1179  1.0746 -1.9088
 1222SOL     OW 4564   5.009   3.928   3.305 -0.3673  0.1003  0.4318
 1222SOL    HW1 4565   4.951   4.008   3.293 -0.3752 -0.2687 -3.4604
 1222SOL    HW2 4566   4.953   3.846   3.315 -0.5177  0.1069 -0.2534
 1223SOL     OW 4567   1.707   4.571   2.529 -0.0428 -0.0172  0.0795
 1223SOL    HW1 4568   1.691   4.637   2.456 -2.5322 -1.2844 -0.6432
 1223SOL    HW2 4569   1.778   4.506   2.500  1.4789  1.5035  0.2710
 1224SOL     OW 4570   3.909   3.996   4.101 -0.0857 -0.0814 -0.0951
 1224SOL    HW1 4571   3.862   3.908   4.102  0.2674 -0.2793  0.7716
 1224SOL    HW2 4572   3.844   4.069   4.081 -0.8183 -0.3252  1.2706
 1225SOL     OW 4573   6.643   5.004   3.878 -0.1645  0.0592 -0.0675
 1225SOL    HW1 4574   6.588   4.933   3.924 -0.2031  0.3115  0.2839
 1225SOL    HW2 4575   6.727   4.963   3.842 -0.5515 -0.3167 -0.5550
 1226SOL     OW 4576   0.601   6.967   3.696  0.1569 -0.4172  0.4182
 1226SOL    HW1 4577   0.687   6.925   3.666 -0.2880 -1.6360  0.7820
 1226SOL    HW2 4578   0.608   7.066   3.687  2.1524 -0.3670  1.7861
 1227SOL     OW 4579   0.741   0.267   4.338 -0.8164  0.5235  0.1230
 1227SOL    HW1 4580   0.806   0.280   4.263 -1.4633  1.2744 -0.3232
 1227SOL    HW2 4581   0.784   0.296   4.424 -0.2705  0.2063 -0.0379
 1228SOL     OW 4582   1.429   0.038   5.799  0.0329 -0.0087  0.1043
 1228SOL    HW1 4583   1.395   0.094   5.874  0.0008  1.4891 -0.9755
 1228SOL    HW2 4584   1.454   0.097   5.722  0.3076 -1.4702 -0.9776
 1229SOL     OW 4585   3.239   0.051   0.231 -0.4089  0.2925  0.2516
 1229SOL    HW1 4586   3.316  -0.012   0.224 -0.1441  0.5107  1.0359
 1229SOL    HW2 4587   3.209   0.079   0.140  0.8424  0.6738 -0.0587
 1230SOL     OW 4588   2.368   0.625   5.514 -0.7665  0.2990  0.0733
 1230SOL    HW1 4589   2.390   0.672   5.429  0.5228 -1.3639 -0.5779
 1230SOL    HW2 4590   2.424   0.662   5.588  0.5177 -0.3909 -0.5113
 1231SOL     OW 4591   5.496   5.063   1.274 -0.2876  0.5107 -0.5969
 1231SOL    HW1 4592   5.467   5.157   1.257 -1.3033  0.0716 -1.4002
 1231SOL    HW2 4593   5.592   5.062   1.300  0.5802  1.5633 -3.3767
 1232SOL     OW 4594   2.957   6.777   6.920 -0.2174 -0.4306 -0.1546
 1232SOL    HW1 4595   2.875   6.831   6.937 -0.8260 -0.4424 -2.6705
 1232SOL    HW2 4596   3.013   6.774   7.003 -1.4582  1.8007  0.8390
 1233SOL     OW 4597   0.955   3.044   4.456  0.4181  0.1627 -0.5893
 1233SOL    HW1 4598   0.880   3.097   4.418  1.0706  1.9472  0.5019
 1233SOL    HW2 4599   1.042   3.086   4.431  0.9549 -0.3177  0.3994
 1234SOL     OW 4600   5.962   2.170   4.395  0.3169  0.3241 -0.2181
 1234SOL    HW1 4601   5.978   2.074   4.416 -0.1132  0.6219  1.7130
 1234SOL    HW2 4602   5.883   2.179   4.335  1.6149 -0.6001 -2.1792
 1235SOL     OW 4603   4.846   6.724   3.930  0.2000  0.5792 -0.1995
 1235SOL    HW1 4604   4.874   6.733   3.834  0.5394  0.6105 -0.0984
 1235SOL    HW2 4605   4.887   6.641   3.968 -0.1165  0.4465 -0.1437
 1236SOL     OW 4606   6.777   1.036   3.352  0.2225  0.6085  0.2926
 1236SOL    HW1 4607   6.859   1.002   3.399 -0.3633 -0.8499  0.2983
 1236SOL    HW2 4608   6.805   1.091   3.274  1.2740 -0.9667 -0.5085
 1237SOL     OW 4609   3.766   5.245   1.409 -0.2869  0.0753 -0.1034
 1237SOL    HW1 4610   3.747   5.154   1.447 -1.1888  0.9485  1.6941
 1237SOL    HW2 4611   3.753   5.244   1.310  1.2835 -2.1158 -0.3598
 1238SOL     OW 4612   4.453   3.968   6.807 -0.3125 -0.0745 -0.0134
 1238SOL    HW1 4613   4.401   3.890   6.843  0.8407 -0.7988  0.1359
 1238SOL    HW2 4614   4.464   3.957   6.708 -0.8463  0.3342 -0.1242
 1239SOL     OW 4615   0.944   2.695   1.594  0.0477 -0.5479 -0.0571
 1239SOL    HW1 4616   0.983   2.615   1.638  0.9437 -1.0085 -1.5936
 1239SOL    HW2 4617   0.893   2.666   1.512 -1.2071  0.2996  0.3920
 1240SOL     OW 4618   1.752   1.107   0.480  0.4042  0.8884  0.1833
 1240SOL    HW1 4619   1.734   1.010   0.467 -0.4069  1.0754 -0.1235
 1240SOL    HW2 4620   1.850   1.124   0.467  0.9175 -0.2022  2.2755
 1241SOL     OW 4621   4.539   4.460   1.213  0.4816  0.4374 -0.2218
 1241SOL    HW1 4622   4.593   4.416   1.285  0.0806  2.5645  1.4952
 1241SOL    HW2 4623   4.443   4.462   1.240  0.1973  0.5813 -1.1981
 1242SOL     OW 4624   0.424   0.167   2.446  0.0156 -0.4449  0.2111
 1242SOL    HW1 4625   0.465   0.189   2.535  0.0776 -1.3926  0.4294
 1242SOL    HW2 4626   0.452   0.075   2.418  0.7306  0.1765 -1.2256
 1243SOL     OW 4627   5.583   4.934   6.073  0.3552 -0.3287 -0.3862
 1243SOL    HW1 4628   5.571   5.033   6.069 -0.2169 -0.4360 -1.9829
 1243SOL    HW2 4629   5.576   4.903   6.168  0.4014  1.1289  0.1152
 1244SOL     OW 4630   3.883   0.941   0.839 -0.0969  0.0842 -0.2755
 1244SOL    HW1 4631   3.795   0.893   0.841 -0.1819  0.2682  0.6219
 1244SOL    HW2 4632   3.868   1.035   0.809 -0.0252 -0.2328 -1.3450
 1245SOL     OW 4633   1.335   4.844   5.086 -0.3683  0.2159  0.6234
 1245SOL    HW1 4634   1.401   4.778   5.122 -0.7296  0.0145  0.9198
 1245SOL    HW2 4635   1.250   4.797   5.061  0.3946  0.0802 -1.9655
 1246SOL     OW 4636   1.145   2.653   2.613  0.2418 -0.2571 -0.2061
 1246SOL    HW1 4637   1.164   2.689   2.705 -2.1538 -0.5488  0.4686
 1246SOL    HW2 4638   1.216   2.588   2.588  0.6459 -0.6084  1.6897
 1247SOL     OW 4639   5.029   4.765   4.699  0.4092  0.2866  0.5027
 1247SOL    HW1 4640   4.983   4.787   4.785 -0.3245  1.6228 -0.1950
 1247SOL    HW2 4641   4.981   4.810   4.624  2.5679  1.3185 -0.3113
 1248SOL     OW 4642   6.149   6.515   0.955  0.2291 -0.3500  0.5251
 1248SOL    HW1 4643   6.189   6.425   0.936 -0.5329 -0.2358 -2.0772
 1248SOL    HW2 4644   6.051   6.512   0.937  0.2153  1.0430  0.2570
 1249SOL     OW 4645   6.536   2.426   5.749  0.2198  0.3346  0.2457
 1249SOL    HW1 4646   6.466   2.460   5.686  0.0310  2.5294  1.5458
 1249SOL    HW2 4647   6.617   2.397   5.696 -0.2266  1.3616 -1.0540
 1250SOL     OW 4648   4.390   0.584   5.161 -0.4339  0.2338  0.3403
 1250SOL    HW1 4649   4.305   0.545   5.197  0.2240 -1.3367  0.2717
 1250SOL    HW2 4650   4.459   0.584   5.234  0.7677 -2.5254 -0.6559
 1251SOL     OW 4651   3.941   0.385   0.036  0.2135 -0.1533 -0.1956
 1251SOL    HW1 4652   3.875   0.340   0.097  1.4465 -1.0746  0.5159
 1251SOL    HW2 4653   3.933   0.484   0.046  0.7959 -0.2718  1.9864
 1252SOL     OW 4654   6.015   1.906   0.069  0.3741  0.1110 -0.3622
 1252SOL    HW1 4655   5.961   1.964   0.008 -0.7405  0.4827  0.9407
 1252SOL    HW2 4656   5.989   1.810   0.055  1.5629 -0.0374 -1.8584
 1253SOL     OW 4657   0.132   0.171   0.919  0.1131  0.3484  0.1461
 1253SOL    HW1 4658   0.053   0.231   0.934 -0.0424 -0.1971  1.7035
 1253SOL    HW2 4659   0.162   0.134   1.007  0.2074 -1.8632 -0.7594
 1254SOL     OW 4660   5.468   5.698   4.984  0.5066 -0.3525 -0.3542
 1254SOL    HW1 4661   5.541   5.632   5.004  0.8303  0.4562  1.2626
 1254SOL    HW2 4662   5.463   5.765   5.058 -1.0748  0.3298 -1.0548
 1255SOL     OW 4663   5.174   3.105   2.214 -0.0602  0.0771  0.0834
 1255SOL    HW1 4664   5.168   3.178   2.145  1.5889 -0.2405 -0.4537
 1255SOL    HW2 4665   5.083   3.083   2.248 -0.9242  0.2201 -2.0193
 1256SOL     OW 4666   3.426   4.130   2.415  0.2519  0.3202 -0.0771
 1256SOL    HW1 4667   3.409   4.217   2.462 -0.8064 -0.3422  0.8148
 1256SOL    HW2 4668   3.339   4.091   2.386  0.6650 -0.7348  0.0723
 1257SOL     OW 4669   0.660   2.856   1.527 -0.5461 -0.4465  0.2482
 1257SOL    HW1 4670   0.701   2.769   1.500 -0.9203 -0.6279  0.2529
 1257SOL    HW2 4671   0.572   2.838   1.571 -1.0587 -0.0059 -0.5882
 1258SOL     OW 4672   0.471   3.764   1.794  0.0368 -0.1870 -0.0799
 1258SOL    HW1 4673   0.441   3.785   1.887  0.2112  1.2853 -0.3375
 1258SOL    HW2 4674   0.438   3.673   1.769 -0.8037 -0.2339  1.0868
 1259SOL     OW 4675   4.693   6.031   6.784 -0.0771 -0.2499 -0.1771
 1259SOL    HW1 4676   4.643   5.981   6.713  0.1822  1.8198 -1.9474
 1259SOL    HW2 4677   4.790   6.032   6.762 -0.1602  1.6386 -0.6898
 1260SOL     OW 4678   3.183   5.867   5.932  0.2835 -0.0521 -0.0348
 1260SOL    HW1 4679   3.111   5.876   6.001  1.1444 -0.6680  0.9821
 1260SOL    HW2 4680   3.156   5.915   5.849 -0.9947  0.3032  0.5626
 1261SOL     OW 4681   1.245   3.762   6.658 -0.2234 -0.4258 -0.3862
 1261SOL    HW1 4682   1.264   3.857   6.680 -0.7091 -0.3508 -0.2832
 1261SOL    HW2 4683   1.263   3.704   6.738 -0.1574 -0.3878 -0.3744
 1262SOL     OW 4684   4.265   1.701   4.697 -0.2431 -0.0394  0.1067
 1262SOL    HW1 4685   4.310   1.723   4.784 -0.5592  0.4159  0.1641
 1262SOL    HW2 4686   4.220   1.612   4.704 -1.5941  0.6683  0.9649
 1263SOL     OW 4687   3.605   1.505   3.416  0.1693  0.0952  0.0936
 1263SOL    HW1 4688   3.638   1.523   3.324  0.1903 -1.5741 -0.2399
 1263SOL    HW2 4689   3.510   1.474   3.412 -0.8945  2.8973  0.8941
 1264SOL     OW 4690   3.556   3.900   4.197  0.9428 -0.1077 -0.1418
 1264SOL    HW1 4691   3.642   3.875   4.152  0.5536  1.9793 -2.2615
 1264SOL    HW2 4692   3.554   3.998   4.214 -1.7434  0.2814 -1.9725
 1265SOL     OW 4693   3.337   0.967   6.938  0.2395  0.9244  0.1855
 1265SOL    HW1 4694   3.252   0.961   6.887  1.2368  1.6591 -1.6541
 1265SOL    HW2 4695   3.388   1.047   6.908  1.8293  0.2071  0.8653
 1266SOL     OW 4696   4.682   5.045   2.647  0.2877  0.6338 -0.2753
 1266SOL    HW1 4697   4.778   5.061   2.625  0.8486 -0.9816  0.8028
 1266SOL    HW2 4698   4.633   5.013   2.566  0.6083  1.5917 -0.8605
 1267SOL     OW 4699   1.416   5.983   0.591 -0.4922 -0.0894 -0.4859
 1267SOL    HW1 4700   1.501   6.020   0.629  0.0397  0.8111 -2.4302
 1267SOL    HW2 4701   1.340   6.003   0.654  0.7313 -1.1946  1.4240
 1268SOL     OW 4702   1.924   1.510   4.304  0.3505 -0.8234  0.1239
 1268SOL    HW1 4703   1.896   1.506   4.400  0.2330 -3.5370  0.0442
 1268SOL    HW2 4704   1.990   1.438   4.286  0.4898 -0.2598 -1.8214
 1269SOL     OW 4705   6.744   3.570   0.876 -0.5460  0.0401  0.0353
 1269SOL    HW1 4706   6.652   3.602   0.856 -0.2051 -0.9205 -3.7800
 1269SOL    HW2 4707   6.810   3.644   0.861 -0.4614 -0.0630 -0.1058
 1270SOL     OW 4708   6.860   5.537   0.096 -0.0976  0.5332  0.5398
 1270SOL    HW1 4709   6.770   5.572   0.071 -0.2648  0.1714  0.6395
 1270SOL    HW2 4710   6.891   5.472   0.026  0.4534  1.2819  0.0652
 1271SOL     OW 4711   4.735   5.523   1.019 -0.1819 -0.1316 -0.4851
 1271SOL    HW1 4712   4.791   5.593   0.976 -1.0875  2.2372  1.8621
 1271SOL    HW2 4713   4.638   5.539   0.997 -0.4292 -0.3868  0.3626
 1272SOL     OW 4714   2.642   5.467   3.542 -0.0629  0.3003 -1.0134
 1272SOL    HW1 4715   2.573   5.459   3.613  0.0496  1.3200 -0.7672
 1272SOL    HW2 4716   2.616   5.411   3.463 -1.5896  1.2468 -1.2330
 1273SOL     OW 4717   5.967   6.952   6.898 -0.5597  0.3663 -0.5005
 1273SOL    HW1 4718   5.921   6.983   6.981 -0.4708 -1.4310  0.2428
 1273SOL    HW2 4719   5.947   7.017   6.824 -0.5871  2.0285  0.8958
 1274SOL     OW 4720   2.551   2.128   3.913 -0.3518  0.4369 -0.2429
 1274SOL    HW1 4721   2.514   2.037   3.931 -1.6015  0.8418 -0.6245
 1274SOL    HW2 4722   2.476   2.189   3.887  0.1674  2.0830  1.9103
 1275SOL     OW 4723   5.997   6.619   5.110  0.1448 -0.2887 -0.3083
 1275SOL    HW1 4724   6.006   6.544   5.044 -0.9455  1.6549 -2.7949
 1275SOL    HW2 4725   5.917   6.602   5.169 -0.9594 -0.4584 -1.7923
 1276SOL     OW 4726   1.898   1.778   6.550  0.0531 -0.1650  0.2812
 1276SOL    HW1 4727   1.816   1.791   6.494  0.9964 -0.8193 -1.3392
 1276SOL    HW2 4728   1.872   1.754   6.643 -1.5854  1.1665  0.1982
 1277SOL     OW 4729   3.077   1.986   5.115  0.2154 -0.6072 -0.5716
 1277SOL    HW1 4730   3.172   1.963   5.136 -0.1093  0.4326  2.7324
 1277SOL    HW2 4731   3.066   2.085   5.113 -0.7795 -0.7148 -1.1227
 1278SOL     OW 4732   1.599   4.726   3.742 -0.4283  0.2339  0.2562
 1278SOL    HW1 4733   1.520   4.677   3.780 -1.4084  1.2520 -0.3965
 1278SOL    HW2 4734   1.645   4.776   3.815 -1.3869  0.9570  0.3885
 1279SOL     OW 4735   2.641   4.382   5.314  0.3031 -0.0344  0.6044
 1279SOL    HW1 4736   2.589   4.444   5.373  0.3962  1.2668 -0.6358
 1279SOL    HW2 4737   2.720   4.431   5.277  0.9032 -1.1902  0.3420
 1280SOL     OW 4738   0.796   1.539   2.027 -0.7185 -0.4106 -0.0521
 1280SOL    HW1 4739   0.758   1.631   2.036  1.0042  0.2560  0.8232
 1280SOL    HW2 4740   0.839   1.529   1.938 -2.1502 -0.9073 -0.7328
 1281SOL     OW 4741   3.671   4.264   1.670  0.7750  0.1464  0.1462
 1281SOL    HW1 4742   3.695   4.348   1.718  1.0866 -0.9257  1.9631
 1281SOL    HW2 4743   3.574   4.267   1.645 -0.3573 -0.4870  3.7894
 1282SOL     OW 4744   6.545   0.805   6.974 -0.2517 -0.2854 -0.1947
 1282SOL    HW1 4745   6.516   0.881   7.032 -0.9419  0.8491 -1.9442
 1282SOL    HW2 4746   6.599   0.840   6.898 -0.0828 -1.6363 -0.7334
 1283SOL     OW 4747   3.631   3.525   1.318 -0.0246 -0.5649 -0.4171
 1283SOL    HW1 4748   3.542   3.540   1.277 -0.3028  0.2567  0.4524
 1283SOL    HW2 4749   3.693   3.485   1.250 -0.7417 -0.1515 -1.3353
 1284SOL     OW 4750   4.510   0.134   6.352 -0.5479  0.6500 -0.3517
 1284SOL    HW1 4751   4.492   0.074   6.430 -0.5413 -2.0371 -2.2521
 1284SOL    HW2 4752   4.598   0.179   6.364  0.0008 -0.6361  0.6686
 1285SOL     OW 4753   4.361   2.150   6.576 -0.1505 -0.1711 -0.1042
 1285SOL    HW1 4754   4.455   2.180   6.597 -0.5906 -0.3115  2.2717
 1285SOL    HW2 4755   4.299   2.228   6.586 -0.3059 -0.0133 -1.9424
 1286SOL     OW 4756   5.067   1.711   0.109  0.2173 -0.2879 -0.3956
 1286SOL    HW1 4757   5.124   1.629   0.105  1.3007  0.4186  0.0935
 1286SOL    HW2 4758   5.102   1.779   0.044  1.6519  1.1801  1.7605
 1287SOL     OW 4759   6.779   4.088   5.304 -0.0259  0.4195  0.0793
 1287SOL    HW1 4760   6.795   4.090   5.205  1.2342 -4.7019 -0.0944
 1287SOL    HW2 4761   6.867   4.093   5.352  0.1449 -3.2078  0.4296
 1288SOL     OW 4762   5.525   5.388   5.112 -0.0855  0.4501 -0.5031
 1288SOL    HW1 4763   5.494   5.295   5.093  1.1110  0.3546 -2.2795
 1288SOL    HW2 4764   5.580   5.421   5.035  2.2043  1.4403  1.4267
 1289SOL     OW 4765   2.999   3.070   6.160  0.4695  0.2158  0.1435
 1289SOL    HW1 4766   2.982   3.169   6.156  0.3644  0.4217  3.3465
 1289SOL    HW2 4767   3.096   3.053   6.145  0.0637  0.3365 -3.9223
 1290SOL     OW 4768   2.687   1.426   5.019  0.0755  0.7543 -0.5052
 1290SOL    HW1 4769   2.651   1.504   4.968 -0.6140  0.0899 -1.0525
 1290SOL    HW2 4770   2.613   1.364   5.041  0.7428 -0.1706 -0.8187
 1291SOL     OW 4771   6.864   3.151   2.139  0.3790  0.3215 -0.2846
 1291SOL    HW1 4772   6.949   3.140   2.189  0.0338 -0.7613  0.0993
 1291SOL    HW2 4773   6.854   3.076   2.073 -0.3015  0.4112 -0.2950
 1292SOL     OW 4774   5.004   4.289   3.446 -0.0492  0.4073 -0.1584
 1292SOL    HW1 4775   4.964   4.219   3.387 -0.9319  1.0066 -0.2889
 1292SOL    HW2 4776   5.057   4.246   3.518  0.4013 -0.3618 -0.9271
 1293SOL     OW 4777   6.479   6.224   2.223  0.1713  0.1372 -0.0544
 1293SOL    HW1 4778   6.411   6.189   2.288 -2.1383  1.5297 -1.5521
 1293SOL    HW2 4779   6.488   6.323   2.234  0.2148  0.3043 -1.4046
 1294SOL     OW 4780   3.263   0.554   5.424  0.1926 -0.3512  0.3545
 1294SOL    HW1 4781   3.177   0.549   5.474 -0.1721 -3.9342 -0.3596
 1294SOL    HW2 4782   3.339   0.536   5.486  0.4204  1.8400  0.7902
 1295SOL     OW 4783   0.617   5.585   4.688 -0.2152 -0.0281  0.9010
 1295SOL    HW1 4784   0.542   5.521   4.672 -0.2079  0.3049 -0.6226
 1295SOL    HW2 4785   0.704   5.542   4.663 -0.2406  0.6531 -0.4198
 1296SOL     OW 4786   5.181   2.297   3.120  0.1402 -0.0568  0.1314
 1296SOL    HW1 4787   5.249   2.269   3.188  0.6767  3.0581  1.0534
 1296SOL    HW2 4788   5.131   2.376   3.153 -1.0614  0.3031 -2.2765
 1297SOL     OW 4789   2.296   1.595   6.684  0.2766  0.6327 -0.1565
 1297SOL    HW1 4790   2.241   1.578   6.766 -0.6188  0.5982 -0.7397
 1297SOL    HW2 4791   2.372   1.656   6.706 -0.4981  1.3841  0.5030
 1298SOL     OW 4792   6.880   5.697   3.804  0.3165  0.3863 -0.1234
 1298SOL    HW1 4793   6.946   5.653   3.865  0.5866 -1.0425 -1.3778
 1298SOL    HW2 4794   6.926   5.770   3.753  0.0797  1.6156  1.3347
 1299SOL     OW 4795   2.505   3.979   6.667  0.5212 -0.1048 -0.5710
 1299SOL    HW1 4796   2.538   3.954   6.758  1.1167  0.9795 -0.4744
 1299SOL    HW2 4797   2.543   4.067   6.641 -0.2056 -0.0758 -1.5880
 1300SOL     OW 4798   0.982   1.440   6.781 -0.0182 -0.7529  0.2034
 1300SOL    HW1 4799   0.900   1.384   6.788 -2.2371  1.8234 -2.4881
 1300SOL    HW2 4800   1.034   1.413   6.700 -0.5334  0.2625 -0.4957
 1301SOL     OW 4801   2.773   6.298   2.868  0.0173 -0.6015  0.0959
 1301SOL    HW1 4802   2.780   6.292   2.768  0.8312  0.5529  0.0787
 1301SOL    HW2 4803   2.704   6.232   2.900 -0.5123 -0.7329 -1.2533
 1302SOL     OW 4804   6.066   1.834   5.360 -0.5184 -0.0501 -0.5344
 1302SOL    HW1 4805   5.983   1.808   5.309  0.4649 -3.0567 -0.7819
 1302SOL    HW2 4806   6.145   1.829   5.299  0.7108 -3.9013  1.1211
 1303SOL     OW 4807   4.694   5.795   3.114 -0.5408 -0.0527  0.3108
 1303SOL    HW1 4808   4.624   5.770   3.180 -0.7208  1.3616  0.6961
 1303SOL    HW2 4809   4.652   5.837   3.034 -0.3423 -1.9655 -0.8543
 1304SOL     OW 4810   6.141   0.187   4.374  0.7334 -0.2799 -0.2270
 1304SOL    HW1 4811   6.054   0.214   4.413  1.1226  0.5157  0.1030
 1304SOL    HW2 4812   6.126   0.143   4.285 -0.2113 -2.5556  0.9636
 1305SOL     OW 4813   0.057   2.120   6.265 -0.2922  0.6129 -0.1199
 1305SOL    HW1 4814   0.005   2.179   6.203 -0.9430 -0.5491 -0.7053
 1305SOL    HW2 4815   0.077   2.033   6.220  1.1329  0.5730  0.5318
 1306SOL     OW 4816   5.553   5.002   5.429  0.2312  0.0899  0.2676
 1306SOL    HW1 4817   5.573   5.065   5.504 -1.1048  0.7250  0.1258
 1306SOL    HW2 4818   5.561   4.908   5.462  1.1581  0.3316  0.7798
 1307SOL     OW 4819   3.987   4.878   4.810  0.7226  0.9361 -0.0351
 1307SOL    HW1 4820   3.966   4.942   4.885 -0.4280  0.8577 -0.2769
 1307SOL    HW2 4821   4.074   4.833   4.828  0.1303  0.3973  1.6162
 1308SOL     OW 4822   1.903   3.380   0.511  0.3887  0.0001 -0.1878
 1308SOL    HW1 4823   1.830   3.353   0.448  0.7185  1.3420 -1.2023
 1308SOL    HW2 4824   1.992   3.366   0.466  0.5766  2.8510 -0.8903
 1309SOL     OW 4825   2.156   1.629   1.859  0.3957 -0.3701 -0.0559
 1309SOL    HW1 4826   2.122   1.666   1.772 -1.0145 -0.0279  0.6058
 1309SOL    HW2 4827   2.244   1.671   1.881  1.0270 -0.8381 -1.5539
 1310SOL     OW 4828   3.132   1.546   4.951  0.1144 -0.1591 -0.5961
 1310SOL    HW1 4829   3.060   1.560   5.018  0.3542 -0.8517 -0.1715
 1310SOL    HW2 4830   3.105   1.473   4.888  0.2304 -0.0728 -0.7461
 1311SOL     OW 4831   1.915   0.331   4.928 -0.3954 -0.5457 -0.5417
 1311SOL    HW1 4832   1.922   0.279   4.843 -0.7754  0.5491 -1.2704
 1311SOL    HW2 4833   1.819   0.352   4.946 -0.1764  0.9266 -0.9337
 1312SOL     OW 4834   1.648   3.968   5.775 -0.1530  0.2050  0.1197
 1312SOL    HW1 4835   1.587   3.913   5.718 -1.0257  0.1502  1.0909
 1312SOL    HW2 4836   1.714   3.908   5.821 -1.4002 -0.1214  1.5440
 1313SOL     OW 4837   1.832   0.033   1.561 -0.0888  0.1695  0.4424
 1313SOL    HW1 4838   1.831  -0.058   1.603 -3.0338 -0.2497 -0.2974
 1313SOL    HW2 4839   1.771   0.093   1.612  0.3617  1.2008 -0.2026
 1314SOL     OW 4840   4.535   5.390   1.325  0.2328  0.0108 -0.4214
 1314SOL    HW1 4841   4.556   5.438   1.409  1.6128  0.0420 -0.7675
 1314SOL    HW2 4842   4.620   5.367   1.277 -0.5244 -0.0661 -1.7704
 1315SOL     OW 4843   6.324   4.586   1.293  0.2426 -0.2872 -0.0332
 1315SOL    HW1 4844   6.342   4.676   1.333  2.8325 -0.9327  0.4412
 1315SOL    HW2 4845   6.363   4.515   1.351 -0.1798 -1.6004 -1.2949
 1316SOL     OW 4846   6.087   2.228   1.045 -0.1364  0.1242 -0.3375
 1316SOL    HW1 4847   6.152   2.158   1.017 -0.0703  0.0613 -0.0306
 1316SOL    HW2 4848   5.998   2.210   1.002 -0.4837 -0.9057  0.7546
 1317SOL     OW 4849   3.620   3.469   4.415  0.4979 -0.1639 -0.5365
 1317SOL    HW1 4850   3.698   3.531   4.421 -0.1787  0.6675 -0.0882
 1317SOL    HW2 4851   3.569   3.472   4.501 -0.5602  0.0171 -1.1546
 1318SOL     OW 4852   5.427   1.225   1.033 -0.3369 -0.1696 -0.2145
 1318SOL    HW1 4853   5.430   1.242   0.935  0.3153  0.0338 -0.1640
 1318SOL    HW2 4854   5.384   1.302   1.079  1.0339  0.5907 -0.1623
 1319SOL     OW 4855   2.018   4.521   4.363  0.6650 -0.2280 -0.2184
 1319SOL    HW1 4856   2.093   4.511   4.429  0.8459 -0.9051 -0.5144
 1319SOL    HW2 4857   2.026   4.608   4.316 -0.8740  1.4629  2.3834
 1320SOL     OW 4858   5.325   5.361   5.819 -0.2633 -0.0382  1.0465
 1320SOL    HW1 4859   5.282   5.391   5.904 -1.2173 -1.5375  1.1264
 1320SOL    HW2 4860   5.328   5.437   5.754 -1.4604  0.5608  1.6702
 1321SOL     OW 4861   0.813   0.600   3.079 -0.0634 -0.0658 -0.0799
 1321SOL    HW1 4862   0.882   0.592   3.007 -0.2112 -2.5890 -0.0403
 1321SOL    HW2 4863   0.813   0.693   3.115  1.2221  0.8012 -2.1238
 1322SOL     OW 4864   4.211   1.933   4.314  0.2505  0.3334  0.1615
 1322SOL    HW1 4865   4.127   1.900   4.271 -0.2731  1.5240  0.2215
 1322SOL    HW2 4866   4.287   1.924   4.250 -0.1615  0.3558 -0.3376
 1323SOL     OW 4867   1.444   1.906   5.435 -0.0340 -0.0467  0.3904
 1323SOL    HW1 4868   1.502   1.986   5.454 -0.1100  0.8824 -2.7337
 1323SOL    HW2 4869   1.501   1.824   5.434  0.5294  0.3200  1.0463
 1324SOL     OW 4870   1.190   6.471   0.854 -0.4983 -0.0880  0.2253
 1324SOL    HW1 4871   1.092   6.481   0.868 -0.5366  0.5335 -0.4214
 1324SOL    HW2 4872   1.238   6.498   0.938 -0.8016  1.6935 -0.1259
 1325SOL     OW 4873   2.099   4.470   5.028  0.0836  0.4191  0.3540
 1325SOL    HW1 4874   2.053   4.524   5.099  2.1047  0.7598  1.4961
 1325SOL    HW2 4875   2.055   4.381   5.020 -0.0639  0.2807  2.2381
 1326SOL     OW 4876   3.651   2.992   1.317 -0.8738 -0.6572 -0.1979
 1326SOL    HW1 4877   3.658   2.894   1.334 -1.3134 -0.6309  0.1343
 1326SOL    HW2 4878   3.743   3.032   1.316 -0.7980 -0.6936  1.9064
 1327SOL     OW 4879   1.728   0.117   0.012  0.3045 -0.3249  0.5774
 1327SOL    HW1 4880   1.684   0.035  -0.025 -0.3643 -0.3840  1.4720
 1327SOL    HW2 4881   1.776   0.093   0.097 -0.9190  0.4277  1.5210
 1328SOL     OW 4882   5.788   3.013   0.194  0.0785  0.1842 -0.2908
 1328SOL    HW1 4883   5.791   3.109   0.165 -0.4818 -0.1370 -1.4944
 1328SOL    HW2 4884   5.697   2.992   0.229  0.9846  0.7891  2.6565
 1329SOL     OW 4885   1.448   2.667   0.348  0.1244 -0.0183  0.2434
 1329SOL    HW1 4886   1.460   2.658   0.250  1.6271 -1.6205  0.5236
 1329SOL    HW2 4887   1.454   2.577   0.391 -1.8674  0.4635  1.6958
 1330SOL     OW 4888   4.357   6.803   3.294  0.1422 -0.4363 -0.8812
 1330SOL    HW1 4889   4.348   6.861   3.213  0.0710 -1.4366 -1.6047
 1330SOL    HW2 4890   4.435   6.835   3.348 -0.6581  1.1066 -0.5962
 1331SOL     OW 4891   1.258   0.124   0.713  0.5318  0.1941  0.1555
 1331SOL    HW1 4892   1.280   0.097   0.807 -0.3195  0.9260  0.5742
 1331SOL    HW2 4893   1.301   0.212   0.693 -0.0566  0.4923  0.1855
 1332SOL     OW 4894   1.153   0.940   1.655  0.1950 -0.4959  0.0304
 1332SOL    HW1 4895   1.232   0.992   1.622 -0.7149  1.3221  0.6268
 1332SOL    HW2 4896   1.146   0.949   1.755 -1.5995  0.6256 -0.1577
 1333SOL     OW 4897   1.368   3.191   1.390 -0.6044  0.0766 -0.2102
 1333SOL    HW1 4898   1.277   3.196   1.349 -0.3975 -2.2299 -1.1133
 1333SOL    HW2 4899   1.361   3.202   1.489 -1.7655  0.6492 -0.3448
 1334SOL     OW 4900   1.204   1.534   2.448  0.1376  0.6030  0.4606
 1334SOL    HW1 4901   1.182   1.534   2.350 -1.0011 -0.6170  0.6877
 1334SOL    HW2 4902   1.209   1.439   2.480  2.5302  0.9156  1.1729
 1335SOL     OW 4903   3.714   2.875   1.700 -0.0352  0.4470 -0.2771
 1335SOL    HW1 4904   3.630   2.820   1.704  1.3885 -1.8481  0.5041
 1335SOL    HW2 4905   3.790   2.818   1.667  1.7361  1.6705  1.4191
 1336SOL     OW 4906   5.762   1.412   3.767  0.8558 -0.0160  0.6085
 1336SOL    HW1 4907   5.740   1.501   3.806 -1.6737 -0.0908 -0.4995
 1336SOL    HW2 4908   5.805   1.355   3.837  0.1576  1.2030  2.0891
 1337SOL     OW 4909   6.605   4.471   1.928 -0.1468 -0.0640 -0.0230
 1337SOL    HW1 4910   6.648   4.410   1.861 -0.3425  0.0044 -0.2096
 1337SOL    HW2 4911   6.619   4.566   1.900  0.5985  0.0026  0.5319
 1338SOL     OW 4912   0.535   6.648   4.123 -0.2568  0.4457  0.3934
 1338SOL    HW1 4913   0.530   6.698   4.210 -0.2981  0.7181  0.2332
 1338SOL    HW2 4914   0.497   6.703   4.050 -0.6044  0.0503  0.2706
 1339SOL     OW 4915   3.284   5.709   6.690 -0.0488  0.5870 -0.0553
 1339SOL    HW1 4916   3.196   5.756   6.703 -0.8377 -0.6895 -0.5629
 1339SOL    HW2 4917   3.325   5.689   6.779  0.7915  3.0333  0.1810
 1340SOL     OW 4918   1.109   4.396   2.950  0.3499 -0.3400 -0.3805
 1340SOL    HW1 4919   1.151   4.471   2.899 -0.4664  1.8747  1.9638
 1340SOL    HW2 4920   1.180   4.344   2.997  0.8066  0.3820 -0.2544
 1341SOL     OW 4921   4.339   2.271   6.141  0.3647 -0.0141  0.2736
 1341SOL    HW1 4922   4.335   2.279   6.041  2.8297 -0.0121  0.1062
 1341SOL    HW2 4923   4.248   2.281   6.179 -1.1974 -3.1363 -2.1875
 1342SOL     OW 4924   1.438   6.825   4.723 -0.4469  0.2102 -0.2860
 1342SOL    HW1 4925   1.344   6.849   4.697 -1.0148 -0.5419  0.9524
 1342SOL    HW2 4926   1.465   6.879   4.802  0.7219  1.4505 -1.4916
 1343SOL     OW 4927   0.263   2.811   5.599 -0.0376  0.3874  0.0590
 1343SOL    HW1 4928   0.203   2.732   5.612 -1.2325  0.5589 -3.3737
 1343SOL    HW2 4929   0.207   2.894   5.595  0.7188  0.8779 -0.5204
 1344SOL     OW 4930   2.688   2.446   1.144 -0.8306  0.0291  0.1227
 1344SOL    HW1 4931   2.618   2.488   1.087  0.2272  0.9809 -0.5198
 1344SOL    HW2 4932   2.657   2.445   1.239 -1.6665  0.5250 -0.1329
 1345SOL     OW 4933   3.957   5.549   1.193 -0.7322  0.3915 -0.0769
 1345SOL    HW1 4934   3.863   5.574   1.172 -0.2173  2.1632 -0.4212
 1345SOL    HW2 4935   3.958   5.472   1.257 -2.3943  0.3732 -0.0473
 1346SOL     OW 4936   2.818   2.006   6.920 -0.0015 -0.3380 -0.0207
 1346SOL    HW1 4937   2.724   1.978   6.938  0.8107 -1.8537  2.2594
 1346SOL    HW2 4938   2.862   1.939   6.860  0.6979 -1.8235  2.0459
 1347SOL     OW 4939   1.581   4.092   6.703 -0.1541  0.0626  0.5929
 1347SOL    HW1 4940   1.681   4.101   6.711 -0.3341  4.3408  0.0161
 1347SOL    HW2 4941   1.560   4.028   6.629  2.1208 -0.5763  0.3918
 1348SOL     OW 4942   0.977   0.583   2.849 -0.5443 -0.0613  0.3968
 1348SOL    HW1 4943   0.972   0.661   2.787  1.0010  1.0895  1.6207
 1348SOL    HW2 4944   1.046   0.518   2.815 -0.5282 -0.0051  0.3225
 1349SOL     OW 4945   2.479   0.708   3.194 -0.1385 -0.1146  0.0878
 1349SOL    HW1 4946   2.512   0.773   3.126  1.5489  1.5233  2.2889
 1349SOL    HW2 4947   2.379   0.711   3.199 -0.1191  2.2996  0.0364
 1350SOL     OW 4948   6.446   4.788   0.336  0.6282 -0.2587 -0.2277
 1350SOL    HW1 4949   6.492   4.699   0.331 -0.1182 -0.5962 -1.6930
 1350SOL    HW2 4950   6.473   4.843   0.257 -0.7504 -0.1156 -0.6173
 1351SOL     OW 4951   0.574   1.015   1.212 -0.3134 -0.7066  0.1337
 1351SOL    HW1 4952   0.643   0.948   1.240 -1.6956 -2.0110  0.5821
 1351SOL    HW2 4953   0.518   1.041   1.291  0.6191  1.5403  0.1041
 1352SOL     OW 4954   5.866   5.705   2.718 -0.4508  1.0969 -0.1591
 1352SOL    HW1 4955   5.888   5.630   2.780 -1.1302  1.3895  0.4560
 1352SOL    HW2 4956   5.932   5.707   2.643 -1.7118 -1.5370 -1.4747
 1353SOL     OW 4957   4.619   1.292   6.251 -0.3463  0.1639 -0.1415
 1353SOL    HW1 4958   4.698   1.306   6.191 -0.0218  0.9064  0.4423
 1353SOL    HW2 4959   4.541   1.346   6.217 -0.7202 -0.8304 -0.9087
 1354SOL     OW 4960   2.668   0.701   1.525  0.2228 -0.4364 -0.1550
 1354SOL    HW1 4961   2.606   0.761   1.576  0.9260  0.8751 -0.7822
 1354SOL    HW2 4962   2.646   0.606   1.544 -2.8029 -0.0613 -1.3116
 1355SOL     OW 4963   4.092   1.523   1.170 -0.1365  0.3809 -0.2990
 1355SOL    HW1 4964   4.061   1.492   1.259  0.5321 -1.0433 -0.5293
 1355SOL    HW2 4965   4.172   1.469   1.142 -0.6769  0.4170 -2.0065
 1356SOL     OW 4966   3.160   1.681   5.821  0.0736 -0.0034  0.2376
 1356SOL    HW1 4967   3.122   1.752   5.762  1.3672 -0.3463 -1.0766
 1356SOL    HW2 4968   3.088   1.619   5.851 -0.6525  0.3170 -0.8067
 1357SOL     OW 4969   4.930   2.472   6.363 -0.7561 -0.4783  0.4203
 1357SOL    HW1 4970   4.961   2.381   6.338  1.8206  0.8611 -1.7876
 1357SOL    HW2 4971   4.866   2.506   6.294  0.8637  0.5450 -0.6589
 1358SOL     OW 4972   6.418   2.268   2.618 -0.2031 -0.2694 -0.0241
 1358SOL    HW1 4973   6.386   2.174   2.608 -1.9099  0.0463  1.8487
 1358SOL    HW2 4974   6.340   2.328   2.637  1.0419  1.2682  0.4586
 1359SOL     OW 4975   0.880   1.655   4.457 -0.0824  0.2119 -0.3352
 1359SOL    HW1 4976   0.831   1.651   4.544 -0.1788  2.2534 -0.2402
 1359SOL    HW2 4977   0.843   1.730   4.402 -0.7328 -1.6538 -2.6319
 1360SOL     OW 4978   0.132   2.436   3.829 -0.0719  0.8289 -0.1984
 1360SOL    HW1 4979   0.064   2.376   3.786 -0.1450  0.6437  0.1723
 1360SOL    HW2 4980   0.168   2.500   3.761  0.4028  0.0157 -0.7311
 1361SOL     OW 4981   5.613   5.406   1.637  0.0991  0.1525  0.4493
 1361SOL    HW1 4982   5.542   5.476   1.637  0.4292  0.4936  0.0038
 1361SOL    HW2 4983   5.579   5.324   1.684 -0.4355  0.4580  0.6051
 1362SOL     OW 4984   1.142   1.766   4.357  0.2789  0.1001  0.4066
 1362SOL    HW1 4985   1.058   1.728   4.396 -0.2427 -0.8779 -1.5158
 1362SOL    HW2 4986   1.186   1.826   4.423  0.0951 -2.3038  2.8993
 1363SOL     OW 4987   3.379   5.332   0.203 -0.5297  0.1739  0.6194
 1363SOL    HW1 4988   3.474   5.310   0.181 -0.0377  1.1340  1.6702
 1363SOL    HW2 4989   3.326   5.336   0.118  1.3571  4.1438 -0.6688
 1364SOL     OW 4990   5.662   3.851   3.124 -0.1110 -0.2905 -0.1379
 1364SOL    HW1 4991   5.592   3.921   3.112  0.4643  0.2155 -0.6260
 1364SOL    HW2 4992   5.622   3.761   3.106 -0.6087 -0.0006 -0.5269
 1365SOL     OW 4993   2.851   6.544   5.498  0.0583  0.1117 -0.1074
 1365SOL    HW1 4994   2.773   6.498   5.454  1.1811 -1.3679 -0.6450
 1365SOL    HW2 4995   2.882   6.619   5.440 -0.3533  0.0703 -0.3878
 1366SOL     OW 4996   6.007   6.288   4.993  0.8211 -0.0152 -0.4323
 1366SOL    HW1 4997   6.074   6.263   5.063 -0.1635 -3.4216 -0.5263
 1366SOL    HW2 4998   6.045   6.272   4.902  0.5577  0.0471 -0.5550
 1367SOL     OW 4999   2.886   4.642   6.486  0.4282  0.0701 -0.1645
 1367SOL    HW1 5000   2.985   4.640   6.499  0.4970  1.6099 -0.1832
 1367SOL    HW2 5001   2.863   4.711   6.417 -0.6582 -0.3198 -0.2167
 1368SOL     OW 5002   2.357   4.486   1.763  0.3088  0.0825 -0.3370
 1368SOL    HW1 5003   2.413   4.525   1.836 -1.0897  1.2262  0.1701
 1368SOL    HW2 5004   2.264   4.520   1.771 -0.4285 -1.5876 -1.2930
 1369SOL     OW 5005   1.187   2.288   5.225 -0.0208 -0.0047  0.1254
 1369SOL    HW1 5006   1.238   2.350   5.284  0.1127  0.8364 -0.8416
 1369SOL    HW2 5007   1.093   2.280   5.258  0.1296  0.2121  0.6167
 1370SOL     OW 5008   4.023   0.285   1.634 -0.1684  0.0631 -0.3066
 1370SOL    HW1 5009   3.931   0.252   1.613 -0.3914  0.8236 -0.5720
 1370SOL    HW2 5010   4.017   0.379   1.667  0.3356 -0.5588  1.6531
 1371SOL     OW 5011   5.771   6.612   5.258 -0.1802  0.2390  0.2501
 1371SOL    HW1 5012   5.683   6.646   5.292 -0.2792  0.0072  0.2280
 1371SOL    HW2 5013   5.814   6.555   5.328 -0.4531 -0.3630 -0.0614
 1372SOL     OW 5014   1.431   4.930   4.602  0.4168  0.3183 -0.5677
 1372SOL    HW1 5015   1.388   4.988   4.533 -0.2747  0.2859 -0.1722
 1372SOL    HW2 5016   1.514   4.975   4.636 -1.3989  2.3345  1.5352
 1373SOL     OW 5017   0.939   0.049   0.626  0.1266  0.2982  0.3210
 1373SOL    HW1 5018   0.986   0.084   0.544  0.6949  0.1966  0.5938
 1373SOL    HW2 5019   0.989  -0.030   0.662 -1.1710 -0.8438 -0.3039
 1374SOL     OW 5020   6.254   5.580   3.195  0.0900  0.1618 -0.3791
 1374SOL    HW1 5021   6.323   5.525   3.243  2.0368  0.4404 -2.6550
 1374SOL    HW2 5022   6.169   5.528   3.187  0.8226 -1.2085  0.3550
 1375SOL     OW 5023   2.267   2.344   2.798 -0.0174  0.1737 -0.0034
 1375SOL    HW1 5024   2.339   2.403   2.835  1.2912 -0.9881 -0.6314
 1375SOL    HW2 5025   2.231   2.384   2.714 -0.8074  1.2315  0.8022
 1376SOL     OW 5026   1.619   1.192   1.655  0.1577 -0.7235  0.1948
 1376SOL    HW1 5027   1.688   1.262   1.638  0.1779 -0.0827  2.6122
 1376SOL    HW2 5028   1.616   1.129   1.577 -0.2399  2.1990 -2.3664
 1377SOL     OW 5029   2.695   4.788   4.237 -0.0225 -0.0767 -0.3358
 1377SOL    HW1 5030   2.774   4.791   4.298  0.4609 -0.2322 -0.9467
 1377SOL    HW2 5031   2.656   4.879   4.228 -0.2865 -0.1037  0.4437
 1378SOL     OW 5032   0.160   6.108   6.374 -0.0485  0.4897  0.0514
 1378SOL    HW1 5033   0.102   6.043   6.325  1.0272  0.2145 -0.8709
 1378SOL    HW2 5034   0.127   6.116   6.468 -1.0909 -0.2714 -0.2270
 1379SOL     OW 5035   0.246   5.244   2.714 -0.1001  0.3060  0.4239
 1379SOL    HW1 5036   0.267   5.220   2.619 -0.8829  0.2664  0.2504
 1379SOL    HW2 5037   0.193   5.328   2.715  1.0527  1.0430  0.9199
 1380SOL     OW 5038   3.251   3.549   1.896  0.7820 -0.1840  0.1055
 1380SOL    HW1 5039   3.269   3.464   1.946 -0.3034 -0.2913  0.3494
 1380SOL    HW2 5040   3.335   3.602   1.889  0.9735 -0.1498  2.0874
 1381SOL     OW 5041   5.604   6.503   6.601 -0.2310  0.1125  0.5405
 1381SOL    HW1 5042   5.597   6.563   6.680  0.1403  1.0503 -0.1256
 1381SOL    HW2 5043   5.512   6.474   6.573 -0.3528 -0.3967  1.4278
 1382SOL     OW 5044   1.829   3.331   4.276  0.1578 -0.0017 -0.6562
 1382SOL    HW1 5045   1.908   3.314   4.218 -0.4312 -3.2415 -0.6522
 1382SOL    HW2 5046   1.849   3.301   4.369 -0.2421  1.5976 -0.0087
 1383SOL     OW 5047   5.191   4.194   3.135 -0.5032  0.2246 -0.4081
 1383SOL    HW1 5048   5.242   4.280   3.140 -0.4777  0.2195 -0.5941
 1383SOL    HW2 5049   5.212   4.139   3.216  0.5005 -0.1771 -0.9301
 1384SOL     OW 5050   5.503   2.543   5.457 -0.3168  0.2236  0.0980
 1384SOL    HW1 5051   5.416   2.514   5.496 -0.6146  1.2642  0.2375
 1384SOL    HW2 5052   5.504   2.642   5.447  0.2618  0.1054 -1.3255
 1385SOL     OW 5053   3.738   0.333   1.283  0.0912 -0.0045 -0.2132
 1385SOL    HW1 5054   3.822   0.284   1.261 -1.0050 -1.2267 -1.8917
 1385SOL    HW2 5055   3.753   0.431   1.268  1.2903 -0.1662 -0.2090
 1386SOL     OW 5056   4.023   2.588   0.427  0.1237  0.3446 -0.2011
 1386SOL    HW1 5057   4.087   2.511   0.429  0.9420  1.0282  0.1350
 1386SOL    HW2 5058   3.985   2.601   0.519 -0.9721 -0.4321 -0.5192
 1387SOL     OW 5059   0.010   0.942   6.342  0.2883  0.0202  0.7764
 1387SOL    HW1 5060   0.042   0.848   6.352 -0.7848 -0.2688  1.6412
 1387SOL    HW2 5061   0.007   0.987   6.431 -0.4203  0.4580  0.5477
 1388SOL     OW 5062   6.495   1.395   4.183 -0.1389  0.4569  0.1570
 1388SOL    HW1 5063   6.521   1.311   4.134  1.9900  0.6481  0.8401
 1388SOL    HW2 5064   6.401   1.419   4.161 -0.2401 -1.1653 -1.3948
 1389SOL     OW 5065   4.671   4.957   6.977 -0.0455 -0.0992  0.0236
 1389SOL    HW1 5066   4.748   4.954   7.040 -0.1338  1.6576  0.2577
 1389SOL    HW2 5067   4.693   5.018   6.901  1.0630 -3.9770 -3.1185
 1390SOL     OW 5068   1.979   3.532   2.526  0.0501  0.5418 -0.1332
 1390SOL    HW1 5069   1.940   3.450   2.567 -0.0606  0.4189 -0.4742
 1390SOL    HW2 5070   1.991   3.603   2.596  0.5124  0.1045  0.2362
 1391SOL     OW 5071   1.757   1.928   0.994  0.8093  0.2600  0.6528
 1391SOL    HW1 5072   1.716   1.854   1.047  1.3186 -0.7236 -0.2845
 1391SOL    HW2 5073   1.856   1.921   0.997  0.8581  0.6092  0.1613
 1392SOL     OW 5074   6.092   0.944   1.749 -0.3301 -0.0748  0.0788
 1392SOL    HW1 5075   6.158   0.910   1.816 -0.6999  0.1917  0.5757
 1392SOL    HW2 5076   6.136   1.014   1.692  0.3160 -1.0735 -0.6886
 1393SOL     OW 5077   2.827   4.863   6.630  0.6955 -0.0871 -0.0565
 1393SOL    HW1 5078   2.824   4.774   6.586 -1.4511 -0.2025  0.2446
 1393SOL    HW2 5079   2.829   4.935   6.560 -4.5589 -0.1871 -0.6505
 1394SOL     OW 5080   0.002   3.164   3.932 -0.3052 -0.0590 -0.1378
 1394SOL    HW1 5081   0.056   3.222   3.870 -0.2583 -0.3238 -0.3437
 1394SOL    HW2 5082  -0.051   3.099   3.878  1.3127 -1.6978  0.1533
 1395SOL     OW 5083   3.945   1.682   6.640  0.7567  0.1898 -0.0860
 1395SOL    HW1 5084   3.890   1.604   6.608  1.5663 -0.9966  1.3038
 1395SOL    HW2 5085   4.038   1.674   6.604  0.6949  0.8401 -0.4026
 1396SOL     OW 5086   1.555   6.532   6.335 -0.4962  0.2009  0.3394
 1396SOL    HW1 5087   1.566   6.449   6.389 -0.9295 -0.3063 -0.3352
 1396SOL    HW2 5088   1.482   6.519   6.268  1.0576  0.2243 -1.4431
 1397SOL     OW 5089   5.127   1.181   3.377  0.1598  0.4978 -0.5018
 1397SOL    HW1 5090   5.147   1.188   3.475 -1.6307 -0.9474  0.0324
 1397SOL    HW2 5091   5.102   1.271   3.342  2.6599  1.4283 -0.1441
 1398SOL     OW 5092   6.170   5.374   1.647  0.0593  0.0107  0.3196
 1398SOL    HW1 5093   6.252   5.317   1.643  0.5186  0.7070 -0.9520
 1398SOL    HW2 5094   6.125   5.362   1.736  1.4906 -0.4351  1.0179
 1399SOL     OW 5095   1.099   0.554   6.601 -0.1151  0.4696 -0.1549
 1399SOL    HW1 5096   1.176   0.525   6.657 -0.4741  1.3377  0.8218
 1399SOL    HW2 5097   1.104   0.653   6.586  0.9333  0.0549 -3.1805
 1400SOL     OW 5098   3.220   1.804   2.363 -0.7074 -0.8434  0.4655
 1400SOL    HW1 5099   3.235   1.728   2.426 -0.4457 -0.5787  0.7297
 1400SOL    HW2 5100   3.241   1.774   2.270  1.5793 -0.5143  0.8000
 1401SOL     OW 5101   5.325   2.489   2.938  0.6595  0.2325  0.0425
 1401SOL    HW1 5102   5.273   2.434   3.004 -1.4998 -0.6180 -2.1943
 1401SOL    HW2 5103   5.264   2.555   2.896  2.3570  1.7865 -0.0656
 1402SOL     OW 5104   2.890   4.024   5.430  0.1655  0.2471  0.6169
 1402SOL    HW1 5105   2.812   3.962   5.430  0.2308 -0.0612 -2.8707
 1402SOL    HW2 5106   2.971   3.975   5.397  1.4471  1.0157  2.4886
 1403SOL     OW 5107   0.911   2.551   3.306  0.2439  0.7092 -0.2030
 1403SOL    HW1 5108   0.874   2.633   3.349  2.2097  0.3928  2.3803
 1403SOL    HW2 5109   1.010   2.561   3.295  0.1183 -0.0825 -2.9703
 1404SOL     OW 5110   3.935   5.370   2.384 -0.0656 -0.4633  1.1223
 1404SOL    HW1 5111   3.913   5.273   2.392 -0.2640 -0.5864 -0.4902
 1404SOL    HW2 5112   4.034   5.382   2.381 -0.0507 -0.6675  0.7985
 1405SOL     OW 5113   4.187   6.275   5.990  0.6320 -0.7156  0.3550
 1405SOL    HW1 5114   4.178   6.185   6.034  1.6994  0.0290  2.2521
 1405SOL    HW2 5115   4.115   6.336   6.023 -0.1873 -0.8892 -1.0518
 1406SOL     OW 5116   0.325   4.986   0.290  0.1642  0.5560 -0.1955
 1406SOL    HW1 5117   0.315   4.912   0.356  1.6860 -0.3268 -0.9104
 1406SOL    HW2 5118   0.247   5.049   0.299 -1.7930 -1.7099 -0.3268
 1407SOL     OW 5119   0.467   2.654   1.595 -0.3504  0.1930 -0.0119
 1407SOL    HW1 5120   0.507   2.597   1.524 -0.6328 -2.9585  2.1618
 1407SOL    HW2 5121   0.369   2.635   1.601 -0.4258  0.8170  0.8473
 1408SOL     OW 5122   1.776   1.057   3.720  0.1483  0.5066 -0.0267
 1408SOL    HW1 5123   1.740   1.150   3.728 -2.8127 -0.5656  0.3804
 1408SOL    HW2 5124   1.772   1.013   3.810  1.8718  0.0617 -0.1408
 1409SOL     OW 5125   0.387   4.684   5.505  0.3447 -0.3404 -0.0079
 1409SOL    HW1 5126   0.448   4.699   5.583  1.1765  1.6422 -0.9588
 1409SOL    HW2 5127   0.420   4.738   5.427 -0.5624 -2.1136 -1.6875
 1410SOL     OW 5128   6.574   3.787   0.132  0.4286  0.2125  0.6792
 1410SOL    HW1 5129   6.538   3.705   0.175  0.0410 -0.0051 -0.0373
 1410SOL    HW2 5130   6.615   3.763   0.043  3.6779  0.1938  2.0283
 1411SOL     OW 5131   2.035   6.174   3.167  0.6299  0.3652  0.4987
 1411SOL    HW1 5132   2.034   6.269   3.200  1.2072  0.8268 -0.7494
 1411SOL    HW2 5133   2.111   6.161   3.104  0.5835 -0.9552  0.6813
 1412SOL     OW 5134   1.496   3.339   4.434  0.0149  0.3557  0.1438
 1412SOL    HW1 5135   1.592   3.351   4.463  0.2868  1.2477 -1.0507
 1412SOL    HW2 5136   1.474   3.406   4.364 -1.0637 -0.7892 -0.6484
 1413SOL     OW 5137   4.416   1.023   5.241  0.0899 -0.1937 -0.3714
 1413SOL    HW1 5138   4.434   0.940   5.188  1.6578 -0.8510  1.0898
 1413SOL    HW2 5139   4.441   1.103   5.187  1.2886 -0.8245 -0.7970
 1414SOL     OW 5140   0.028   1.259   5.699  0.3092  0.0425 -0.4150
 1414SOL    HW1 5141   0.103   1.216   5.649  0.6645 -0.9699  0.9289
 1414SOL    HW2 5142  -0.016   1.191   5.758 -1.4644  0.6899 -0.9149
 1415SOL     OW 5143   6.100   1.742   0.888  0.9775 -0.4288  0.9060
 1415SOL    HW1 5144   6.085   1.742   0.789  1.9271 -2.0676  0.7193
 1415SOL    HW2 5145   6.013   1.728   0.935  0.1166  2.7152  0.4654
 1416SOL     OW 5146   1.750   6.284   3.959 -0.0687  0.0077 -0.5868
 1416SOL    HW1 5147   1.805   6.314   4.037 -0.1032 -0.2127 -0.4777
 1416SOL    HW2 5148   1.810   6.242   3.891 -0.0294  0.2611 -0.7103
 1417SOL     OW 5149   5.294   6.789   1.464 -0.3174 -0.2276  0.3835
 1417SOL    HW1 5150   5.317   6.725   1.537  0.7419  1.2686  1.4311
 1417SOL    HW2 5151   5.243   6.741   1.392  0.7030 -2.2979  0.9523
 1418SOL     OW 5152   2.024   6.621   3.083 -0.0515  0.4290 -0.0764
 1418SOL    HW1 5153   2.043   6.662   2.994 -1.5904 -1.4624 -1.3494
 1418SOL    HW2 5154   2.096   6.556   3.106 -0.7543 -0.7376 -1.0506
 1419SOL     OW 5155   6.717   0.265   4.984 -0.2899 -0.0366  0.0607
 1419SOL    HW1 5156   6.662   0.245   5.065  1.9814 -0.6231  1.5806
 1419SOL    HW2 5157   6.786   0.193   4.973  1.2675  1.5160 -0.7024
 1420SOL     OW 5158   2.033   6.508   2.052  0.2658 -0.4557  0.3611
 1420SOL    HW1 5159   2.091   6.442   2.099  0.1637 -1.6355 -1.0744
 1420SOL    HW2 5160   1.983   6.563   2.119  2.4630  0.1054  1.6232
 1421SOL     OW 5161   6.433   3.067   0.294 -0.4306  0.5968  0.5292
 1421SOL    HW1 5162   6.504   2.999   0.276  0.0237  1.0966  0.4156
 1421SOL    HW2 5163   6.351   3.021   0.329 -0.3544 -0.0794 -0.1510
 1422SOL     OW 5164   6.062   3.286   4.955 -0.2093 -0.6209  0.3917
 1422SOL    HW1 5165   6.053   3.187   4.963  0.4808 -0.8546 -1.2587
 1422SOL    HW2 5166   5.972   3.328   4.949 -0.4898 -1.2897 -0.2111
 1423SOL     OW 5167   5.028   6.981   2.539  0.1791 -0.1402 -0.0257
 1423SOL    HW1 5168   5.052   7.017   2.629 -0.5897  1.1691 -0.3170
 1423SOL    HW2 5169   4.995   6.887   2.548 -0.2280  0.1002  1.1084
 1424SOL     OW 5170   3.134   2.575   5.857 -0.2433 -0.1092  0.1065
 1424SOL    HW1 5171   3.132   2.495   5.918 -2.0309 -0.8560 -0.8531
 1424SOL    HW2 5172   3.061   2.567   5.790  0.8734  1.3353 -1.3469
 1425SOL     OW 5173   3.705   1.168   1.322  0.0798 -0.4682  0.2440
 1425SOL    HW1 5174   3.683   1.204   1.231  0.4607  0.5405  0.5397
 1425SOL    HW2 5175   3.804   1.174   1.337  0.3310 -2.8370 -0.1837
 1426SOL     OW 5176   6.165   6.405   2.090 -0.3315 -0.1589  0.2516
 1426SOL    HW1 5177   6.194   6.488   2.043  1.4971 -0.8863  0.0242
 1426SOL    HW2 5178   6.172   6.327   2.028  1.3036 -1.0067  1.4054
 1427SOL     OW 5179   5.807   4.674   4.703  0.1784  0.1949  0.1283
 1427SOL    HW1 5180   5.760   4.716   4.781 -0.1422  0.8841 -0.4320
 1427SOL    HW2 5181   5.838   4.582   4.729 -1.6509 -0.3628  0.4663
 1428SOL     OW 5182   2.558   1.688   4.955  0.2139  0.5395 -0.0665
 1428SOL    HW1 5183   2.649   1.728   4.949  1.0910 -1.2580  0.6657
 1428SOL    HW2 5184   2.527   1.690   5.050 -0.7509  1.5827 -0.3791
 1429SOL     OW 5185   6.490   5.168   5.670 -0.3165  0.7230 -0.6111
 1429SOL    HW1 5186   6.430   5.245   5.648  0.1205  0.6700 -2.1114
 1429SOL    HW2 5187   6.582   5.201   5.687 -0.0844  0.5321 -1.4488
 1430SOL     OW 5188   3.973   4.633   0.838  0.1504  0.0132  0.0030
 1430SOL    HW1 5189   4.052   4.577   0.814 -0.5747 -0.7405 -0.6680
 1430SOL    HW2 5190   4.000   4.730   0.837  1.6186 -0.3166  2.0107
 1431SOL     OW 5191   0.790   4.570   6.983  0.1004 -0.1714  0.1839
 1431SOL    HW1 5192   0.815   4.666   6.992 -1.3234  0.2840 -0.4399
 1431SOL    HW2 5193   0.844   4.515   7.047  0.5131  1.1097  0.9693
 1432SOL     OW 5194   6.597   2.424   6.418 -0.2878  0.1881 -0.3512
 1432SOL    HW1 5195   6.543   2.496   6.461 -0.5621 -0.3772  0.2609
 1432SOL    HW2 5196   6.537   2.351   6.387 -0.2468  1.1040 -2.8168
 1433SOL     OW 5197   1.969   0.227   2.797 -0.1882  0.7109 -0.3110
 1433SOL    HW1 5198   1.882   0.188   2.827  0.2657 -1.1196 -1.1943
 1433SOL    HW2 5199   2.042   0.198   2.859 -0.0458  1.4092 -0.1405
 1434SOL     OW 5200   1.464   5.069   0.127 -0.2259  0.1927 -0.2058
 1434SOL    HW1 5201   1.431   5.004   0.196  0.1175  0.3265  0.0859
 1434SOL    HW2 5202   1.547   5.113   0.159 -0.5049  0.8492 -0.3664
 1435SOL     OW 5203   6.038   0.435   2.147  0.5602  0.3599  0.1019
 1435SOL    HW1 5204   6.010   0.348   2.187  0.4695 -1.3759 -3.3415
 1435SOL    HW2 5205   6.138   0.440   2.144  0.5996 -0.6039 -1.3980
 1436SOL     OW 5206   4.460   1.953   1.362 -0.0452  0.0928 -0.0453
 1436SOL    HW1 5207   4.497   2.038   1.399 -1.0117  0.2411  0.6287
 1436SOL    HW2 5208   4.361   1.950   1.379 -0.1163 -0.9078 -0.5699
 1437SOL     OW 5209   4.440   1.070   4.224 -0.1305  0.0270 -0.0108
 1437SOL    HW1 5210   4.514   1.051   4.289 -0.2285  0.3416  0.1927
 1437SOL    HW2 5211   4.355   1.084   4.274 -0.1411  0.6036 -0.1901
 1438SOL     OW 5212   2.903   1.334   6.634  0.6224 -0.7499 -0.1288
 1438SOL    HW1 5213   2.988   1.308   6.680 -0.7166 -0.7021  2.5900
 1438SOL    HW2 5214   2.842   1.255   6.628  0.4411 -0.5511 -1.1498
 1439SOL     OW 5215   0.476   3.223   1.207 -0.5398 -0.4599  0.5009
 1439SOL    HW1 5216   0.540   3.284   1.255 -0.6987 -0.8499  1.2162
 1439SOL    HW2 5217   0.385   3.264   1.206 -0.6788 -0.7498  1.1123
 1440SOL     OW 5218   3.934   3.087   2.987 -0.7800  0.2332  0.5568
 1440SOL    HW1 5219   3.962   3.029   2.911 -0.9628  1.7599 -0.7136
 1440SOL    HW2 5220   3.884   3.031   3.054 -1.6508 -0.9272 -0.9867
 1441SOL     OW 5221   3.018   3.501   4.693 -0.1327  0.0212  0.0078
 1441SOL    HW1 5222   2.951   3.549   4.636  1.9854  1.3740 -1.5065
 1441SOL    HW2 5223   3.099   3.480   4.638  0.8318 -1.2999  1.8303
 1442SOL     OW 5224   2.040   2.310   1.290 -0.4856 -0.7811 -0.0946
 1442SOL    HW1 5225   1.956   2.259   1.312 -0.9205  0.0960  0.3025
 1442SOL    HW2 5226   2.080   2.346   1.374 -0.9396  0.7059 -0.4898
 1443SOL     OW 5227   3.641   5.145   6.263  0.6519 -0.5291 -0.2541
 1443SOL    HW1 5228   3.555   5.162   6.311  1.2884  2.6309 -0.0032
 1443SOL    HW2 5229   3.670   5.051   6.279 -2.3349 -1.4666  0.2659
 1444SOL     OW 5230   5.334   5.595   5.640 -0.3940 -0.5531 -0.2035
 1444SOL    HW1 5231   5.248   5.612   5.592 -0.0510 -2.6812 -1.7500
 1444SOL    HW2 5232   5.410   5.630   5.585 -0.1856  0.1369  0.5158
 1445SOL     OW 5233   5.270   5.782   3.084  0.1528 -0.2434  0.3804
 1445SOL    HW1 5234   5.209   5.856   3.114  0.0405 -1.0084  2.1933
 1445SOL    HW2 5235   5.347   5.821   3.034  0.2500  1.1435  1.5244
 1446SOL     OW 5236   4.975   6.084   1.276  0.0074 -0.7079  0.6340
 1446SOL    HW1 5237   4.909   6.103   1.348  0.3897  1.1139  0.5315
 1446SOL    HW2 5238   4.971   5.986   1.252 -0.8163 -1.1352  2.4042
 1447SOL     OW 5239   5.699   1.718   1.339 -0.2444  0.1829 -0.2317
 1447SOL    HW1 5240   5.769   1.652   1.367 -0.2633  0.3105  0.1206
 1447SOL    HW2 5241   5.719   1.807   1.380 -1.7123 -0.2542  1.5630
 1448SOL     OW 5242   1.046   4.723   2.942  0.0300  0.4557  0.1904
 1448SOL    HW1 5243   1.140   4.748   2.917  0.1769  2.3669  2.3074
 1448SOL    HW2 5244   0.983   4.791   2.907 -0.3153  0.3387  0.5820
 1449SOL     OW 5245   0.336   5.349   1.371  0.0617 -0.0142 -0.0834
 1449SOL    HW1 5246   0.303   5.336   1.277 -1.7075  2.6346  0.0549
 1449SOL    HW2 5247   0.372   5.263   1.406 -0.1796 -1.3328 -2.8162
 1450SOL     OW 5248   6.677   2.586   5.488  0.0140 -0.0684  0.8315
 1450SOL    HW1 5249   6.660   2.616   5.393  1.3252  0.1618  0.6545
 1450SOL    HW2 5250   6.738   2.652   5.533 -2.2197  0.9744  2.5311
 1451SOL     OW 5251   5.178   6.935   3.443  0.9559 -0.0060 -0.6020
 1451SOL    HW1 5252   5.093   6.910   3.397  0.4387 -0.6318  0.6455
 1451SOL    HW2 5253   5.157   6.975   3.532  1.8785  2.2673 -1.3121
 1452SOL     OW 5254   2.310   5.596   3.429 -0.2984 -0.4632  0.2768
 1452SOL    HW1 5255   2.320   5.523   3.496 -1.6490 -0.7762  0.1652
 1452SOL    HW2 5256   2.296   5.555   3.338 -2.0408 -0.1263  0.3520
 1453SOL     OW 5257   4.050   0.385   5.684 -0.3544 -0.3558 -0.1832
 1453SOL    HW1 5258   4.131   0.332   5.710  1.0336  2.3740  1.6336
 1453SOL    HW2 5259   4.078   0.462   5.626 -2.0345 -0.6713 -1.4688
 1454SOL     OW 5260   6.348   0.751   6.683 -0.4011  0.3107  0.3405
 1454SOL    HW1 5261   6.333   0.815   6.759 -0.1855  0.3019  0.3920
 1454SOL    HW2 5262   6.326   0.796   6.597  1.0856  0.9278  0.2535
 1455SOL     OW 5263   0.193   3.940   0.521 -0.2076  0.4088  0.4235
 1455SOL    HW1 5264   0.288   3.965   0.541  0.3907 -1.7466  0.5782
 1455SOL    HW2 5265   0.191   3.876   0.443 -1.2162 -1.6530  2.0266
 1456SOL     OW 5266   5.918   6.248   5.603 -0.0229 -0.2131 -0.1277
 1456SOL    HW1 5267   5.946   6.236   5.698 -0.4326  0.6264  0.1038
 1456SOL    HW2 5268   5.819   6.239   5.595  0.0173 -0.3857 -0.4971
 1457SOL     OW 5269   2.451   1.479   3.771 -0.0073  0.2406  0.1993
 1457SOL    HW1 5270   2.522   1.442   3.712  0.8863  1.4526  0.4936
 1457SOL    HW2 5271   2.397   1.547   3.722  1.0911  1.6610  0.9065
 1458SOL     OW 5272   6.420   4.773   3.731 -0.2471 -0.7420 -0.3943
 1458SOL    HW1 5273   6.486   4.804   3.663 -0.3539 -1.3698 -0.7936
 1458SOL    HW2 5274   6.408   4.674   3.723 -0.7666 -0.7251  0.0938
 1459SOL     OW 5275   0.665   6.991   4.222 -0.5282 -0.4823  0.0100
 1459SOL    HW1 5276   0.680   7.068   4.284 -2.0711  1.4085 -1.8059
 1459SOL    HW2 5277   0.613   6.920   4.269 -0.8123  0.4517  1.1712
 1460SOL     OW 5278   3.194   1.029   0.680 -0.5346  0.0922  0.4561
 1460SOL    HW1 5279   3.263   1.096   0.650 -0.4616 -0.8312 -1.5478
 1460SOL    HW2 5280   3.225   0.986   0.765 -1.3350  3.6800  2.8356
 1461SOL     OW 5281   1.334   6.995   3.942 -0.3929  0.5035  0.3077
 1461SOL    HW1 5282   1.243   7.035   3.929  0.7361  2.5996 -2.0034
 1461SOL    HW2 5283   1.332   6.899   3.915 -1.1610  1.4953 -3.9006
 1462SOL     OW 5284   3.502   6.305   5.408 -0.6965  0.2051 -0.4098
 1462SOL    HW1 5285   3.586   6.360   5.408 -1.1017  0.8311 -0.8866
 1462SOL    HW2 5286   3.445   6.331   5.486  0.0746 -1.0589  0.6214
 1463SOL     OW 5287   5.057   4.096   4.298  0.5358 -0.0685 -0.0810
 1463SOL    HW1 5288   5.130   4.156   4.267 -0.5689  1.8762  0.8889
 1463SOL    HW2 5289   4.974   4.115   4.245 -0.0962 -0.0069  0.8995
 1464SOL     OW 5290   0.468   2.409   3.635 -0.0370 -0.1820  0.6877
 1464SOL    HW1 5291   0.513   2.342   3.694  3.0935 -0.1736 -1.4771
 1464SOL    HW2 5292   0.502   2.500   3.655 -0.1400  0.0297 -0.0689
 1465SOL     OW 5293   3.520   6.700   1.655 -0.1306 -0.2606  0.1901
 1465SOL    HW1 5294   3.456   6.717   1.580  1.4230 -1.2901 -1.4536
 1465SOL    HW2 5295   3.529   6.782   1.710 -0.5096  0.9115 -1.4174
 1466SOL     OW 5296   5.750   1.514   0.126 -0.1648  0.4849 -0.0372
 1466SOL    HW1 5297   5.740   1.442   0.195  0.6749  1.8609  1.5914
 1466SOL    HW2 5298   5.734   1.475   0.035 -4.4140 -0.8012  1.0256
 1467SOL     OW 5299   5.044   0.861   3.882 -0.2185  0.2158 -0.3740
 1467SOL    HW1 5300   4.948   0.833   3.890 -0.2889  0.3858 -0.6192
 1467SOL    HW2 5301   5.093   0.834   3.965 -0.1816 -1.0016 -0.7731
 1468SOL     OW 5302   0.850   3.475   0.631  0.3371 -0.0111  0.4937
 1468SOL    HW1 5303   0.922   3.418   0.591  0.8746  0.0697  1.3240
 1468SOL    HW2 5304   0.824   3.437   0.720  0.3558  0.7611  0.8349
 1469SOL     OW 5305   0.252   2.077   0.153 -0.0822  0.1443  0.0359
 1469SOL    HW1 5306   0.265   2.174   0.133  1.6036  0.1980  1.2077
 1469SOL    HW2 5307   0.303   2.053   0.235 -0.7498 -1.6776 -0.0445
 1470SOL     OW 5308   6.010   2.457   0.081 -0.0842 -0.3697  0.9981
 1470SOL    HW1 5309   5.912   2.444   0.067  0.0848 -1.0891  0.4299
 1470SOL    HW2 5310   6.055   2.368   0.081  0.8250  0.0577 -0.6669
 1471SOL     OW 5311   0.762   3.603   6.810  0.7142  0.0989 -0.2330
 1471SOL    HW1 5312   0.778   3.588   6.712 -0.3948  0.4887 -0.4902
 1471SOL    HW2 5313   0.795   3.694   6.836  0.4143  0.2536 -0.3918
 1472SOL     OW 5314   3.515   1.813   1.702  0.1240 -0.9476 -0.1419
 1472SOL    HW1 5315   3.429   1.864   1.688 -0.6521 -1.9098  0.9680
 1472SOL    HW2 5316   3.534   1.759   1.620 -0.2457 -0.6049 -0.4639
 1473SOL     OW 5317   0.112   1.349   0.834  0.9132  0.0698  0.1271
 1473SOL    HW1 5318   0.208   1.375   0.835  0.6708  1.0057  1.1911
 1473SOL    HW2 5319   0.068   1.386   0.752  1.1763  0.7399  0.2843
 1474SOL     OW 5320   2.199   5.875   4.227 -0.6268  0.5447 -0.0605
 1474SOL    HW1 5321   2.224   5.835   4.315 -0.5928 -0.6913 -0.6130
 1474SOL    HW2 5322   2.247   5.827   4.153 -0.2981  1.8556 -0.7430
 1475SOL     OW 5323   0.813   6.475   6.053  0.4446 -0.3541  0.0862
 1475SOL    HW1 5324   0.770   6.565   6.043 -0.4722 -0.7529  0.3108
 1475SOL    HW2 5325   0.790   6.418   5.974  0.3367 -0.6555  0.3306
 1476SOL     OW 5326   5.385   2.766   5.792  0.1245  0.0153  0.3575
 1476SOL    HW1 5327   5.355   2.802   5.879  0.9426  0.4875  0.4546
 1476SOL    HW2 5328   5.433   2.679   5.806 -1.1973 -0.7656  0.1972
 1477SOL     OW 5329   0.909   0.983   1.273 -0.2509  0.2645  0.0195
 1477SOL    HW1 5330   0.920   1.070   1.322  0.6779 -0.2318  0.7202
 1477SOL    HW2 5331   0.937   0.908   1.332 -0.0171 -0.4275 -0.9469
 1478SOL     OW 5332   2.948   1.580   0.828 -0.4888  0.6880 -0.5772
 1478SOL    HW1 5333   3.035   1.608   0.871 -0.1163  0.9265 -1.4725
 1478SOL    HW2 5334   2.956   1.485   0.797 -0.0121  1.1547 -1.9723
 1479SOL     OW 5335   0.438   6.648   5.790 -0.3456  0.2844  0.1768
 1479SOL    HW1 5336   0.384   6.592   5.852 -1.6735  0.8800 -0.4199
 1479SOL    HW2 5337   0.436   6.743   5.820  1.9218  0.0795  1.2040
 1480SOL     OW 5338   1.151   2.357   0.512  0.2209 -0.4394  0.1317
 1480SOL    HW1 5339   1.221   2.405   0.566  1.2372 -1.7414  0.0169
 1480SOL    HW2 5340   1.060   2.381   0.547  0.3542  4.1253 -1.9323
 1481SOL     OW 5341   3.470   6.435   1.868 -0.1594  0.6195 -0.5795
 1481SOL    HW1 5342   3.499   6.364   1.803  0.1235  0.9872 -0.8611
 1481SOL    HW2 5343   3.448   6.393   1.956  1.3481  0.3340 -0.3193
 1482SOL     OW 5344   5.757   4.657   2.959  0.3553 -0.0859 -0.7323
 1482SOL    HW1 5345   5.685   4.630   2.895 -0.1581 -1.2011  0.2601
 1482SOL    HW2 5346   5.846   4.639   2.919  0.0437 -2.3741 -0.5666
 1483SOL     OW 5347   1.966   3.153   1.581  0.0725  0.0037  0.1981
 1483SOL    HW1 5348   1.955   3.221   1.509 -0.4075  0.5541  0.7706
 1483SOL    HW2 5349   2.002   3.198   1.663 -1.5710 -0.1250  1.0323
 1484SOL     OW 5350   4.098   0.701   2.345  0.0482  0.0247 -0.2875
 1484SOL    HW1 5351   4.021   0.728   2.402 -0.7727  1.6980 -2.1028
 1484SOL    HW2 5352   4.176   0.760   2.365 -0.5851  1.3745 -1.5934
 1485SOL     OW 5353   0.905   3.691   3.105  0.0260  0.4781  0.0673
 1485SOL    HW1 5354   0.862   3.602   3.088 -0.6406  0.6627  0.7266
 1485SOL    HW2 5355   0.848   3.744   3.168  1.0620  0.8623  0.7033
 1486SOL     OW 5356   0.572   1.952   4.868  0.9761  0.7270  0.6991
 1486SOL    HW1 5357   0.496   1.928   4.929 -0.6077 -0.9203 -1.7290
 1486SOL    HW2 5358   0.589   2.050   4.872 -1.0104  1.0669  1.6600
 1487SOL     OW 5359   0.342   2.389   4.585 -0.0198 -0.2146  0.0085
 1487SOL    HW1 5360   0.328   2.485   4.609  0.2366 -0.0007 -0.6709
 1487SOL    HW2 5361   0.338   2.378   4.486 -1.2280 -1.1039  0.1319
 1488SOL     OW 5362   5.278   0.488   5.237  0.0191  0.0797 -0.4909
 1488SOL    HW1 5363   5.297   0.548   5.315  0.3269 -0.7368  0.0755
 1488SOL    HW2 5364   5.191   0.513   5.195  0.2684  1.0899 -0.4326
 1489SOL     OW 5365   5.737   2.466   0.077 -0.7182 -0.1872 -0.0819
 1489SOL    HW1 5366   5.700   2.554   0.046 -0.3592  0.6195  1.6554
 1489SOL    HW2 5367   5.711   2.450   0.172  1.5137 -0.6197  0.5337
 1490SOL     OW 5368   3.683   3.644   5.196  0.0840 -0.8561 -0.9670
 1490SOL    HW1 5369   3.678   3.590   5.280 -1.6618  0.6212 -0.0588
 1490SOL    HW2 5370   3.609   3.711   5.195  1.9219  1.2899 -2.2240
 1491SOL     OW 5371   3.234   1.848   0.636  0.0307 -0.6291  0.0119
 1491SOL    HW1 5372   3.201   1.942   0.641 -2.3333 -1.4271  1.0661
 1491SOL    HW2 5373   3.258   1.817   0.728 -0.0610 -1.3200 -0.1954
 1492SOL     OW 5374   4.401   2.988   6.026 -0.0362  0.5512 -0.7350
 1492SOL    HW1 5375   4.315   2.986   5.974  0.8987 -0.3920 -2.3342
 1492SOL    HW2 5376   4.419   3.082   6.057 -1.4118  0.8402 -0.7643
 1493SOL     OW 5377   4.875   0.177   2.440  0.2017  0.1389 -0.3754
 1493SOL    HW1 5378   4.939   0.108   2.473 -0.0088 -0.1062 -0.4766
 1493SOL    HW2 5379   4.895   0.265   2.483 -2.0623 -0.7835  2.9403
 1494SOL     OW 5380   1.909   1.269   3.310  0.1602  0.7461 -0.0903
 1494SOL    HW1 5381   1.848   1.327   3.364 -1.7317 -1.1952 -0.0197
 1494SOL    HW2 5382   1.911   1.177   3.349  0.7873 -0.0272 -1.8573
 1495SOL     OW 5383   4.886   2.972   3.269  1.1090  0.4495  0.0125
 1495SOL    HW1 5384   4.924   3.065   3.275  0.9531  0.5162 -0.0111
 1495SOL    HW2 5385   4.897   2.938   3.176  0.4473  0.7605 -0.1873
 1496SOL     OW 5386   5.974   6.278   0.684 -0.0477 -0.2562  0.2558
 1496SOL    HW1 5387   6.053   6.223   0.658  0.0174 -0.0535  0.0251
 1496SOL    HW2 5388   5.898   6.218   0.709 -0.7652 -0.4917 -2.2680
 1497SOL     OW 5389   2.195   1.436   6.411 -0.2543 -0.1237  0.3232
 1497SOL    HW1 5390   2.224   1.346   6.378  1.4865  1.4201 -2.8525
 1497SOL    HW2 5391   2.266   1.475   6.468 -0.8874 -0.6076  1.4676
 1498SOL     OW 5392   3.584   6.026   1.832  0.4471  0.5290  0.0639
 1498SOL    HW1 5393   3.610   5.930   1.824  0.4370  0.6804 -2.3998
 1498SOL    HW2 5394   3.485   6.032   1.847  0.1398  0.1611 -1.6661
 1499SOL     OW 5395   5.456   4.005   1.700 -0.2870  0.3539 -0.2526
 1499SOL    HW1 5396   5.431   4.089   1.749  0.3081 -0.1519  0.9404
 1499SOL    HW2 5397   5.483   4.029   1.606 -1.8408  1.2873 -0.5012
 1500SOL     OW 5398   5.215   3.528   4.543  0.4206 -0.2440  0.7605
 1500SOL    HW1 5399   5.170   3.490   4.462  0.5990  1.8602 -0.4049
 1500SOL    HW2 5400   5.314   3.533   4.527  0.6726 -1.4110  1.8298
 1501SOL     OW 5401   6.059   2.634   4.180  0.1264 -0.1100 -0.5196
 1501SOL    HW1 5402   6.079   2.732   4.189  0.7376 -0.3304  0.7577
 1501SOL    HW2 5403   6.116   2.596   4.107  1.0590  0.1973  0.0216
 1502SOL     OW 5404   4.796   0.626   6.670 -0.4218 -0.2921 -0.4401
 1502SOL    HW1 5405   4.737   0.698   6.708  0.5584  0.1902  0.2249
 1502SOL    HW2 5406   4.892   0.651   6.685 -0.0555 -1.5152 -0.6419
 1503SOL     OW 5407   2.268   0.207   0.270 -0.1295  0.7502  0.0112
 1503SOL    HW1 5408   2.255   0.189   0.172 -0.0365 -1.5439  0.3702
 1503SOL    HW2 5409   2.211   0.284   0.297  1.6031  3.0126 -2.2909
 1504SOL     OW 5410   0.920   3.718   2.156  0.6490 -0.6899  0.5823
 1504SOL    HW1 5411   0.821   3.736   2.161  0.3003 -1.4554 -2.0400
 1504SOL    HW2 5412   0.943   3.644   2.220 -0.8021 -1.5678  0.1562
 1505SOL     OW 5413   4.110   0.096   3.341 -0.1064  0.7489  0.4313
 1505SOL    HW1 5414   4.099   0.019   3.279  0.1255  0.4255  0.7855
 1505SOL    HW2 5415   4.189   0.152   3.313 -1.3666  1.9224 -0.9163
 1506SOL     OW 5416   6.435   5.932   2.923 -0.4148 -0.5912 -0.4382
 1506SOL    HW1 5417   6.350   5.984   2.924 -0.6594 -0.9315 -1.5960
 1506SOL    HW2 5418   6.482   5.949   2.836  0.2405 -1.1371 -0.1961
 1507SOL     OW 5419   1.179   4.038   5.213 -0.1978 -0.6728 -0.1838
 1507SOL    HW1 5420   1.096   4.038   5.268 -0.6442  0.9593 -0.7887
 1507SOL    HW2 5421   1.246   4.100   5.253  0.2151 -0.9450 -0.4424
 1508SOL     OW 5422   6.349   6.842   4.373  0.4105 -0.6977 -0.1148
 1508SOL    HW1 5423   6.283   6.785   4.422  1.4289 -1.3853  0.5023
 1508SOL    HW2 5424   6.313   6.866   4.283 -1.5807  0.7332  0.9834
 1509SOL     OW 5425   3.572   4.173   4.870 -0.0452 -0.8348 -0.4418
 1509SOL    HW1 5426   3.666   4.139   4.862 -0.3139 -1.3652 -1.6550
 1509SOL    HW2 5427   3.529   4.172   4.779 -0.3612  1.9963 -0.3839
 1510SOL     OW 5428   2.981   6.136   3.043  0.4202 -0.0687  0.1297
 1510SOL    HW1 5429   2.946   6.196   2.971 -0.3535 -1.1005 -0.3860
 1510SOL    HW2 5430   2.906   6.108   3.102  0.6248 -1.0885 -0.0683
 1511SOL     OW 5431   3.584   1.669   2.776  0.1984 -0.5613  0.2614
 1511SOL    HW1 5432   3.674   1.669   2.732 -0.3028  1.2011 -0.8770
 1511SOL    HW2 5433   3.589   1.721   2.862  0.2236 -0.2791  0.0899
 1512SOL     OW 5434   6.195   2.740   1.454  0.5027  0.5971  0.1400
 1512SOL    HW1 5435   6.288   2.714   1.427  0.6805  1.8537 -0.5396
 1512SOL    HW2 5436   6.197   2.830   1.499 -0.2970  0.2960  0.7928
 1513SOL     OW 5437   2.773   6.676   2.676  0.1797  0.0277 -0.0674
 1513SOL    HW1 5438   2.752   6.773   2.661 -0.5278 -0.0935  0.1193
 1513SOL    HW2 5439   2.831   6.643   2.602 -2.5536 -0.3452 -2.2078
 1514SOL     OW 5440   1.975   2.896   3.597 -0.0952  0.1656  0.1783
 1514SOL    HW1 5441   1.928   2.937   3.519  2.2000 -0.6288 -1.7174
 1514SOL    HW2 5442   2.059   2.948   3.617 -0.5700  0.2909  2.1181
 1515SOL     OW 5443   0.616   0.387   3.364 -0.4227  0.2101  0.0172
 1515SOL    HW1 5444   0.535   0.387   3.305  1.4402 -0.7031 -2.7746
 1515SOL    HW2 5445   0.629   0.479   3.401 -2.0442  0.6865 -0.4714
 1516SOL     OW 5446   5.989   0.754   3.343 -0.8091 -0.8577 -0.6134
 1516SOL    HW1 5447   6.032   0.819   3.405 -0.3360 -2.1572  0.4845
 1516SOL    HW2 5448   5.902   0.790   3.311 -1.6139 -0.5804  1.7060
 1517SOL     OW 5449   0.947   1.326   1.743 -0.2399  0.1922 -0.0446
 1517SOL    HW1 5450   0.896   1.275   1.812  0.2840 -1.2811 -0.6996
 1517SOL    HW2 5451   0.903   1.414   1.727 -0.2674  0.6713  2.2851
 1518SOL     OW 5452   3.761   0.297   0.199 -0.8402  0.0439  0.0764
 1518SOL    HW1 5453   3.686   0.355   0.231 -2.1275 -1.3337 -0.3311
 1518SOL    HW2 5454   3.818   0.270   0.277 -1.7061 -0.1773  0.6482
 1519SOL     OW 5455   0.065   3.015   1.811 -0.2199  0.1728 -0.1155
 1519SOL    HW1 5456   0.115   2.933   1.784 -0.2319  0.1031  0.0769
 1519SOL    HW2 5457   0.124   3.095   1.804 -0.4968  0.3008 -1.3165
 1520SOL     OW 5458   3.774   3.759   4.147  0.1150 -0.4853 -0.1283
 1520SOL    HW1 5459   3.734   3.677   4.104 -0.5479 -0.9615  1.3345
 1520SOL    HW2 5460   3.802   3.737   4.240 -0.6194  1.0941  0.4959
 1521SOL     OW 5461   1.564   4.072   6.010 -0.1192  0.6279  0.1338
 1521SOL    HW1 5462   1.634   4.083   6.079 -0.4808 -2.8049  1.2488
 1521SOL    HW2 5463   1.604   4.033   5.927 -0.3381  0.9715 -0.1400
 1522SOL     OW 5464   2.977   0.817   5.556 -0.0820 -0.1974 -0.5009
 1522SOL    HW1 5465   2.905   0.870   5.603  0.3984 -0.7626  0.9142
 1522SOL    HW2 5466   2.948   0.722   5.547 -0.3430 -0.0136 -1.7625
 1523SOL     OW 5467   0.834   5.945   0.460 -0.4757 -0.4921 -0.1394
 1523SOL    HW1 5468   0.836   5.952   0.360 -1.9453 -1.2980 -0.2527
 1523SOL    HW2 5469   0.744   5.974   0.494  0.7453  2.0765  1.1886
 1524SOL     OW 5470   5.442   1.348   2.251 -0.3122 -0.4198  0.0284
 1524SOL    HW1 5471   5.407   1.310   2.336  1.9913  0.7832  1.6390
 1524SOL    HW2 5472   5.540   1.329   2.243  0.1065  1.7913 -0.9959
 1525SOL     OW 5473   4.245   2.234   4.331  0.2027  0.3059 -0.5539
 1525SOL    HW1 5474   4.207   2.142   4.345  0.1095  0.5102  0.6473
 1525SOL    HW2 5475   4.223   2.291   4.410  0.7674  1.1957 -1.0295
 1526SOL     OW 5476   2.611   2.834   5.930 -0.7030  1.0722  0.1373
 1526SOL    HW1 5477   2.511   2.831   5.927 -0.7200  0.5807  0.8707
 1526SOL    HW2 5478   2.640   2.874   6.017 -0.2635 -0.0062  0.5024
 1527SOL     OW 5479   4.278   1.652   6.714 -0.0485 -0.1521 -0.0348
 1527SOL    HW1 5480   4.317   1.726   6.659  2.9602 -2.8341 -1.9349
 1527SOL    HW2 5481   4.327   1.646   6.802 -0.5348  0.3106  0.2698
 1528SOL     OW 5482   3.143   5.983   3.230 -0.3666 -0.1106  0.3707
 1528SOL    HW1 5483   3.086   6.031   3.164  2.9506  1.7358 -1.4315
 1528SOL    HW2 5484   3.225   6.037   3.248  0.6840 -2.3904  3.0771
 1529SOL     OW 5485   1.677   0.461   2.692  0.4055 -0.1057 -0.4652
 1529SOL    HW1 5486   1.679   0.410   2.779  0.0615  0.9225  0.1565
 1529SOL    HW2 5487   1.769   0.464   2.654  0.7365  0.2047  0.3311
 1530SOL     OW 5488   2.507   6.513   2.541  0.2711 -0.3683 -0.4704
 1530SOL    HW1 5489   2.522   6.505   2.640 -1.1570 -0.0484 -0.1923
 1530SOL    HW2 5490   2.500   6.610   2.517  2.3230 -0.3706 -1.1988
 1531SOL     OW 5491   3.474   4.043   6.901 -0.1492  0.3602  0.2037
 1531SOL    HW1 5492   3.546   4.044   6.970  1.7582  5.0283 -1.3984
 1531SOL    HW2 5493   3.389   4.079   6.940  0.1967  0.6400  0.7063
 1532SOL     OW 5494   5.196   4.240   2.161  0.8586  0.0347 -0.2047
 1532SOL    HW1 5495   5.265   4.169   2.173 -0.7392 -1.5996 -0.1171
 1532SOL    HW2 5496   5.142   4.248   2.245  0.7530  1.0504 -0.3653
 1533SOL     OW 5497   5.998   6.884   1.790  0.0402 -0.2732  0.1187
 1533SOL    HW1 5498   5.913   6.859   1.836  1.2746 -3.8934  0.7910
 1533SOL    HW2 5499   6.058   6.932   1.853 -0.2123 -0.7442  0.7262
 1534SOL     OW 5500   0.879   4.651   1.734  0.4285 -0.2244 -0.0605
 1534SOL    HW1 5501   0.910   4.677   1.643  0.3895  1.3856  0.3605
 1534SOL    HW2 5502   0.784   4.680   1.747  1.1124  1.6380  1.2425
 1535SOL     OW 5503   5.443   6.151   4.856  0.2454  0.5063  0.3097
 1535SOL    HW1 5504   5.477   6.242   4.835  0.1751  0.0494 -1.9505
 1535SOL    HW2 5505   5.359   6.158   4.910 -0.1861  1.7957 -0.4997
 1536SOL     OW 5506   4.698   4.746   4.441 -0.0362 -0.0523  0.9877
 1536SOL    HW1 5507   4.650   4.689   4.375  0.2700  1.1805 -0.3503
 1536SOL    HW2 5508   4.652   4.835   4.449  1.0386  0.5273  0.9612
 1537SOL     OW 5509   1.586   4.528   5.599 -0.6338  0.5280  0.1924
 1537SOL    HW1 5510   1.585   4.484   5.510 -2.2871  1.7686 -0.4495
 1537SOL    HW2 5511   1.566   4.460   5.670  2.2318 -0.7983 -0.1304
 1538SOL     OW 5512   4.434   5.339   4.278  0.1920  0.6269  0.0348
 1538SOL    HW1 5513   4.452   5.354   4.181 -0.4453 -0.8783 -0.3371
 1538SOL    HW2 5514   4.409   5.426   4.321 -1.0130  1.0749 -1.4755
 1539SOL     OW 5515   4.431   4.732   3.903  0.0201  0.2196  0.3492
 1539SOL    HW1 5516   4.388   4.694   3.821  0.8918 -0.9970  0.4361
 1539SOL    HW2 5517   4.480   4.816   3.879  1.3853 -0.8243 -0.6920
 1540SOL     OW 5518   3.063   6.318   2.233  0.1345 -0.4655 -0.0783
 1540SOL    HW1 5519   3.132   6.258   2.193 -0.6934 -0.1380 -2.1375
 1540SOL    HW2 5520   3.085   6.413   2.211  0.5023 -0.1049  1.6803
 1541SOL     OW 5521   5.498   1.812   4.907  0.4806 -0.4231  0.0165
 1541SOL    HW1 5522   5.430   1.765   4.962  1.0878 -1.0560  0.2320
 1541SOL    HW2 5523   5.569   1.748   4.877  1.1021  0.2628 -0.0276
 1542SOL     OW 5524   4.734   1.005   6.994 -0.0345  0.6637 -0.4439
 1542SOL    HW1 5525   4.736   1.094   6.949 -1.3419  0.9707  0.0541
 1542SOL    HW2 5526   4.719   0.934   6.925  2.7936  0.5742 -1.0989
 1543SOL     OW 5527   1.179   1.457   1.718  0.0998  0.7225 -0.4551
 1543SOL    HW1 5528   1.102   1.409   1.761  1.5131 -0.6876  0.6459
 1543SOL    HW2 5529   1.208   1.407   1.636  2.0275 -0.8845  1.0802
 1544SOL     OW 5530   5.318   1.705   4.233 -0.3235  0.1859  0.8143
 1544SOL    HW1 5531   5.228   1.664   4.220 -0.4060  0.2821  1.0746
 1544SOL    HW2 5532   5.330   1.779   4.167  0.5258 -1.3720 -0.8779
 1545SOL     OW 5533   0.267   3.278   6.692 -0.0238 -0.0116  0.2351
 1545SOL    HW1 5534   0.332   3.229   6.751 -1.6518 -1.7968  0.6419
 1545SOL    HW2 5535   0.285   3.256   6.597  2.4619  2.6930 -0.0746
 1546SOL     OW 5536   6.041   0.527   2.764 -0.1320 -0.2018 -0.0498
 1546SOL    HW1 5537   6.034   0.514   2.863 -1.2313  1.0444  0.0502
 1546SOL    HW2 5538   5.969   0.474   2.718  0.8428 -1.4000 -0.2784
 1547SOL     OW 5539   6.724   4.305   0.793  0.7685  0.6360  0.4175
 1547SOL    HW1 5540   6.755   4.373   0.727 -2.5465  0.9396 -1.0388
 1547SOL    HW2 5541   6.678   4.351   0.869  0.0956  0.1368  0.3255
 1548SOL     OW 5542   1.793   6.976   4.931 -0.2983  0.2512  0.3408
 1548SOL    HW1 5543   1.810   7.012   5.023  0.4535  2.2092 -0.4883
 1548SOL    HW2 5544   1.880   6.946   4.891  0.2942  3.6550 -1.3116
 1549SOL     OW 5545   0.006   3.730   4.633 -0.2340 -0.2569 -0.5768
 1549SOL    HW1 5546  -0.075   3.704   4.581  0.2316 -0.1947 -1.3652
 1549SOL    HW2 5547   0.027   3.826   4.616 -0.8267  0.1388  0.7858
 1550SOL     OW 5548   6.887   3.849   2.691  0.5233 -0.0871 -0.4916
 1550SOL    HW1 5549   6.797   3.888   2.668 -0.2448 -1.4057  0.1928
 1550SOL    HW2 5550   6.899   3.763   2.643  0.8411 -0.5973  0.4824
 1551SOL     OW 5551   2.569   6.682   5.148 -0.4266 -0.0874 -0.1626
 1551SOL    HW1 5552   2.601   6.733   5.228 -0.1687  2.0220 -1.5168
 1551SOL    HW2 5553   2.477   6.711   5.124  0.0100  0.3765 -1.4097
 1552SOL     OW 5554   1.305   1.687   6.255 -0.2047  0.6695 -0.2395
 1552SOL    HW1 5555   1.234   1.617   6.258  0.2342  0.2437  0.9943
 1552SOL    HW2 5556   1.277   1.766   6.310  0.3948  0.3512  0.5559
 1553SOL     OW 5557   6.947   3.021   0.961  0.2243 -0.2712  0.3940
 1553SOL    HW1 5558   6.916   3.025   1.056  0.2255 -0.3654  0.3981
 1553SOL    HW2 5559   7.046   3.004   0.960  0.3990  0.6953  0.3962
 1554SOL     OW 5560   0.491   4.919   4.184  0.1386 -0.2239  0.2414
 1554SOL    HW1 5561   0.469   5.006   4.229 -0.0106  0.4983 -1.1411
 1554SOL    HW2 5562   0.483   4.844   4.249  0.3688  0.8116  1.4971
 1555SOL     OW 5563   3.957   1.818   2.108 -0.7756 -0.3466 -0.0274
 1555SOL    HW1 5564   4.001   1.883   2.171 -0.1744 -0.7937  0.0247
 1555SOL    HW2 5565   3.998   1.727   2.120 -1.0567 -0.5634 -0.6603
 1556SOL     OW 5566   3.423   2.676   1.523  0.0696  0.0975 -0.1826
 1556SOL    HW1 5567   3.446   2.599   1.582 -0.0883  0.1575 -0.0427
 1556SOL    HW2 5568   3.388   2.751   1.578  1.1100  0.6185 -0.2130
 1557SOL     OW 5569   3.064   2.371   6.933  0.8552 -0.7806  0.0793
 1557SOL    HW1 5570   3.161   2.350   6.949  1.3857  1.4925  0.1114
 1557SOL    HW2 5571   3.048   2.382   6.835  1.1726  1.0293  0.1932
 1558SOL     OW 5572   4.451   0.837   5.055  0.2116  0.3950  0.0108
 1558SOL    HW1 5573   4.517   0.811   4.985 -1.2657 -0.7949 -0.9859
 1558SOL    HW2 5574   4.418   0.755   5.102  1.5696  1.1965  2.5334
 1559SOL     OW 5575   0.915   4.444   3.168  0.5546  0.1609  0.9922
 1559SOL    HW1 5576   0.852   4.512   3.131  2.0296  1.8335  1.4596
 1559SOL    HW2 5577   0.988   4.427   3.103  0.8536 -0.0584  1.3786
 1560SOL     OW 5578   6.407   4.393   6.631  0.3045  1.0094  0.2564
 1560SOL    HW1 5579   6.318   4.402   6.675 -0.9433  0.1557 -1.9322
 1560SOL    HW2 5580   6.397   4.408   6.532  2.3758 -0.1940 -0.1971
 1561SOL     OW 5581   1.582   1.617   2.477 -0.2615  0.4725 -0.3890
 1561SOL    HW1 5582   1.510   1.675   2.516 -1.0047  0.3946 -1.6072
 1561SOL    HW2 5583   1.557   1.521   2.487  0.6495  0.3446  1.0049
 1562SOL     OW 5584   0.697   5.319   5.920  0.8092  0.0551  0.3690
 1562SOL    HW1 5585   0.719   5.309   5.823 -0.0901  3.0837 -0.2435
 1562SOL    HW2 5586   0.782   5.329   5.973  1.2601  0.1250 -0.3560
 1563SOL     OW 5587   0.521   1.666   1.992  0.5912 -0.2733 -0.1425
 1563SOL    HW1 5588   0.436   1.717   1.975  0.5766 -0.2008  0.1279
 1563SOL    HW2 5589   0.499   1.582   2.042  0.8863  0.8749  2.0782
 1564SOL     OW 5590   3.145   6.717   0.116 -0.0737 -0.3518  0.3974
 1564SOL    HW1 5591   3.236   6.758   0.118  0.4040 -1.3090  3.3574
 1564SOL    HW2 5592   3.153   6.618   0.114 -1.1053 -0.4410 -0.2712
 1565SOL     OW 5593   0.290   1.553   1.726 -0.0773 -0.3298 -0.4325
 1565SOL    HW1 5594   0.222   1.616   1.689 -1.3428  0.8189  3.3933
 1565SOL    HW2 5595   0.379   1.599   1.731  0.5133 -0.9947 -3.0921
 1566SOL     OW 5596   4.313   0.088   1.891  0.0672  0.0125 -0.2120
 1566SOL    HW1 5597   4.296   0.080   1.793 -1.8756 -0.1165  0.0780
 1566SOL    HW2 5598   4.248   0.030   1.940  0.2436  0.9472  1.1838
 1567SOL     OW 5599   2.987   1.222   4.387 -0.2008 -0.7278  0.0051
 1567SOL    HW1 5600   2.969   1.159   4.463  1.7740  0.0025  1.1219
 1567SOL    HW2 5601   3.034   1.173   4.314  0.5022 -0.7782  0.4846
 1568SOL     OW 5602   1.429   0.200   3.815 -0.1116  0.5916  0.9480
 1568SOL    HW1 5603   1.426   0.107   3.853 -0.9729 -0.5455 -1.7085
 1568SOL    HW2 5604   1.337   0.236   3.807  0.2398  1.8723  2.2784
 1569SOL     OW 5605   4.644   1.018   6.280  0.3526 -0.1058 -0.1767
 1569SOL    HW1 5606   4.570   0.963   6.242  0.1313 -0.5045  0.8034
 1569SOL    HW2 5607   4.620   1.115   6.273 -1.0145 -0.2693  1.5564
 1570SOL     OW 5608   0.881   4.551   4.171  0.1118 -0.1109 -0.3240
 1570SOL    HW1 5609   0.863   4.522   4.265  1.5118  0.3880  0.1293
 1570SOL    HW2 5610   0.795   4.555   4.120 -0.6700 -0.4112  0.9282
 1571SOL     OW 5611   2.151   1.934   0.267 -0.1851 -0.3266  0.1391
 1571SOL    HW1 5612   2.148   1.857   0.330 -0.5215 -1.2514 -0.9836
 1571SOL    HW2 5613   2.065   1.985   0.272  0.0259 -0.0315  0.8581
 1572SOL     OW 5614   6.506   4.148   6.653  0.1867  0.6163  0.4860
 1572SOL    HW1 5615   6.562   4.148   6.570 -0.1182  0.2406  0.2783
 1572SOL    HW2 5616   6.438   4.221   6.646 -1.4733 -0.9701 -0.7203
 1573SOL     OW 5617   5.387   5.543   1.651  0.2789 -0.3655  0.0473
 1573SOL    HW1 5618   5.342   5.494   1.725  1.5980 -0.0437  1.0930
 1573SOL    HW2 5619   5.379   5.642   1.665  0.3318 -0.2969 -0.3743
 1574SOL     OW 5620   3.466   2.320   1.151  0.1660  0.7146 -0.0699
 1574SOL    HW1 5621   3.414   2.346   1.232 -2.0345 -0.7475 -0.9185
 1574SOL    HW2 5622   3.431   2.233   1.115  1.6496  0.8808 -2.1096
 1575SOL     OW 5623   0.531   3.146   4.383  0.1681 -0.1185 -0.2144
 1575SOL    HW1 5624   0.490   3.235   4.402  1.2482  0.5104 -0.7046
 1575SOL    HW2 5625   0.631   3.156   4.379  0.2490 -1.1379 -1.3304
 1576SOL     OW 5626   3.387   6.359   4.108 -0.1190  0.2351 -0.2390
 1576SOL    HW1 5627   3.307   6.349   4.050  0.9745 -2.6089 -1.4315
 1576SOL    HW2 5628   3.468   6.375   4.052  1.0504 -3.0781  0.2651
 1577SOL     OW 5629   6.595   6.236   3.900  0.3706 -0.4140  0.5358
 1577SOL    HW1 5630   6.552   6.157   3.856 -0.3631 -0.0719  0.6233
 1577SOL    HW2 5631   6.530   6.279   3.962  1.4457 -0.9749  2.0970
 1578SOL     OW 5632   6.520   5.902   4.082  0.3959  0.0989 -0.1796
 1578SOL    HW1 5633   6.528   5.828   4.149 -1.2467  0.8980  0.9467
 1578SOL    HW2 5634   6.446   5.964   4.108  2.9354  3.2985  0.0151
 1579SOL     OW 5635   5.562   6.681   5.414 -0.5012  0.5863  0.1749
 1579SOL    HW1 5636   5.490   6.751   5.422  0.7907  2.1376 -1.0636
 1579SOL    HW2 5637   5.597   6.658   5.505 -1.5096  0.9373  0.6661
 1580SOL     OW 5638   3.561   3.555   3.328 -0.4862  0.2046 -0.2998
 1580SOL    HW1 5639   3.541   3.647   3.296 -1.5499  0.5172  1.1464
 1580SOL    HW2 5640   3.659   3.538   3.326 -0.3609  1.0228 -1.4597
 1581SOL     OW 5641   2.552   0.031   6.269 -0.2712  0.5635  0.0019
 1581SOL    HW1 5642   2.603  -0.049   6.301 -0.8488 -0.5894 -1.8469
 1581SOL    HW2 5643   2.616   0.105   6.248  0.2778  0.5937  1.5819
 1582SOL     OW 5644   6.065   2.055   3.100 -0.3269  0.2191  0.4589
 1582SOL    HW1 5645   6.141   2.067   3.037 -0.8854  0.7502 -0.1210
 1582SOL    HW2 5646   6.088   1.983   3.166  1.4704  1.6896  1.5425
 1583SOL     OW 5647   2.514   6.362   5.745  0.1763 -0.0077  0.5285
 1583SOL    HW1 5648   2.548   6.296   5.677 -0.3554  0.5967 -0.3451
 1583SOL    HW2 5649   2.424   6.332   5.778 -0.7911  1.0460 -1.0341
 1584SOL     OW 5650   0.401   1.424   2.099  0.2201  0.7190 -0.4716
 1584SOL    HW1 5651   0.455   1.379   2.171 -0.7541  0.1062 -0.0947
 1584SOL    HW2 5652   0.314   1.454   2.138 -1.2312 -1.4748 -1.7977
 1585SOL     OW 5653   1.995   4.633   2.247 -0.2067  0.5702  0.0410
 1585SOL    HW1 5654   2.011   4.539   2.277  0.2844  0.1713 -1.3802
 1585SOL    HW2 5655   1.898   4.655   2.255 -0.0577  0.6137  2.1739
 1586SOL     OW 5656   3.984   3.204   0.576  0.0975  0.3888 -0.1031
 1586SOL    HW1 5657   4.019   3.250   0.658  1.4726 -1.7244  0.5901
 1586SOL    HW2 5658   3.887   3.182   0.590  0.5809 -0.9632  1.5279
 1587SOL     OW 5659   6.531   3.486   4.893 -0.8291 -0.0667 -0.0534
 1587SOL    HW1 5660   6.626   3.514   4.903 -1.0975  1.8906 -2.0825
 1587SOL    HW2 5661   6.474   3.537   4.957 -0.7211  0.3601 -0.2878
 1588SOL     OW 5662   5.346   5.834   1.769 -0.1872 -0.1679 -0.3566
 1588SOL    HW1 5663   5.376   5.930   1.762 -0.1973 -0.1157  0.2627
 1588SOL    HW2 5664   5.389   5.792   1.849  1.7926 -1.4061 -1.9719
 1589SOL     OW 5665   4.325   2.377   3.801 -0.7587 -0.4991 -0.2255
 1589SOL    HW1 5666   4.255   2.307   3.809  0.9871 -2.2676  0.4186
 1589SOL    HW2 5667   4.357   2.403   3.892  0.6321 -1.0422 -0.5324
 1590SOL     OW 5668   1.704   2.187   2.111  0.1305 -0.5171  0.0831
 1590SOL    HW1 5669   1.737   2.120   2.176  0.6961  0.0337  0.3768
 1590SOL    HW2 5670   1.638   2.144   2.049  1.1403 -1.5652 -0.3085
 1591SOL     OW 5671   1.358   2.458   5.388  0.3784  0.3101 -0.0866
 1591SOL    HW1 5672   1.452   2.490   5.378 -0.1649  3.0691  2.2127
 1591SOL    HW2 5673   1.344   2.422   5.480 -1.2766  2.1366  0.4718
 1592SOL     OW 5674   0.613   4.944   0.211  0.2683  0.0480  0.0849
 1592SOL    HW1 5675   0.521   4.979   0.230 -0.3639 -1.0796 -0.8145
 1592SOL    HW2 5676   0.676   4.980   0.280 -1.1592 -0.5309  1.7854
 1593SOL     OW 5677   1.084   1.323   3.230 -0.0782  0.2320 -0.1059
 1593SOL    HW1 5678   1.112   1.235   3.193  0.1172  0.1457  0.2428
 1593SOL    HW2 5679   1.165   1.374   3.260 -0.1223  0.8168 -0.9262
 1594SOL     OW 5680   1.647   1.275   6.804  0.1770  0.2890 -0.4409
 1594SOL    HW1 5681   1.690   1.329   6.876 -0.1607 -1.1497  0.8895
 1594SOL    HW2 5682   1.575   1.219   6.843  0.6062 -1.2316 -1.7267
 1595SOL     OW 5683   4.624   5.379   0.071 -0.1654 -0.5280 -0.1745
 1595SOL    HW1 5684   4.612   5.361  -0.027  1.2397 -0.6854 -0.3391
 1595SOL    HW2 5685   4.573   5.462   0.096 -0.5421 -0.4851 -1.0295
 1596SOL     OW 5686   5.980   2.915   2.013 -0.0907  0.0911  0.4727
 1596SOL    HW1 5687   6.061   2.910   1.954 -0.1898  0.8470  0.2517
 1596SOL    HW2 5688   5.972   2.831   2.066  1.7960  0.6297  1.7314
 1597SOL     OW 5689   3.833   1.880   1.574 -0.1683 -0.7955 -0.9925
 1597SOL    HW1 5690   3.780   1.961   1.596 -0.4048 -1.3445  0.5657
 1597SOL    HW2 5691   3.880   1.893   1.486 -0.9008  0.6545 -1.1880
 1598SOL     OW 5692   2.577   1.106   4.135 -0.0592  0.3754 -0.0681
 1598SOL    HW1 5693   2.497   1.048   4.126  0.8673 -1.2299  1.4059
 1598SOL    HW2 5694   2.569   1.161   4.218 -0.0704  0.9453 -0.4431
 1599SOL     OW 5695   2.947   1.273   3.748 -0.0284  0.0226  0.4171
 1599SOL    HW1 5696   2.867   1.280   3.808 -0.5006 -0.4474 -0.1377
 1599SOL    HW2 5697   2.986   1.363   3.734 -0.4487  0.2574  0.7164
 1600SOL     OW 5698   4.526   4.006   5.659 -0.0334 -0.2917 -0.0987
 1600SOL    HW1 5699   4.469   4.003   5.577 -0.4899  1.3277  0.1134
 1600SOL    HW2 5700   4.616   4.043   5.636  0.0858 -0.5137  0.0089
 1601SOL     OW 5701   2.185   2.178   2.181 -0.5195  0.3332  0.0041
 1601SOL    HW1 5702   2.157   2.096   2.132  1.7147 -0.2438 -0.4154
 1601SOL    HW2 5703   2.141   2.258   2.139 -3.7446 -0.6407  1.2135
 1602SOL     OW 5704   0.711   0.963   5.840  0.3894 -0.0789  0.0914
 1602SOL    HW1 5705   0.785   0.953   5.907 -0.0351  0.7716  0.7062
 1602SOL    HW2 5706   0.750   0.967   5.748  1.1617  0.8435  0.4412
 1603SOL     OW 5707   5.002   4.521   2.442 -0.6700  0.4408 -0.2701
 1603SOL    HW1 5708   4.935   4.530   2.368 -1.5699  1.8823  0.6630
 1603SOL    HW2 5709   4.996   4.602   2.501 -0.9614 -1.2916  2.1824
 1604SOL     OW 5710   5.809   6.825   4.887 -0.0338  0.2707  0.0427
 1604SOL    HW1 5711   5.761   6.738   4.897  1.1098 -0.4784 -0.7029
 1604SOL    HW2 5712   5.774   6.891   4.954  0.3536 -1.3360  1.9480
 1605SOL     OW 5713   4.087   0.951   2.125  0.1482 -0.6525  0.6165
 1605SOL    HW1 5714   4.181   0.949   2.160  0.4782  0.3602 -0.1676
 1605SOL    HW2 5715   4.040   0.867   2.152  1.1937 -1.0617  1.2437
 1606SOL     OW 5716   2.431   5.348   1.281 -0.5218 -0.3558  0.2894
 1606SOL    HW1 5717   2.375   5.311   1.356 -0.8640  0.5719  0.5149
 1606SOL    HW2 5718   2.377   5.415   1.230 -0.6867 -1.7794 -1.5176
 1607SOL     OW 5719   2.466   1.712   1.627 -0.7481  0.0153 -0.2383
 1607SOL    HW1 5720   2.505   1.803   1.613 -2.3206  0.6148 -0.9187
 1607SOL    HW2 5721   2.520   1.644   1.577  1.6125  0.2209  1.8044
 1608SOL     OW 5722   1.869   3.920   0.115  0.8692 -0.4546 -0.1421
 1608SOL    HW1 5723   1.845   3.832   0.156 -1.8173 -0.3166 -1.2191
 1608SOL    HW2 5724   1.926   3.905   0.035  0.3990 -1.2225 -0.3376
 1609SOL     OW 5725   2.414   0.052   1.375 -0.2702 -0.0526 -0.0151
 1609SOL    HW1 5726   2.453  -0.039   1.360  2.0223  0.7836  0.3813
 1609SOL    HW2 5727   2.406   0.099   1.287  0.2042 -0.0253 -0.0474
 1610SOL     OW 5728   4.877   3.989   6.594  0.3537  0.0093  0.6449
 1610SOL    HW1 5729   4.942   4.057   6.627  1.4348 -0.6857  0.0001
 1610SOL    HW2 5730   4.909   3.950   6.508  0.2239 -1.9206  1.4013
 1611SOL     OW 5731   1.335   4.199   1.994  0.0061 -0.0363 -0.0078
 1611SOL    HW1 5732   1.413   4.226   2.050  0.4026 -0.5288 -0.3113
 1611SOL    HW2 5733   1.367   4.174   1.903 -0.0571 -3.1224  0.7029
 1612SOL     OW 5734   5.246   5.543   2.318 -0.0791 -0.2828  0.2580
 1612SOL    HW1 5735   5.199   5.480   2.256 -0.3464  2.1618 -2.2342
 1612SOL    HW2 5736   5.345   5.538   2.301  0.0760 -1.2052  1.3067
 1613SOL     OW 5737   6.491   3.725   0.867 -0.1937 -0.4463  0.1057
 1613SOL    HW1 5738   6.466   3.754   0.959  2.1253  1.0073  0.3507
 1613SOL    HW2 5739   6.510   3.805   0.810  1.2194 -1.3721 -0.7888
 1614SOL     OW 5740   4.660   0.503   6.476 -0.0521  0.0131  0.0621
 1614SOL    HW1 5741   4.715   0.544   6.549  0.0922  1.2696 -0.7264
 1614SOL    HW2 5742   4.657   0.404   6.489 -1.7771  0.3265  2.9685
 1615SOL     OW 5743   1.137   1.161   2.332  0.0747  0.6969 -0.2163
 1615SOL    HW1 5744   1.221   1.195   2.374 -0.0479  1.4086 -0.5433
 1615SOL    HW2 5745   1.110   1.221   2.257 -1.9750  1.8158  1.2967
 1616SOL     OW 5746   2.063   3.512   4.088  0.4182 -0.3184  0.1277
 1616SOL    HW1 5747   2.030   3.595   4.043 -2.7900 -0.6989  1.4630
 1616SOL    HW2 5748   2.091   3.533   4.182 -0.7508 -0.7525  0.5920
 1617SOL     OW 5749   6.030   2.229   1.755 -0.3848 -0.1304 -0.1948
 1617SOL    HW1 5750   6.122   2.216   1.717 -1.1011 -0.1728 -1.9666
 1617SOL    HW2 5751   5.996   2.320   1.731 -0.8077 -0.0929  0.5084
 1618SOL     OW 5752   4.033   1.815   5.899 -0.0406  0.1644  0.1761
 1618SOL    HW1 5753   4.086   1.893   5.933  0.8176 -0.2770 -0.1134
 1618SOL    HW2 5754   4.012   1.754   5.976  0.5285 -0.0357  0.1787
 1619SOL     OW 5755   0.875   4.375   4.895 -0.3363  0.1076  0.2796
 1619SOL    HW1 5756   0.889   4.474   4.889  0.2543  0.0070 -0.0962
 1619SOL    HW2 5757   0.951   4.334   4.946 -0.6259 -0.1421  0.5114
 1620SOL     OW 5758   0.039   4.230   1.539 -0.5032  0.0384 -0.0247
 1620SOL    HW1 5759  -0.039   4.230   1.477 -0.7304 -0.6116  0.2546
 1620SOL    HW2 5760   0.026   4.300   1.610 -0.8328 -0.0773  0.0272
 1621SOL     OW 5761   5.125   1.475   3.468 -0.1830  0.1217  1.1270
 1621SOL    HW1 5762   5.102   1.568   3.498 -0.1078  0.3051  0.6209
 1621SOL    HW2 5763   5.208   1.478   3.412 -1.8157  0.1495 -1.4148
 1622SOL     OW 5764   1.981   1.132   4.416  0.9680 -0.7815  0.3372
 1622SOL    HW1 5765   1.911   1.079   4.464  0.8066 -0.9935 -0.1346
 1622SOL    HW2 5766   1.997   1.218   4.466 -1.2970  0.3557 -0.7575
 1623SOL     OW 5767   2.707   4.640   4.023 -0.4410  0.0576  0.1209
 1623SOL    HW1 5768   2.633   4.574   4.019  0.4575 -0.9746 -0.0963
 1623SOL    HW2 5769   2.695   4.701   4.101 -2.0373  0.5696 -0.4933
 1624SOL     OW 5770   0.254   2.671   3.243 -0.0241 -0.0784  0.1298
 1624SOL    HW1 5771   0.280   2.577   3.223  1.4521 -0.0547  1.7096
 1624SOL    HW2 5772   0.329   2.732   3.219 -0.8079  0.6586 -0.4870
 1625SOL     OW 5773   3.965   6.640   5.287 -0.2267 -0.2037  0.2421
 1625SOL    HW1 5774   3.939   6.686   5.373 -0.4509  0.5150 -0.2025
 1625SOL    HW2 5775   4.040   6.576   5.305 -0.0834  0.1441  0.9219
 1626SOL     OW 5776   2.062   3.579   3.047 -0.5070  0.6485  0.3934
 1626SOL    HW1 5777   2.114   3.549   3.126 -0.4096  1.2421  0.5585
 1626SOL    HW2 5778   2.096   3.668   3.016 -1.0245  0.7614  0.1357
 1627SOL     OW 5779   0.799   3.054   2.176 -0.0540  0.8886  0.4928
 1627SOL    HW1 5780   0.745   3.002   2.241  0.6422 -0.1377  0.2788
 1627SOL    HW2 5781   0.894   3.023   2.180  0.1455  1.3512 -0.4638
 1628SOL     OW 5782   1.706   5.802   5.430 -0.4011 -0.0032  0.3749
 1628SOL    HW1 5783   1.669   5.895   5.434  0.1150  0.4239 -2.6593
 1628SOL    HW2 5784   1.634   5.737   5.455 -1.2608  1.1261  0.9265
 1629SOL     OW 5785   0.323   2.058   4.530  0.4688  0.1586 -0.0479
 1629SOL    HW1 5786   0.319   1.966   4.491  0.3044  0.4936 -0.8371
 1629SOL    HW2 5787   0.369   2.120   4.466  0.4309  0.6657  0.4050
 1630SOL     OW 5788   2.884   5.106   2.618 -0.1702  0.0504  0.3336
 1630SOL    HW1 5789   2.864   5.172   2.547  2.1379  0.1640 -0.2820
 1630SOL    HW2 5790   2.921   5.022   2.577 -0.8627 -0.7415  1.2643
 1631SOL     OW 5791   4.661   3.804   6.614  0.3334 -0.3050 -0.1123
 1631SOL    HW1 5792   4.665   3.714   6.657 -0.7879 -0.3972 -0.1490
 1631SOL    HW2 5793   4.753   3.839   6.599  0.8229 -1.8973 -1.0458
 1632SOL     OW 5794   5.581   4.406   1.353 -0.3680 -0.1057  0.0079
 1632SOL    HW1 5795   5.671   4.364   1.347 -0.4060 -0.0954 -0.7158
 1632SOL    HW2 5796   5.565   4.439   1.446  0.4811  0.1302  0.0774
 1633SOL     OW 5797   4.665   6.323   2.930 -0.1509 -0.1246 -0.9131
 1633SOL    HW1 5798   4.614   6.374   2.860  0.6403  1.6682 -0.2628
 1633SOL    HW2 5799   4.748   6.285   2.889  0.1952  0.7263 -1.0242
 1634SOL     OW 5800   3.201   0.147   3.162 -0.2513 -0.3733 -0.0971
 1634SOL    HW1 5801   3.276   0.139   3.097 -0.4992 -1.2909 -0.2898
 1634SOL    HW2 5802   3.171   0.242   3.167  0.8644 -0.0203 -0.0734
 1635SOL     OW 5803   4.759   2.438   3.494 -0.5245  0.1744  0.0754
 1635SOL    HW1 5804   4.717   2.437   3.585 -2.4177  1.6109 -0.6950
 1635SOL    HW2 5805   4.855   2.464   3.502 -0.4683 -0.3999  1.7069
 1636SOL     OW 5806   5.128   5.161   5.602  0.0685  0.1824  1.0354
 1636SOL    HW1 5807   5.140   5.069   5.638  0.6167 -1.3255 -2.5222
 1636SOL    HW2 5808   5.047   5.163   5.544  1.0695  1.3918 -0.3861
 1637SOL     OW 5809   4.568   4.922   3.546 -0.0699  0.3221 -0.0788
 1637SOL    HW1 5810   4.474   4.903   3.519 -0.2208  0.6732  0.1957
 1637SOL    HW2 5811   4.569   4.959   3.639  0.4034 -0.4170  0.2148
 1638SOL     OW 5812   1.420   1.979   6.937 -0.3738  0.6330  0.4881
 1638SOL    HW1 5813   1.422   1.999   7.035 -0.0071 -0.3139  0.6814
 1638SOL    HW2 5814   1.332   1.938   6.914 -0.8037  1.6542  0.2435
 1639SOL     OW 5815   3.951   3.282   6.513 -0.3605  0.3314  0.0722
 1639SOL    HW1 5816   3.924   3.234   6.596  0.1265  0.6801  0.4367
 1639SOL    HW2 5817   4.012   3.357   6.536  1.8581 -1.0752 -0.7804
 1640SOL     OW 5818   5.879   3.038   6.179 -0.4170  0.1486  0.2157
 1640SOL    HW1 5819   5.948   2.974   6.144 -1.1381 -1.4078  1.5629
 1640SOL    HW2 5820   5.876   3.119   6.119  2.5472  0.2813  0.0944
 1641SOL     OW 5821   5.279   2.422   1.360 -0.3303  0.3016  0.4815
 1641SOL    HW1 5822   5.215   2.474   1.304 -0.7708 -2.0799 -1.3771
 1641SOL    HW2 5823   5.228   2.361   1.421  0.1743 -0.0658  0.5459
 1642SOL     OW 5824   4.242   5.662   1.236  0.2956  0.0443 -0.3545
 1642SOL    HW1 5825   4.159   5.606   1.237  1.2397 -1.5531 -2.6634
 1642SOL    HW2 5826   4.300   5.637   1.314 -0.5216 -0.1973  0.1921
 1643SOL     OW 5827   3.146   1.048   6.137 -0.2332  0.1020 -0.6583
 1643SOL    HW1 5828   3.235   1.092   6.144  0.4409 -1.2788 -0.3745
 1643SOL    HW2 5829   3.157   0.949   6.133 -1.8256 -0.2055  1.0850
 1644SOL     OW 5830   5.872   0.146   1.330  0.0307  0.4062  0.1249
 1644SOL    HW1 5831   5.864   0.057   1.286 -0.1006 -0.2113  1.3609
 1644SOL    HW2 5832   5.910   0.135   1.422 -0.4454  1.5722  0.4828
 1645SOL     OW 5833   3.361   2.711   5.763  0.1608 -0.5557 -0.4870
 1645SOL    HW1 5834   3.444   2.707   5.819  0.4787 -2.2799 -1.0255
 1645SOL    HW2 5835   3.288   2.658   5.807 -1.2103  2.1390  0.7387
 1646SOL     OW 5836   2.107   1.708   0.456 -0.2931 -0.5829 -0.3246
 1646SOL    HW1 5837   2.180   1.683   0.520  0.2201 -0.7028 -0.9506
 1646SOL    HW2 5838   2.039   1.763   0.504  1.0316  0.9441 -0.1178
 1647SOL     OW 5839   3.211   0.675   3.765  0.0407  0.8307  0.0977
 1647SOL    HW1 5840   3.130   0.628   3.800  0.3393  0.1284 -0.1553
 1647SOL    HW2 5841   3.214   0.666   3.665  1.2660 -0.5036  0.2372
 1648SOL     OW 5842   2.684   2.433   5.264  0.2219 -0.0588  0.2345
 1648SOL    HW1 5843   2.781   2.412   5.249  0.5785  0.2889  1.8192
 1648SOL    HW2 5844   2.675   2.491   5.345 -1.2200  1.0104 -0.6564
 1649SOL     OW 5845   5.923   4.122   6.337  0.2978 -0.0397 -0.4707
 1649SOL    HW1 5846   5.980   4.172   6.402 -1.0848  0.4649  0.3898
 1649SOL    HW2 5847   5.845   4.081   6.385  0.7715 -2.1125 -1.3319
 1650SOL     OW 5848   1.422   4.710   6.293  0.0085  0.1887 -0.2730
 1650SOL    HW1 5849   1.448   4.652   6.216  0.5588  1.2569 -0.9150
 1650SOL    HW2 5850   1.362   4.783   6.260  0.5004  0.8379  0.2378
 1651SOL     OW 5851   0.607   2.832   3.398  0.0031  0.1843  0.0614
 1651SOL    HW1 5852   0.527   2.854   3.343 -1.0834 -2.7943  0.2662
 1651SOL    HW2 5853   0.690   2.843   3.343 -1.0481 -3.1505 -2.5171
 1652SOL     OW 5854   3.214   1.313   4.059  0.0737 -0.6836  0.1671
 1652SOL    HW1 5855   3.185   1.400   4.100  1.0927 -1.0242  1.7006
 1652SOL    HW2 5856   3.145   1.243   4.079 -0.0631 -0.5463  0.1819
 1653SOL     OW 5857   3.997   6.615   6.303 -0.0330  0.1202  0.3233
 1653SOL    HW1 5858   4.089   6.616   6.264 -0.5467 -1.2822 -1.0528
 1653SOL    HW2 5859   3.944   6.690   6.263  0.3663  0.6663  0.7947
 1654SOL     OW 5860   3.480   3.409   1.671  0.0124 -0.1019  0.3241
 1654SOL    HW1 5861   3.384   3.413   1.644 -0.0080  0.2183  0.4419
 1654SOL    HW2 5862   3.535   3.468   1.611 -0.0745  0.8342  1.1429
 1655SOL     OW 5863   3.099   6.748   1.599 -0.4658  0.0553  0.5667
 1655SOL    HW1 5864   3.173   6.743   1.531 -0.6127 -1.3071  0.4892
 1655SOL    HW2 5865   3.127   6.807   1.674 -0.0126  1.0065 -0.3176
 1656SOL     OW 5866   1.333   0.091   1.945  0.1771  0.2039  0.1071
 1656SOL    HW1 5867   1.251   0.049   1.907  0.2625  1.0067 -1.0089
 1656SOL    HW2 5868   1.395   0.117   1.871  0.6406  1.2274  0.8233
 1657SOL     OW 5869   0.410   0.409   5.427  0.3756 -0.3464 -0.3816
 1657SOL    HW1 5870   0.318   0.378   5.401  0.9132 -0.8136 -1.8124
 1657SOL    HW2 5871   0.432   0.375   5.519 -0.7415 -0.4995 -0.1520
 1658SOL     OW 5872   0.275   4.183   5.124  0.0622  0.0266 -0.4058
 1658SOL    HW1 5873   0.356   4.153   5.073 -1.2941  0.8174 -3.2384
 1658SOL    HW2 5874   0.220   4.104   5.150  0.5680 -0.3839 -0.5686
 1659SOL     OW 5875   2.343   5.931   3.387  0.1743 -0.1482  0.8397
 1659SOL    HW1 5876   2.269   5.881   3.343 -0.0843  0.5195  0.5006
 1659SOL    HW2 5877   2.356   5.897   3.480 -0.5525 -0.2783  0.8961
 1660SOL     OW 5878   2.795   5.973   1.000 -0.2708  0.4334 -0.0016
 1660SOL    HW1 5879   2.848   5.925   1.071  0.9413  2.9990  0.9541
 1660SOL    HW2 5880   2.764   6.061   1.036 -0.3386  1.4516 -2.3921
 1661SOL     OW 5881   6.385   1.527   2.803  0.1943 -0.4534 -0.3000
 1661SOL    HW1 5882   6.401   1.543   2.705 -0.6773  0.3800 -0.3313
 1661SOL    HW2 5883   6.456   1.572   2.856  0.9746 -1.3558 -0.5507
 1662SOL     OW 5884   3.646   1.776   6.194  0.0196 -0.2086  0.7017
 1662SOL    HW1 5885   3.628   1.854   6.254 -0.2839  0.4405 -0.2057
 1662SOL    HW2 5886   3.578   1.704   6.211 -0.7634  0.4372  0.3532
 1663SOL     OW 5887   0.147   4.415   0.745 -0.0299 -0.0281 -0.2691
 1663SOL    HW1 5888   0.247   4.413   0.744  0.2036  3.2932 -3.2024
 1663SOL    HW2 5889   0.116   4.486   0.809 -0.7972 -2.6059  2.4454
 1664SOL     OW 5890   3.517   1.379   3.153  0.4007  0.1364  0.1823
 1664SOL    HW1 5891   3.487   1.305   3.213  0.1042 -0.0691 -0.2145
 1664SOL    HW2 5892   3.462   1.378   3.069 -1.7852  2.7100  1.4356
 1665SOL     OW 5893   6.636   6.453   1.831  0.3223  0.1202 -0.2675
 1665SOL    HW1 5894   6.590   6.501   1.757 -0.2960  0.1737  0.1449
 1665SOL    HW2 5895   6.588   6.368   1.852 -0.2793  0.7301  0.9272
 1666SOL     OW 5896   4.979   1.586   0.870  0.2559  0.1649 -0.0183
 1666SOL    HW1 5897   5.076   1.571   0.888 -0.2823 -1.3404  2.0111
 1666SOL    HW2 5898   4.968   1.666   0.811  2.6646  0.9726  0.5142
 1667SOL     OW 5899   4.824   2.577   3.125  0.6239  0.7412  0.2578
 1667SOL    HW1 5900   4.757   2.507   3.100  0.2148  1.0183  0.5593
 1667SOL    HW2 5901   4.792   2.667   3.095  1.6925  0.6805 -1.1643
 1668SOL     OW 5902   0.194   6.114   1.603  0.5829  0.1283 -0.2221
 1668SOL    HW1 5903   0.199   6.020   1.569  1.5143 -0.0832  0.4605
 1668SOL    HW2 5904   0.104   6.152   1.581 -0.4681 -1.5041  1.0116
 1669SOL     OW 5905   2.938   3.635   1.543  0.4093  0.2511  0.0989
 1669SOL    HW1 5906   3.002   3.590   1.482 -1.4651  1.4028 -2.9407
 1669SOL    HW2 5907   2.845   3.628   1.506 -0.8290  1.2415  2.7365
 1670SOL     OW 5908   6.247   1.408   4.058  0.0663  0.3120 -0.5570
 1670SOL    HW1 5909   6.279   1.346   3.986 -1.0096  0.3120 -1.0512
 1670SOL    HW2 5910   6.189   1.479   4.018  0.1812  0.8345  0.1912
 1671SOL     OW 5911   2.660   0.299   2.061 -0.3671  0.4405  0.1611
 1671SOL    HW1 5912   2.746   0.260   2.095 -0.7449  0.2810  0.9631
 1671SOL    HW2 5913   2.616   0.233   2.000 -0.7655 -0.2319  1.1356
 1672SOL     OW 5914   1.556   6.839   4.964  0.5361 -0.0340 -0.2140
 1672SOL    HW1 5915   1.562   6.740   4.978 -0.7268 -0.1940 -0.6770
 1672SOL    HW2 5916   1.647   6.879   4.974  1.2927 -1.3953 -1.1674
 1673SOL     OW 5917   5.280   2.043   1.688  0.1690  0.1934 -0.1040
 1673SOL    HW1 5918   5.367   2.001   1.713 -0.3088 -0.4508  0.5235
 1673SOL    HW2 5919   5.259   2.116   1.753 -0.0934 -0.1149  0.1564
 1674SOL     OW 5920   4.040   4.808   6.428  0.0279 -0.3564 -0.1558
 1674SOL    HW1 5921   4.024   4.757   6.513  0.6361 -0.9815 -0.4088
 1674SOL    HW2 5922   3.987   4.892   6.430  0.6571  0.0520  1.2236
 1675SOL     OW 5923   6.395   3.321   0.393 -0.1613  0.3633 -0.0631
 1675SOL    HW1 5924   6.352   3.318   0.483 -2.3020 -0.3278 -1.0401
 1675SOL    HW2 5925   6.415   3.227   0.363  1.9300  0.6568  0.2709
 1676SOL     OW 5926   1.944   0.470   2.067  0.9540  0.2936 -0.3055
 1676SOL    HW1 5927   1.965   0.564   2.091  0.4173  1.0176 -2.4551
 1676SOL    HW2 5928   2.014   0.434   2.005  0.1290  0.0072 -1.1070
 1677SOL     OW 5929   5.868   6.333   0.058  0.4825 -0.2726 -0.1408
 1677SOL    HW1 5930   5.831   6.265   0.122  1.0698 -1.0724 -0.6285
 1677SOL    HW2 5931   5.942   6.292   0.004  1.1673  0.8951 -0.1363
 1678SOL     OW 5932   5.023   5.761   1.211  0.2817 -0.5882  0.1837
 1678SOL    HW1 5933   4.939   5.800   1.250 -0.9104 -0.8547 -1.9768
 1678SOL    HW2 5934   5.021   5.661   1.221  0.7741 -0.5381  0.8825
 1679SOL     OW 5935   5.505   3.440   1.797 -0.1088  0.3069 -0.4224
 1679SOL    HW1 5936   5.604   3.440   1.783 -0.0683  0.6390 -0.1491
 1679SOL    HW2 5937   5.471   3.346   1.791 -0.1119  0.4141 -2.7824
 1680SOL     OW 5938   1.663   5.049   6.265  0.6589 -0.0565 -1.1895
 1680SOL    HW1 5939   1.662   5.018   6.169 -1.5144  0.7423 -1.4645
 1680SOL    HW2 5940   1.703   4.978   6.322  1.5524 -0.7529 -2.6176
 1681SOL     OW 5941   5.198   5.875   4.310  0.1450 -0.2206 -0.2513
 1681SOL    HW1 5942   5.204   5.944   4.383 -1.4344 -1.0667  0.7479
 1681SOL    HW2 5943   5.143   5.910   4.235  1.3033  0.4502 -0.7951
 1682SOL     OW 5944   4.956   5.206   1.908 -0.4017 -0.6677  0.1283
 1682SOL    HW1 5945   5.016   5.146   1.855  0.4489 -0.0135  0.3245
 1682SOL    HW2 5946   4.902   5.151   1.972  0.2489 -1.2435  0.1919
 1683SOL     OW 5947   2.121   4.980   2.569  0.1066  0.6368  0.7102
 1683SOL    HW1 5948   2.147   4.893   2.528  0.4475  1.2060 -0.3388
 1683SOL    HW2 5949   2.041   4.968   2.628 -0.4833 -0.2084 -0.2312
 1684SOL     OW 5950   5.264   1.153   0.167 -0.0106 -0.0428 -0.0940
 1684SOL    HW1 5951   5.361   1.158   0.142 -0.5041 -0.5665 -2.3660
 1684SOL    HW2 5952   5.214   1.102   0.096 -2.1007  0.9600  0.5783
 1685SOL     OW 5953   5.073   0.913   4.811 -0.1437 -0.4151  0.7131
 1685SOL    HW1 5954   5.050   1.008   4.832  2.5479 -0.1186  2.8462
 1685SOL    HW2 5955   5.167   0.908   4.777 -0.0756 -2.3502  1.0435
 1686SOL     OW 5956   3.807   6.354   2.537 -0.3008  0.3897  0.1684
 1686SOL    HW1 5957   3.882   6.290   2.557 -0.8833 -0.5752 -0.6553
 1686SOL    HW2 5958   3.738   6.347   2.609 -1.1837 -1.2131 -0.7806
 1687SOL     OW 5959   5.989   5.789   4.418 -0.1505 -0.0158 -0.3012
 1687SOL    HW1 5960   5.994   5.849   4.338  1.7973  0.3830  0.0515
 1687SOL    HW2 5961   5.973   5.844   4.500 -0.7845 -0.2683 -0.2507
 1688SOL     OW 5962   5.722   0.863   3.498 -0.1074  0.1743  0.1147
 1688SOL    HW1 5963   5.784   0.918   3.555 -0.5463 -0.2175  0.9880
 1688SOL    HW2 5964   5.628   0.892   3.514 -0.1613  0.9342 -1.3903
 1689SOL     OW 5965   2.707   2.386   6.079 -0.5224 -0.3384 -0.9396
 1689SOL    HW1 5966   2.701   2.384   5.979 -0.4435 -0.0611 -0.9518
 1689SOL    HW2 5967   2.615   2.380   6.118 -0.4491 -4.2097 -0.9229
 1690SOL     OW 5968   1.158   5.282   4.095 -0.0302  0.0345 -0.3155
 1690SOL    HW1 5969   1.098   5.355   4.062 -1.0208 -1.1481 -1.2608
 1690SOL    HW2 5970   1.106   5.220   4.153  0.0151 -1.4426 -1.7720
 1691SOL     OW 5971   0.178   3.384   6.249  0.2665 -0.0714  0.0942
 1691SOL    HW1 5972   0.262   3.362   6.198 -0.5207 -1.1806 -0.7775
 1691SOL    HW2 5973   0.133   3.300   6.277 -1.0962  0.4788 -0.3626
 1692SOL     OW 5974   0.423   4.282   4.585  0.1596  0.0242 -0.0909
 1692SOL    HW1 5975   0.470   4.337   4.653  0.9770 -1.7931  0.8571
 1692SOL    HW2 5976   0.482   4.270   4.505  0.6159 -0.7649  0.3559
 1693SOL     OW 5977   0.270   2.617   6.296  0.9669  0.5613  0.0350
 1693SOL    HW1 5978   0.298   2.589   6.388 -1.6989  1.8184  1.3711
 1693SOL    HW2 5979   0.254   2.716   6.295  1.7572  0.7219 -2.0747
 1694SOL     OW 5980   3.367   3.941   6.403 -0.1535 -0.3370  0.2062
 1694SOL    HW1 5981   3.383   3.848   6.369 -0.7354 -0.3563 -0.0386
 1694SOL    HW2 5982   3.405   3.950   6.495  3.1134  0.2764 -1.0870
 1695SOL     OW 5983   5.180   3.017   1.046  0.1917 -0.0820 -0.0375
 1695SOL    HW1 5984   5.176   2.938   1.107  2.4499 -0.4690 -0.2858
 1695SOL    HW2 5985   5.155   2.988   0.953 -2.6209  0.3740  0.4795
 1696SOL     OW 5986   4.986   3.676   5.117 -0.0765 -0.1729 -0.3414
 1696SOL    HW1 5987   4.978   3.765   5.071 -1.0026 -0.9229 -1.7078
 1696SOL    HW2 5988   4.900   3.626   5.106  1.4883 -2.5907 -2.5230
 1697SOL     OW 5989   6.251   0.848   4.070 -0.0562 -0.0125  0.2831
 1697SOL    HW1 5990   6.255   0.889   3.979  1.1411  0.3018  0.4524
 1697SOL    HW2 5991   6.170   0.790   4.077  0.4927 -1.0594 -1.4319
 1698SOL     OW 5992   3.437   6.038   5.642 -0.0233  0.0258 -0.1730
 1698SOL    HW1 5993   3.532   6.068   5.642 -0.6386  2.1119 -0.1572
 1698SOL    HW2 5994   3.421   5.978   5.721  0.9736  0.6397  0.5135
 1699SOL     OW 5995   4.905   4.664   0.189 -0.6206 -0.0114  0.2587
 1699SOL    HW1 5996   4.942   4.753   0.217 -0.1516 -0.0984 -0.0539
 1699SOL    HW2 5997   4.825   4.641   0.244  0.3892 -0.2801  1.6486
 1700SOL     OW 5998   0.180   2.695   0.872 -0.0807  0.0203  0.0399
 1700SOL    HW1 5999   0.180   2.783   0.825 -2.1053 -0.2735 -0.6222
 1700SOL    HW2 6000   0.135   2.627   0.814 -0.6134 -0.8957  1.4707
 1701SOL     OW 6001   6.416   6.250   3.342 -0.0150 -0.3269 -0.6688
 1701SOL    HW1 6002   6.323   6.286   3.336 -1.4561 -3.3251  1.2164
 1701SOL    HW2 6003   6.433   6.216   3.434  1.2569 -3.9485 -2.0683
 1702SOL     OW 6004   1.453   2.860   1.902 -0.3550 -0.2458 -0.1510
 1702SOL    HW1 6005   1.543   2.823   1.879  0.3647  2.3159 -1.9449
 1702SOL    HW2 6006   1.387   2.833   1.831 -0.4189 -0.1184 -0.1399
 1703SOL     OW 6007   2.038   3.486   6.260 -0.1338  0.3256  0.7454
 1703SOL    HW1 6008   2.125   3.455   6.299 -0.0570 -0.0588  0.2764
 1703SOL    HW2 6009   1.963   3.433   6.300 -0.0487 -0.1191  0.3244
 1704SOL     OW 6010   3.561   1.400   5.335  0.1174 -0.5703  0.3372
 1704SOL    HW1 6011   3.648   1.405   5.382 -0.7350  0.4886  1.8962
 1704SOL    HW2 6012   3.487   1.427   5.398 -1.3900 -1.9298 -0.7749
 1705SOL     OW 6013   3.880   6.123   6.287  0.7949 -0.5214 -0.1061
 1705SOL    HW1 6014   3.799   6.159   6.333  1.7073 -0.1478  1.2644
 1705SOL    HW2 6015   3.852   6.053   6.221 -0.6030 -0.6869  0.6230
 1706SOL     OW 6016   3.437   5.488   5.222 -0.1325  0.2015 -0.1328
 1706SOL    HW1 6017   3.495   5.434   5.283 -1.0396 -0.3458  0.2598
 1706SOL    HW2 6018   3.357   5.434   5.195 -0.0022  0.6124 -1.4201
 1707SOL     OW 6019   5.769   1.129   1.885  0.1735  0.7128  1.3441
 1707SOL    HW1 6020   5.841   1.178   1.837 -0.7662  0.5568 -0.3159
 1707SOL    HW2 6021   5.682   1.176   1.871 -0.3977 -0.2621  1.4811
 1708SOL     OW 6022   1.997   1.678   2.115  0.1632 -0.1086 -0.4984
 1708SOL    HW1 6023   2.032   1.658   2.023  1.0797 -1.0835  0.0379
 1708SOL    HW2 6024   2.048   1.624   2.182 -2.4515 -1.7427  0.3351
 1709SOL     OW 6025   0.479   2.206   4.807  0.2654 -0.5194 -0.3143
 1709SOL    HW1 6026   0.431   2.211   4.895  0.5915 -2.0542 -0.0212
 1709SOL    HW2 6027   0.412   2.206   4.732 -0.0304  0.4281 -0.0653
 1710SOL     OW 6028   3.785   3.712   4.652  0.1134  0.0843 -0.1439
 1710SOL    HW1 6029   3.700   3.760   4.674  0.2253 -0.0375  0.5696
 1710SOL    HW2 6030   3.799   3.637   4.717 -0.4097 -1.3699 -1.6489
 1711SOL     OW 6031   5.420   0.662   1.802 -0.3380 -0.2006 -1.0382
 1711SOL    HW1 6032   5.477   0.692   1.726 -0.4960  0.0426 -1.0607
 1711SOL    HW2 6033   5.452   0.573   1.835  1.0524  0.6484  0.0023
 1712SOL     OW 6034   1.412   5.811   4.219 -0.0835  0.3475 -0.3006
 1712SOL    HW1 6035   1.393   5.839   4.125  0.7813  0.4964 -0.4362
 1712SOL    HW2 6036   1.508   5.784   4.227 -0.2002  0.1474  0.4958
 1713SOL     OW 6037   2.962   1.632   6.194  0.6491 -0.3273 -0.3313
 1713SOL    HW1 6038   2.950   1.700   6.122  1.4184 -0.6784 -0.8018
 1713SOL    HW2 6039   2.953   1.540   6.155  1.9326 -0.5425 -0.1746
 1714SOL     OW 6040   1.520   1.576   2.961 -0.0544  0.0352 -0.6075
 1714SOL    HW1 6041   1.612   1.558   2.994 -0.0269 -2.1940 -1.7048
 1714SOL    HW2 6042   1.509   1.674   2.945  1.3467  0.6479  1.6322
 1715SOL     OW 6043   6.897   1.435   2.946 -0.1176  0.1572 -1.0437
 1715SOL    HW1 6044   6.936   1.427   3.038  0.1891  2.1341 -0.9588
 1715SOL    HW2 6045   6.969   1.458   2.881 -0.6658  1.0386 -1.3639
 1716SOL     OW 6046   3.339   1.722   2.650 -0.4171  0.6121  0.0434
 1716SOL    HW1 6047   3.394   1.693   2.729 -0.2977  1.9459  0.4800
 1716SOL    HW2 6048   3.274   1.792   2.679  0.0961  1.6252 -1.1655
 1717SOL     OW 6049   3.330   0.230   5.534 -0.3704 -0.4310 -0.1006
 1717SOL    HW1 6050   3.232   0.215   5.516 -0.2800 -1.7692  0.4094
 1717SOL    HW2 6051   3.378   0.246   5.448 -0.8747 -0.7986 -0.4554
 1718SOL     OW 6052   3.833   0.627   1.292  0.0505 -0.4700  0.0254
 1718SOL    HW1 6053   3.735   0.627   1.270 -0.2522  0.0788  1.2912
 1718SOL    HW2 6054   3.847   0.661   1.385  1.5014  0.0905 -0.3603
 1719SOL     OW 6055   1.310   2.157   1.151 -0.0351 -0.3056  0.5528
 1719SOL    HW1 6056   1.403   2.140   1.120  0.4340 -0.9413  2.1991
 1719SOL    HW2 6057   1.247   2.150   1.074  1.3532  1.1709 -0.8126
 1720SOL     OW 6058   0.345   5.035   6.525 -0.5695 -0.3501  0.6652
 1720SOL    HW1 6059   0.393   4.963   6.576  0.5036  0.7193  1.2199
 1720SOL    HW2 6060   0.392   5.122   6.540 -0.9753  0.2105 -1.1714
 1721SOL     OW 6061   0.462   2.483   5.390 -0.0731  0.3317  0.5163
 1721SOL    HW1 6062   0.531   2.516   5.454  0.9009 -0.8070  0.1027
 1721SOL    HW2 6063   0.489   2.509   5.297 -0.1111 -0.2291  0.3421
 1722SOL     OW 6064   5.152   3.065   1.773 -0.7771  0.1055 -0.1863
 1722SOL    HW1 6065   5.066   3.035   1.814 -0.4277  0.2176  0.6598
 1722SOL    HW2 6066   5.157   3.165   1.775 -0.3843  0.0821  0.3028
 1723SOL     OW 6067   3.009   3.765   2.516  0.2822 -0.4394 -0.0341
 1723SOL    HW1 6068   2.956   3.688   2.552  0.3464 -0.3782  0.1898
 1723SOL    HW2 6069   3.082   3.788   2.580 -0.3384  0.4474  0.3725
 1724SOL     OW 6070   2.437   5.847   5.639  0.4736 -0.3143  0.0528
 1724SOL    HW1 6071   2.419   5.807   5.549  0.1898  1.4689 -0.7393
 1724SOL    HW2 6072   2.357   5.834   5.697 -0.2960  0.5132 -0.7648
 1725SOL     OW 6073   4.855   2.248   1.548 -0.2195 -0.1622 -0.2709
 1725SOL    HW1 6074   4.903   2.317   1.603 -1.0047  1.6565 -1.7339
 1725SOL    HW2 6075   4.756   2.263   1.555 -0.3296  0.8368 -2.9312
 1726SOL     OW 6076   6.929   2.830   5.957  0.2015 -0.1624  0.3545
 1726SOL    HW1 6077   6.840   2.872   5.937 -0.1926 -1.2472 -0.2468
 1726SOL    HW2 6078   6.925   2.786   6.047 -0.3127 -1.3231 -0.2136
 1727SOL     OW 6079   0.611   6.589   2.039 -0.0283 -0.3874  0.1941
 1727SOL    HW1 6080   0.615   6.618   1.943 -0.2716 -1.5754 -0.1925
 1727SOL    HW2 6081   0.636   6.492   2.046  0.3276 -0.2279  1.3813
 1728SOL     OW 6082   0.234   5.680   2.240 -0.3850 -0.2220 -0.0887
 1728SOL    HW1 6083   0.144   5.716   2.262 -0.2033 -0.1333  0.5375
 1728SOL    HW2 6084   0.236   5.581   2.254 -0.2868 -0.1738  0.2595
 1729SOL     OW 6085   0.478   1.263   4.502 -0.0305 -0.4726  0.2636
 1729SOL    HW1 6086   0.421   1.206   4.561  0.4591  1.1185  2.4160
 1729SOL    HW2 6087   0.572   1.229   4.505 -0.3421 -1.5796 -1.2698
 1730SOL     OW 6088   5.853   4.835   5.248  0.2078  0.4715 -0.2791
 1730SOL    HW1 6089   5.812   4.766   5.308  0.6299 -0.7082 -1.3127
 1730SOL    HW2 6090   5.951   4.815   5.237 -0.0779 -0.0196 -2.2480
 1731SOL     OW 6091   4.517   1.269   3.131 -0.7828  0.0578  0.2127
 1731SOL    HW1 6092   4.605   1.230   3.156 -0.2964  0.4117 -0.8797
 1731SOL    HW2 6093   4.506   1.267   3.031 -1.9594  0.1209  0.3206
 1732SOL     OW 6094   3.422   4.920   2.682  0.1440 -0.1718 -0.0091
 1732SOL    HW1 6095   3.326   4.905   2.706  0.6476 -1.2526  1.4795
 1732SOL    HW2 6096   3.436   4.903   2.584 -0.8537 -1.8014  0.0953
 1733SOL     OW 6097   0.237   3.536   6.732  1.0075 -0.0486 -0.0043
 1733SOL    HW1 6098   0.259   3.441   6.714 -2.7279 -1.4956  1.8751
 1733SOL    HW2 6099   0.260   3.559   6.827  0.2466  0.3125  0.1038
 1734SOL     OW 6100   6.134   1.413   5.581 -0.0264 -0.4972  0.1908
 1734SOL    HW1 6101   6.225   1.380   5.557  0.6945  2.6088 -1.8890
 1734SOL    HW2 6102   6.136   1.453   5.672  0.8291  0.0421 -0.0636
 1735SOL     OW 6103   6.170   4.705   1.097 -0.2384 -0.8614 -0.0905
 1735SOL    HW1 6104   6.071   4.694   1.102 -0.7035  2.3124  0.2264
 1735SOL    HW2 6105   6.213   4.658   1.174 -1.6339 -1.2166  0.5037
 1736SOL     OW 6106   3.220   1.392   4.449  0.5054 -0.1595  0.0616
 1736SOL    HW1 6107   3.133   1.346   4.432 -0.1201  0.8606  0.3898
 1736SOL    HW2 6108   3.214   1.488   4.420  1.4676 -0.0252  0.2442
 1737SOL     OW 6109   2.668   3.673   1.730  0.3429  0.2270 -0.6021
 1737SOL    HW1 6110   2.703   3.581   1.745 -1.5704 -0.4558 -0.0489
 1737SOL    HW2 6111   2.736   3.740   1.760  1.4062 -1.0044 -0.1928
 1738SOL     OW 6112   4.856   6.982   2.800 -0.2285  0.2061  0.4507
 1738SOL    HW1 6113   4.944   6.941   2.778  0.4177  1.3041  0.9201
 1738SOL    HW2 6114   4.786   6.943   2.740  1.0166  1.1980 -1.7936
 1739SOL     OW 6115   5.329   5.805   6.304 -0.0480 -0.0865 -0.1094
 1739SOL    HW1 6116   5.255   5.870   6.287  0.3014  0.9949  2.1395
 1739SOL    HW2 6117   5.297   5.712   6.287 -1.7361  0.4007  0.2394
 1740SOL     OW 6118   2.306   1.644   3.614  0.0660  0.7354 -0.6625
 1740SOL    HW1 6119   2.229   1.586   3.588  1.1340 -1.7757  1.3582
 1740SOL    HW2 6120   2.362   1.663   3.534 -0.2493 -1.1816 -1.3911
 1741SOL     OW 6121   6.432   6.590   0.107 -0.4376  0.1615 -0.1282
 1741SOL    HW1 6122   6.348   6.643   0.121 -2.3767 -2.7527  0.0678
 1741SOL    HW2 6123   6.496   6.610   0.182 -1.2724  1.7896  0.2167
 1742SOL     OW 6124   6.959   1.959   3.381 -0.1107  0.0120  0.5196
 1742SOL    HW1 6125   6.996   2.040   3.427 -1.9609  1.0788  0.2603
 1742SOL    HW2 6126   6.986   1.961   3.285 -0.1893  0.3601  0.5010
 1743SOL     OW 6127   1.583   1.517   0.962 -0.2240 -0.0857  0.3838
 1743SOL    HW1 6128   1.640   1.443   0.926 -0.6962 -1.1046  1.6601
 1743SOL    HW2 6129   1.540   1.488   1.047 -2.0961  0.9116 -0.1647
 1744SOL     OW 6130   5.090   6.853   6.534 -0.4443  0.1968 -0.0514
 1744SOL    HW1 6131   5.077   6.949   6.560 -2.9155 -0.5512  1.9036
 1744SOL    HW2 6132   5.172   6.818   6.579  1.1436  1.6098 -1.6875
 1745SOL     OW 6133   2.634   3.008   1.669  0.5633  0.3055  0.4100
 1745SOL    HW1 6134   2.617   3.106   1.677  1.7827  0.6957 -1.3395
 1745SOL    HW2 6135   2.732   2.991   1.659  0.3781 -1.1057  0.7251
 1746SOL     OW 6136   6.032   0.246   6.158 -0.1823  0.2982  0.4127
 1746SOL    HW1 6137   5.943   0.201   6.157  0.4405 -1.0165 -1.5411
 1746SOL    HW2 6138   6.093   0.198   6.220 -0.3072  0.0842  0.3690
 1747SOL     OW 6139   5.588   6.164   6.155  0.1418 -0.0328  0.4775
 1747SOL    HW1 6140   5.638   6.115   6.083  0.9161 -0.3950  1.2414
 1747SOL    HW2 6141   5.623   6.136   6.244 -1.8138 -0.7276  1.0857
 1748SOL     OW 6142   5.887   5.256   6.547  0.0532  0.3383  0.0087
 1748SOL    HW1 6143   5.976   5.300   6.549 -1.1981  3.1146 -0.3349
 1748SOL    HW2 6144   5.882   5.194   6.469  1.3823  0.8207 -0.4821
 1749SOL     OW 6145   0.511   6.695   2.261  0.2078 -0.0550 -0.3689
 1749SOL    HW1 6146   0.563   6.676   2.178  0.1389  1.8916 -0.9039
 1749SOL    HW2 6147   0.573   6.699   2.339  1.0500  2.7323 -1.0685
 1750SOL     OW 6148   6.466   6.048   4.749  0.3388 -0.4134 -0.8476
 1750SOL    HW1 6149   6.391   5.982   4.749  0.8233 -1.0029  0.3626
 1750SOL    HW2 6150   6.433   6.136   4.716 -0.9415 -0.6143 -0.1553
 1751SOL     OW 6151   4.855   2.488   1.870 -0.1877 -0.2980  0.3975
 1751SOL    HW1 6152   4.800   2.535   1.801  0.3266  1.7964  1.3419
 1751SOL    HW2 6153   4.796   2.429   1.925 -1.2127  0.6431  0.3487
 1752SOL     OW 6154   1.663   3.966   0.662 -0.0992 -0.5621 -0.4557
 1752SOL    HW1 6155   1.762   3.978   0.675  0.0223 -0.9828 -0.9559
 1752SOL    HW2 6156   1.614   4.013   0.735  0.5193 -1.4343  0.5586
 1753SOL     OW 6157   0.734   0.312   0.368 -0.4661 -0.2274  0.2180
 1753SOL    HW1 6158   0.742   0.241   0.438  2.0106 -1.2382 -0.9808
 1753SOL    HW2 6159   0.735   0.402   0.412 -2.7610 -0.8344  1.7021
 1754SOL     OW 6160   1.899   6.092   3.822 -0.8888  0.4199  0.5213
 1754SOL    HW1 6161   1.850   6.034   3.758 -0.3136 -0.7124  1.0776
 1754SOL    HW2 6162   1.988   6.117   3.783  0.3277 -1.9155  1.6064
 1755SOL     OW 6163   4.853   5.302   1.577 -0.1155  0.6637 -0.0964
 1755SOL    HW1 6164   4.911   5.364   1.524  2.2443  0.0741  1.5923
 1755SOL    HW2 6165   4.812   5.352   1.653 -2.1358  1.1243 -1.3968
 1756SOL     OW 6166   2.457   0.620   6.958  1.1924  0.3581 -0.0204
 1756SOL    HW1 6167   2.362   0.593   6.972  1.1558 -0.8847 -2.1933
 1756SOL    HW2 6168   2.476   0.626   6.860  3.1049  1.6068  0.3603
 1757SOL     OW 6169   4.892   4.495   4.971  0.2009  0.3344  0.2227
 1757SOL    HW1 6170   4.889   4.595   4.982  1.7944  0.1968  2.8558
 1757SOL    HW2 6171   4.983   4.462   4.997 -0.0251 -1.7657 -1.4179
 1758SOL     OW 6172   6.570   5.410   3.682 -0.1255  0.3604 -0.0544
 1758SOL    HW1 6173   6.542   5.418   3.586 -0.3865  1.3865  0.0972
 1758SOL    HW2 6174   6.623   5.491   3.708  1.3469 -0.6380  0.2230
 1759SOL     OW 6175   5.505   6.908   2.061 -0.2862 -0.2224  0.8568
 1759SOL    HW1 6176   5.466   6.969   2.131 -3.3908 -0.8725 -0.1233
 1759SOL    HW2 6177   5.470   6.816   2.076  2.0225 -1.1925  0.5911
 1760SOL     OW 6178   6.681   0.542   2.885  0.8910  0.1130 -0.0365
 1760SOL    HW1 6179   6.748   0.580   2.822  0.9586 -0.6207 -0.4223
 1760SOL    HW2 6180   6.658   0.449   2.856  0.6772 -0.1117  0.8408
 1761SOL     OW 6181   5.216   1.049   0.933 -0.3476 -0.2181  0.0648
 1761SOL    HW1 6182   5.273   1.046   1.015 -2.0739 -1.0731  1.2886
 1761SOL    HW2 6183   5.134   0.995   0.947 -1.5059  0.9802 -1.6273
 1762SOL     OW 6184   5.580   2.326   4.446 -0.4629 -0.4390 -0.5671
 1762SOL    HW1 6185   5.495   2.373   4.421 -0.2685  1.2353  1.6029
 1762SOL    HW2 6186   5.563   2.265   4.524 -0.0488 -1.6281 -1.3805
 1763SOL     OW 6187   2.060   3.199   2.440 -0.0252 -0.4528  0.0315
 1763SOL    HW1 6188   1.989   3.150   2.389  1.3150 -2.0505 -0.3787
 1763SOL    HW2 6189   2.050   3.297   2.425 -3.2071 -0.4539  1.3808
 1764SOL     OW 6190   6.687   4.362   4.625  0.2582  0.0418  0.3347
 1764SOL    HW1 6191   6.630   4.358   4.543  0.3335 -2.0425  0.3351
 1764SOL    HW2 6192   6.630   4.377   4.705 -0.1214 -0.5080  0.1707
 1765SOL     OW 6193   2.443   3.887   0.030 -0.2916  0.0147  0.2989
 1765SOL    HW1 6194   2.436   3.797   0.072 -0.4160  0.1313  0.5332
 1765SOL    HW2 6195   2.539   3.911   0.018 -0.2542 -0.0105  0.5407
 1766SOL     OW 6196   4.836   4.415   0.609 -0.6780 -0.1795  0.4056
 1766SOL    HW1 6197   4.751   4.429   0.660  0.1148 -1.3589  2.1778
 1766SOL    HW2 6198   4.894   4.496   0.616 -1.1204  0.1513  0.2658
 1767SOL     OW 6199   1.723   3.460   3.966  0.0807  0.9738 -0.2332
 1767SOL    HW1 6200   1.806   3.428   4.012 -0.4047  0.2888  0.1592
 1767SOL    HW2 6201   1.666   3.383   3.940  0.2338  1.3458 -1.8138
 1768SOL     OW 6202   4.762   2.238   5.829  0.4313 -0.3496 -0.1907
 1768SOL    HW1 6203   4.756   2.236   5.729 -0.6254  0.2276 -0.1520
 1768SOL    HW2 6204   4.823   2.313   5.857 -0.5288  0.5267 -0.3802
 1769SOL     OW 6205   6.146   4.573   6.201 -0.7514  0.1764 -0.2980
 1769SOL    HW1 6206   6.085   4.612   6.270 -0.0501 -0.6988  0.8586
 1769SOL    HW2 6207   6.148   4.632   6.121 -2.4957  0.6258 -0.0517
 1770SOL     OW 6208   4.575   1.715   1.298 -0.4593 -0.1367  0.4902
 1770SOL    HW1 6209   4.646   1.673   1.355 -1.4468 -2.6862  0.0149
 1770SOL    HW2 6210   4.545   1.801   1.340  0.6187 -0.6525  2.4565
 1771SOL     OW 6211   2.592   6.957   4.803  0.0095 -0.2997 -0.1573
 1771SOL    HW1 6212   2.602   6.866   4.843 -0.4420  0.0169  0.7006
 1771SOL    HW2 6213   2.523   6.953   4.730  0.7453 -0.8523 -0.8460
 1772SOL     OW 6214   2.276   1.564   0.739 -0.2833 -0.1912  0.2711
 1772SOL    HW1 6215   2.280   1.466   0.759 -1.2972 -0.2323  0.3161
 1772SOL    HW2 6216   2.328   1.583   0.655 -1.5245 -1.0536 -0.7286
 1773SOL     OW 6217   1.481   6.581   4.049  0.3073  0.4661 -0.1315
 1773SOL    HW1 6218   1.398   6.631   4.026  0.2136 -0.3845 -1.8098
 1773SOL    HW2 6219   1.494   6.582   4.148 -1.2119  1.3601  0.0931
 1774SOL     OW 6220   4.150   6.424   1.609  0.0157 -0.2249 -0.2324
 1774SOL    HW1 6221   4.142   6.414   1.510 -1.2023 -0.2831 -0.1434
 1774SOL    HW2 6222   4.246   6.422   1.635  0.4317  1.1873 -1.5486
 1775SOL     OW 6223   5.378   2.534   0.674 -0.7380 -0.6972 -0.3446
 1775SOL    HW1 6224   5.358   2.632   0.670 -1.5969 -0.8892 -0.9540
 1775SOL    HW2 6225   5.466   2.516   0.631 -0.6812 -0.2207 -0.4274
 1776SOL     OW 6226   4.831   6.527   0.748  0.1045  0.3288 -0.2940
 1776SOL    HW1 6227   4.870   6.618   0.765 -0.2583  0.6136 -0.9491
 1776SOL    HW2 6228   4.832   6.509   0.650 -0.5880 -0.0313 -0.2352
 1777SOL     OW 6229   4.870   5.410   5.998 -0.2275  0.2333 -0.2138
 1777SOL    HW1 6230   4.952   5.456   6.031  0.0739 -0.5090  0.0864
 1777SOL    HW2 6231   4.885   5.376   5.906 -0.3489  0.4707 -0.3222
 1778SOL     OW 6232   1.106   1.182   6.852  0.1993  0.6423  0.0866
 1778SOL    HW1 6233   1.059   1.095   6.867 -0.4538  0.5823 -2.0526
 1778SOL    HW2 6234   1.074   1.224   6.767  1.4445  2.3607  0.4006
 1779SOL     OW 6235   2.762   2.609   0.664  0.1857 -0.4473  0.1197
 1779SOL    HW1 6236   2.725   2.519   0.646 -0.1817 -0.7106  1.9521
 1779SOL    HW2 6237   2.816   2.606   0.749  0.0423  1.0757  0.2894
 1780SOL     OW 6238   2.539   3.841   5.365 -0.4104 -0.7616 -0.7180
 1780SOL    HW1 6239   2.545   3.941   5.359 -0.2299 -0.8059 -1.3010
 1780SOL    HW2 6240   2.444   3.813   5.351 -0.4615 -0.6758 -0.5539
 1781SOL     OW 6241   0.837   5.183   2.465 -0.3147 -0.2430 -0.3290
 1781SOL    HW1 6242   0.813   5.089   2.490 -1.6729 -0.2319 -1.4624
 1781SOL    HW2 6243   0.861   5.235   2.547 -0.3698 -1.3523  0.4032
 1782SOL     OW 6244   6.721   5.269   1.476  0.1210  0.5390  0.8202
 1782SOL    HW1 6245   6.796   5.302   1.418  0.6506 -1.3605  0.3482
 1782SOL    HW2 6246   6.745   5.180   1.514 -1.6508  0.1805  1.1980
 1783SOL     OW 6247   2.154   4.709   1.813  0.0168  0.3385 -0.2221
 1783SOL    HW1 6248   2.237   4.765   1.812  1.2919 -1.0854  4.2176
 1783SOL    HW2 6249   2.106   4.721   1.900 -2.9378 -1.0758 -1.5152
 1784SOL     OW 6250   3.767   3.751   6.451 -0.7573  0.0441 -0.2604
 1784SOL    HW1 6251   3.672   3.749   6.481 -1.1921 -0.8277 -1.5932
 1784SOL    HW2 6252   3.824   3.703   6.518 -1.4543 -0.5428 -0.0693
 1785SOL     OW 6253   3.200   6.298   6.733  0.8432 -0.5123 -0.3693
 1785SOL    HW1 6254   3.259   6.378   6.736 -2.4660  2.0998  1.4333
 1785SOL    HW2 6255   3.160   6.290   6.641  1.0627  0.0072 -0.5159
 1786SOL     OW 6256   5.266   4.204   1.115 -0.7213 -0.4304  0.1011
 1786SOL    HW1 6257   5.213   4.133   1.069 -1.6008 -0.9675  1.8759
 1786SOL    HW2 6258   5.212   4.243   1.189  0.1143  1.4291 -0.1967
 1787SOL     OW 6259   1.460   2.717   5.591  0.5218 -0.2295 -0.4301
 1787SOL    HW1 6260   1.464   2.674   5.681  0.1670  0.8020  0.0957
 1787SOL    HW2 6261   1.496   2.810   5.597 -0.8000  0.3488 -1.0365
 1788SOL     OW 6262   6.501   1.988   1.129 -0.0181  0.2687 -0.0641
 1788SOL    HW1 6263   6.425   2.038   1.089  0.7616  1.3980 -0.1805
 1788SOL    HW2 6264   6.541   2.042   1.203  1.3548  0.2047 -0.7200
 1789SOL     OW 6265   2.275   0.976   5.420 -0.0616 -0.0959  0.1945
 1789SOL    HW1 6266   2.323   0.914   5.357 -0.4886  0.6379 -0.8644
 1789SOL    HW2 6267   2.296   0.949   5.514  0.3090 -1.4246 -0.2446
 1790SOL     OW 6268   0.541   0.656   2.382  0.5840 -0.5615 -0.7812
 1790SOL    HW1 6269   0.477   0.727   2.353  0.6403 -0.6001 -1.0017
 1790SOL    HW2 6270   0.499   0.600   2.454  0.4885 -0.3914 -0.7055
 1791SOL     OW 6271   5.057   6.768   1.188  0.4432  0.3816 -0.8787
 1791SOL    HW1 6272   4.982   6.702   1.197 -0.6822  1.3322 -2.7197
 1791SOL    HW2 6273   5.137   6.722   1.149  0.2232 -0.2408 -0.6105
 1792SOL     OW 6274   2.361   2.777   5.855  0.3677  0.6182 -0.2018
 1792SOL    HW1 6275   2.295   2.852   5.847 -1.9598 -1.4224 -1.4350
 1792SOL    HW2 6276   2.323   2.706   5.914  2.5157  0.3346  0.9360
 1793SOL     OW 6277   5.951   3.400   1.966  0.1236 -0.0619  0.2431
 1793SOL    HW1 6278   6.012   3.464   2.014 -0.3083  0.9707 -0.5302
 1793SOL    HW2 6279   5.993   3.310   1.963  2.5311  0.9946 -1.8584
 1794SOL     OW 6280   6.014   1.832   1.287  0.2809 -0.2383 -0.4466
 1794SOL    HW1 6281   6.096   1.889   1.291  1.3839 -1.7748 -0.2783
 1794SOL    HW2 6282   6.019   1.761   1.357 -1.3439 -0.1988 -0.2513
 1795SOL     OW 6283   2.066   3.339   3.751 -0.1064 -0.1690  0.6547
 1795SOL    HW1 6284   2.099   3.269   3.814  0.7882  1.1559  1.7219
 1795SOL    HW2 6285   1.981   3.308   3.709  0.4319 -2.0159  0.8271
 1796SOL     OW 6286   3.685   4.741   1.565 -0.0268 -0.2050  0.6162
 1796SOL    HW1 6287   3.663   4.723   1.661  0.2220  0.7216  0.8646
 1796SOL    HW2 6288   3.601   4.762   1.515  0.1154  2.8826  1.4597
 1797SOL     OW 6289   0.167   4.483   0.255  0.4598  0.5027  0.4043
 1797SOL    HW1 6290   0.217   4.407   0.296  2.0316  0.6055 -1.2654
 1797SOL    HW2 6291   0.228   4.561   0.242  0.1305  0.3973 -2.3296
 1798SOL     OW 6292   4.950   2.120   6.513 -0.1946  0.0429  0.4972
 1798SOL    HW1 6293   5.031   2.070   6.482  0.6838  2.1969 -0.9633
 1798SOL    HW2 6294   4.872   2.096   6.456  0.2302  0.2986 -0.2129
 1799SOL     OW 6295   0.342   5.430   4.975 -0.4253  0.3618 -0.0814
 1799SOL    HW1 6296   0.338   5.445   4.877  0.5874  0.2248 -0.1614
 1799SOL    HW2 6297   0.403   5.498   5.016 -0.7979  0.3846  0.4484
 1800SOL     OW 6298   4.972   5.523   0.679 -0.1170 -0.7062  0.4806
 1800SOL    HW1 6299   4.938   5.613   0.708  2.0688  0.4825 -0.3701
 1800SOL    HW2 6300   5.006   5.473   0.758 -2.1181 -1.2052  1.0889
 1801SOL     OW 6301   0.088   5.369   3.134  0.2872 -0.8220 -0.1219
 1801SOL    HW1 6302   0.163   5.304   3.144  1.1075  0.3148  1.6569
 1801SOL    HW2 6303   0.112   5.456   3.177 -1.8053 -0.1893 -0.0741
 1802SOL     OW 6304   6.429   2.574   0.998  0.1243 -0.0802  0.5903
 1802SOL    HW1 6305   6.340   2.559   1.040 -0.3662  1.9585  0.3748
 1802SOL    HW2 6306   6.499   2.521   1.047 -0.7752  0.3949  2.4644
 1803SOL     OW 6307   1.404   4.710   2.063  0.3552  0.0049 -0.0459
 1803SOL    HW1 6308   1.341   4.634   2.053  0.6120 -0.3341  0.8308
 1803SOL    HW2 6309   1.373   4.771   2.135  1.2873 -0.4424  0.7566
 1804SOL     OW 6310   3.396   1.521   6.536 -0.1175  0.3142 -0.0150
 1804SOL    HW1 6311   3.479   1.508   6.591 -1.1175 -1.0887  1.2620
 1804SOL    HW2 6312   3.409   1.598   6.474  1.2120  1.8095  1.9702
 1805SOL     OW 6313   1.700   3.966   1.467 -0.2751  0.0828 -0.2727
 1805SOL    HW1 6314   1.712   4.031   1.391  0.9536 -0.8291 -0.8861
 1805SOL    HW2 6315   1.789   3.948   1.510 -1.0764  1.4310  2.1531
 1806SOL     OW 6316   3.655   5.826   6.820 -0.7425 -0.3877 -0.4205
 1806SOL    HW1 6317   3.736   5.825   6.762  0.3410  0.7476  0.9914
 1806SOL    HW2 6318   3.573   5.836   6.763  0.1963 -0.1904 -1.7906
 1807SOL     OW 6319   3.556   1.015   2.651 -0.7673  0.0667  0.3288
 1807SOL    HW1 6320   3.654   1.036   2.656 -0.2657 -1.5663 -1.2905
 1807SOL    HW2 6321   3.544   0.916   2.656 -2.1972  0.1367 -1.0825
 1808SOL     OW 6322   5.280   0.042   5.956  0.1319  0.0322  0.0965
 1808SOL    HW1 6323   5.346   0.117   5.958 -0.7755  0.8493  0.0114
 1808SOL    HW2 6324   5.227   0.046   5.871 -1.8118  0.9932  1.2836
 1809SOL     OW 6325   3.365   5.680   4.823  0.2101 -0.2292 -0.7064
 1809SOL    HW1 6326   3.297   5.709   4.756 -1.1902 -1.5326  0.0864
 1809SOL    HW2 6327   3.337   5.709   4.914  1.3756  0.2821 -0.4833
 1810SOL     OW 6328   1.639   0.487   1.119  0.3701  0.2291 -0.0399
 1810SOL    HW1 6329   1.733   0.517   1.100  0.5556 -0.8849 -1.0536
 1810SOL    HW2 6330   1.597   0.456   1.034  0.0221 -1.7990  0.8212
 1811SOL     OW 6331   3.187   6.932   1.847 -0.5468 -0.0309 -0.0928
 1811SOL    HW1 6332   3.123   7.002   1.815 -0.3214 -0.3424 -1.2788
 1811SOL    HW2 6333   3.152   6.891   1.931 -0.8157  1.3030  0.4635
 1812SOL     OW 6334   1.690   6.972   3.621 -0.6484 -0.0911  0.2231
 1812SOL    HW1 6335   1.754   6.896   3.617 -0.1370  0.3939 -1.1510
 1812SOL    HW2 6336   1.688   7.009   3.714  0.3711 -0.7057  0.5015
 1813SOL     OW 6337   2.152   3.583   0.582  0.0984 -0.6933 -0.2840
 1813SOL    HW1 6338   2.127   3.563   0.676  2.7121  0.0785  0.6667
 1813SOL    HW2 6339   2.154   3.498   0.529 -0.7437 -1.2257  0.5192
 1814SOL     OW 6340   6.152   3.190   3.941 -0.7793 -0.3241  0.4274
 1814SOL    HW1 6341   6.174   3.218   3.847  0.2229 -0.4169  0.6188
 1814SOL    HW2 6342   6.066   3.140   3.942 -0.4372 -0.9596 -0.5566
 1815SOL     OW 6343   3.422   0.020   1.372 -0.3301 -0.4144  0.2108
 1815SOL    HW1 6344   3.459   0.018   1.279  2.0520  0.2316  1.0591
 1815SOL    HW2 6345   3.389  -0.071   1.397  0.3892 -0.9576 -0.7614
 1816SOL     OW 6346   3.900   1.555   1.932  0.4059 -0.4973 -0.0378
 1816SOL    HW1 6347   3.814   1.601   1.954 -0.2445 -2.1557  1.0592
 1816SOL    HW2 6348   3.881   1.471   1.881  1.3498 -1.0426  0.4860
 1817SOL     OW 6349   0.677   6.848   6.351 -0.5954 -0.2835 -0.2126
 1817SOL    HW1 6350   0.577   6.840   6.349 -0.5702 -0.7987  0.2205
 1817SOL    HW2 6351   0.706   6.881   6.440 -0.3917  0.1872 -0.4474
 1818SOL     OW 6352   3.438   0.581   4.116  0.4239  0.3834  0.3923
 1818SOL    HW1 6353   3.366   0.642   4.149 -1.4117 -1.1684 -0.5325
 1818SOL    HW2 6354   3.421   0.489   4.151  0.6355 -0.4959 -1.6687
 1819SOL     OW 6355   3.551   6.157   1.415  0.1490  0.2884  0.3725
 1819SOL    HW1 6356   3.472   6.180   1.357 -0.9407 -1.8898  0.8682
 1819SOL    HW2 6357   3.607   6.238   1.429 -1.0394  1.5049 -1.4645
 1820SOL     OW 6358   4.193   0.829   2.610 -0.3076 -0.7021  0.8871
 1820SOL    HW1 6359   4.230   0.907   2.660 -0.0097 -2.7569  4.1930
 1820SOL    HW2 6360   4.268   0.771   2.579 -0.5721 -1.0755  0.9375
 1821SOL     OW 6361   6.770   6.010   1.487 -0.0191  0.1711  0.1309
 1821SOL    HW1 6362   6.797   5.920   1.521  0.4949 -0.7009 -2.3145
 1821SOL    HW2 6363   6.849   6.071   1.488  0.8659 -0.7882 -2.1391
 1822SOL     OW 6364   2.998   6.061   0.805 -0.1943 -0.3750 -0.4342
 1822SOL    HW1 6365   3.087   6.016   0.812  0.3497  0.6344 -0.7245
 1822SOL    HW2 6366   2.936   6.023   0.873  1.0243  0.2132  1.0599
 1823SOL     OW 6367   0.167   3.410   5.568 -0.5095 -0.3295 -0.4283
 1823SOL    HW1 6368   0.208   3.497   5.596  1.1608 -0.8410 -1.1709
 1823SOL    HW2 6369   0.200   3.337   5.627  0.0392 -0.8240 -1.3291
 1824SOL     OW 6370   2.330   0.811   4.771  0.1209  0.1156 -0.1785
 1824SOL    HW1 6371   2.414   0.802   4.717  0.1623 -1.3782  0.0761
 1824SOL    HW2 6372   2.252   0.825   4.709  0.5289  1.5229 -0.4138
 1825SOL     OW 6373   2.684   1.227   2.574 -0.3430  0.0930 -0.1921
 1825SOL    HW1 6374   2.772   1.184   2.595  0.7702  2.3811  0.1270
 1825SOL    HW2 6375   2.693   1.326   2.581 -3.3533  0.3621  1.3563
 1826SOL     OW 6376   3.392   5.487   0.938 -0.1019 -0.1316 -0.4567
 1826SOL    HW1 6377   3.411   5.459   1.032 -1.8583 -0.5399 -0.1920
 1826SOL    HW2 6378   3.335   5.569   0.939 -1.6605 -1.1759 -1.1220
 1827SOL     OW 6379   0.543   1.886   1.122 -0.4390  0.0075  0.3023
 1827SOL    HW1 6380   0.495   1.804   1.156 -2.4612  1.6605  1.7476
 1827SOL    HW2 6381   0.607   1.918   1.192 -2.1038  1.4727  1.2501
 1828SOL     OW 6382   2.852   1.458   1.179 -0.2053  0.3846 -0.2872
 1828SOL    HW1 6383   2.768   1.444   1.126 -0.5349  2.3923 -0.3971
 1828SOL    HW2 6384   2.907   1.530   1.136  1.1661 -0.2906  0.2714
 1829SOL     OW 6385   3.012   2.126   2.159  0.6147 -0.5881  0.5429
 1829SOL    HW1 6386   2.970   2.203   2.109  0.2723 -0.3679  1.1586
 1829SOL    HW2 6387   3.072   2.075   2.097  2.7923  1.5988  0.6957
 1830SOL     OW 6388   1.459   5.018   3.385  0.2085  0.1920  0.1379
 1830SOL    HW1 6389   1.399   4.939   3.373 -0.6721  0.9215 -0.3684
 1830SOL    HW2 6390   1.501   5.014   3.476 -1.2867  0.1138  0.8563
 1831SOL     OW 6391   2.854   1.557   0.577  0.2039 -0.4786  0.6399
 1831SOL    HW1 6392   2.938   1.563   0.522  0.5212  0.4953  1.2080
 1831SOL    HW2 6393   2.875   1.580   0.672 -0.6338 -0.6405  0.8671
 1832SOL     OW 6394   2.816   4.734   4.539 -0.4343 -0.7933  0.1443
 1832SOL    HW1 6395   2.823   4.742   4.639 -1.8299  1.6273  0.1315
 1832SOL    HW2 6396   2.905   4.753   4.498 -0.6672  2.4059  0.8525
 1833SOL     OW 6397   1.670   4.942   0.508 -0.0581 -0.3224  1.4775
 1833SOL    HW1 6398   1.612   4.981   0.579 -1.8193 -1.6439  0.8326
 1833SOL    HW2 6399   1.670   4.842   0.515  0.4373 -0.4402  0.1615
 1834SOL     OW 6400   1.790   4.265   2.022  0.7774  0.1860  0.3943
 1834SOL    HW1 6401   1.875   4.318   2.020  0.5505  0.5303 -0.3722
 1834SOL    HW2 6402   1.713   4.323   1.995  0.6912 -0.8209 -1.7302
 1835SOL     OW 6403   5.925   3.802   1.773 -0.6620 -0.2206 -0.3917
 1835SOL    HW1 6404   5.896   3.801   1.869 -0.9232 -0.7165 -0.4743
 1835SOL    HW2 6405   5.847   3.778   1.715 -0.5088  0.0929 -0.7329
 1836SOL     OW 6406   6.061   3.868   6.285 -0.1520  0.1414  0.0660
 1836SOL    HW1 6407   6.131   3.836   6.349 -0.3192  0.0484  0.2049
 1836SOL    HW2 6408   6.033   3.961   6.310 -0.7897 -0.1886  0.6203
 1837SOL     OW 6409   1.988   0.983   2.931 -0.0403  0.1669 -0.2327
 1837SOL    HW1 6410   2.002   0.972   2.833  0.0458 -0.2695 -0.1732
 1837SOL    HW2 6411   2.060   0.936   2.981 -0.8817 -0.8466  0.0542
 1838SOL     OW 6412   1.801   4.505   4.709 -0.0705 -0.1574  0.1340
 1838SOL    HW1 6413   1.825   4.416   4.747 -2.0515 -0.4084  0.9038
 1838SOL    HW2 6414   1.776   4.495   4.613  0.9170 -0.2048 -0.1278
 1839SOL     OW 6415   6.091   0.103   3.572 -0.1072 -0.2046  0.8063
 1839SOL    HW1 6416   6.126   0.036   3.637 -1.5662 -1.1563  0.6618
 1839SOL    HW2 6417   6.164   0.131   3.510  0.4741 -1.8676  0.6955
 1840SOL     OW 6418   1.299   0.855   6.856  0.2896 -0.0786  0.0679
 1840SOL    HW1 6419   1.312   0.781   6.921 -0.6835 -2.4648 -2.2823
 1840SOL    HW2 6420   1.202   0.880   6.853  0.4611  0.6298  0.1357
 1841SOL     OW 6421   5.284   1.909   3.157 -0.3450 -0.5746 -0.4269
 1841SOL    HW1 6422   5.279   1.957   3.244  0.0955 -0.7313 -0.3146
 1841SOL    HW2 6423   5.201   1.928   3.103 -0.4396 -0.1704 -0.1379
 1842SOL     OW 6424   1.272   6.855   6.915 -0.1213 -0.2450  0.0349
 1842SOL    HW1 6425   1.294   6.776   6.858 -0.0059 -0.1707 -0.0238
 1842SOL    HW2 6426   1.251   6.824   7.008  0.3055 -0.3114  0.1118
 1843SOL     OW 6427   1.394   3.112   2.338 -0.5775  0.1198  0.2039
 1843SOL    HW1 6428   1.447   3.033   2.308 -0.6243 -0.1532  0.8451
 1843SOL    HW2 6429   1.417   3.135   2.432 -1.4644  0.1109  0.4354
 1844SOL     OW 6430   2.362   1.648   0.018  0.1283  0.3173 -0.3148
 1844SOL    HW1 6431   2.429   1.685   0.082  1.4074  0.1537 -1.5198
 1844SOL    HW2 6432   2.289   1.715   0.004 -0.6915  0.0015  1.9817
 1845SOL     OW 6433   0.479   1.674   0.204  0.1458  0.8978 -0.0683
 1845SOL    HW1 6434   0.515   1.622   0.126 -0.6709  2.9704 -1.9538
 1845SOL    HW2 6435   0.470   1.614   0.283  2.6418 -0.9139 -1.0377
 1846SOL     OW 6436   6.704   2.786   2.383  0.7571 -0.8093  0.6231
 1846SOL    HW1 6437   6.641   2.753   2.312  1.5601 -1.5116  0.2272
 1846SOL    HW2 6438   6.719   2.714   2.450  1.1548 -0.6447  0.7096
 1847SOL     OW 6439   2.216   6.371   2.179 -0.8465  0.2421 -0.2672
 1847SOL    HW1 6440   2.242   6.376   2.276 -2.6622  3.1719  0.1718
 1847SOL    HW2 6441   2.290   6.328   2.128  0.9994  0.3404  2.1230
 1848SOL     OW 6442   5.779   0.378   1.769 -0.0260 -0.3185 -0.1149
 1848SOL    HW1 6443   5.702   0.411   1.823 -0.7474 -1.1972 -0.5629
 1848SOL    HW2 6444   5.843   0.330   1.829  0.3542  0.6971  0.3134
 1849SOL     OW 6445   2.161   3.130   5.412  0.3461 -0.2074 -0.2094
 1849SOL    HW1 6446   2.152   3.106   5.315  0.2749 -2.9385  0.3850
 1849SOL    HW2 6447   2.257   3.138   5.436  0.3751  2.6878 -0.8918
 1850SOL     OW 6448   1.212   3.292   6.650  0.4574 -0.0819  0.2096
 1850SOL    HW1 6449   1.200   3.226   6.724  1.7353 -1.7123 -0.9746
 1850SOL    HW2 6450   1.122   3.318   6.614 -0.0754 -1.1383  0.7293
 1851SOL     OW 6451   5.086   3.995   4.559  0.0430 -0.1579 -0.5314
 1851SOL    HW1 6452   5.070   4.034   4.468  0.0231 -1.0823 -0.9378
 1851SOL    HW2 6453   5.120   4.066   4.620 -0.5932  0.6370 -1.0743
 1852SOL     OW 6454   0.605   1.443   3.762  0.4160 -0.5616 -0.1743
 1852SOL    HW1 6455   0.655   1.508   3.819  0.4725  1.2794 -2.1779
 1852SOL    HW2 6456   0.509   1.441   3.790  0.2782  0.9070 -0.4685
 1853SOL     OW 6457   3.812   3.171   0.155 -0.7159  0.9335  0.0059
 1853SOL    HW1 6458   3.766   3.191   0.068  0.4245  0.5528 -0.7041
 1853SOL    HW2 6459   3.812   3.072   0.171 -0.0310  0.9197 -0.0656
 1854SOL     OW 6460   2.515   0.206   3.213  0.2735  0.8757 -0.2429
 1854SOL    HW1 6461   2.436   0.242   3.262 -1.3260  0.6110 -2.5011
 1854SOL    HW2 6462   2.559   0.281   3.162 -0.3946  0.4817 -1.4244
 1855SOL     OW 6463   1.652   4.840   2.062  0.2207 -0.1460  0.5789
 1855SOL    HW1 6464   1.563   4.797   2.079  0.2272  0.1037  1.2865
 1855SOL    HW2 6465   1.677   4.827   1.966 -0.8240  0.2320  0.2328
 1856SOL     OW 6466   4.947   6.809   6.853 -0.2799  0.3485  0.6644
 1856SOL    HW1 6467   4.872   6.751   6.884 -0.5242 -0.4593 -1.2677
 1856SOL    HW2 6468   4.992   6.766   6.774  1.0478  1.6866  0.6440
 1857SOL     OW 6469   5.993   4.781   4.947  0.9183  0.1007 -0.2262
 1857SOL    HW1 6470   6.044   4.838   5.012  2.4304  0.1142 -1.3820
 1857SOL    HW2 6471   6.022   4.686   4.956  1.6070  0.1945 -1.2770
 1858SOL     OW 6472   1.259   0.540   4.579  0.0894 -0.3930 -0.2642
 1858SOL    HW1 6473   1.281   0.637   4.574  0.6176 -0.4532  0.6901
 1858SOL    HW2 6474   1.166   0.528   4.613 -0.3178 -0.2111 -1.2799
 1859SOL     OW 6475   3.605   6.876   6.841  0.0642 -0.3424 -0.0056
 1859SOL    HW1 6476   3.623   6.890   6.743 -1.1541  0.0318 -0.1936
 1859SOL    HW2 6477   3.689   6.890   6.893  1.1068 -2.0251 -1.1300
 1860SOL     OW 6478   6.741   3.422   3.162  0.1485  0.1976  0.5343
 1860SOL    HW1 6479   6.655   3.373   3.144  0.9968 -1.0720 -0.1712
 1860SOL    HW2 6480   6.748   3.441   3.260  0.0131 -1.5412  0.9106
 1861SOL     OW 6481   0.170   5.455   2.500  0.9350 -0.7292  0.5814
 1861SOL    HW1 6482   0.076   5.424   2.486  0.1427  1.0020  1.6542
 1861SOL    HW2 6483   0.219   5.457   2.413 -1.2382  1.9608 -0.7133
 1862SOL     OW 6484   2.158   1.076   1.768  0.1383 -0.0300 -0.3293
 1862SOL    HW1 6485   2.193   1.075   1.862 -0.7077  1.9061  0.0546
 1862SOL    HW2 6486   2.107   0.993   1.750  0.5145 -0.5337  0.8453
 1863SOL     OW 6487   4.534   2.650   5.688  0.2354  0.0649  0.2377
 1863SOL    HW1 6488   4.509   2.740   5.652  0.0188  0.6845  1.8408
 1863SOL    HW2 6489   4.633   2.638   5.682  0.4820  1.1763  1.5964
 1864SOL     OW 6490   4.737   1.888   5.396  0.8727 -0.6833  0.4964
 1864SOL    HW1 6491   4.823   1.924   5.360  0.6627  0.2220  0.8895
 1864SOL    HW2 6492   4.668   1.889   5.324  0.7302  0.1680  0.6455
 1865SOL     OW 6493   1.799   0.418   3.881 -0.4012 -0.1978 -0.3642
 1865SOL    HW1 6494   1.772   0.451   3.791 -0.8723 -1.0040 -0.5210
 1865SOL    HW2 6495   1.718   0.391   3.933 -0.2258  1.2054  0.6887
 1866SOL     OW 6496   1.064   0.825   1.422  0.1706  0.0415  0.1195
 1866SOL    HW1 6497   1.077   0.726   1.427  2.4654  0.3160  1.4313
 1866SOL    HW2 6498   1.106   0.867   1.503 -1.2079  2.0636 -0.1545
 1867SOL     OW 6499   2.845   4.707   6.029 -0.4193  0.0383  0.2494
 1867SOL    HW1 6500   2.929   4.686   5.978 -1.0143 -1.4957 -0.1564
 1867SOL    HW2 6501   2.816   4.626   6.079 -1.3325  0.7433  0.8862
 1868SOL     OW 6502   0.976   3.439   5.998 -0.0216  0.4243  0.5116
 1868SOL    HW1 6503   1.026   3.370   6.049 -1.5517 -0.2166  1.2040
 1868SOL    HW2 6504   0.957   3.517   6.057 -0.6861  0.2321  0.5632
 1869SOL     OW 6505   2.572   4.325   0.244  0.2861 -0.0845  0.3807
 1869SOL    HW1 6506   2.615   4.307   0.332  0.1862  0.5914  0.5759
 1869SOL    HW2 6507   2.525   4.414   0.247  2.2175  1.0787 -1.0408
 1870SOL     OW 6508   6.476   0.428   0.886  0.2910  0.2711 -0.1615
 1870SOL    HW1 6509   6.412   0.505   0.881 -1.9218 -1.3065  1.4745
 1870SOL    HW2 6510   6.560   0.457   0.932  0.0796  2.0111 -0.8042
 1871SOL     OW 6511   2.351   5.496   4.731  0.4992  0.2467 -0.1851
 1871SOL    HW1 6512   2.266   5.468   4.686  1.3684 -1.3143 -0.9049
 1871SOL    HW2 6513   2.381   5.423   4.793  1.4587  0.6800 -0.1379
 1872SOL     OW 6514   3.982   6.342   2.847 -0.1023 -0.4395 -0.0383
 1872SOL    HW1 6515   4.020   6.304   2.762 -0.2269  1.3495 -0.9448
 1872SOL    HW2 6516   3.947   6.267   2.904  1.1487 -1.7948 -0.9616
 1873SOL     OW 6517   6.407   3.385   2.302  0.0817 -0.1107  0.1354
 1873SOL    HW1 6518   6.454   3.298   2.289 -2.0845 -1.4085  0.4718
 1873SOL    HW2 6519   6.459   3.458   2.257  2.5732 -1.3356  0.8523
 1874SOL     OW 6520   0.054   2.194   4.418  0.3524 -0.1591  0.2449
 1874SOL    HW1 6521   0.143   2.185   4.461  1.3931 -1.1568 -1.9819
 1874SOL    HW2 6522   0.057   2.266   4.348 -0.9205  0.5425  0.8695
 1875SOL     OW 6523   6.153   6.368   5.538  0.2148 -0.6551 -0.0603
 1875SOL    HW1 6524   6.196   6.280   5.517  1.7176  0.4654 -2.0640
 1875SOL    HW2 6525   6.070   6.353   5.590  2.1250 -3.0557  2.5880
 1876SOL     OW 6526   2.321   6.831   0.582 -0.2801  0.0208  0.3428
 1876SOL    HW1 6527   2.246   6.878   0.629 -2.6402 -2.9349 -0.1684
 1876SOL    HW2 6528   2.289   6.797   0.494  1.8965 -0.8213 -0.1831
 1877SOL     OW 6529   5.009   5.974   4.038  0.7141  0.9265  0.0871
 1877SOL    HW1 6530   4.977   5.880   4.052  0.6026  0.9172 -0.2337
 1877SOL    HW2 6531   4.933   6.038   4.054  1.2836  1.1201  2.4472
 1878SOL     OW 6532   0.173   2.737   2.847  0.2346 -0.0178  0.3599
 1878SOL    HW1 6533   0.169   2.774   2.754  1.0993  1.6212  0.9324
 1878SOL    HW2 6534   0.182   2.638   2.843  1.6259  0.1341 -1.3437
 1879SOL     OW 6535   5.995   2.439   5.513 -0.2147 -0.3449 -0.0291
 1879SOL    HW1 6536   5.988   2.341   5.495 -0.3682 -0.5039  0.8622
 1879SOL    HW2 6537   5.911   2.471   5.557 -0.9938  0.6016 -2.0910
 1880SOL     OW 6538   0.057   4.467   4.316  0.4452 -0.3920  0.2198
 1880SOL    HW1 6539  -0.040   4.487   4.305  0.7561  1.3947  0.3935
 1880SOL    HW2 6540   0.108   4.504   4.239  1.1517  0.1750  0.9356
 1881SOL     OW 6541   1.530   0.046   5.363 -0.2153  0.4718 -0.2862
 1881SOL    HW1 6542   1.607   0.096   5.324 -0.4585  3.7074  2.8160
 1881SOL    HW2 6543   1.446   0.099   5.351 -1.0595 -0.6428  0.5190
 1882SOL     OW 6544   6.079   1.737   0.623  0.2132  0.5494  0.4548
 1882SOL    HW1 6545   6.071   1.798   0.544 -0.7598  0.9654  0.8659
 1882SOL    HW2 6546   6.077   1.642   0.592  1.3990  0.6968 -0.1587
 1883SOL     OW 6547   4.739   2.467   6.166 -0.2597 -0.5211  0.3409
 1883SOL    HW1 6548   4.696   2.496   6.080  0.2884 -1.1766 -0.1716
 1883SOL    HW2 6549   4.678   2.405   6.215 -1.1293  0.8562  1.0856
 1884SOL     OW 6550   0.675   2.022   4.105 -0.5075 -0.1192 -0.6233
 1884SOL    HW1 6551   0.771   2.048   4.091 -0.0123 -0.5084  1.6325
 1884SOL    HW2 6552   0.642   1.971   4.025  0.2055  2.4662 -2.7398
 1885SOL     OW 6553   5.502   2.954   0.847  0.2240 -0.0887 -0.2012
 1885SOL    HW1 6554   5.590   2.931   0.889 -0.2821 -1.6581  0.0690
 1885SOL    HW2 6555   5.475   3.046   0.873  0.7430 -0.3953  1.5203
 1886SOL     OW 6556   3.513   3.109   5.145 -0.1096  0.0636  0.3656
 1886SOL    HW1 6557   3.454   3.046   5.196  1.0179 -0.4710  1.0495
 1886SOL    HW2 6558   3.577   3.152   5.208 -1.7535  3.0521  0.1914
 1887SOL     OW 6559   4.418   6.116   0.940  0.1126  0.0249 -0.3472
 1887SOL    HW1 6560   4.454   6.137   0.849  2.7196 -1.0302  0.3478
 1887SOL    HW2 6561   4.479   6.154   1.009 -0.1122 -1.7937  0.9190
 1888SOL     OW 6562   3.970   4.851   1.308 -0.0280  0.6953 -0.2221
 1888SOL    HW1 6563   4.011   4.905   1.234  2.1804 -1.6875 -0.8502
 1888SOL    HW2 6564   3.922   4.772   1.270 -2.8729  1.8248  0.7108
 1889SOL     OW 6565   0.609   1.335   0.776  0.3630 -0.3395  0.7502
 1889SOL    HW1 6566   0.669   1.267   0.734  0.1275  0.9869 -1.9144
 1889SOL    HW2 6567   0.559   1.292   0.852  3.0045 -2.0472  1.6865
 1890SOL     OW 6568   2.570   0.878   4.657  0.5652 -0.6146 -0.2029
 1890SOL    HW1 6569   2.642   0.856   4.591  1.8473  0.5557  0.7353
 1890SOL    HW2 6570   2.571   0.976   4.675 -2.0920 -0.3543 -1.0319
 1891SOL     OW 6571   4.429   0.065   2.167 -0.1250  0.7424  0.0777
 1891SOL    HW1 6572   4.413  -0.034   2.172  2.4623  0.2447 -0.1037
 1891SOL    HW2 6573   4.376   0.103   2.091 -1.1122 -0.5047  0.1007
 1892SOL     OW 6574   5.507   3.199   5.304  0.0948  0.1261  0.0325
 1892SOL    HW1 6575   5.588   3.245   5.268  0.4739 -1.3817 -1.1566
 1892SOL    HW2 6576   5.524   3.168   5.398  0.6055  0.4878  0.0608
 1893SOL     OW 6577   6.739   4.407   2.534  0.4049 -0.3746  0.2437
 1893SOL    HW1 6578   6.681   4.346   2.480 -0.6444  1.0033 -0.2631
 1893SOL    HW2 6579   6.825   4.361   2.557  1.2284 -0.8081 -3.2171
 1894SOL     OW 6580   0.922   5.711   4.462  0.1270  0.3334 -0.2127
 1894SOL    HW1 6581   0.868   5.664   4.391  0.9829  0.1224 -0.7406
 1894SOL    HW2 6582   0.867   5.718   4.546 -0.0611 -1.5693 -0.1255
 1895SOL     OW 6583   2.392   6.033   2.298  0.6762  0.8113 -0.0608
 1895SOL    HW1 6584   2.377   6.060   2.393  0.0724 -0.2722  0.1706
 1895SOL    HW2 6585   2.338   5.951   2.278  1.1430  0.7685 -1.2133
 1896SOL     OW 6586   1.897   3.153   2.225  0.4011  0.4839  1.1435
 1896SOL    HW1 6587   1.990   3.166   2.193 -0.9004  3.6967 -1.9678
 1896SOL    HW2 6588   1.853   3.081   2.172  0.3680  0.8051  0.7292
 1897SOL     OW 6589   0.794   4.040   3.062 -0.3036  0.5174  0.7540
 1897SOL    HW1 6590   0.848   4.054   2.979 -0.2027 -0.0857  0.7112
 1897SOL    HW2 6591   0.813   4.113   3.127  1.1850 -0.1107  1.0618
 1898SOL     OW 6592   2.022   3.245   4.108 -0.9331  0.0502  0.4724
 1898SOL    HW1 6593   2.043   3.342   4.109  1.5103 -0.3537  3.4400
 1898SOL    HW2 6594   2.106   3.192   4.090 -1.6304 -1.5114  1.5169
 1899SOL     OW 6595   0.424   5.150   5.011  0.6778 -0.9610 -0.3470
 1899SOL    HW1 6596   0.381   5.234   4.978  1.0098 -0.6823 -0.0660
 1899SOL    HW2 6597   0.356   5.094   5.058  0.0889 -1.5472 -1.8159
 1900SOL     OW 6598   3.146   2.101   5.821 -0.3801  0.0071 -0.2332
 1900SOL    HW1 6599   3.076   2.124   5.889 -1.4288 -0.1504 -1.2322
 1900SOL    HW2 6600   3.213   2.040   5.863  0.7323  2.2721  1.5577
 1901SOL     OW 6601   4.025   0.738   1.487  0.2645 -0.3161  0.5631
 1901SOL    HW1 6602   4.089   0.666   1.458  1.2989  0.4123  0.9614
 1901SOL    HW2 6603   3.972   0.705   1.565 -1.2041 -1.6044 -0.9053
 1902SOL     OW 6604   1.798   1.656   6.811  0.5490  0.0218  0.2189
 1902SOL    HW1 6605   1.769   1.596   6.886 -0.1579 -2.1362 -1.6463
 1902SOL    HW2 6606   1.745   1.740   6.813 -2.9920 -1.9746 -0.5145
 1903SOL     OW 6607   1.732   3.697   5.644 -0.5286  0.0087  0.0519
 1903SOL    HW1 6608   1.764   3.764   5.577  0.2085 -1.0862 -0.7101
 1903SOL    HW2 6609   1.686   3.622   5.597  0.3261 -0.9690  0.7357
 1904SOL     OW 6610   2.768   1.511   2.629 -0.6755 -0.0729  0.2625
 1904SOL    HW1 6611   2.856   1.548   2.660  0.7525 -1.9859 -1.2503
 1904SOL    HW2 6612   2.753   1.536   2.533 -1.4334 -0.3400  0.3063
 1905SOL     OW 6613   1.485   3.108   4.855 -0.0410 -0.0780 -0.3046
 1905SOL    HW1 6614   1.479   3.173   4.931 -1.5418  1.2838 -1.5255
 1905SOL    HW2 6615   1.452   3.019   4.885  2.8787 -0.6457  1.6610
 1906SOL     OW 6616   6.687   3.242   6.112 -0.1718  0.0758  0.1642
 1906SOL    HW1 6617   6.730   3.161   6.152 -0.5923 -0.9188 -1.3171
 1906SOL    HW2 6618   6.596   3.255   6.153  0.8057  1.2026  2.0837
 1907SOL     OW 6619   2.798   4.876   5.152 -0.0996 -0.8235 -0.0159
 1907SOL    HW1 6620   2.848   4.802   5.108  0.8935  0.6828 -1.5336
 1907SOL    HW2 6621   2.850   4.908   5.231  1.8902  1.2281 -2.0063
 1908SOL     OW 6622   1.755   4.685   2.886  0.3888 -0.0206  0.4191
 1908SOL    HW1 6623   1.680   4.641   2.936  0.4036  0.3354  0.7625
 1908SOL    HW2 6624   1.790   4.762   2.940  1.3287 -0.4792  0.4800
 1909SOL     OW 6625   6.456   2.965   1.737 -0.1090  0.0725 -0.1761
 1909SOL    HW1 6626   6.394   2.974   1.659  1.9176 -2.0136 -2.1684
 1909SOL    HW2 6627   6.501   3.053   1.753 -0.2007  0.4195 -1.6769
 1910SOL     OW 6628   1.595   4.719   4.798  0.1337  0.9068  0.2732
 1910SOL    HW1 6629   1.660   4.733   4.873  0.3468  2.1572 -0.1251
 1910SOL    HW2 6630   1.644   4.725   4.710 -0.5557  2.2960 -0.0475
 1911SOL     OW 6631   3.447   1.040   0.864  0.4149  0.1237  0.0882
 1911SOL    HW1 6632   3.475   1.135   0.855 -0.0554  0.3089  0.5261
 1911SOL    HW2 6633   3.524   0.980   0.843  1.2421  0.6167  1.6035
 1912SOL     OW 6634   0.047   1.008   2.803 -0.1767 -0.2184  0.4983
 1912SOL    HW1 6635   0.046   1.017   2.704  1.0665 -0.2480  0.4717
 1912SOL    HW2 6636  -0.010   0.930   2.830 -0.4425 -0.2665 -0.1897
 1913SOL     OW 6637   0.269   4.930   2.864  0.6748 -0.2408  0.0605
 1913SOL    HW1 6638   0.197   4.860   2.864  0.6117 -0.2461  1.9040
 1913SOL    HW2 6639   0.321   4.924   2.950  2.5328  0.1343 -0.9752
 1914SOL     OW 6640   2.193   1.661   5.251 -0.1204 -0.2731  0.5382
 1914SOL    HW1 6641   2.280   1.708   5.244  0.0753 -0.1795  2.7456
 1914SOL    HW2 6642   2.127   1.720   5.299  0.0080 -1.9539  2.9862
 1915SOL     OW 6643   0.024   5.770   6.998 -0.4168  0.1952 -0.3435
 1915SOL    HW1 6644   0.105   5.712   6.989 -0.8279 -0.2349 -1.5904
 1915SOL    HW2 6645  -0.055   5.714   7.023 -0.4109  0.5578  0.5209
 1916SOL     OW 6646   2.009   4.015   5.166  0.5779  0.5915  0.2025
 1916SOL    HW1 6647   1.985   4.111   5.151 -0.7597 -0.1049 -2.7205
 1916SOL    HW2 6648   2.108   4.005   5.161  0.7103  1.7547  0.1797
 1917SOL     OW 6649   1.061   3.335   2.025 -0.0114 -0.2791  0.5575
 1917SOL    HW1 6650   1.160   3.340   2.035  0.0751  1.3542 -0.6410
 1917SOL    HW2 6651   1.017   3.383   2.101  0.0404 -1.8628  1.6375
 1918SOL     OW 6652   0.555   4.114   2.297 -0.1898  0.4112  0.0422
 1918SOL    HW1 6653   0.630   4.144   2.357 -0.8957  0.8471  0.7269
 1918SOL    HW2 6654   0.504   4.194   2.267  1.9319  0.5918 -3.6752
 1919SOL     OW 6655   5.456   1.091   1.704  0.6221  0.2469  0.1233
 1919SOL    HW1 6656   5.503   1.164   1.754  2.1263 -0.1752 -0.5912
 1919SOL    HW2 6657   5.429   1.019   1.767 -3.1840  2.4359  1.2799
 1920SOL     OW 6658   2.578   5.714   6.426  0.5233  0.3148  0.3927
 1920SOL    HW1 6659   2.550   5.698   6.331  0.1966 -1.4309  0.7476
 1920SOL    HW2 6660   2.594   5.812   6.440 -1.2338  0.8449 -0.9668
 1921SOL     OW 6661   0.207   6.374   2.452 -0.3919  0.1587 -0.2832
 1921SOL    HW1 6662   0.162   6.309   2.391  0.2783  1.0319 -1.7505
 1921SOL    HW2 6663   0.157   6.461   2.451  0.7067  0.8044 -1.1230
 1922SOL     OW 6664   5.461   5.608   3.236  1.0579  0.0280 -0.3953
 1922SOL    HW1 6665   5.408   5.599   3.152  0.3727  1.7441 -0.1796
 1922SOL    HW2 6666   5.410   5.664   3.302  2.3926  0.2614  0.4685
 1923SOL     OW 6667   6.329   0.875   6.432  0.5776  0.0152  0.8671
 1923SOL    HW1 6668   6.374   0.884   6.343 -0.3539  1.8071  0.5310
 1923SOL    HW2 6669   6.231   0.859   6.419  0.6897 -1.3440  1.5826
 1924SOL     OW 6670   0.550   6.225   3.249 -0.3415 -0.0866  0.0842
 1924SOL    HW1 6671   0.633   6.227   3.195 -0.8308  2.7585 -0.7320
 1924SOL    HW2 6672   0.473   6.199   3.191 -0.6194  1.4369 -0.2859
 1925SOL     OW 6673   6.289   1.716   1.340 -0.1431 -0.0994 -0.1959
 1925SOL    HW1 6674   6.289   1.631   1.393 -1.1952  1.1145  1.8897
 1925SOL    HW2 6675   6.287   1.695   1.242 -0.1971 -2.4553  0.2587
 1926SOL     OW 6676   1.485   0.733   4.729  0.0668  0.7644  0.0989
 1926SOL    HW1 6677   1.534   0.646   4.729 -2.6812 -0.9275 -1.3665
 1926SOL    HW2 6678   1.453   0.753   4.821 -0.1030 -0.3316  0.2965
 1927SOL     OW 6679   3.226   0.218   2.231 -0.0374  0.6598 -0.3587
 1927SOL    HW1 6680   3.249   0.146   2.166  0.2909 -0.3082  0.7897
 1927SOL    HW2 6681   3.309   0.254   2.272 -0.2931  0.5341  0.2828
 1928SOL     OW 6682   2.861   5.324   0.945  0.5521 -0.4709 -0.4925
 1928SOL    HW1 6683   2.780   5.341   1.001  1.2687  2.8623 -0.2194
 1928SOL    HW2 6684   2.934   5.286   1.002 -0.3498 -2.2714 -0.4657
 1929SOL     OW 6685   1.090   6.931   3.228  0.2519  0.3971 -0.1559
 1929SOL    HW1 6686   0.995   6.954   3.206 -1.0361 -3.2653  0.8551
 1929SOL    HW2 6687   1.115   6.845   3.185  1.5255 -1.0611  3.1586
 1930SOL     OW 6688   3.286   2.548   1.086 -0.1266 -0.1376  0.0389
 1930SOL    HW1 6689   3.298   2.463   1.138 -0.2155  0.4049  0.9770
 1930SOL    HW2 6690   3.191   2.555   1.055 -0.3500  0.0297  0.7347
 1931SOL     OW 6691   2.890   4.941   5.906 -0.1702 -0.1679 -0.0010
 1931SOL    HW1 6692   2.879   4.923   5.808  0.4324  1.0991 -0.3136
 1931SOL    HW2 6693   2.859   4.861   5.957  3.2337 -2.5747 -1.3266
 1932SOL     OW 6694   6.261   2.209   1.610 -0.5862  0.2322  0.2356
 1932SOL    HW1 6695   6.235   2.199   1.514 -0.4944 -1.0495  0.3288
 1932SOL    HW2 6696   6.356   2.182   1.622 -0.7852 -0.2680  0.7837
 1933SOL     OW 6697   3.047   6.450   3.465  0.3340 -0.3310  0.3346
 1933SOL    HW1 6698   3.094   6.474   3.381 -2.6689 -3.0045 -2.3652
 1933SOL    HW2 6699   3.013   6.533   3.510  0.1421  1.0879 -2.2726
 1934SOL     OW 6700   4.057   3.633   1.300 -0.0272  0.3671 -0.5105
 1934SOL    HW1 6701   3.976   3.690   1.315 -0.6750 -0.3917 -1.0014
 1934SOL    HW2 6702   4.130   3.660   1.362 -1.3041 -0.1936  1.3305
 1935SOL     OW 6703   5.189   1.735   1.062  0.2807 -0.0013  0.3006
 1935SOL    HW1 6704   5.119   1.802   1.037  1.2085  1.1247  0.6617
 1935SOL    HW2 6705   5.182   1.717   1.161  0.0691 -0.4097  0.2139
 1936SOL     OW 6706   2.608   1.732   2.861  0.1080  0.0542  0.1662
 1936SOL    HW1 6707   2.512   1.737   2.890 -0.4562  2.3454 -1.6857
 1936SOL    HW2 6708   2.643   1.640   2.876 -2.7007 -1.1597 -0.0178
 1937SOL     OW 6709   5.842   0.278   3.785  0.5978  0.0341  0.0662
 1937SOL    HW1 6710   5.840   0.192   3.735 -1.8589 -1.0668  1.8490
 1937SOL    HW2 6711   5.884   0.264   3.875  0.2466  0.7205  0.3476
 1938SOL     OW 6712   3.645   6.585   5.678 -0.2195  0.0628  0.0928
 1938SOL    HW1 6713   3.610   6.665   5.628  0.3677  0.2885  0.0373
 1938SOL    HW2 6714   3.568   6.531   5.711 -0.6468  1.1234  0.8966
 1939SOL     OW 6715   5.147   2.221   1.493  0.4746  0.6877  0.0455
 1939SOL    HW1 6716   5.052   2.246   1.510  0.9836  1.9192  1.2658
 1939SOL    HW2 6717   5.176   2.153   1.561  0.6092  0.6609 -0.0378
 1940SOL     OW 6718   6.363   2.569   2.829 -0.5792  0.2358 -0.3212
 1940SOL    HW1 6719   6.392   2.618   2.911 -1.8262  0.9285 -0.2743
 1940SOL    HW2 6720   6.436   2.573   2.760 -0.1286  0.9790  0.1897
 1941SOL     OW 6721   5.880   0.187   0.798 -0.2446 -0.0790  0.8016
 1941SOL    HW1 6722   5.886   0.206   0.700 -0.4903 -1.5178  0.4851
 1941SOL    HW2 6723   5.801   0.235   0.836 -0.6855 -0.2421  0.1109
 1942SOL     OW 6724   2.028   5.504   1.157 -0.2182  0.2454  0.1568
 1942SOL    HW1 6725   2.011   5.426   1.217 -0.1227 -0.8207 -1.1604
 1942SOL    HW2 6726   1.963   5.577   1.177 -1.4041 -0.8185  0.3013
 1943SOL     OW 6727   1.040   5.897   1.806  0.3886 -0.7736 -0.4004
 1943SOL    HW1 6728   1.091   5.971   1.763  1.4825 -0.3897  1.4555
 1943SOL    HW2 6729   0.957   5.878   1.753 -0.3795  2.3450 -0.5270
 1944SOL     OW 6730   5.599   4.583   1.104 -0.5273 -0.1120  0.1921
 1944SOL    HW1 6731   5.548   4.669   1.109 -0.6131 -0.1893  0.6440
 1944SOL    HW2 6732   5.598   4.538   1.193 -1.6506 -1.2653 -0.3750
 1945SOL     OW 6733   1.552   0.607   5.203 -0.2421 -0.1422  0.2974
 1945SOL    HW1 6734   1.626   0.669   5.176  0.1189 -0.6725  0.0699
 1945SOL    HW2 6735   1.465   0.643   5.168  0.0819 -0.2442 -0.6394
 1946SOL     OW 6736   0.167   1.969   4.745  0.3569  0.4673 -0.2640
 1946SOL    HW1 6737   0.223   1.995   4.667  0.8528  1.2089  0.3201
 1946SOL    HW2 6738   0.221   1.976   4.829 -0.1214 -0.4437  0.1407
 1947SOL     OW 6739   6.698   3.166   5.556 -0.5864 -0.1084 -0.2800
 1947SOL    HW1 6740   6.605   3.202   5.551 -0.0428  1.5009  0.5730
 1947SOL    HW2 6741   6.762   3.233   5.520  0.5059  0.0320  1.7310
 1948SOL     OW 6742   1.408   3.746   4.755 -0.4262  0.1152  0.3251
 1948SOL    HW1 6743   1.500   3.716   4.729 -0.4027 -0.0053  0.5522
 1948SOL    HW2 6744   1.404   3.759   4.854 -1.3516 -2.2603  0.6604
 1949SOL     OW 6745   6.161   0.236   1.735  0.7880  0.2846 -0.7339
 1949SOL    HW1 6746   6.239   0.284   1.776  0.8154 -0.2180 -0.1875
 1949SOL    HW2 6747   6.110   0.189   1.807  0.3729  0.0523 -1.1808
 1950SOL     OW 6748   2.435   6.903   4.295 -0.1471 -0.1258  0.3313
 1950SOL    HW1 6749   2.472   6.818   4.333 -1.4667 -1.9617 -2.1451
 1950SOL    HW2 6750   2.509   6.960   4.261  0.7155 -1.2063  0.3307
 1951SOL     OW 6751   6.307   3.042   4.119 -0.4661 -0.7442 -0.0021
 1951SOL    HW1 6752   6.269   3.107   4.053 -0.4548 -0.9437 -0.2083
 1951SOL    HW2 6753   6.343   2.962   4.070  0.8684 -0.2425  0.1289
 1952SOL     OW 6754   4.699   0.944   2.454  0.3101 -0.6756  0.0855
 1952SOL    HW1 6755   4.610   0.989   2.463  0.2082 -0.9416  0.4348
 1952SOL    HW2 6756   4.717   0.889   2.536  0.8180 -0.5842  0.0399
 1953SOL     OW 6757   3.919   1.260   6.175 -0.2099 -0.1830  0.3280
 1953SOL    HW1 6758   3.833   1.293   6.137 -0.1267 -1.4587 -1.0836
 1953SOL    HW2 6759   3.944   1.174   6.130  1.3611 -0.2906  1.3323
 1954SOL     OW 6760   1.828   3.595   3.594 -0.2324  0.0630  0.8011
 1954SOL    HW1 6761   1.854   3.517   3.537  0.8683  1.2823 -0.4495
 1954SOL    HW2 6762   1.898   3.609   3.665 -1.1763 -0.9465  1.9611
 1955SOL     OW 6763   6.480   3.031   1.399  0.3708  0.0224  0.5707
 1955SOL    HW1 6764   6.529   3.028   1.311  1.8529 -0.1167  1.3726
 1955SOL    HW2 6765   6.453   2.939   1.425  0.5841 -0.0262  0.6194
 1956SOL     OW 6766   0.444   5.024   1.711 -0.3726 -0.1101  0.1551
 1956SOL    HW1 6767   0.374   4.990   1.648 -0.2569  0.4124 -0.2650
 1956SOL    HW2 6768   0.420   4.999   1.805 -1.7706  1.1080  0.1528
 1957SOL     OW 6769   5.274   2.189   0.260  0.0349  0.7772 -0.0081
 1957SOL    HW1 6770   5.341   2.225   0.194  0.7382  0.3836  0.4842
 1957SOL    HW2 6771   5.314   2.113   0.310  0.2538  2.3633  2.3443
 1958SOL     OW 6772   4.660   4.176   5.218  0.0712 -0.3863 -1.7249
 1958SOL    HW1 6773   4.713   4.106   5.266  1.0858  1.0881 -0.5954
 1958SOL    HW2 6774   4.591   4.214   5.279  1.2085  1.3408 -1.4351
 1959SOL     OW 6775   2.000   2.969   0.161 -0.6010  0.0395 -0.7566
 1959SOL    HW1 6776   1.971   2.896   0.098 -0.9646 -0.2124 -0.3059
 1959SOL    HW2 6777   1.991   2.936   0.255  0.0657  0.3668 -0.5771
 1960SOL     OW 6778   2.860   1.277   5.165  0.4626  0.1959  0.1092
 1960SOL    HW1 6779   2.810   1.330   5.096 -0.1850 -0.1512  0.3099
 1960SOL    HW2 6780   2.940   1.235   5.122  1.3681  1.8505  0.0852
 1961SOL     OW 6781   2.615   0.872   6.533 -0.3673 -0.2452 -0.7896
 1961SOL    HW1 6782   2.557   0.803   6.577 -1.3964  1.4401  0.6057
 1961SOL    HW2 6783   2.703   0.876   6.580 -0.8933  0.4662  0.1714
 1962SOL     OW 6784   1.013   5.825   2.104  0.1918  0.6603 -0.3439
 1962SOL    HW1 6785   0.917   5.852   2.109 -0.0903 -0.3670 -0.0509
 1962SOL    HW2 6786   1.054   5.862   2.020  0.1429  2.9244  0.5449
 1963SOL     OW 6787   1.107   1.175   4.253  0.8367 -0.1221 -0.3876
 1963SOL    HW1 6788   1.089   1.272   4.233  0.2939 -0.4541 -1.6391
 1963SOL    HW2 6789   1.203   1.154   4.236  0.6923 -0.0644 -1.3365
 1964SOL     OW 6790   4.757   2.860   4.207 -0.1235  0.4614  0.1163
 1964SOL    HW1 6791   4.762   2.915   4.290 -0.1149  0.4048  0.1533
 1964SOL    HW2 6792   4.819   2.783   4.214 -0.4691  0.1940  0.2532
 1965SOL     OW 6793   0.322   3.956   5.909 -0.2230  0.0539 -0.0919
 1965SOL    HW1 6794   0.356   4.050   5.909  1.1748 -0.3722  1.9609
 1965SOL    HW2 6795   0.385   3.898   5.857 -1.0084  0.1948 -1.2351
 1966SOL     OW 6796   6.079   1.940   1.754 -0.2283 -0.3012 -0.0889
 1966SOL    HW1 6797   6.074   1.933   1.854 -2.4488 -0.6116 -0.1740
 1966SOL    HW2 6798   5.989   1.961   1.717  0.5796 -0.0198 -2.0491
 1967SOL     OW 6799   5.828   1.344   5.764 -0.7578 -0.8050 -0.1218
 1967SOL    HW1 6800   5.823   1.256   5.715  0.6265  0.0579 -1.9509
 1967SOL    HW2 6801   5.904   1.340   5.829  0.7765 -0.3058 -1.7883
 1968SOL     OW 6802   2.938   2.550   5.667  0.8398  0.6534  0.2644
 1968SOL    HW1 6803   2.970   2.586   5.580 -0.8262  0.4489 -0.4586
 1968SOL    HW2 6804   2.886   2.621   5.716  2.7392  1.1636  1.6784
 1969SOL     OW 6805   0.123   4.148   4.184 -0.1563  0.0244 -0.3177
 1969SOL    HW1 6806   0.167   4.165   4.272  3.6624  1.0527 -2.1800
 1969SOL    HW2 6807   0.137   4.226   4.124 -2.1827 -0.8494 -2.0671
 1970SOL     OW 6808   4.743   2.617   6.831  0.5931 -0.5795 -0.2844
 1970SOL    HW1 6809   4.775   2.684   6.765  1.8639  0.9556  1.7675
 1970SOL    HW2 6810   4.652   2.643   6.864 -0.2151 -1.5613 -1.6310
 1971SOL     OW 6811   3.412   4.757   6.811 -0.2718 -0.5790 -0.4329
 1971SOL    HW1 6812   3.511   4.750   6.803 -0.1174  0.4462  0.3463
 1971SOL    HW2 6813   3.388   4.778   6.906 -1.1606  0.2655 -0.8295
 1972SOL     OW 6814   1.758   2.309   4.999  0.2831  0.2967  0.2012
 1972SOL    HW1 6815   1.731   2.387   4.943 -0.7449  0.1854  0.5249
 1972SOL    HW2 6816   1.770   2.229   4.941  1.0903  0.6248 -0.0988
 1973SOL     OW 6817   0.373   2.274   3.403 -0.3701  0.3748 -0.6271
 1973SOL    HW1 6818   0.385   2.333   3.323  0.5617  0.3263 -0.5300
 1973SOL    HW2 6819   0.425   2.312   3.480 -0.7750  0.0929 -0.2105
 1974SOL     OW 6820   6.194   5.193   6.920  0.2544  0.5319  0.0451
 1974SOL    HW1 6821   6.140   5.278   6.922  0.0841  0.4140  1.5634
 1974SOL    HW2 6822   6.284   5.212   6.881  0.6639  1.7096  1.4614
 1975SOL     OW 6823   6.212   2.438   2.614  0.5560 -0.7489  0.1475
 1975SOL    HW1 6824   6.158   2.461   2.533 -0.1788 -2.1491  0.2082
 1975SOL    HW2 6825   6.234   2.522   2.665 -1.2131 -0.0954 -0.0981
 1976SOL     OW 6826   3.636   1.156   2.956 -0.3429  0.5969  0.6556
 1976SOL    HW1 6827   3.643   1.239   2.900  0.1451  0.5626  0.6618
 1976SOL    HW2 6828   3.682   1.172   3.044  0.0651  0.2011  0.5152
 1977SOL     OW 6829   6.765   6.300   5.921 -0.2256  0.2369  0.1585
 1977SOL    HW1 6830   6.787   6.319   5.825 -1.8680  0.7394 -0.1486
 1977SOL    HW2 6831   6.849   6.282   5.971  0.6669 -0.0601 -1.3762
 1978SOL     OW 6832   2.627   6.615   4.546  0.5591 -0.1431  0.5697
 1978SOL    HW1 6833   2.576   6.533   4.569  0.1868 -0.2418 -0.5526
 1978SOL    HW2 6834   2.631   6.625   4.446  0.7297  1.1144  0.6876
 1979SOL     OW 6835   1.540   5.627   2.407 -0.6265  0.1620  0.2669
 1979SOL    HW1 6836   1.511   5.662   2.497  0.2695 -0.4958  0.8299
 1979SOL    HW2 6837   1.498   5.681   2.335  0.8564  2.5513  1.0888
 1980SOL     OW 6838   3.955   1.448   4.044  0.3406  0.0473  0.1008
 1980SOL    HW1 6839   3.891   1.458   3.968 -0.2008 -1.8966  0.2346
 1980SOL    HW2 6840   4.039   1.404   4.012  0.7857  0.7127  0.3276
 1981SOL     OW 6841   3.624   3.981   0.125  0.3842 -0.2354 -0.7205
 1981SOL    HW1 6842   3.579   4.006   0.211  1.1464 -1.3350  0.0381
 1981SOL    HW2 6843   3.639   3.882   0.123 -1.1860 -0.4914 -2.9213
 1982SOL     OW 6844   0.864   0.991   5.608 -0.5276  0.3928 -0.4467
 1982SOL    HW1 6845   0.815   1.003   5.521  0.3120 -0.0917 -0.9966
 1982SOL    HW2 6846   0.956   0.957   5.590  0.1159  1.5345  0.5595
 1983SOL     OW 6847   2.610   5.839   2.719 -0.5802 -0.1624  0.3384
 1983SOL    HW1 6848   2.608   5.855   2.818 -1.8445  2.1609  0.0259
 1983SOL    HW2 6849   2.690   5.886   2.680 -0.9564  0.2819  0.0943
 1984SOL     OW 6850   2.329   5.714   4.412 -0.4581 -0.3118 -0.1961
 1984SOL    HW1 6851   2.251   5.667   4.454 -0.2289  0.7096  1.5002
 1984SOL    HW2 6852   2.414   5.676   4.448 -0.2704  1.8173  1.8558
 1985SOL     OW 6853   1.548   3.741   5.396  0.2664 -0.0497 -0.9784
 1985SOL    HW1 6854   1.562   3.733   5.297  1.6202 -1.2352 -0.7209
 1985SOL    HW2 6855   1.545   3.650   5.437 -0.7728  0.4206  0.0266
 1986SOL     OW 6856   6.489   2.959   3.454 -0.1301 -0.3071  0.1919
 1986SOL    HW1 6857   6.553   2.888   3.482  1.3228  1.6257  2.1941
 1986SOL    HW2 6858   6.532   3.018   3.386  0.0710  0.6981  1.1636
 1987SOL     OW 6859   4.811   6.775   0.376 -0.0594 -0.2280  0.2020
 1987SOL    HW1 6860   4.714   6.799   0.376 -0.6398 -2.3722  1.1349
 1987SOL    HW2 6861   4.859   6.832   0.442 -0.9390 -0.0434  0.6948
 1988SOL     OW 6862   4.620   3.747   1.169 -0.3820  0.4856  0.3094
 1988SOL    HW1 6863   4.617   3.805   1.251 -1.6512  0.2698  0.4452
 1988SOL    HW2 6864   4.563   3.787   1.098 -1.6207 -0.7661  0.5479
 1989SOL     OW 6865   1.473   4.208   1.770  0.1282 -0.2011 -0.0805
 1989SOL    HW1 6866   1.572   4.197   1.760 -0.0003 -3.0974  0.8341
 1989SOL    HW2 6867   1.427   4.125   1.738 -1.8067  0.0633  1.7900
 1990SOL     OW 6868   2.866   6.920   6.589 -0.2647  0.1621 -0.2336
 1990SOL    HW1 6869   2.965   6.925   6.575 -0.4530 -0.2364 -2.0227
 1990SOL    HW2 6870   2.845   6.854   6.661  0.7464  0.0296 -0.0466
 1991SOL     OW 6871   2.005   0.123   3.831  0.7891 -0.5372 -0.0617
 1991SOL    HW1 6872   2.066   0.141   3.754  0.6641  2.1588  0.3728
 1991SOL    HW2 6873   1.918   0.171   3.818  0.3496 -0.9070  1.2574
 1992SOL     OW 6874   6.706   6.365   1.240 -0.0504 -0.2549  0.2528
 1992SOL    HW1 6875   6.608   6.384   1.236 -0.4356 -1.4703  2.3991
 1992SOL    HW2 6876   6.756   6.439   1.194 -1.8794  1.1860  0.4376
 1993SOL     OW 6877   4.753   1.042   0.547  0.3600 -0.0409  0.3685
 1993SOL    HW1 6878   4.821   1.105   0.509 -0.2650  0.7268  0.4756
 1993SOL    HW2 6879   4.736   0.968   0.482 -1.4798  1.8161 -1.4313
 1994SOL     OW 6880   3.199   5.738   1.913  0.0096  0.3467 -0.3638
 1994SOL    HW1 6881   3.215   5.729   1.815  0.5632  1.4433 -0.3845
 1994SOL    HW2 6882   3.101   5.728   1.932 -0.0108 -0.6274 -0.9232
 1995SOL     OW 6883   4.196   2.379   6.584  0.1693  0.0370 -0.3526
 1995SOL    HW1 6884   4.112   2.427   6.558  0.2058  0.0158 -0.5144
 1995SOL    HW2 6885   4.205   2.379   6.683 -0.5044 -0.7904 -0.2839
 1996SOL     OW 6886   2.672   1.039   1.160  0.0678  0.1615 -0.4556
 1996SOL    HW1 6887   2.651   0.956   1.213  0.5969  0.6664  0.5929
 1996SOL    HW2 6888   2.717   1.013   1.075 -2.1834 -0.7686 -1.4388
 1997SOL     OW 6889   1.713   3.307   0.332 -0.2946  0.0763 -0.1226
 1997SOL    HW1 6890   1.620   3.340   0.315  0.2116  0.7183 -1.8166
 1997SOL    HW2 6891   1.745   3.257   0.252  0.6350 -0.6242  0.6659
 1998SOL     OW 6892   2.484   1.791   4.594  0.5473 -0.0751  0.0987
 1998SOL    HW1 6893   2.542   1.862   4.635 -1.5835  1.5370  0.5157
 1998SOL    HW2 6894   2.421   1.755   4.663 -0.4289 -0.1694 -0.8035
 1999SOL     OW 6895   3.244   0.357   5.078 -0.1592 -0.1219 -0.3366
 1999SOL    HW1 6896   3.272   0.341   4.984  0.5219  0.1833 -0.1891
 1999SOL    HW2 6897   3.195   0.277   5.112  2.1186 -1.4395 -0.0038
 2000SOL     OW 6898   4.890   6.181   5.584  0.5886 -0.2296 -0.3522
 2000SOL    HW1 6899   4.868   6.272   5.618  0.4675 -0.8640  1.3530
 2000SOL    HW2 6900   4.844   6.112   5.640  1.0942 -1.3619 -1.2842
 2001SOL     OW 6901   3.300   3.559   5.730  0.1765  0.6914  0.0779
 2001SOL    HW1 6902   3.323   3.535   5.824 -0.5958  1.4088  0.4643
 2001SOL    HW2 6903   3.340   3.492   5.668  2.5365  1.4026  0.7507
 2002SOL     OW 6904   1.916   0.063   0.588 -0.1530  0.5811 -0.4146
 2002SOL    HW1 6905   1.951   0.026   0.502  0.4756  0.5557 -0.1527
 2002SOL    HW2 6906   1.864   0.146   0.570 -1.0777 -0.0966 -0.9448
 2003SOL     OW 6907   3.289   2.662   6.895 -0.2312  0.3286 -0.1754
 2003SOL    HW1 6908   3.372   2.710   6.923 -0.7337  0.9767  0.2260
 2003SOL    HW2 6909   3.267   2.592   6.963  0.5528 -0.5507 -0.8081
 2004SOL     OW 6910   3.636   0.814   1.494  0.1317 -0.2731  0.7484
 2004SOL    HW1 6911   3.621   0.793   1.590 -1.9598  0.1518  0.5491
 2004SOL    HW2 6912   3.557   0.861   1.457  2.1501  2.4991 -0.3899
 2005SOL     OW 6913   6.924   1.622   2.598 -0.1185 -0.0270  0.2820
 2005SOL    HW1 6914   6.834   1.624   2.555  0.7786 -0.0400 -1.6985
 2005SOL    HW2 6915   6.959   1.528   2.596 -0.2341 -0.1185  1.5028
 2006SOL     OW 6916   0.125   0.920   4.571 -0.0529  0.2876 -0.5923
 2006SOL    HW1 6917   0.187   0.843   4.562  0.4369  0.6220 -0.1070
 2006SOL    HW2 6918   0.038   0.897   4.527 -0.6831 -1.3694  1.3553
 2007SOL     OW 6919   3.469   1.800   4.940 -0.1680 -0.2576  0.8169
 2007SOL    HW1 6920   3.560   1.775   4.972  1.1519  1.6663 -1.1035
 2007SOL    HW2 6921   3.469   1.895   4.910 -3.2219  0.2477  1.9849
 2008SOL     OW 6922   2.202   1.866   0.012 -0.5275 -0.6156  0.2034
 2008SOL    HW1 6923   2.140   1.929  -0.035 -0.7821  0.3133  1.7242
 2008SOL    HW2 6924   2.192   1.877   0.111  0.9298 -1.5833  0.4865
 2009SOL     OW 6925   3.352   2.068   1.385 -0.1746  0.4159  0.7618
 2009SOL    HW1 6926   3.448   2.039   1.383 -1.1726 -3.3515 -1.5305
 2009SOL    HW2 6927   3.310   2.037   1.470  0.3273  1.0031  1.2319
 2010SOL     OW 6928   6.709   2.953   4.049 -0.1795 -0.1365  0.5072
 2010SOL    HW1 6929   6.727   3.035   3.994  1.0446  0.8891  2.3145
 2010SOL    HW2 6930   6.677   2.880   3.990 -0.2470  1.3044 -1.3444
 2011SOL     OW 6931   2.311   4.102   6.885  0.1513 -0.1490  0.4220
 2011SOL    HW1 6932   2.344   4.024   6.938 -1.3031 -1.4939 -0.5623
 2011SOL    HW2 6933   2.360   4.104   6.797 -0.2932 -0.3712  0.1686
 2012SOL     OW 6934   6.088   2.199   2.286  0.2976  0.0487  0.0646
 2012SOL    HW1 6935   5.996   2.162   2.302 -0.2747  1.6484  0.6812
 2012SOL    HW2 6936   6.148   2.125   2.254 -1.0557 -1.1424  0.1354
 2013SOL     OW 6937   0.827   3.051   1.370  0.6871  0.1316 -0.2080
 2013SOL    HW1 6938   0.791   3.035   1.462 -1.5660 -2.1871 -1.3489
 2013SOL    HW2 6939   0.881   2.971   1.342  2.2607  1.2684 -0.5803
 2014SOL     OW 6940   1.023   4.735   5.651  0.4736 -0.1048  0.6241
 2014SOL    HW1 6941   0.977   4.750   5.563  0.2531 -2.6402  0.2276
 2014SOL    HW2 6942   0.958   4.697   5.716  1.0808  0.0262  1.3181
 2015SOL     OW 6943   1.356   4.482   3.543 -0.3963  0.4085  0.3047
 2015SOL    HW1 6944   1.424   4.556   3.538  0.2230 -0.2086 -0.6180
 2015SOL    HW2 6945   1.381   4.419   3.616  0.3183 -0.0910 -0.3592
 2016SOL     OW 6946   2.816   0.993   4.051  0.5869  1.0275 -0.2529
 2016SOL    HW1 6947   2.847   1.019   3.959  1.6099  2.2287  0.3869
 2016SOL    HW2 6948   2.729   1.039   4.071  0.7501  1.3817 -0.3441
 2017SOL     OW 6949   1.576   6.861   6.761  0.8253  0.3139  0.1291
 2017SOL    HW1 6950   1.558   6.827   6.853 -2.5322 -0.4903 -0.6588
 2017SOL    HW2 6951   1.604   6.786   6.702  2.3484  0.7079  0.3254
 2018SOL     OW 6952   5.098   0.405   2.474 -0.6262 -0.2239 -0.0588
 2018SOL    HW1 6953   5.011   0.418   2.522 -1.3154  0.3353 -1.4181
 2018SOL    HW2 6954   5.093   0.447   2.384  0.6388 -1.2604 -0.6453
 2019SOL     OW 6955   0.895   1.783   1.590 -0.0517 -0.2453  0.4573
 2019SOL    HW1 6956   0.954   1.805   1.512  1.2264 -2.5742  0.6737
 2019SOL    HW2 6957   0.809   1.832   1.582  0.3288  0.1417 -2.0341
 2020SOL     OW 6958   6.682   3.370   1.053  0.1589  0.3526  0.2045
 2020SOL    HW1 6959   6.738   3.437   1.004 -0.3466  0.2444 -0.5309
 2020SOL    HW2 6960   6.712   3.366   1.149  0.4053  1.3928  0.1877
 2021SOL     OW 6961   6.000   4.565   2.899 -0.0794  0.5456 -0.0327
 2021SOL    HW1 6962   6.069   4.572   2.971  1.0553  0.3125 -1.0650
 2021SOL    HW2 6963   5.972   4.470   2.888 -0.8254  0.6825  0.6047
 2022SOL     OW 6964   2.337   2.632   6.839 -0.6800 -0.4053 -0.0466
 2022SOL    HW1 6965   2.417   2.681   6.805  0.9753 -3.4139 -0.8067
 2022SOL    HW2 6966   2.353   2.603   6.934 -1.3723 -0.0716  0.1830
 2023SOL     OW 6967   0.280   6.739   1.800 -0.6467 -0.3254  0.9129
 2023SOL    HW1 6968   0.193   6.788   1.816 -0.9593 -0.5102 -0.1419
 2023SOL    HW2 6969   0.330   6.784   1.726 -1.2898 -1.9967 -0.6168
 2024SOL     OW 6970   2.073   1.804   6.216 -0.0909  0.4570 -0.0464
 2024SOL    HW1 6971   2.102   1.890   6.259  1.6723  0.1497 -0.5544
 2024SOL    HW2 6972   2.106   1.727   6.269 -0.9836  0.0705 -0.0354
 2025SOL     OW 6973   1.115   4.014   4.177  0.3367 -0.1930  0.6502
 2025SOL    HW1 6974   1.016   4.026   4.181  0.3835  1.9639 -1.8548
 2025SOL    HW2 6975   1.158   4.101   4.152  2.5799 -1.6887 -1.1450
 2026SOL     OW 6976   2.434   2.503   2.389 -0.0411  0.4913 -0.2173
 2026SOL    HW1 6977   2.365   2.571   2.417 -1.5498 -1.4185  0.9899
 2026SOL    HW2 6978   2.516   2.550   2.358 -0.2882  2.8895  2.3516
 2027SOL     OW 6979   2.660   3.128   5.894 -0.1133  0.2662  0.1922
 2027SOL    HW1 6980   2.757   3.105   5.883  0.2981  1.5365  0.9364
 2027SOL    HW2 6981   2.645   3.162   5.987 -1.5612 -1.2072  0.5480
 2028SOL     OW 6982   2.597   4.642   4.987 -0.5002 -0.4605 -0.4165
 2028SOL    HW1 6983   2.600   4.607   4.893  1.3690  0.0283 -0.5847
 2028SOL    HW2 6984   2.690   4.649   5.023 -1.0896  0.6346  1.0035
 2029SOL     OW 6985   0.438   5.532   3.253  0.0639 -0.3904  0.0763
 2029SOL    HW1 6986   0.339   5.537   3.252  0.0317 -0.6277 -1.4477
 2029SOL    HW2 6987   0.476   5.604   3.194  0.7156 -1.1038 -0.4099
 2030SOL     OW 6988   0.641   2.119   4.587 -0.2047 -0.2570 -0.3247
 2030SOL    HW1 6989   0.560   2.093   4.638 -0.5896 -0.3105 -0.9530
 2030SOL    HW2 6990   0.663   2.215   4.605 -1.5533  0.3401 -1.6212
 2031SOL     OW 6991   5.074   0.985   0.404  0.5733 -0.4941 -0.3355
 2031SOL    HW1 6992   5.016   0.962   0.483 -0.6588 -1.1290 -1.3901
 2031SOL    HW2 6993   5.056   1.079   0.376 -0.1506 -0.7703 -0.8164
 2032SOL     OW 6994   3.584   5.289   4.342 -0.0766 -0.0753 -0.3064
 2032SOL    HW1 6995   3.598   5.387   4.333 -2.7434  0.4096 -0.1081
 2032SOL    HW2 6996   3.612   5.260   4.434 -1.5334  1.0232  0.5258
 2033SOL     OW 6997   2.712   6.661   4.264 -0.4763 -0.0520 -0.0057
 2033SOL    HW1 6998   2.789   6.603   4.237 -0.1964  0.2987  0.0300
 2033SOL    HW2 6999   2.627   6.608   4.259 -0.1407 -0.6765  0.7270
 2034SOL     OW 7000   0.392   5.004   1.122 -0.0234  0.1279  0.0823
 2034SOL    HW1 7001   0.443   5.060   1.057 -0.3592  0.0798 -0.2296
 2034SOL    HW2 7002   0.426   5.020   1.214  1.5719 -1.0009 -0.2531
 2035SOL     OW 7003   2.173   2.787   3.326 -0.4787 -0.0454 -0.0991
 2035SOL    HW1 7004   2.229   2.777   3.408  1.5518 -1.0169 -1.5192
 2035SOL    HW2 7005   2.173   2.883   3.298 -0.4853  0.1530  0.5620
 2036SOL     OW 7006   2.249   5.021   1.037 -0.3475 -0.0796 -0.0519
 2036SOL    HW1 7007   2.280   5.082   0.964 -0.4877 -2.1088 -1.9241
 2036SOL    HW2 7008   2.152   5.000   1.025 -0.2881 -0.7190  0.5020
 2037SOL     OW 7009   6.922   3.189   0.753 -0.3536 -0.0157  0.0588
 2037SOL    HW1 7010   6.930   3.149   0.662  2.4690  1.7802 -0.6195
 2037SOL    HW2 7011   6.934   3.118   0.823 -2.6417 -1.4259 -0.9064
 2038SOL     OW 7012   5.776   1.996   3.165 -0.0344 -0.1566  0.2820
 2038SOL    HW1 7013   5.750   1.950   3.080  0.6862  0.5869 -0.3667
 2038SOL    HW2 7014   5.862   2.046   3.151 -0.1067  0.2956  1.3372
 2039SOL     OW 7015   0.395   5.350   0.764  0.1960 -0.6553 -0.2118
 2039SOL    HW1 7016   0.430   5.397   0.845 -1.1610  0.6389 -0.3418
 2039SOL    HW2 7017   0.314   5.398   0.730  0.0655 -1.8468 -1.6630
 2040SOL     OW 7018   1.324   4.439   5.060 -1.1302 -0.6542 -0.0724
 2040SOL    HW1 7019   1.318   4.520   5.002 -1.0981 -0.6421 -0.0584
 2040SOL    HW2 7020   1.366   4.364   5.009  1.0889  0.0219  0.6628
 2041SOL     OW 7021   5.781   1.753   4.625  0.3864  0.1247 -0.5441
 2041SOL    HW1 7022   5.803   1.659   4.597 -0.7395 -0.5197  0.6048
 2041SOL    HW2 7023   5.722   1.794   4.555 -1.2760 -0.9857  0.1305
 2042SOL     OW 7024   1.180   4.466   6.474  0.1147  0.3320  0.0488
 2042SOL    HW1 7025   1.195   4.412   6.556  1.0087  0.4248 -0.0481
 2042SOL    HW2 7026   1.263   4.469   6.419 -0.3840  0.5115 -0.7220
 2043SOL     OW 7027   1.800   1.260   6.407  0.2459 -0.3902 -0.4502
 2043SOL    HW1 7028   1.776   1.282   6.501 -0.2304 -0.1429 -0.6311
 2043SOL    HW2 7029   1.856   1.333   6.368 -0.5601  0.0772 -0.7478
 2044SOL     OW 7030   1.833   3.786   5.163 -0.0962  0.2248 -0.1026
 2044SOL    HW1 7031   1.808   3.787   5.259 -1.8323  1.3651 -0.5178
 2044SOL    HW2 7032   1.894   3.863   5.143  3.3274 -2.0512  0.7290
 2045SOL     OW 7033   3.987   6.984   3.891  0.4534  0.3552  0.2794
 2045SOL    HW1 7034   3.887   6.993   3.890  0.3112 -0.6186 -2.3295
 2045SOL    HW2 7035   4.027   7.045   3.823  1.4188 -0.9117 -0.3424
 2046SOL     OW 7036   4.800   2.803   6.648  0.3817  0.4976 -0.4086
 2046SOL    HW1 7037   4.869   2.755   6.593 -0.2820 -0.0934 -0.7475
 2046SOL    HW2 7038   4.783   2.893   6.609  0.5369  0.4169 -0.6645
 2047SOL     OW 7039   2.087   2.773   6.808 -0.3270  0.3851 -0.4652
 2047SOL    HW1 7040   2.174   2.726   6.822 -0.0507  0.5805 -1.4720
 2047SOL    HW2 7041   2.105   2.869   6.783 -0.8574  0.7269  0.4123
 2048SOL     OW 7042   5.501   2.500   0.349  0.1695 -0.2933  0.0324
 2048SOL    HW1 7043   5.568   2.473   0.418  0.2975 -0.5662 -0.1908
 2048SOL    HW2 7044   5.439   2.568   0.386  0.6680  0.0755  0.1979
 2049SOL     OW 7045   3.028   5.899   2.890 -0.5571  0.4449  0.3202
 2049SOL    HW1 7046   3.005   5.960   2.966  0.9957  0.2594  0.9749
 2049SOL    HW2 7047   3.126   5.881   2.890 -0.8431 -1.3327 -0.3989
 2050SOL     OW 7048   6.663   4.790   1.875  0.6855 -0.1515  0.2257
 2050SOL    HW1 7049   6.607   4.808   1.794  1.3951  0.6458 -0.1064
 2050SOL    HW2 7050   6.646   4.861   1.943 -1.8196 -2.1604  1.8881
 2051SOL     OW 7051   5.270   3.817   5.165  0.2395  0.2345 -0.2955
 2051SOL    HW1 7052   5.239   3.901   5.122  0.6598  0.0696 -0.9301
 2051SOL    HW2 7053   5.231   3.738   5.117  2.1745 -0.0065 -1.5920
 2052SOL     OW 7054   0.957   0.970   0.198  0.3436 -0.7523 -0.2104
 2052SOL    HW1 7055   1.041   1.023   0.207  0.1456 -0.2187 -1.3951
 2052SOL    HW2 7056   0.888   1.024   0.151 -1.4039 -0.3921  2.5558
 2053SOL     OW 7057   3.701   2.528   1.170  0.3784 -0.1744 -0.1580
 2053SOL    HW1 7058   3.643   2.457   1.129  1.2029 -0.8756 -0.1342
 2053SOL    HW2 7059   3.781   2.543   1.113 -0.2199  1.3894 -0.6221
 2054SOL     OW 7060   3.450   6.862   3.052  0.5937 -0.1014 -0.0892
 2054SOL    HW1 7061   3.435   6.959   3.036  1.9469 -0.1746 -2.1807
 2054SOL    HW2 7062   3.526   6.850   3.116 -0.6364  0.1823  1.4775
 2055SOL     OW 7063   1.167   2.036   0.927 -0.2520  0.1746  0.4055
 2055SOL    HW1 7064   1.171   2.047   0.828 -1.7653  0.4534  0.3486
 2055SOL    HW2 7065   1.085   1.984   0.951  0.3671 -0.3337  1.4866
 2056SOL     OW 7066   4.901   5.000   4.185 -0.1282 -0.2872 -0.4932
 2056SOL    HW1 7067   4.805   5.025   4.172  0.2654  0.8026 -1.5017
 2056SOL    HW2 7068   4.945   5.066   4.246 -0.3716 -1.6805  1.2693
 2057SOL     OW 7069   0.097   4.323   4.912 -0.7148 -1.0026  0.2627
 2057SOL    HW1 7070   0.172   4.315   4.978  0.1103 -1.7592 -0.7317
 2057SOL    HW2 7071   0.058   4.232   4.895  0.0660 -1.0694 -1.3638
 2058SOL     OW 7072   0.803   0.753   0.135  0.1625 -0.8731 -0.3464
 2058SOL    HW1 7073   0.854   0.831   0.170  0.0314 -1.4937  1.3096
 2058SOL    HW2 7074   0.716   0.745   0.185 -1.0510 -0.5501 -2.2810
 2059SOL     OW 7075   4.234   5.771   0.087 -0.6034  0.3277 -0.0898
 2059SOL    HW1 7076   4.185   5.756   0.173 -0.0382 -1.8503 -0.0793
 2059SOL    HW2 7077   4.170   5.763   0.011 -0.8872  1.0270  0.0727
 2060SOL     OW 7078   5.375   4.559   5.555  0.1409  0.1884  0.2957
 2060SOL    HW1 7079   5.392   4.464   5.529 -0.1627  0.2620 -0.1981
 2060SOL    HW2 7080   5.376   4.567   5.654 -1.5279 -0.6843  0.4318
 2061SOL     OW 7081   3.668   6.918   4.999 -0.4990 -0.1652 -0.6465
 2061SOL    HW1 7082   3.698   6.830   5.037  2.0964  0.6087 -0.7258
 2061SOL    HW2 7083   3.697   6.992   5.059 -1.1554  0.7606 -1.4341
 2062SOL     OW 7084   4.407   5.067   0.025 -0.4380 -0.3133  0.3169
 2062SOL    HW1 7085   4.444   5.159   0.007  0.3887 -0.6645  0.1637
 2062SOL    HW2 7086   4.480   5.000   0.015 -1.1853 -1.0645 -0.2348
 2063SOL     OW 7087   2.904   2.087   5.548  0.4345  0.0843 -0.1431
 2063SOL    HW1 7088   2.961   2.012   5.583 -0.6341 -1.4273 -1.5130
 2063SOL    HW2 7089   2.963   2.161   5.514  1.5131 -0.2403  0.9762
 2064SOL     OW 7090   5.122   2.522   4.620  0.0769  0.2552  0.2948
 2064SOL    HW1 7091   5.038   2.469   4.614 -1.0896  2.1162 -0.6478
 2064SOL    HW2 7092   5.107   2.604   4.674  0.5795  1.8169 -1.8237
 2065SOL     OW 7093   6.754   3.375   4.621 -0.5015 -0.0498  0.0922
 2065SOL    HW1 7094   6.656   3.359   4.609 -0.4319  0.3260 -1.1122
 2065SOL    HW2 7095   6.777   3.365   4.718 -1.4833 -1.4592  0.2210
 2066SOL     OW 7096   2.171   1.536   2.262  0.4509  0.3385 -0.3036
 2066SOL    HW1 7097   2.261   1.577   2.280 -1.9791  5.0757  3.2205
 2066SOL    HW2 7098   2.146   1.475   2.337 -0.2981  1.0994  0.0701
 2067SOL     OW 7099   0.125   5.229   4.256  0.0188 -0.4945  0.0492
 2067SOL    HW1 7100   0.074   5.294   4.313  1.3537 -0.2891  1.0495
 2067SOL    HW2 7101   0.097   5.136   4.277  1.2009 -0.4931  1.8378
 2068SOL     OW 7102   2.761   6.086   3.193  0.4822  0.5908  0.1210
 2068SOL    HW1 7103   2.735   6.161   3.254 -1.6935  0.4195 -0.5075
 2068SOL    HW2 7104   2.706   6.005   3.214  0.3668  0.2450 -1.4227
 2069SOL     OW 7105   1.838   0.498   6.726  0.1268 -0.4658  0.3623
 2069SOL    HW1 7106   1.827   0.581   6.671  0.4255 -0.3478  0.4759
 2069SOL    HW2 7107   1.846   0.419   6.665 -0.6848 -0.4838  0.2643
 2070SOL     OW 7108   5.782   1.090   2.731 -0.1305 -0.3564  0.4252
 2070SOL    HW1 7109   5.776   1.101   2.830  1.3613 -0.8405  0.6066
 2070SOL    HW2 7110   5.878   1.095   2.703 -0.1643 -3.5396 -0.5780
 2071SOL     OW 7111   6.268   2.230   5.505  0.1612 -0.3100  0.8031
 2071SOL    HW1 7112   6.314   2.305   5.553  0.9040  0.4626 -1.0108
 2071SOL    HW2 7113   6.315   2.144   5.526  1.9549  0.3454 -0.3253
 2072SOL     OW 7114   0.656   4.423   6.786  0.3860 -0.1635 -0.0449
 2072SOL    HW1 7115   0.715   4.484   6.839  2.0551 -1.7014 -0.0207
 2072SOL    HW2 7116   0.688   4.419   6.692 -0.0942 -0.4917 -0.1954
 2073SOL     OW 7117   5.532   5.545   0.493 -0.8171  0.0308  0.2184
 2073SOL    HW1 7118   5.519   5.541   0.394 -1.3278  1.0843  0.2279
 2073SOL    HW2 7119   5.555   5.454   0.527  0.4007 -0.1521 -1.0000
 2074SOL     OW 7120   4.364   0.506   6.981 -0.1341  0.1357 -0.2214
 2074SOL    HW1 7121   4.293   0.471   6.921  0.3697 -1.4175  0.0390
 2074SOL    HW2 7122   4.322   0.552   7.059 -0.8874 -1.2440  0.2129
 2075SOL     OW 7123   4.481   1.936   5.247 -0.0256  0.6664 -0.4111
 2075SOL    HW1 7124   4.393   1.905   5.210 -0.7733  1.2750  0.7915
 2075SOL    HW2 7125   4.491   2.034   5.231 -0.1737  0.8567  0.5873
 2076SOL     OW 7126   1.652   1.731   4.702  0.0095  0.3803  0.3186
 2076SOL    HW1 7127   1.652   1.818   4.751 -1.5520 -0.4905  1.9614
 2076SOL    HW2 7128   1.578   1.731   4.635 -0.0295  0.2742  0.3629
 2077SOL     OW 7129   0.781   6.852   2.033  0.3732  0.0488  0.3362
 2077SOL    HW1 7130   0.717   6.928   2.021  0.1269 -0.4078 -1.7090
 2077SOL    HW2 7131   0.806   6.843   2.129 -2.4846  0.3519  1.1700
 2078SOL     OW 7132   0.521   5.505   4.141 -0.0485  0.1920  0.1767
 2078SOL    HW1 7133   0.464   5.585   4.123 -2.0817 -0.8951  1.3698
 2078SOL    HW2 7134   0.585   5.492   4.065 -1.7342  1.2006 -1.5209
 2079SOL     OW 7135   2.046   5.868   2.773 -0.0546  0.6802 -0.0296
 2079SOL    HW1 7136   2.087   5.842   2.686  0.1134 -0.2513  0.3158
 2079SOL    HW2 7137   1.947   5.875   2.763  0.0852  2.1414 -0.6697
 2080SOL     OW 7138   0.207   1.261   2.783 -0.4420  0.2879 -0.0902
 2080SOL    HW1 7139   0.168   1.174   2.812 -0.6402 -0.1280 -1.5559
 2080SOL    HW2 7140   0.306   1.257   2.788 -0.4569  0.0697  0.0538
 2081SOL     OW 7141   0.326   1.766   3.166 -0.0010 -0.5900  0.0821
 2081SOL    HW1 7142   0.332   1.864   3.188 -0.9109 -0.6521  0.6188
 2081SOL    HW2 7143   0.415   1.735   3.133  0.7951  0.0292  1.5467
 2082SOL     OW 7144   3.597   6.364   2.748 -0.1613 -0.5422  0.1097
 2082SOL    HW1 7145   3.598   6.273   2.789 -0.9769 -0.7402 -0.2928
 2082SOL    HW2 7146   3.505   6.403   2.753 -0.2313 -0.4565 -1.2434
 2083SOL     OW 7147   5.461   4.004   6.706  0.2209 -0.0961 -0.2099
 2083SOL    HW1 7148   5.535   4.054   6.750  0.9253 -1.5274  0.2972
 2083SOL    HW2 7149   5.498   3.923   6.659 -0.9860 -0.7501 -0.0859
 2084SOL     OW 7150   6.261   4.191   2.828  0.1257 -0.4158 -0.7352
 2084SOL    HW1 7151   6.230   4.266   2.769  1.1933 -0.0174 -0.8069
 2084SOL    HW2 7152   6.332   4.224   2.890  0.2551 -1.2517 -0.4224
 2085SOL     OW 7153   5.261   1.951   5.092  0.2778  0.0345 -0.1875
 2085SOL    HW1 7154   5.283   2.001   5.176  0.9125  1.0941 -0.9571
 2085SOL    HW2 7155   5.215   2.013   5.028  2.8298  0.2700 -1.9461
 2086SOL     OW 7156   4.027   1.470   6.831  0.2962 -0.3601 -0.7165
 2086SOL    HW1 7157   3.945   1.505   6.877  1.3194 -0.0900  0.9773
 2086SOL    HW2 7158   4.096   1.542   6.827  0.6711 -0.7581 -1.6118
 2087SOL     OW 7159   0.408   3.278   6.146  0.2465 -0.0741  0.1044
 2087SOL    HW1 7160   0.461   3.286   6.061  1.4345  2.1104  0.9532
 2087SOL    HW2 7161   0.466   3.303   6.224 -1.8867  2.1009  1.1145
 2088SOL     OW 7162   4.959   5.708   4.041  0.1429 -0.3445 -0.6409
 2088SOL    HW1 7163   4.907   5.693   3.957  1.0597 -0.2309 -1.2337
 2088SOL    HW2 7164   4.974   5.620   4.087 -0.1313 -0.4387 -0.7284
 2089SOL     OW 7165   5.762   4.468   0.922  0.4302  0.4817  0.1406
 2089SOL    HW1 7166   5.711   4.497   1.002  1.1019  3.1842 -0.3273
 2089SOL    HW2 7167   5.711   4.490   0.839  0.3575 -1.0192 -0.2422
 2090SOL     OW 7168   2.247   6.869   1.544  0.0594 -0.3812 -0.2647
 2090SOL    HW1 7169   2.241   6.879   1.643 -0.6851  1.1042 -0.4333
 2090SOL    HW2 7170   2.241   6.959   1.501 -0.6637 -1.0826 -1.7012
 2091SOL     OW 7171   3.663   3.360   1.878 -0.4179 -0.5148  0.2074
 2091SOL    HW1 7172   3.679   3.448   1.923 -1.2319 -0.4091  0.3139
 2091SOL    HW2 7173   3.568   3.356   1.847 -0.0351 -0.8186 -0.9959
 2092SOL     OW 7174   4.634   0.605   5.612 -0.0533  0.1727  0.5408
 2092SOL    HW1 7175   4.668   0.659   5.690  1.2531  0.1132  0.0363
 2092SOL    HW2 7176   4.535   0.617   5.603  0.1476  2.1370  0.7013
 2093SOL     OW 7177   1.405   4.144   5.635  0.1988  0.2737  0.4962
 2093SOL    HW1 7178   1.455   4.197   5.703  0.3396 -0.8682  1.3099
 2093SOL    HW2 7179   1.419   4.046   5.651  1.8827 -0.0886 -2.3546
 2094SOL     OW 7180   1.116   5.636   6.892  0.0394 -0.2094  0.0186
 2094SOL    HW1 7181   1.158   5.680   6.972 -1.7601  1.1520  0.2758
 2094SOL    HW2 7182   1.116   5.700   6.815 -0.0035 -0.8232 -0.5000
 2095SOL     OW 7183   6.587   0.704   3.224  0.5579  0.2076  0.0773
 2095SOL    HW1 7184   6.565   0.685   3.320 -0.5857 -2.1983 -0.5802
 2095SOL    HW2 7185   6.680   0.672   3.204  0.8291  0.7891  0.3795
 2096SOL     OW 7186   6.608   3.893   5.027  0.3418  0.0095 -0.5413
 2096SOL    HW1 7187   6.680   3.841   4.982  2.6477  2.1858  0.3945
 2096SOL    HW2 7188   6.538   3.919   4.959  1.6717 -0.1025 -2.0089
 2097SOL     OW 7189   6.791   3.801   3.046 -0.1928 -0.2249  0.0358
 2097SOL    HW1 7190   6.863   3.869   3.061  0.0249 -0.3876 -0.2488
 2097SOL    HW2 7191   6.709   3.847   3.011  0.2411 -0.2037 -1.0059
 2098SOL     OW 7192   5.002   6.527   1.502  0.6514  0.0864 -0.1267
 2098SOL    HW1 7193   4.976   6.590   1.575 -1.0650 -0.3930 -0.2622
 2098SOL    HW2 7194   5.101   6.531   1.487  0.5829  2.8302 -0.2628
 2099SOL     OW 7195   1.237   0.618   1.592  0.2126 -0.4495 -0.5679
 2099SOL    HW1 7196   1.243   0.519   1.607  0.0806 -0.1910  1.4498
 2099SOL    HW2 7197   1.159   0.655   1.643  1.3207  0.9504  0.1807
 2100SOL     OW 7198   5.567   0.711   2.480 -0.0023 -0.2429  0.0707
 2100SOL    HW1 7199   5.576   0.780   2.553  1.0092 -0.1241 -0.1560
 2100SOL    HW2 7200   5.524   0.629   2.517 -0.9632  0.3925  0.4162
 2101SOL     OW 7201   2.844   5.453   3.004  0.0221  0.9024  0.7691
 2101SOL    HW1 7202   2.924   5.396   3.022  1.0785  1.3801 -1.8659
 2101SOL    HW2 7203   2.873   5.540   2.963 -1.8166  1.3021  0.2078
 2102SOL     OW 7204   3.642   0.531   3.168 -0.6555  0.2959 -0.0254
 2102SOL    HW1 7205   3.616   0.439   3.199  1.4489 -0.6098 -0.7612
 2102SOL    HW2 7206   3.565   0.571   3.118 -1.6036 -1.0866  0.2401
 2103SOL     OW 7207   6.792   5.025   1.594 -0.4133  0.1505 -0.0306
 2103SOL    HW1 7208   6.888   4.995   1.597 -0.8484 -1.2678  0.3459
 2103SOL    HW2 7209   6.739   4.962   1.538 -1.1892  0.7531  0.0151
 2104SOL     OW 7210   5.598   0.725   5.618  0.1540  0.0847  0.1035
 2104SOL    HW1 7211   5.597   0.629   5.645  0.9554  0.0571  0.0578
 2104SOL    HW2 7212   5.505   0.761   5.621 -0.2121 -0.7881 -0.2266
 2105SOL     OW 7213   5.000   5.557   2.670 -0.7021 -0.5620  0.0918
 2105SOL    HW1 7214   4.931   5.504   2.719 -1.3017  1.7206  1.8483
 2105SOL    HW2 7215   5.064   5.597   2.735 -0.0865  0.6340 -1.1951
 2106SOL     OW 7216   6.480   6.222   1.865  0.3832 -0.0110 -0.3773
 2106SOL    HW1 7217   6.430   6.145   1.825  1.3051 -0.0974 -1.4086
 2106SOL    HW2 7218   6.423   6.265   1.935 -0.4519 -1.1488 -0.3156
 2107SOL     OW 7219   4.837   2.667   5.728  0.7186 -0.1897  0.0951
 2107SOL    HW1 7220   4.894   2.747   5.745 -0.9729  0.7818  1.5664
 2107SOL    HW2 7221   4.840   2.606   5.807 -3.5013  2.0266  2.3136
 2108SOL     OW 7222   6.657   6.158   3.070  0.5064 -0.1530  0.0229
 2108SOL    HW1 7223   6.689   6.167   3.164  1.7233 -1.3455 -0.2562
 2108SOL    HW2 7224   6.560   6.134   3.071 -0.6240  3.6989  0.8647
 2109SOL     OW 7225   3.495   4.216   5.132 -0.6019 -0.4414 -0.3649
 2109SOL    HW1 7226   3.557   4.173   5.198 -1.5531 -0.1509  0.7462
 2109SOL    HW2 7227   3.541   4.224   5.043  0.1581 -2.2669 -0.1781
 2110SOL     OW 7228   0.762   0.847   3.177  0.0126  0.0734  0.2574
 2110SOL    HW1 7229   0.693   0.861   3.106  1.0961  0.7941 -0.6890
 2110SOL    HW2 7230   0.810   0.932   3.194  1.2731 -0.6074  0.2406
 2111SOL     OW 7231   5.532   6.551   1.339  0.1590 -1.0122  0.2396
 2111SOL    HW1 7232   5.560   6.621   1.273  1.2219 -1.6582 -0.0064
 2111SOL    HW2 7233   5.606   6.537   1.405 -0.2444 -1.5606  0.5764
 2112SOL     OW 7234   0.241   5.261   1.133  0.3356 -0.1163 -0.0064
 2112SOL    HW1 7235   0.257   5.165   1.109 -0.7395 -0.3221  0.0475
 2112SOL    HW2 7236   0.155   5.292   1.093 -0.7079  0.0173  2.1614
 2113SOL     OW 7237   4.321   1.373   1.080  0.1429 -0.1782 -0.2420
 2113SOL    HW1 7238   4.357   1.369   0.987 -0.2971  1.8797 -0.5496
 2113SOL    HW2 7239   4.279   1.285   1.104  0.1510 -0.6961 -2.0343
 2114SOL     OW 7240   2.960   1.922   4.643  0.0587  0.0003  0.5093
 2114SOL    HW1 7241   2.966   2.021   4.652 -2.3286  0.0839  1.8291
 2114SOL    HW2 7242   2.985   1.878   4.730  0.6833 -0.5556  0.0647
 2115SOL     OW 7243   1.911   5.484   3.973 -0.3422  0.4511 -0.2102
 2115SOL    HW1 7244   1.819   5.446   3.974  0.0644 -0.6922  2.6926
 2115SOL    HW2 7245   1.906   5.584   3.970 -1.7190  0.4202  0.5392
 2116SOL     OW 7246   5.602   2.278   6.898  0.5127 -0.7175 -0.1803
 2116SOL    HW1 7247   5.651   2.333   6.966  0.2395  0.2329 -0.7326
 2116SOL    HW2 7248   5.543   2.212   6.945  0.5457 -0.2714  0.4980
 2117SOL     OW 7249   3.948   6.668   4.872 -0.2421 -0.1834  0.6413
 2117SOL    HW1 7250   3.931   6.745   4.810 -2.0033 -1.3113 -0.3357
 2117SOL    HW2 7251   4.041   6.675   4.908  0.6705  0.8224 -1.7090
 2118SOL     OW 7252   2.156   0.696   5.763  0.7750 -0.1004 -0.4351
 2118SOL    HW1 7253   2.205   0.666   5.681  0.5708 -2.5223  0.2383
 2118SOL    HW2 7254   2.222   0.714   5.836  0.8425 -0.1269 -0.4893
 2119SOL     OW 7255   2.246   2.604   3.079  0.4038  0.5658 -0.3563
 2119SOL    HW1 7256   2.281   2.628   2.988  0.0819  1.3847 -0.2835
 2119SOL    HW2 7257   2.229   2.688   3.130  0.6250  0.1050  0.4840
 2120SOL     OW 7258   5.596   0.444   5.265  0.3955  0.6513 -0.0755
 2120SOL    HW1 7259   5.572   0.529   5.312 -0.1269  0.9652 -0.8825
 2120SOL    HW2 7260   5.629   0.465   5.173 -0.6187 -0.0653 -0.6192
 2121SOL     OW 7261   1.709   2.437   3.227 -0.0836 -0.0583  0.1738
 2121SOL    HW1 7262   1.789   2.484   3.189 -1.2551  0.5322 -1.6879
 2121SOL    HW2 7263   1.736   2.344   3.254  1.0872 -0.1210 -1.0824
 2122SOL     OW 7264   5.241   4.465   0.967 -0.4894  0.5634  0.3082
 2122SOL    HW1 7265   5.294   4.460   0.883  0.1154  0.7331  0.6723
 2122SOL    HW2 7266   5.190   4.380   0.980  2.1929 -1.0080  1.5592
 2123SOL     OW 7267   4.490   6.110   0.660 -0.5117 -0.1060  0.1623
 2123SOL    HW1 7268   4.495   6.183   0.592 -1.4805 -0.0817  0.1090
 2123SOL    HW2 7269   4.396   6.099   0.691 -0.5033 -1.7405 -0.2989
 2124SOL     OW 7270   0.820   4.961   3.312  0.2601  0.2596  1.0435
 2124SOL    HW1 7271   0.792   4.888   3.249  0.8118 -0.2421  1.3692
 2124SOL    HW2 7272   0.897   5.011   3.272 -0.2491  0.8100  0.7276
 2125SOL     OW 7273   6.431   3.440   4.033  0.0597 -0.4519 -0.0331
 2125SOL    HW1 7274   6.377   3.431   4.117 -0.3007 -0.2954 -0.2462
 2125SOL    HW2 7275   6.510   3.499   4.050 -0.5712  0.4212 -0.0724
 2126SOL     OW 7276   4.889   3.759   0.212  0.1447 -0.4371 -0.2467
 2126SOL    HW1 7277   4.859   3.796   0.124  0.4291  0.0324 -0.1519
 2126SOL    HW2 7278   4.905   3.660   0.203 -0.9061 -0.6003 -0.4243
 2127SOL     OW 7279   0.725   0.216   1.786 -0.1205  0.3545  0.0804
 2127SOL    HW1 7280   0.703   0.296   1.730  0.2095  0.0280 -0.5233
 2127SOL    HW2 7281   0.824   0.210   1.798 -0.0612 -0.5495 -0.7678
 2128SOL     OW 7282   2.027   0.761   5.438  0.5259  0.8426  0.3580
 2128SOL    HW1 7283   2.043   0.833   5.505 -1.0836  1.3540  0.2232
 2128SOL    HW2 7284   2.066   0.788   5.350  1.9135  0.5292  0.8461
 2129SOL     OW 7285   0.876   4.339   1.834 -0.0204  0.5446  0.3914
 2129SOL    HW1 7286   0.835   4.413   1.782  0.1014  1.5013  1.6103
 2129SOL    HW2 7287   0.813   4.310   1.907 -1.4935 -2.8006 -1.9655
 2130SOL     OW 7288   4.583   3.345   6.528  0.5429 -0.0242  0.5267
 2130SOL    HW1 7289   4.591   3.349   6.628 -1.7923  0.0398  0.7592
 2130SOL    HW2 7290   4.522   3.270   6.502 -0.6650  1.3032 -0.6935
 2131SOL     OW 7291   4.966   4.199   2.905  0.5785 -0.0242  0.4342
 2131SOL    HW1 7292   5.031   4.248   2.963  1.5744 -1.0790  0.2415
 2131SOL    HW2 7293   4.959   4.244   2.816  0.1041  0.7971  0.8809
 2132SOL     OW 7294   4.732   0.910   0.227  0.1579 -0.2888  0.0690
 2132SOL    HW1 7295   4.737   0.953   0.137  0.7995 -0.6176 -0.0625
 2132SOL    HW2 7296   4.805   0.841   0.235  0.6809  0.3577  1.1559
 2133SOL     OW 7297   0.171   5.669   3.481 -0.1370 -0.7690  0.0716
 2133SOL    HW1 7298   0.225   5.635   3.558  1.9408 -0.8048 -1.3028
 2133SOL    HW2 7299   0.223   5.741   3.434 -2.1425  0.5340 -0.2510
 2134SOL     OW 7300   1.452   4.041   3.951  0.5748  0.1782 -0.5563
 2134SOL    HW1 7301   1.353   4.027   3.944  0.0340  1.8904  2.0163
 2134SOL    HW2 7302   1.496   3.956   3.979 -1.0873  0.5182  4.0640
 2135SOL     OW 7303   6.730   5.992   1.945 -0.4096  0.3892  0.1241
 2135SOL    HW1 7304   6.747   6.051   1.866  2.7483  1.1676  1.2475
 2135SOL    HW2 7305   6.716   6.047   2.027 -1.1241 -0.4148  0.5614
 2136SOL     OW 7306   3.846   2.555   6.276  0.1857  0.1471  0.8149
 2136SOL    HW1 7307   3.789   2.550   6.195  0.8730 -1.7866  0.3978
 2136SOL    HW2 7308   3.929   2.606   6.256  1.0212 -1.5206 -0.1817
 2137SOL     OW 7309   3.616   0.273   3.226 -0.4207 -0.3309  0.5530
 2137SOL    HW1 7310   3.558   0.193   3.244  0.6778 -1.1982  0.3813
 2137SOL    HW2 7311   3.711   0.250   3.248  0.0501  0.6304 -0.3937
 2138SOL     OW 7312   2.856   6.602   1.078 -0.0236 -0.2419  0.7838
 2138SOL    HW1 7313   2.896   6.511   1.083  0.5973 -0.0008  0.2459
 2138SOL    HW2 7314   2.883   6.646   0.993 -0.1066  0.5436  1.1546
 2139SOL     OW 7315   6.674   3.266   1.305 -0.6092 -0.3325 -0.1672
 2139SOL    HW1 7316   6.655   3.339   1.370  1.3157 -0.9808  1.2249
 2139SOL    HW2 7317   6.607   3.193   1.315 -1.0519  0.1224  0.2033
 2140SOL     OW 7318   5.049   2.825   4.484  0.0014 -0.4175 -0.1925
 2140SOL    HW1 7319   5.045   2.746   4.423 -1.7421  0.4640 -1.3072
 2140SOL    HW2 7320   5.141   2.864   4.481  0.5650 -1.7055 -0.5208
 2141SOL     OW 7321   3.686   2.912   0.937  0.1064  0.5192  0.2339
 2141SOL    HW1 7322   3.736   2.923   1.022  0.1899 -3.0503  0.8199
 2141SOL    HW2 7323   3.589   2.900   0.956 -0.0532  0.8789 -0.3099
 2142SOL     OW 7324   1.019   6.467   5.753  0.1280 -0.2856 -0.1575
 2142SOL    HW1 7325   0.971   6.387   5.789  0.9153 -0.9309 -0.5379
 2142SOL    HW2 7326   1.114   6.467   5.784  0.4723 -0.1683 -1.1798
 2143SOL     OW 7327   4.050   6.023   2.882  0.3904 -0.4377 -0.3555
 2143SOL    HW1 7328   4.059   6.011   2.981 -0.8407  1.3760  0.0081
 2143SOL    HW2 7329   4.138   6.004   2.839  0.8785 -1.5318  1.0351
 2144SOL     OW 7330   3.400   4.457   6.806 -0.2472 -0.0512  0.2738
 2144SOL    HW1 7331   3.398   4.553   6.780 -0.2139  0.9724  3.5591
 2144SOL    HW2 7332   3.491   4.419   6.788 -0.1073  0.6613 -0.5737
 2145SOL     OW 7333   4.846   4.509   4.678 -0.6271  0.3147 -0.1383
 2145SOL    HW1 7334   4.912   4.581   4.654 -0.6129  0.0591 -0.9105
 2145SOL    HW2 7335   4.835   4.505   4.777 -1.5420  2.1978 -0.1261
 2146SOL     OW 7336   2.414   5.639   2.904 -0.4133 -0.8099  0.2827
 2146SOL    HW1 7337   2.454   5.605   2.818 -0.0932  2.5610 -1.0457
 2146SOL    HW2 7338   2.315   5.642   2.895 -0.3828 -0.5021  0.0412
 2147SOL     OW 7339   4.177   2.046   0.704 -0.0747  1.1944 -0.3279
 2147SOL    HW1 7340   4.258   1.987   0.704 -1.3872 -0.7174 -1.4393
 2147SOL    HW2 7341   4.206   2.142   0.702  2.1442  0.5889 -0.0221
 2148SOL     OW 7342   6.007   2.136   5.478 -0.2556  0.0114  0.3883
 2148SOL    HW1 7343   6.106   2.135   5.465 -0.1870  1.2658  0.7039
 2148SOL    HW2 7344   5.974   2.042   5.492  1.0131 -0.3358  1.2014
 2149SOL     OW 7345   1.176   5.625   1.809  0.7545 -0.7841 -0.5782
 2149SOL    HW1 7346   1.275   5.616   1.820  0.7213 -0.7435 -0.2329
 2149SOL    HW2 7347   1.150   5.721   1.816  0.8527 -0.6135 -2.1191
 2150SOL     OW 7348   3.680   2.575   5.609  0.0576 -0.1151  0.9510
 2150SOL    HW1 7349   3.747   2.501   5.607  1.0827  0.7959 -0.7569
 2150SOL    HW2 7350   3.717   2.654   5.560 -2.6815  0.0474 -1.0593
 2151SOL     OW 7351   1.619   1.040   1.431 -0.0983 -0.3141 -0.2243
 2151SOL    HW1 7352   1.533   0.989   1.437 -0.2706  0.0111  0.0947
 2151SOL    HW2 7353   1.696   0.976   1.431 -0.3290 -0.5937 -0.2433
 2152SOL     OW 7354   1.649   5.418   3.961  0.5344  0.0851 -0.2615
 2152SOL    HW1 7355   1.637   5.458   3.870  0.7100 -2.4766 -1.4800
 2152SOL    HW2 7356   1.592   5.469   4.027  0.2893  1.8986 -1.7843
 2153SOL     OW 7357   0.355   0.630   1.031 -0.3556 -0.2077 -0.1676
 2153SOL    HW1 7358   0.266   0.653   0.992 -1.0714 -1.5164  0.6334
 2153SOL    HW2 7359   0.379   0.536   1.008  1.9151  0.7638 -2.3106
 2154SOL     OW 7360   6.017   5.674   3.432  0.6890 -0.2238 -0.9682
 2154SOL    HW1 7361   5.954   5.683   3.510  1.2207 -0.6613 -0.4781
 2154SOL    HW2 7362   6.027   5.762   3.387  0.7888  0.1654 -0.2045
 2155SOL     OW 7363   5.602   1.905   4.475 -0.1245 -0.1273 -0.5873
 2155SOL    HW1 7364   5.541   1.826   4.469 -0.6653  0.0322  1.8508
 2155SOL    HW2 7365   5.637   1.927   4.384  0.0893 -3.1871 -1.3545
 2156SOL     OW 7366   2.901   1.786   5.215  0.0662  0.3335  0.4052
 2156SOL    HW1 7367   2.959   1.857   5.176  3.1080 -2.0927  0.2213
 2156SOL    HW2 7368   2.859   1.733   5.142  0.3068  0.0132  0.4983
 2157SOL     OW 7369   6.342   4.884   2.335  0.6292  0.1492 -0.2439
 2157SOL    HW1 7370   6.246   4.905   2.317  1.0212  2.2441 -0.1671
 2157SOL    HW2 7371   6.355   4.785   2.334 -2.0777 -0.3950  2.6091
 2158SOL     OW 7372   3.191   5.730   3.065  0.3358 -0.1664 -0.0250
 2158SOL    HW1 7373   3.224   5.815   3.107 -1.0812  0.3320  0.1401
 2158SOL    HW2 7374   3.100   5.710   3.100  0.4471 -1.4865 -0.4669
 2159SOL     OW 7375   1.473   5.066   5.152 -0.3518 -0.5026 -0.2445
 2159SOL    HW1 7376   1.474   5.119   5.068 -2.8392  1.2439  0.7003
 2159SOL    HW2 7377   1.422   4.981   5.137 -0.3360 -0.4498 -0.6119
 2160SOL     OW 7378   1.461   6.661   2.486  0.0586 -0.3018  0.0149
 2160SOL    HW1 7379   1.459   6.561   2.490 -0.4224 -0.3489 -1.0533
 2160SOL    HW2 7380   1.395   6.698   2.551  0.0227 -0.6832  0.1995
 2161SOL     OW 7381   1.821   3.192   0.120 -0.1867 -0.2749  0.0613
 2161SOL    HW1 7382   1.871   3.105   0.128  1.7549  0.9237  2.3128
 2161SOL    HW2 7383   1.839   3.233   0.031  1.1417 -0.8822  0.0270
 2162SOL     OW 7384   3.161   0.728   1.454  0.3144  0.9281 -0.0783
 2162SOL    HW1 7385   3.081   0.671   1.440  0.0779  1.5573 -1.4193
 2162SOL    HW2 7386   3.133   0.816   1.493  0.3856  1.0161 -0.2216
 2163SOL     OW 7387   0.874   2.045   0.456 -0.1535 -0.3200  0.1561
 2163SOL    HW1 7388   0.813   2.037   0.535  1.3815  1.5315  1.6478
 2163SOL    HW2 7389   0.943   1.973   0.459  0.6159  0.4235  1.2470
 2164SOL     OW 7390   2.020   2.706   1.446  0.7934 -0.5672 -0.0974
 2164SOL    HW1 7391   2.000   2.790   1.395  0.8216 -0.9376 -0.7318
 2164SOL    HW2 7392   2.078   2.647   1.391  1.0518 -0.8643  0.4808
 2165SOL     OW 7393   5.734   5.092   5.231  0.3457  0.4633 -0.2297
 2165SOL    HW1 7394   5.649   5.072   5.281  1.6140  0.4621  2.0451
 2165SOL    HW2 7395   5.793   5.012   5.230  1.1539  1.0370 -0.0104
 2166SOL     OW 7396   6.710   5.961   5.756 -0.6949 -0.7362  0.3686
 2166SOL    HW1 7397   6.650   5.970   5.677 -1.5738 -3.3052  0.6450
 2166SOL    HW2 7398   6.804   5.942   5.726 -1.1868 -2.5802 -0.1153
 2167SOL     OW 7399   0.505   1.511   1.476  0.2034 -0.8039 -0.6084
 2167SOL    HW1 7400   0.423   1.468   1.513  1.3802 -0.9907  1.9978
 2167SOL    HW2 7401   0.551   1.563   1.548  1.7778  0.2520 -2.2843
 2168SOL     OW 7402   5.081   1.431   6.950 -0.6955  0.6792 -0.1304
 2168SOL    HW1 7403   5.103   1.404   7.043 -0.6942  1.8742  0.2299
 2168SOL    HW2 7404   5.051   1.351   6.898  1.1186 -0.3601  0.3340
 2169SOL     OW 7405   5.542   4.673   2.772 -0.3323  0.2908 -0.5818
 2169SOL    HW1 7406   5.519   4.771   2.773 -1.6462  0.0048  0.5054
 2169SOL    HW2 7407   5.461   4.620   2.799  0.8434 -0.9846  0.5771
 2170SOL     OW 7408   0.202   4.216   6.284  0.2230 -0.3483  0.5646
 2170SOL    HW1 7409   0.229   4.121   6.301 -0.0387 -0.2593  1.5369
 2170SOL    HW2 7410   0.284   4.274   6.281  0.5917 -0.8698 -2.1443
 2171SOL     OW 7411   1.875   4.475   5.218  0.2062  0.3172  0.4977
 2171SOL    HW1 7412   1.854   4.564   5.259 -1.1768  0.2239  0.0486
 2171SOL    HW2 7413   1.790   4.432   5.187  1.0902  0.0249 -1.6962
 2172SOL     OW 7414   5.310   6.161   0.197  0.0168  0.1230  0.4111
 2172SOL    HW1 7415   5.233   6.160   0.261  0.8287  1.0069  1.4517
 2172SOL    HW2 7416   5.395   6.146   0.247  0.7116  1.1430 -0.4107
 2173SOL     OW 7417   0.627   4.277   5.234  0.4199  0.0150 -0.3953
 2173SOL    HW1 7418   0.695   4.349   5.220  2.7173 -1.4698  2.1315
 2173SOL    HW2 7419   0.561   4.278   5.159  2.5463  2.2895 -2.4066
 2174SOL     OW 7420   6.976   0.887   0.351  0.0822  0.5017  0.6940
 2174SOL    HW1 7421   6.917   0.874   0.431 -2.6747 -3.7461 -1.6180
 2174SOL    HW2 7422   7.034   0.806   0.339  1.8868  1.9162 -0.5640
 2175SOL     OW 7423   3.323   2.293   0.702 -0.2382 -0.5335 -0.0616
 2175SOL    HW1 7424   3.320   2.383   0.745  1.2421 -0.5286  0.0679
 2175SOL    HW2 7425   3.312   2.304   0.603 -0.6946 -0.2723  0.0154
 2176SOL     OW 7426   2.131   4.158   4.865  0.0479  0.2067 -0.5070
 2176SOL    HW1 7427   2.075   4.208   4.931 -0.6591 -0.2523 -0.7466
 2176SOL    HW2 7428   2.184   4.088   4.912  0.2000  0.4489 -0.3152
 2177SOL     OW 7429   5.813   0.070   3.040  0.4346 -0.4817  0.2062
 2177SOL    HW1 7430   5.845  -0.024   3.025 -0.6654 -1.4058  2.9534
 2177SOL    HW2 7431   5.889   0.126   3.071  1.1627 -0.3306 -1.7106
 2178SOL     OW 7432   3.123   3.020   1.372  0.2852  0.4985 -0.2768
 2178SOL    HW1 7433   3.189   3.018   1.298  0.7512 -1.7793  0.1180
 2178SOL    HW2 7434   3.171   3.015   1.460 -0.3680 -0.0639  0.0554
 2179SOL     OW 7435   4.677   6.071   2.063  0.0106 -0.2852 -0.7426
 2179SOL    HW1 7436   4.711   5.978   2.064  0.4213 -0.1381  0.1826
 2179SOL    HW2 7437   4.579   6.071   2.085  0.3444 -0.4005  0.9092
 2180SOL     OW 7438   6.723   0.665   0.527  0.4103 -0.7647  0.0305
 2180SOL    HW1 7439   6.763   0.682   0.617  0.3867 -0.8180  0.0509
 2180SOL    HW2 7440   6.633   0.623   0.538 -1.4857  2.9110  0.1136
 2181SOL     OW 7441   5.056   1.581   1.530 -0.2209  0.9370  0.1253
 2181SOL    HW1 7442   5.154   1.560   1.533 -0.8229 -2.4398  0.6269
 2181SOL    HW2 7443   5.013   1.551   1.615 -1.9427  0.6939 -0.7923
 2182SOL     OW 7444   5.461   5.841   5.217  0.1794 -0.6119 -0.2497
 2182SOL    HW1 7445   5.532   5.792   5.268 -0.5160  0.0038  1.3921
 2182SOL    HW2 7446   5.454   5.934   5.252 -0.3214 -0.1619 -1.5187
 2183SOL     OW 7447   5.753   3.356   2.585  0.1078 -0.0232  0.6645
 2183SOL    HW1 7448   5.842   3.337   2.544  0.2790 -0.4642  1.2181
 2183SOL    HW2 7449   5.741   3.455   2.595  1.2270  0.0122  2.0329
 2184SOL     OW 7450   6.656   2.906   0.219 -0.1842 -0.4671 -0.1917
 2184SOL    HW1 7451   6.683   2.810   0.217 -1.1281 -0.7715  0.5658
 2184SOL    HW2 7452   6.701   2.955   0.144  1.1673 -1.2508  0.0677
 2185SOL     OW 7453   0.458   5.960   6.605  0.2431  0.1934 -0.1507
 2185SOL    HW1 7454   0.495   5.896   6.538  0.2863  1.5130 -1.4473
 2185SOL    HW2 7455   0.480   6.054   6.577 -3.0950  1.0353 -0.4247
 2186SOL     OW 7456   3.183   4.131   6.002  0.1247 -0.0447  0.0426
 2186SOL    HW1 7457   3.199   4.062   6.073 -1.7474 -1.5256 -0.8814
 2186SOL    HW2 7458   3.197   4.090   5.912  0.0354  1.0989 -0.5107
 2187SOL     OW 7459   2.994   5.484   1.784  0.4650 -0.5439 -0.3060
 2187SOL    HW1 7460   2.903   5.501   1.822  0.7639 -0.7367  0.5122
 2187SOL    HW2 7461   3.039   5.571   1.763  0.5691 -0.4090  0.4494
 2188SOL     OW 7462   1.389   5.010   5.800  0.0645  0.3985 -0.3025
 2188SOL    HW1 7463   1.401   4.913   5.821  0.8851  0.6976  0.6854
 2188SOL    HW2 7464   1.318   5.020   5.731  0.5640 -0.9712 -1.0662
 2189SOL     OW 7465   5.197   5.760   5.221  0.6922 -0.2910  0.7221
 2189SOL    HW1 7466   5.167   5.718   5.136  2.3001  0.5615 -0.3001
 2189SOL    HW2 7467   5.296   5.773   5.220  0.6819  0.3140  2.4710
 2190SOL     OW 7468   6.461   3.832   3.526  0.7533 -0.0410 -0.8175
 2190SOL    HW1 7469   6.517   3.790   3.455  1.3765  1.4211 -1.2251
 2190SOL    HW2 7470   6.521   3.870   3.597  0.2170  0.2711 -0.5246
 2191SOL     OW 7471   3.457   4.601   0.096  0.2806 -0.2061  0.0822
 2191SOL    HW1 7472   3.503   4.542   0.162  0.3352 -0.3181 -0.0528
 2191SOL    HW2 7473   3.371   4.557   0.067 -0.0104  0.0971  0.4836
 2192SOL     OW 7474   3.009   1.235   1.139  0.4284 -0.4464 -0.0636
 2192SOL    HW1 7475   2.930   1.296   1.144 -0.4519 -1.4522 -1.0388
 2192SOL    HW2 7476   3.003   1.166   1.211  0.3370 -0.6302 -0.2494
 2193SOL     OW 7477   4.266   0.473   4.291  0.5054 -0.7193  0.0349
 2193SOL    HW1 7478   4.317   0.559   4.294 -1.5964  0.5555  0.7024
 2193SOL    HW2 7479   4.331   0.396   4.300  2.2364  0.8322  1.9653
 2194SOL     OW 7480   1.080   2.476   1.708 -0.4289 -0.2167  0.0645
 2194SOL    HW1 7481   1.057   2.381   1.728 -0.2161 -0.2459  0.1786
 2194SOL    HW2 7482   1.108   2.522   1.793  0.2984 -0.2917 -0.1242
 2195SOL     OW 7483   4.732   6.787   4.420  0.3237  0.5680 -0.2917
 2195SOL    HW1 7484   4.681   6.855   4.474 -2.5902 -0.0075 -2.1056
 2195SOL    HW2 7485   4.769   6.717   4.481 -3.9867 -0.8071  1.0908
 2196SOL     OW 7486   6.302   3.736   3.748 -0.5732  0.1831  0.0535
 2196SOL    HW1 7487   6.348   3.751   3.661  0.7627  0.7526  0.8109
 2196SOL    HW2 7488   6.283   3.824   3.791 -1.9934 -0.0620 -0.0279
 2197SOL     OW 7489   4.414   3.977   0.482  0.5998  0.3985 -0.1150
 2197SOL    HW1 7490   4.372   3.927   0.406  2.3423  1.0861 -1.5967
 2197SOL    HW2 7491   4.510   3.993   0.462  0.5447  2.7036  1.1817
 2198SOL     OW 7492   2.227   1.012   3.087 -0.4994  0.2292  0.0596
 2198SOL    HW1 7493   2.275   0.998   3.174 -1.0349  1.3465  0.5654
 2198SOL    HW2 7494   2.230   1.109   3.063 -0.5649 -0.0318 -1.0652
 2199SOL     OW 7495   5.168   3.399   5.070 -0.2085 -0.5612 -0.3244
 2199SOL    HW1 7496   5.243   3.450   5.029 -3.0215  2.3667 -2.2639
 2199SOL    HW2 7497   5.160   3.423   5.167  0.6297 -0.0005 -0.3844
 2200SOL     OW 7498   3.164   6.227   4.962 -0.4530  0.2595  0.4318
 2200SOL    HW1 7499   3.124   6.137   4.947 -2.3137  1.1152 -0.0199
 2200SOL    HW2 7500   3.229   6.223   5.037 -0.2205 -1.5284  0.1641
 2201SOL     OW 7501   4.372   5.116   4.406  0.1624  0.0367 -0.0212
 2201SOL    HW1 7502   4.451   5.098   4.464 -0.1648  3.4413  1.7712
 2201SOL    HW2 7503   4.390   5.196   4.349 -0.7902 -1.2324 -2.2441
 2202SOL     OW 7504   6.144   5.412   3.406  0.2203  0.0784 -0.0897
 2202SOL    HW1 7505   6.143   5.512   3.407 -0.2620  0.0710  0.1239
 2202SOL    HW2 7506   6.230   5.380   3.365  0.4722  0.5786  0.0433
 2203SOL     OW 7507   5.008   3.276   6.624  0.3118 -0.3015  0.0543
 2203SOL    HW1 7508   5.100   3.235   6.625  1.1031  1.3551 -0.2298
 2203SOL    HW2 7509   5.015   3.373   6.649 -1.2331  0.0768 -0.8436
 2204SOL     OW 7510   4.896   3.390   4.115  0.5654  0.0269  0.7646
 2204SOL    HW1 7511   4.902   3.298   4.155 -1.6481 -0.2495  0.5589
 2204SOL    HW2 7512   4.868   3.455   4.185 -1.0664 -0.0565  0.2235
 2205SOL     OW 7513   5.755   5.533   4.536  0.0337 -0.4475  0.6333
 2205SOL    HW1 7514   5.846   5.524   4.495  0.2811 -1.5079  1.3721
 2205SOL    HW2 7515   5.761   5.594   4.616 -0.1002  0.2193  0.1433
 2206SOL     OW 7516   3.612   1.355   0.343 -0.2420 -0.3813 -0.1020
 2206SOL    HW1 7517   3.636   1.259   0.354  1.3142 -0.2833 -2.0708
 2206SOL    HW2 7518   3.655   1.409   0.416  1.0024 -0.8976 -0.4245
 2207SOL     OW 7519   5.206   1.151   1.595 -0.3786  0.2438  0.1048
 2207SOL    HW1 7520   5.148   1.173   1.673  0.6608  1.7363  0.4970
 2207SOL    HW2 7521   5.291   1.109   1.627 -1.2311 -2.0639 -0.4737
 2208SOL     OW 7522   0.286   0.992   5.646  0.0317 -0.0734  0.1081
 2208SOL    HW1 7523   0.336   0.974   5.730 -0.5040 -0.8766  0.2739
 2208SOL    HW2 7524   0.221   0.917   5.630  0.6533 -0.3204 -1.4138
 2209SOL     OW 7525   2.738   6.725   0.612  0.4664  0.3696 -0.3655
 2209SOL    HW1 7526   2.801   6.715   0.534  2.0887 -1.2953  1.0647
 2209SOL    HW2 7527   2.687   6.810   0.602  1.8991  1.0834 -2.3525
 2210SOL     OW 7528   5.137   0.779   0.221  0.1619  0.0743 -0.0570
 2210SOL    HW1 7529   5.222   0.730   0.240  0.2866  0.2799 -0.0698
 2210SOL    HW2 7530   5.130   0.858   0.282 -1.5350 -1.6404  2.0932
 2211SOL     OW 7531   1.795   0.623   5.387 -0.6738  0.1987 -0.9327
 2211SOL    HW1 7532   1.882   0.671   5.402 -0.2543 -0.0252 -2.4804
 2211SOL    HW2 7533   1.735   0.636   5.466  0.6488  0.6124  0.0285
 2212SOL     OW 7534   6.390   4.457   6.361  0.1688  0.0489  0.1349
 2212SOL    HW1 7535   6.328   4.507   6.300 -0.0691  0.4301  0.6871
 2212SOL    HW2 7536   6.475   4.436   6.311 -1.1505 -2.2783 -1.2975
 2213SOL     OW 7537   3.947   1.251   2.102 -0.1222  0.3294 -0.4057
 2213SOL    HW1 7538   3.935   1.167   2.156  1.3052 -1.7485 -3.1138
 2213SOL    HW2 7539   3.876   1.256   2.032  0.6690  0.5724 -1.2072
 2214SOL     OW 7540   5.919   2.831   6.581  0.0536 -0.4778  0.4823
 2214SOL    HW1 7541   6.008   2.785   6.578  0.2450 -0.0752 -0.8779
 2214SOL    HW2 7542   5.880   2.833   6.489  0.5629  2.9688  0.2095
 2215SOL     OW 7543   3.548   0.218   3.992  0.0954 -0.2252  0.0469
 2215SOL    HW1 7544   3.524   0.238   4.087 -0.9833 -0.5631 -0.1312
 2215SOL    HW2 7545   3.601   0.293   3.954  0.7644 -0.2041  0.9877
 2216SOL     OW 7546   1.093   5.966   2.442 -0.0011 -0.0158  0.0398
 2216SOL    HW1 7547   1.036   5.894   2.400  1.7729 -0.1618 -2.3394
 2216SOL    HW2 7548   1.057   6.056   2.417  0.2171 -0.1052 -0.6172
 2217SOL     OW 7549   0.294   3.494   2.528 -0.4983  0.1873  0.3021
 2217SOL    HW1 7550   0.308   3.395   2.527  0.4120  0.3031  0.6950
 2217SOL    HW2 7551   0.267   3.525   2.437 -0.9557 -0.4402  0.2186
 2218SOL     OW 7552   1.864   5.208   2.989 -0.1440 -0.4471  0.6111
 2218SOL    HW1 7553   1.964   5.197   2.987 -0.0651  0.2797 -0.2500
 2218SOL    HW2 7554   1.832   5.209   3.083  0.8906  1.1618  0.9902
 2219SOL     OW 7555   4.450   3.717   0.692  0.4593  0.0871  0.5236
 2219SOL    HW1 7556   4.496   3.712   0.603 -0.3149  0.2565  0.1091
 2219SOL    HW2 7557   4.371   3.656   0.692 -0.1394  0.8513  0.7336
 2220SOL     OW 7558   3.884   5.754   1.447  0.1607  0.4563 -0.6378
 2220SOL    HW1 7559   3.841   5.836   1.485 -1.7357 -0.0564 -1.5520
 2220SOL    HW2 7560   3.892   5.685   1.519  0.0971  0.8066 -0.2890
 2221SOL     OW 7561   2.281   6.749   5.547  0.4855  0.5379 -0.0399
 2221SOL    HW1 7562   2.354   6.710   5.491  1.4785  0.8578  0.9963
 2221SOL    HW2 7563   2.195   6.745   5.497  0.6692 -2.2988 -0.2886
 2222SOL     OW 7564   2.286   3.609   6.757 -0.4843 -0.0620  0.5366
 2222SOL    HW1 7565   2.384   3.595   6.750 -0.0980  1.1256  2.5017
 2222SOL    HW2 7566   2.255   3.585   6.850 -1.5832  1.7769  0.7097
 2223SOL     OW 7567   2.874   2.995   0.741 -0.7656 -0.4659  0.0804
 2223SOL    HW1 7568   2.952   3.038   0.786 -0.9256 -0.7244  0.6096
 2223SOL    HW2 7569   2.799   2.984   0.806 -0.8172 -1.3145 -0.1102
 2224SOL     OW 7570   0.860   5.725   1.090 -0.0161 -0.2663 -0.0057
 2224SOL    HW1 7571   0.892   5.815   1.120  0.0525 -0.5086  0.6770
 2224SOL    HW2 7572   0.892   5.707   0.997  0.7288  0.0492  0.1762
 2225SOL     OW 7573   4.599   2.011   5.826 -0.5819  0.6066 -0.2466
 2225SOL    HW1 7574   4.662   2.087   5.839 -1.3694  1.9150 -3.3500
 2225SOL    HW2 7575   4.642   1.940   5.770 -0.5963 -0.3361  0.8744
 2226SOL     OW 7576   1.498   0.030   3.404 -0.4319  0.1827  0.1458
 2226SOL    HW1 7577   1.470   0.118   3.367 -0.9676  0.3890  1.0141
 2226SOL    HW2 7578   1.590   0.038   3.443  0.1719 -0.0556 -1.1463
 2227SOL     OW 7579   3.078   1.836   4.875  0.1450 -0.6040  0.1177
 2227SOL    HW1 7580   3.159   1.779   4.862  0.3842 -0.2140 -0.1471
 2227SOL    HW2 7581   3.094   1.900   4.951  0.3953  0.0091 -0.4428
 2228SOL     OW 7582   3.182   2.393   6.055 -0.5045  0.1422  0.1985
 2228SOL    HW1 7583   3.152   2.302   6.085  1.2439 -0.7465 -0.5484
 2228SOL    HW2 7584   3.265   2.418   6.104 -0.9617  1.3440  0.3815
 2229SOL     OW 7585   1.597   2.822   1.569  0.2329  0.2736 -0.1939
 2229SOL    HW1 7586   1.653   2.753   1.523  1.1143  0.0573  1.1489
 2229SOL    HW2 7587   1.576   2.896   1.505  1.4203 -0.0066 -0.9342
 2230SOL     OW 7588   5.047   2.635   4.295  0.0791  0.4726 -0.3041
 2230SOL    HW1 7589   5.021   2.570   4.224 -0.1048 -1.3207  1.3255
 2230SOL    HW2 7590   5.139   2.671   4.275  0.6510 -1.1269 -0.6907
 2231SOL     OW 7591   4.395   6.027   0.288  0.4927 -0.1808 -0.6348
 2231SOL    HW1 7592   4.386   5.937   0.245 -1.7906  0.3984 -1.5671
 2231SOL    HW2 7593   4.336   6.030   0.370  1.1090  0.2498 -0.2023
 2232SOL     OW 7594   2.737   6.619   5.934  0.3223  0.1592  0.1314
 2232SOL    HW1 7595   2.659   6.638   5.993 -0.3010 -3.2730  0.6163
 2232SOL    HW2 7596   2.714   6.642   5.840  0.2716  2.9363  0.7395
 2233SOL     OW 7597   0.550   4.192   6.096 -0.1362  0.1372  0.6661
 2233SOL    HW1 7598   0.624   4.222   6.157 -0.2725 -1.0054  1.4201
 2233SOL    HW2 7599   0.518   4.101   6.124  0.3001 -0.7708 -1.5437
 2234SOL     OW 7600   1.711   0.853   3.280  0.0278  0.4547 -0.1600
 2234SOL    HW1 7601   1.804   0.876   3.254 -0.0388  0.8559 -0.0498
 2234SOL    HW2 7602   1.698   0.754   3.276  0.1683  0.4703 -1.1533
 2235SOL     OW 7603   0.912   2.295   3.921 -0.2282  0.4741  0.0688
 2235SOL    HW1 7604   0.879   2.338   4.004 -1.4196 -0.0227 -0.1301
 2235SOL    HW2 7605   0.954   2.364   3.862  1.3292  0.7120  1.3864
 2236SOL     OW 7606   3.288   1.359   2.972  0.2809 -0.3131  0.7248
 2236SOL    HW1 7607   3.268   1.453   2.999 -0.1759 -0.2593  0.2205
 2236SOL    HW2 7608   3.365   1.360   2.908 -1.9233  0.1219 -2.1138
 2237SOL     OW 7609   1.285   6.513   2.272 -0.2557 -0.1559  0.5359
 2237SOL    HW1 7610   1.291   6.554   2.181 -1.8060  1.0502  0.9483
 2237SOL    HW2 7611   1.335   6.426   2.272  1.6560  0.8637 -0.8284
 2238SOL     OW 7612   4.435   0.994   6.555  0.4853 -0.5283 -0.3604
 2238SOL    HW1 7613   4.534   1.000   6.562  0.6250 -0.5651 -1.9384
 2238SOL    HW2 7614   4.392   1.057   6.620  1.5342 -0.2960  0.1203
 2239SOL     OW 7615   6.314   6.618   3.914 -0.2921  0.2627 -0.0910
 2239SOL    HW1 7616   6.282   6.600   3.821  0.9660 -1.4518 -0.2563
 2239SOL    HW2 7617   6.391   6.557   3.935 -0.1649  1.0158  1.8775
 2240SOL     OW 7618   2.147   0.277   2.391 -0.1118 -0.1764 -0.1099
 2240SOL    HW1 7619   2.186   0.269   2.483  2.7359 -0.7954 -1.2564
 2240SOL    HW2 7620   2.140   0.374   2.366  1.0187 -0.0384  0.0542
 2241SOL     OW 7621   6.782   2.120   3.611  0.3192 -0.4900  0.3635
 2241SOL    HW1 7622   6.683   2.132   3.601  0.3613 -0.1329  0.3473
 2241SOL    HW2 7623   6.816   2.063   3.537  0.4149  0.9632 -0.7570
 2242SOL     OW 7624   6.385   4.521   0.235  0.2432  0.1331 -0.3710
 2242SOL    HW1 7625   6.296   4.562   0.255 -0.9120 -1.5386 -1.7050
 2242SOL    HW2 7626   6.391   4.431   0.278  0.9204 -0.1294 -0.9821
 2243SOL     OW 7627   5.388   0.112   5.546  0.2087 -0.1341  0.0453
 2243SOL    HW1 7628   5.465   0.170   5.570  0.4071 -0.7571  0.9847
 2243SOL    HW2 7629   5.422   0.024   5.511 -0.0813  0.0964 -0.8162
 2244SOL     OW 7630   0.736   5.719   2.772  0.2975  0.1595  0.2822
 2244SOL    HW1 7631   0.661   5.668   2.814 -0.3919  1.4670  0.7094
 2244SOL    HW2 7632   0.715   5.735   2.675  0.2029  0.1663  0.3032
 2245SOL     OW 7633   2.021   0.541   3.987 -0.1569  0.2132 -0.7816
 2245SOL    HW1 7634   2.067   0.480   4.051 -1.8839  0.2725  0.5978
 2245SOL    HW2 7635   1.956   0.489   3.932  0.2418  0.4077 -1.4502
 2246SOL     OW 7636   6.452   3.861   6.615 -0.3308 -0.1333 -0.6157
 2246SOL    HW1 7637   6.443   3.960   6.620  1.8864  0.1374 -1.0293
 2246SOL    HW2 7638   6.500   3.828   6.697  0.5283 -0.6326 -1.3090
 2247SOL     OW 7639   3.961   3.800   6.046 -0.1941 -0.2380 -0.3302
 2247SOL    HW1 7640   3.880   3.841   6.004  0.3088  0.9518 -0.1610
 2247SOL    HW2 7641   3.935   3.758   6.133 -0.2948  1.9355  0.7520
 2248SOL     OW 7642   6.772   3.752   4.866 -0.2084 -0.0351  0.0728
 2248SOL    HW1 7643   6.871   3.755   4.883 -0.6011  0.8659  2.7208
 2248SOL    HW2 7644   6.746   3.829   4.808  0.6116 -0.1101 -0.4046
 2249SOL     OW 7645   1.658   2.042   4.530  0.1764 -0.0728  0.0506
 2249SOL    HW1 7646   1.741   2.002   4.492 -1.2388 -1.8363 -1.3312
 2249SOL    HW2 7647   1.594   1.969   4.556 -0.5457  1.2016  2.1162
 2250SOL     OW 7648   2.720   0.508   5.911 -0.1232 -0.2766 -0.0799
 2250SOL    HW1 7649   2.646   0.574   5.926  0.2255  0.1338 -0.1615
 2250SOL    HW2 7650   2.686   0.434   5.854  0.1751  1.1081 -2.1681
 2251SOL     OW 7651   3.105   3.303   2.903 -0.5718  0.0912  0.2129
 2251SOL    HW1 7652   3.200   3.274   2.887 -1.1060 -1.3266 -0.6405
 2251SOL    HW2 7653   3.094   3.331   2.998  1.3957  3.2477 -0.3436
 2252SOL     OW 7654   1.288   1.996   3.422 -0.6749  0.7202 -0.6387
 2252SOL    HW1 7655   1.258   2.081   3.378 -0.4299  0.9316 -0.4045
 2252SOL    HW2 7656   1.211   1.934   3.433 -1.0769  1.3363  0.1384
 2253SOL     OW 7657   2.422   6.728   1.038 -0.0645  0.1488  0.4153
 2253SOL    HW1 7658   2.490   6.801   1.039 -0.5947  0.6840 -0.8027
 2253SOL    HW2 7659   2.380   6.722   0.947 -1.6949 -0.1193  1.1426
 2254SOL     OW 7660   0.349   4.443   6.006  0.0201 -0.5281 -0.1609
 2254SOL    HW1 7661   0.378   4.409   6.095  0.8542 -0.8770 -0.5573
 2254SOL    HW2 7662   0.388   4.385   5.934  2.7691  2.0781 -0.9562
 2255SOL     OW 7663   4.409   1.595   0.226  0.6184 -0.0148  0.2657
 2255SOL    HW1 7664   4.370   1.609   0.317  0.7018  1.5229  0.0892
 2255SOL    HW2 7665   4.504   1.626   0.225  0.1381  1.5714 -0.7320
 2256SOL     OW 7666   2.715   4.795   2.547 -0.1166 -0.3094  0.2994
 2256SOL    HW1 7667   2.743   4.778   2.453 -0.8070  0.6982 -0.1139
 2256SOL    HW2 7668   2.630   4.848   2.547  0.2740  0.3573  1.4724
 2257SOL     OW 7669   0.239   5.317   5.195  0.1808 -0.3303 -0.2355
 2257SOL    HW1 7670   0.169   5.253   5.164 -0.7889  1.7123 -2.6527
 2257SOL    HW2 7671   0.280   5.362   5.115 -1.1392  4.0163  1.2448
 2258SOL     OW 7672   5.684   5.938   6.417 -0.0506 -0.2973  0.2212
 2258SOL    HW1 7673   5.760   5.913   6.478 -0.1930  1.3787  1.1409
 2258SOL    HW2 7674   5.648   5.855   6.374  2.4081 -1.1503 -0.4209
 2259SOL     OW 7675   1.924   3.463   5.384 -0.3344 -0.5105  0.0342
 2259SOL    HW1 7676   1.916   3.494   5.289 -0.2117 -1.2790 -0.2360
 2259SOL    HW2 7677   1.998   3.512   5.430 -0.9703  0.5074  0.0070
 2260SOL     OW 7678   5.210   4.748   3.262  0.1591 -0.4452 -0.0155
 2260SOL    HW1 7679   5.204   4.832   3.317 -0.3592 -1.7370  1.9976
 2260SOL    HW2 7680   5.142   4.682   3.294  1.0420 -1.9272 -1.0695
 2261SOL     OW 7681   3.933   4.067   4.661  0.6543  0.2036  0.5763
 2261SOL    HW1 7682   3.919   4.020   4.574 -1.6968  3.0497 -0.7733
 2261SOL    HW2 7683   4.026   4.101   4.666  0.5445  0.9074 -1.3706
 2262SOL     OW 7684   6.021   4.883   3.522 -0.4305 -0.2681  0.5581
 2262SOL    HW1 7685   5.934   4.923   3.491 -0.8771 -1.7116 -0.1996
 2262SOL    HW2 7686   6.076   4.953   3.566 -1.5189  0.9495  0.0784
 2263SOL     OW 7687   0.621   1.045   3.764  0.0128  0.5171  0.4478
 2263SOL    HW1 7688   0.571   1.059   3.679 -0.5482 -1.7717  0.3523
 2263SOL    HW2 7689   0.560   1.003   3.832  2.0239 -4.0429 -0.2038
 2264SOL     OW 7690   0.017   3.169   6.818 -0.3434 -0.2091  0.5541
 2264SOL    HW1 7691   0.089   3.227   6.780 -1.0516  1.8731  2.2085
 2264SOL    HW2 7692  -0.070   3.188   6.771 -0.3201 -0.9429  0.1981
 2265SOL     OW 7693   3.408   1.005   4.304  0.0435  0.3094  0.2935
 2265SOL    HW1 7694   3.336   0.999   4.235 -1.5633  1.7383  1.7360
 2265SOL    HW2 7695   3.383   0.948   4.383  0.6473  0.5631  0.6736
 2266SOL     OW 7696   6.618   3.131   5.145  0.0333  0.9430 -0.6385
 2266SOL    HW1 7697   6.665   3.084   5.219 -1.6164  0.6522  0.2789
 2266SOL    HW2 7698   6.639   3.229   5.148  1.9159  0.6021 -1.3487
 2267SOL     OW 7699   2.537   1.647   4.229  0.1952  0.0075 -0.2350
 2267SOL    HW1 7700   2.524   1.579   4.301 -1.3153 -0.9286 -1.3248
 2267SOL    HW2 7701   2.541   1.738   4.270 -2.1093 -0.3489  0.9668
 2268SOL     OW 7702   0.843   2.340   5.401 -0.3195  0.3564  0.2047
 2268SOL    HW1 7703   0.924   2.392   5.429  0.2301  0.8449 -2.1132
 2268SOL    HW2 7704   0.765   2.366   5.459  0.9240  0.5830  1.8433
 2269SOL     OW 7705   5.286   3.851   4.405  0.3584  0.0325  0.3722
 2269SOL    HW1 7706   5.226   3.892   4.473 -1.1777  0.1574 -1.0052
 2269SOL    HW2 7707   5.381   3.875   4.426 -0.2077  1.3910  1.5365
 2270SOL     OW 7708   6.878   5.392   2.210 -0.4628  0.2683 -0.0886
 2270SOL    HW1 7709   6.862   5.411   2.307 -1.5375 -0.2743 -0.1436
 2270SOL    HW2 7710   6.792   5.361   2.168  0.7640 -3.3089 -0.3107
 2271SOL     OW 7711   4.962   6.785   0.772 -0.1772 -0.1201 -0.0317
 2271SOL    HW1 7712   5.047   6.747   0.735 -0.4820 -0.1702 -0.6942
 2271SOL    HW2 7713   4.983   6.866   0.827  0.3596 -0.5167  0.3582
 2272SOL     OW 7714   5.675   4.189   4.216  0.1650 -0.0138 -0.0229
 2272SOL    HW1 7715   5.763   4.236   4.210  0.5368 -0.4581  1.4700
 2272SOL    HW2 7716   5.666   4.125   4.140  1.0420  0.1778 -0.3038
 2273SOL     OW 7717   4.422   1.813   3.792 -0.4651 -0.1819 -0.2923
 2273SOL    HW1 7718   4.406   1.897   3.843  0.5620  0.1995 -0.5729
 2273SOL    HW2 7719   4.491   1.829   3.722  0.3653 -1.4591  0.1844
 2274SOL     OW 7720   2.540   0.800   5.955  0.1179 -0.1307  0.3356
 2274SOL    HW1 7721   2.524   0.898   5.968 -1.5217 -0.2849 -0.3551
 2274SOL    HW2 7722   2.459   0.749   5.982  0.1721 -1.1471 -1.3038
 2275SOL     OW 7723   2.709   5.256   1.980 -0.5901  0.4700  0.4130
 2275SOL    HW1 7724   2.761   5.272   1.896 -1.0918 -0.9892 -0.1988
 2275SOL    HW2 7725   2.703   5.341   2.032  1.8117  0.8670  0.1724
 2276SOL     OW 7726   4.065   5.137   3.315 -0.0998  0.4596  0.2149
 2276SOL    HW1 7727   4.152   5.159   3.270 -1.5682 -0.2534 -3.2296
 2276SOL    HW2 7728   4.000   5.212   3.301 -1.4713 -0.9711 -1.4407
 2277SOL     OW 7729   2.276   2.000   3.908 -0.4276 -0.4445 -0.1682
 2277SOL    HW1 7730   2.261   1.907   3.942  2.5176 -0.6338  0.8703
 2277SOL    HW2 7731   2.300   2.060   3.984  1.0441  0.3539 -1.2091
 2278SOL     OW 7732   2.090   0.965   3.753  0.1163 -0.3380 -0.1477
 2278SOL    HW1 7733   2.066   0.882   3.805 -3.5524  1.3501  1.2055
 2278SOL    HW2 7734   2.009   0.998   3.705  1.1701  2.9767  0.1483
 2279SOL     OW 7735   1.945   3.451   0.779 -0.1245  0.0293  0.1450
 2279SOL    HW1 7736   1.925   3.548   0.797  0.2377  0.2035 -0.3571
 2279SOL    HW2 7737   1.914   3.427   0.687 -0.1987 -0.3311  0.2635
 2280SOL     OW 7738   4.163   2.751   5.413  0.3689  0.3662 -0.6294
 2280SOL    HW1 7739   4.144   2.695   5.332 -2.0120  1.9318 -1.2773
 2280SOL    HW2 7740   4.158   2.694   5.495  2.1297 -1.1107 -1.4727
 2281SOL     OW 7741   1.011   5.362   0.407  0.2291  0.1204 -0.1839
 2281SOL    HW1 7742   1.025   5.264   0.423 -0.4322  0.3455  2.1946
 2281SOL    HW2 7743   1.089   5.414   0.442 -0.1230  0.5195  0.0255
 2282SOL     OW 7744   6.867   6.532   3.449  0.0449  0.0362 -0.3168
 2282SOL    HW1 7745   6.931   6.608   3.458  0.5974 -0.2313 -1.6892
 2282SOL    HW2 7746   6.888   6.481   3.365 -0.6294 -1.3263  0.3150
 2283SOL     OW 7747   6.467   1.912   3.758  0.1623 -0.0246 -0.5640
 2283SOL    HW1 7748   6.398   1.911   3.831 -0.0341  1.7582 -0.6778
 2283SOL    HW2 7749   6.449   1.837   3.694  1.8884 -3.3300  2.5185
 2284SOL     OW 7750   5.503   1.604   6.862 -0.2341  0.3616 -0.1901
 2284SOL    HW1 7751   5.424   1.642   6.812 -1.2477 -2.0127 -0.5447
 2284SOL    HW2 7752   5.502   1.504   6.854  0.6760 -0.0038  2.9978
 2285SOL     OW 7753   0.879   0.462   6.125  0.0069 -0.1999  0.1954
 2285SOL    HW1 7754   0.798   0.514   6.150 -0.0880 -0.8808  1.3340
 2285SOL    HW2 7755   0.947   0.469   6.198  0.6072 -0.4165 -0.3325
 2286SOL     OW 7756   2.319   6.983   5.697 -0.0844 -0.0153 -0.0898
 2286SOL    HW1 7757   2.303   7.041   5.617 -1.8361 -0.5104 -0.1398
 2286SOL    HW2 7758   2.351   6.893   5.667 -1.5912 -0.4985 -0.3381
 2287SOL     OW 7759   4.499   2.141   1.011  0.4652  0.4436 -0.1970
 2287SOL    HW1 7760   4.500   2.043   1.031  1.0853  0.3932 -0.4568
 2287SOL    HW2 7761   4.588   2.180   1.033  0.0077  1.0916  0.5600
 2288SOL     OW 7762   5.401   3.781   4.677 -0.5088  0.2986  0.1165
 2288SOL    HW1 7763   5.437   3.714   4.612  0.5431 -0.1288  1.1166
 2288SOL    HW2 7764   5.325   3.740   4.729 -1.2320  0.5838 -0.6829
 2289SOL     OW 7765   2.478   5.267   0.204  0.1043 -0.2367  0.0530
 2289SOL    HW1 7766   2.476   5.200   0.129 -1.8876 -0.8592  0.6193
 2289SOL    HW2 7767   2.503   5.221   0.289 -2.2855 -0.5447  0.6471
 2290SOL     OW 7768   4.180   6.658   3.100  0.1834  0.6172  0.3689
 2290SOL    HW1 7769   4.147   6.716   3.026  0.2208 -0.4980 -0.5594
 2290SOL    HW2 7770   4.269   6.690   3.131  0.5156  0.6736 -0.5985
 2291SOL     OW 7771   1.232   5.428   2.435 -0.6503 -0.3439 -0.1950
 2291SOL    HW1 7772   1.323   5.443   2.474 -0.7042  0.7711 -0.4681
 2291SOL    HW2 7773   1.229   5.337   2.393  0.6284 -0.0658 -0.9435
 2292SOL     OW 7774   0.403   4.663   0.651 -0.0087  0.3888 -0.1555
 2292SOL    HW1 7775   0.400   4.567   0.677  0.9511  0.3358 -0.2294
 2292SOL    HW2 7776   0.384   4.720   0.731 -1.6505  0.1407 -0.3208
 2293SOL     OW 7777   4.730   2.768   6.169 -0.5044 -0.5323 -0.0500
 2293SOL    HW1 7778   4.706   2.779   6.265  0.5575  0.5220  0.1163
 2293SOL    HW2 7779   4.721   2.672   6.143 -1.1980 -0.7621  0.9753
 2294SOL     OW 7780   1.710   6.569   4.464  0.4696 -0.1418  0.1829
 2294SOL    HW1 7781   1.702   6.633   4.540  0.4116 -0.0679  0.1141
 2294SOL    HW2 7782   1.770   6.494   4.491  1.5566  0.5798 -0.1715
 2295SOL     OW 7783   0.900   0.478   3.405  0.2762 -0.3811 -0.1147
 2295SOL    HW1 7784   0.813   0.504   3.362 -0.1525  0.3728  1.1297
 2295SOL    HW2 7785   0.976   0.512   3.350 -0.2611  2.6105  0.7958
 2296SOL     OW 7786   3.340   5.997   0.446 -0.7340 -0.6116  1.0118
 2296SOL    HW1 7787   3.350   5.941   0.363  3.3232  1.9407 -0.5101
 2296SOL    HW2 7788   3.404   5.966   0.516 -0.1972  0.5334  1.0583
 2297SOL     OW 7789   6.327   1.233   6.232  0.4252  0.2011  0.1974
 2297SOL    HW1 7790   6.409   1.201   6.184  1.5067  1.8936  0.8049
 2297SOL    HW2 7791   6.328   1.199   6.325  1.3629  1.5386  0.7180
 2298SOL     OW 7792   6.291   6.574   3.062  0.2698  0.4474 -0.3278
 2298SOL    HW1 7793   6.234   6.654   3.078  0.4703  0.4560  0.3432
 2298SOL    HW2 7794   6.371   6.576   3.122  0.4896 -0.0453 -0.5928
 2299SOL     OW 7795   5.184   5.335   4.945  0.1947 -0.1785  0.5086
 2299SOL    HW1 7796   5.172   5.330   4.846  1.4208 -0.6375  0.3536
 2299SOL    HW2 7797   5.107   5.383   4.987 -0.3420  0.0043 -0.6625
 2300SOL     OW 7798   3.093   4.044   6.477 -0.3574 -0.1057 -0.0039
 2300SOL    HW1 7799   3.181   3.996   6.474 -0.9599 -1.1808 -2.4349
 2300SOL    HW2 7800   3.108   4.141   6.459  0.4140 -0.0931  0.6309
 2301SOL     OW 7801   4.187   1.637   5.735 -0.4465 -0.0552  0.4314
 2301SOL    HW1 7802   4.182   1.574   5.813 -0.9702  0.9339  1.2278
 2301SOL    HW2 7803   4.168   1.731   5.767  0.2030  0.4947 -0.7381
 2302SOL     OW 7804   6.239   5.313   2.224 -0.1746  0.9098 -0.2347
 2302SOL    HW1 7805   6.230   5.355   2.134  0.4568  2.8357  0.5661
 2302SOL    HW2 7806   6.148   5.304   2.265 -0.2799  1.9163 -0.2348
 2303SOL     OW 7807   0.151   3.309   2.936  0.6882 -0.0047  0.2027
 2303SOL    HW1 7808   0.140   3.389   2.996  0.8969  0.2850 -0.1447
 2303SOL    HW2 7809   0.065   3.291   2.889  0.6022 -0.0671  0.3814
 2304SOL     OW 7810   5.528   2.157   5.690 -0.1893  0.3428  0.4287
 2304SOL    HW1 7811   5.611   2.149   5.745 -0.7097  1.2434  1.3819
 2304SOL    HW2 7812   5.546   2.124   5.598  1.4273  1.2355  0.3920
 2305SOL     OW 7813   2.496   2.325   3.003  0.3765 -1.2847 -0.0234
 2305SOL    HW1 7814   2.498   2.422   2.977 -0.8477 -1.7264 -1.9729
 2305SOL    HW2 7815   2.544   2.271   2.934  0.0605 -2.2022  0.4521
 2306SOL     OW 7816   0.360   0.201   3.425  0.5082 -0.3805  0.0033
 2306SOL    HW1 7817   0.332   0.202   3.329 -1.6760  0.8533  0.6066
 2306SOL    HW2 7818   0.355   0.107   3.460 -1.7406 -0.4080 -0.2751
 2307SOL     OW 7819   5.621   5.976   5.717 -0.0310 -0.1223  0.3192
 2307SOL    HW1 7820   5.528   5.989   5.751  0.3990 -0.9448  1.8949
 2307SOL    HW2 7821   5.630   5.883   5.681  0.5064 -0.4704  1.3239
 2308SOL     OW 7822   3.271   6.072   0.140 -0.0510  0.1104 -0.2484
 2308SOL    HW1 7823   3.275   5.976   0.165 -1.3474  0.1142  0.0457
 2308SOL    HW2 7824   3.195   6.116   0.188  0.9693  1.4654  0.1998
 2309SOL     OW 7825   1.649   0.276   1.427 -0.0424 -0.1030  0.2323
 2309SOL    HW1 7826   1.567   0.326   1.456 -0.3188  0.0620 -0.7900
 2309SOL    HW2 7827   1.650   0.270   1.327  2.3012  1.7810  0.0625
 2310SOL     OW 7828   1.663   6.740   1.015 -0.0078  0.6193 -0.0549
 2310SOL    HW1 7829   1.742   6.784   0.971  0.3135 -0.5002 -0.6347
 2310SOL    HW2 7830   1.695   6.669   1.077 -0.5594 -0.0485 -0.5233
 2311SOL     OW 7831   4.625   0.885   0.873  0.7125  0.6030 -0.1618
 2311SOL    HW1 7832   4.565   0.893   0.794  0.9276 -0.5304 -0.4590
 2311SOL    HW2 7833   4.696   0.955   0.868  1.1961  0.0673 -1.4135
 2312SOL     OW 7834   4.176   6.517   0.054  0.1729  0.7574  0.0770
 2312SOL    HW1 7835   4.247   6.501  -0.014  0.2248  1.4765 -0.0455
 2312SOL    HW2 7836   4.189   6.455   0.131  3.3728  3.3851  1.9192
 2313SOL     OW 7837   2.938   0.097   0.223  0.0991 -0.3778 -0.1119
 2313SOL    HW1 7838   2.855   0.041   0.221 -1.2996  1.6014 -0.7114
 2313SOL    HW2 7839   3.015   0.042   0.253 -1.7113 -1.9385  1.9525
 2314SOL     OW 7840   5.985   5.007   5.973  0.4841 -0.1818  0.1047
 2314SOL    HW1 7841   5.970   5.103   5.993 -1.1054 -0.9282  2.9687
 2314SOL    HW2 7842   5.899   4.964   5.948  0.7308 -1.3386  1.1726
 2315SOL     OW 7843   4.095   3.708   6.819 -0.1840 -0.1471  0.4716
 2315SOL    HW1 7844   4.188   3.700   6.782 -0.3951 -0.1437 -0.0736
 2315SOL    HW2 7845   4.074   3.804   6.834  0.1324 -0.1896  1.2083
 2316SOL     OW 7846   5.822   2.729   6.808 -0.1290 -0.0191 -0.5764
 2316SOL    HW1 7847   5.805   2.780   6.893  1.2808 -0.9236  0.2884
 2316SOL    HW2 7848   5.848   2.794   6.736 -1.0049  0.7317 -0.2392
 2317SOL     OW 7849   0.401   5.117   3.691 -0.5572  0.0020 -0.0407
 2317SOL    HW1 7850   0.414   5.171   3.608  0.7227 -0.3609 -0.0897
 2317SOL    HW2 7851   0.407   5.177   3.771  1.3391 -0.0907 -0.0692
 2318SOL     OW 7852   0.421   0.963   5.401  1.0123 -0.1228 -0.0876
 2318SOL    HW1 7853   0.453   0.869   5.410 -1.2519 -0.8759  0.7996
 2318SOL    HW2 7854   0.392   0.997   5.491 -1.0695  0.2868 -0.8695
 2319SOL     OW 7855   6.923   3.441   4.115 -0.2486  0.2235  0.1685
 2319SOL    HW1 7856   6.971   3.369   4.065  0.6281  0.9106 -0.0162
 2319SOL    HW2 7857   6.975   3.467   4.196 -0.7349  0.4056  0.4305
 2320SOL     OW 7858   1.163   5.383   6.746 -0.2413 -0.4159 -0.1867
 2320SOL    HW1 7859   1.085   5.328   6.716  0.2555 -2.9050  2.6129
 2320SOL    HW2 7860   1.135   5.442   6.823  0.1606  0.3739 -0.6294
 2321SOL     OW 7861   0.477   3.987   0.911 -0.0608  0.8816 -0.2968
 2321SOL    HW1 7862   0.419   3.906   0.900  2.1241 -0.6695 -0.9646
 2321SOL    HW2 7863   0.525   3.982   0.998  0.2986  1.3205 -0.4647
 2322SOL     OW 7864   1.830   0.621   4.467 -0.3186 -0.4407  0.0294
 2322SOL    HW1 7865   1.780   0.678   4.532 -0.3959 -0.9415  0.4100
 2322SOL    HW2 7866   1.920   0.661   4.450 -0.5575  0.0579 -0.0835
 2323SOL     OW 7867   3.631   6.428   3.960  0.4799  0.3362  0.4115
 2323SOL    HW1 7868   3.714   6.437   3.904  0.2977 -0.1822  0.0490
 2323SOL    HW2 7869   3.620   6.510   4.016  0.0874  1.3635 -1.1084
 2324SOL     OW 7870   1.091   4.794   1.182  0.1927 -0.3336  0.0619
 2324SOL    HW1 7871   1.134   4.781   1.093  0.1224 -1.8507  0.2241
 2324SOL    HW2 7872   0.992   4.777   1.174  0.2486 -0.8670  0.5166
 2325SOL     OW 7873   5.918   5.283   5.782  0.1578  0.2718 -0.2161
 2325SOL    HW1 7874   5.999   5.326   5.743  0.6856 -1.5054 -1.1918
 2325SOL    HW2 7875   5.929   5.273   5.881  1.1355  0.0755 -0.3347
 2326SOL     OW 7876   5.238   4.353   0.424  0.4285 -0.1909  0.1198
 2326SOL    HW1 7877   5.228   4.278   0.489  1.9416  0.5709  1.2968
 2326SOL    HW2 7878   5.153   4.365   0.373 -0.5211 -1.3445  1.3692
 2327SOL     OW 7879   1.833   0.950   1.227  0.0848 -0.0994 -0.3782
 2327SOL    HW1 7880   1.739   0.942   1.194 -0.0362  1.2181 -0.4178
 2327SOL    HW2 7881   1.866   1.043   1.210  0.7960 -0.0365  1.1588
 2328SOL     OW 7882   6.144   0.027   5.947 -0.0095 -0.2513 -0.2846
 2328SOL    HW1 7883   6.063   0.086   5.942  0.6352  0.9339  1.8385
 2328SOL    HW2 7884   6.118  -0.062   5.984 -0.7379 -0.8241 -2.0821
 2329SOL     OW 7885   5.898   3.777   1.022 -0.6960 -0.3638  0.1296
 2329SOL    HW1 7886   5.918   3.696   1.077  1.2632 -0.4962 -0.6996
 2329SOL    HW2 7887   5.933   3.858   1.068  0.4413 -0.4095 -0.6208
 2330SOL     OW 7888   6.992   2.773   3.975  0.2798  0.0516  0.5424
 2330SOL    HW1 7889   6.902   2.807   3.947  0.8828  0.9520 -0.3593
 2330SOL    HW2 7890   7.024   2.705   3.910 -0.0153 -0.7556  1.2204
 2331SOL     OW 7891   0.352   4.668   6.909  0.4110  0.4075 -0.0292
 2331SOL    HW1 7892   0.378   4.577   6.941  0.1411  0.1423 -0.5430
 2331SOL    HW2 7893   0.335   4.665   6.811  2.4903  1.4874 -0.4707
 2332SOL     OW 7894   1.457   3.038   0.728 -0.2681  0.1047 -0.0731
 2332SOL    HW1 7895   1.466   2.942   0.701 -0.8197 -0.0702  0.3379
 2332SOL    HW2 7896   1.540   3.088   0.702  0.5333 -0.7452  0.7806
 2333SOL     OW 7897   0.588   4.012   2.675 -0.1853  0.1052  0.5275
 2333SOL    HW1 7898   0.639   3.951   2.614 -1.6615 -0.5397 -0.1217
 2333SOL    HW2 7899   0.637   4.021   2.762  1.9083  0.9533 -0.6692
 2334SOL     OW 7900   2.505   4.926   2.455  0.6292  0.4782 -0.5391
 2334SOL    HW1 7901   2.519   4.951   2.359 -0.1365  1.6306 -0.3674
 2334SOL    HW2 7902   2.413   4.888   2.467  0.6557  0.5072 -0.2305
 2335SOL     OW 7903   2.771   5.738   3.846 -0.1155  0.2124 -0.2495
 2335SOL    HW1 7904   2.804   5.818   3.796  1.6351  0.7702  1.6629
 2335SOL    HW2 7905   2.829   5.659   3.825  0.1757  0.2700  0.3225
 2336SOL     OW 7906   0.827   5.049   4.858  0.1443 -0.1303  0.6092
 2336SOL    HW1 7907   0.758   5.097   4.804 -1.3911 -3.1187 -0.3060
 2336SOL    HW2 7908   0.917   5.065   4.817 -0.8514 -1.5252 -2.4129
 2337SOL     OW 7909   5.913   3.555   4.332  0.3764 -0.6570 -0.0538
 2337SOL    HW1 7910   5.960   3.524   4.249 -1.3024 -3.8017  0.0101
 2337SOL    HW2 7911   5.924   3.486   4.404 -0.3745  0.7864  1.4885
 2338SOL     OW 7912   3.030   0.271   5.476 -0.2089 -0.1649  0.3056
 2338SOL    HW1 7913   3.034   0.362   5.518 -1.0856 -0.8803  2.0764
 2338SOL    HW2 7914   2.962   0.216   5.524  0.4342 -1.8190 -0.6049
 2339SOL     OW 7915   3.808   3.826   3.297 -0.0062 -0.4254 -0.2737
 2339SOL    HW1 7916   3.798   3.923   3.276  2.9436  0.0851  0.2088
 2339SOL    HW2 7917   3.809   3.813   3.396  0.1118 -0.8700 -0.3299
 2340SOL     OW 7918   0.534   5.186   6.694  0.6538  0.0091  0.4102
 2340SOL    HW1 7919   0.616   5.244   6.697  0.9500 -0.4146  0.6460
 2340SOL    HW2 7920   0.562   5.090   6.693  0.2181 -0.1346 -1.6247
 2341SOL     OW 7921   4.025   0.447   1.140  0.7092  0.3354 -0.0734
 2341SOL    HW1 7922   3.965   0.520   1.170 -0.7363 -0.7290 -0.2616
 2341SOL    HW2 7923   4.081   0.415   1.216 -2.0489 -1.5290  1.3509
 2342SOL     OW 7924   5.961   1.492   5.381  0.0857 -0.1508  0.2220
 2342SOL    HW1 7925   6.003   1.485   5.471  1.7022  0.8777 -0.4002
 2342SOL    HW2 7926   5.944   1.588   5.359  0.6802 -0.2921 -0.9633
 2343SOL     OW 7927   1.866   3.654   2.286  0.2651 -0.3516  0.4258
 2343SOL    HW1 7928   1.929   3.611   2.221 -1.6413 -1.9276 -0.5087
 2343SOL    HW2 7929   1.873   3.609   2.375  1.0232  0.0520  0.5790
 2344SOL     OW 7930   1.751   5.941   5.804 -0.2806 -0.0938  0.5005
 2344SOL    HW1 7931   1.828   5.949   5.868 -0.3177  0.6575  0.4515
 2344SOL    HW2 7932   1.672   5.903   5.851 -0.5973  1.3241  1.1496
 2345SOL     OW 7933   3.555   0.500   6.676 -0.0412  0.2769  0.1475
 2345SOL    HW1 7934   3.513   0.586   6.706 -0.8487  0.4860 -1.4669
 2345SOL    HW2 7935   3.651   0.517   6.653 -0.6582  1.2457 -1.9707
 2346SOL     OW 7936   4.742   1.388   5.810  0.7622 -0.2340 -0.2908
 2346SOL    HW1 7937   4.691   1.473   5.823  1.2053 -0.0582  0.3578
 2346SOL    HW2 7938   4.820   1.406   5.750  0.3883 -0.3748 -0.8250
 2347SOL     OW 7939   2.141   5.963   5.575  0.2576 -0.4666  0.0600
 2347SOL    HW1 7940   2.118   6.044   5.521  2.5271 -0.2469 -0.6700
 2347SOL    HW2 7941   2.141   5.882   5.516 -0.1443 -0.7134  0.3882
 2348SOL     OW 7942   2.563   5.950   5.191  0.6596  0.6620  0.0251
 2348SOL    HW1 7943   2.513   5.990   5.114  1.0310 -0.8579 -1.0557
 2348SOL    HW2 7944   2.523   5.861   5.214  0.3102  1.2490  1.8748
 2349SOL     OW 7945   6.302   4.102   1.821 -0.5117 -0.7587  0.2460
 2349SOL    HW1 7946   6.250   4.024   1.854 -0.8709 -0.8142 -0.4336
 2349SOL    HW2 7947   6.340   4.153   1.898 -1.6142 -0.6862  0.7466
 2350SOL     OW 7948   5.508   5.307   0.312 -0.3050  0.0694  0.7315
 2350SOL    HW1 7949   5.579   5.306   0.241 -0.3441 -0.5050  0.7004
 2350SOL    HW2 7950   5.429   5.359   0.280 -0.5041 -0.5644  0.1757
 2351SOL     OW 7951   2.532   0.285   4.206  0.0923  0.1594  0.4265
 2351SOL    HW1 7952   2.585   0.328   4.134 -0.4637 -0.6117 -0.4711
 2351SOL    HW2 7953   2.447   0.336   4.219  0.7045  0.9709  1.3589
 2352SOL     OW 7954   5.804   6.077   0.773 -0.0888 -0.0906 -0.1584
 2352SOL    HW1 7955   5.820   6.104   0.868  2.7614  0.9616 -0.8166
 2352SOL    HW2 7956   5.710   6.045   0.762 -1.4837  2.7212  2.3254
 2353SOL     OW 7957   5.379   4.397   0.746  0.5272  0.8980 -0.2279
 2353SOL    HW1 7958   5.436   4.430   0.671  2.6806 -2.2440 -0.1907
 2353SOL    HW2 7959   5.333   4.313   0.718  2.3245 -1.0530  2.1759
 2354SOL     OW 7960   6.150   4.227   3.342 -0.2032  0.3199 -0.2871
 2354SOL    HW1 7961   6.194   4.148   3.385 -0.7783  0.1642  0.0297
 2354SOL    HW2 7962   6.128   4.294   3.413  1.2023  1.2325 -0.6746
 2355SOL     OW 7963   1.035   0.229   6.664 -0.0738 -0.3625 -0.0027
 2355SOL    HW1 7964   0.966   0.258   6.729  1.3882  0.4214  1.2850
 2355SOL    HW2 7965   1.125   0.259   6.696  0.8486 -1.1498 -1.7144
 2356SOL     OW 7966   5.451   4.503   6.180  0.0838  0.2181 -0.1337
 2356SOL    HW1 7967   5.375   4.439   6.171  0.2445 -0.1444  0.9582
 2356SOL    HW2 7968   5.464   4.551   6.093 -2.5022  1.5366  0.0810
 2357SOL     OW 7969   5.837   5.500   3.283  0.4483  0.1982  0.6535
 2357SOL    HW1 7970   5.878   5.571   3.340  1.4954 -0.8755  1.2952
 2357SOL    HW2 7971   5.757   5.463   3.328  1.0780 -0.4118  1.2950
 2358SOL     OW 7972   6.782   4.522   4.254  0.0614  0.7298 -0.0908
 2358SOL    HW1 7973   6.766   4.506   4.157 -0.8928  0.7187  0.0528
 2358SOL    HW2 7974   6.711   4.475   4.307 -0.7599  2.5224  0.4962
 2359SOL     OW 7975   6.302   1.995   2.547 -0.3543  0.0750  0.1153
 2359SOL    HW1 7976   6.381   1.949   2.588 -0.7308  0.4969  1.3559
 2359SOL    HW2 7977   6.308   1.988   2.447  0.9467 -0.3937  0.2024
 2360SOL     OW 7978   6.120   6.487   1.697 -0.4225  1.0646  0.0670
 2360SOL    HW1 7979   6.144   6.533   1.782 -0.1074  1.2359 -0.1125
 2360SOL    HW2 7980   6.201   6.478   1.640  0.3469 -2.6931  1.4707
 2361SOL     OW 7981   6.885   3.587   5.269  0.2968  0.3533 -0.0589
 2361SOL    HW1 7982   6.962   3.526   5.288  0.2538  0.2954 -0.0702
 2361SOL    HW2 7983   6.883   3.660   5.338  0.3904  0.3838 -0.0879
 2362SOL     OW 7984   5.884   0.214   4.490 -0.2795 -0.6172  0.4580
 2362SOL    HW1 7985   5.861   0.125   4.529 -0.9275  0.1652  1.9077
 2362SOL    HW2 7986   5.801   0.267   4.477  0.1788  0.0809  0.3397
 2363SOL     OW 7987   1.978   4.644   0.226 -0.2458  0.1054 -0.5480
 2363SOL    HW1 7988   2.021   4.684   0.307  0.4733 -0.3289 -0.7064
 2363SOL    HW2 7989   1.980   4.710   0.151 -0.0474  0.1618 -0.4918
 2364SOL     OW 7990   0.486   6.552   6.428 -0.6090  0.1022  0.3163
 2364SOL    HW1 7991   0.500   6.525   6.523 -1.1374 -0.0200  0.3640
 2364SOL    HW2 7992   0.463   6.471   6.374  0.1745  0.0951 -0.0120
 2365SOL     OW 7993   1.710   2.772   0.579 -0.7595 -0.9300 -0.0250
 2365SOL    HW1 7994   1.769   2.782   0.659 -0.0837 -1.4208 -0.4472
 2365SOL    HW2 7995   1.614   2.766   0.609 -1.1076  3.5599  0.4977
 2366SOL     OW 7996   4.941   2.291   0.029  0.1679  0.5558  0.3296
 2366SOL    HW1 7997   4.860   2.344   0.055 -0.6058 -0.2800 -0.2764
 2366SOL    HW2 7998   4.932   2.262  -0.067  0.5328 -0.6911  0.6537
 2367SOL     OW 7999   0.237   3.330   3.759  0.1729 -0.1665  0.1233
 2367SOL    HW1 8000   0.205   3.424   3.746  0.1364  0.4882  3.7410
 2367SOL    HW2 8001   0.335   3.330   3.775  0.0855 -0.6451  0.6889
 2368SOL     OW 8002   1.206   3.307   6.354 -0.3494  0.0026  0.2342
 2368SOL    HW1 8003   1.224   3.318   6.452  2.7761  1.8386 -0.3832
 2368SOL    HW2 8004   1.224   3.213   6.327 -0.3103 -0.2989  1.2874
 2369SOL     OW 8005   0.047   0.508   2.799 -0.1930 -0.1025 -0.8583
 2369SOL    HW1 8006   0.021   0.463   2.884  1.5457  0.2206 -0.1066
 2369SOL    HW2 8007   0.123   0.458   2.758 -0.9883 -0.2297 -2.2353
 2370SOL     OW 8008   1.939   4.839   0.046 -0.0356  0.5280  0.0236
 2370SOL    HW1 8009   1.874   4.913   0.025  0.8013  1.7815  1.6702
 2370SOL    HW2 8010   2.022   4.852  -0.008  0.6116  1.5584  1.2244
 2371SOL     OW 8011   6.120   6.523   4.092 -0.2412  0.2525 -0.5720
 2371SOL    HW1 8012   6.179   6.460   4.144  0.7595  0.9303 -0.8487
 2371SOL    HW2 8013   6.166   6.548   4.006 -1.3760  0.0349 -1.2570
 2372SOL     OW 8014   4.547   2.610   4.830  0.5295 -0.3062  0.2460
 2372SOL    HW1 8015   4.510   2.593   4.921  1.1440 -1.7300  0.2599
 2372SOL    HW2 8016   4.497   2.555   4.763 -1.3674  2.3245 -0.6616
 2373SOL     OW 8017   1.018   4.155   3.553 -0.1747  0.3094 -0.2916
 2373SOL    HW1 8018   0.922   4.147   3.580  0.2048  0.9311  1.3471
 2373SOL    HW2 8019   1.046   4.072   3.505 -1.1983 -0.4181  0.3214
 2374SOL     OW 8020   1.218   4.969   6.279  0.9445  0.1960  0.0099
 2374SOL    HW1 8021   1.174   4.939   6.364  0.3409  1.0379 -0.0042
 2374SOL    HW2 8022   1.155   4.957   6.203  1.4424 -0.4360 -0.3154
 2375SOL     OW 8023   0.784   5.985   0.124 -0.0889  0.6700 -0.2025
 2375SOL    HW1 8024   0.702   6.027   0.162 -0.2412  1.0164 -0.8984
 2375SOL    HW2 8025   0.758   5.909   0.064  0.0968  0.7353 -0.3696
 2376SOL     OW 8026   5.862   2.315   4.163  0.5583  0.2367 -0.0529
 2376SOL    HW1 8027   5.947   2.325   4.112  0.3064  0.8304 -0.3668
 2376SOL    HW2 8028   5.866   2.371   4.246  0.6198 -0.0299  0.1252
 2377SOL     OW 8029   5.561   0.791   3.988 -0.2801 -0.4085  0.4723
 2377SOL    HW1 8030   5.549   0.755   4.080 -2.1767 -1.8597 -0.2764
 2377SOL    HW2 8031   5.474   0.825   3.953  0.1902 -0.7425 -1.1118
 2378SOL     OW 8032   4.304   6.029   2.777 -0.1156  0.4338 -0.3746
 2378SOL    HW1 8033   4.371   6.095   2.743  1.4632 -1.1241 -0.4750
 2378SOL    HW2 8034   4.352   5.953   2.821 -1.9488  0.3703  1.6749
 2379SOL     OW 8035   5.780   2.806   3.518  0.1699 -0.2873  0.5742
 2379SOL    HW1 8036   5.835   2.763   3.589 -0.1570 -0.2250  0.8686
 2379SOL    HW2 8037   5.711   2.742   3.485 -0.5666  0.1269  1.2846
 2380SOL     OW 8038   1.863   4.081   4.285  0.1057 -0.6932  0.1493
 2380SOL    HW1 8039   1.763   4.093   4.285  0.2495  0.9619  1.4849
 2380SOL    HW2 8040   1.902   4.128   4.205 -0.2484 -2.7595 -1.3320
 2381SOL     OW 8041   6.846   3.813   5.438 -0.0600 -0.0544  0.4031
 2381SOL    HW1 8042   6.833   3.852   5.529  0.1628  1.8345 -0.3207
 2381SOL    HW2 8043   6.809   3.876   5.370  3.6527  0.8071 -1.0854
 2382SOL     OW 8044   4.595   0.310   1.665  0.0697  0.1295  0.4425
 2382SOL    HW1 8045   4.644   0.373   1.604 -0.5392  1.0117  0.8487
 2382SOL    HW2 8046   4.522   0.264   1.615 -0.7975  1.2769  0.6166
 2383SOL     OW 8047   6.662   5.476   4.860 -0.0731 -0.8748  0.7462
 2383SOL    HW1 8048   6.635   5.494   4.954  1.9084  2.0546  0.8713
 2383SOL    HW2 8049   6.681   5.378   4.848  0.2030 -1.2142  3.4954
 2384SOL     OW 8050   3.788   6.214   6.714 -0.0051  0.0796  0.8588
 2384SOL    HW1 8051   3.794   6.115   6.725  0.7380  0.1438  1.0873
 2384SOL    HW2 8052   3.693   6.240   6.696 -0.0934 -0.7513  0.0181
 2385SOL     OW 8053   6.416   1.739   6.528  0.2280 -0.2803  0.8735
 2385SOL    HW1 8054   6.416   1.662   6.464 -0.8340 -2.1286  2.9619
 2385SOL    HW2 8055   6.327   1.784   6.524  0.6624  0.5309  0.0464
 2386SOL     OW 8056   0.563   4.684   1.263  0.2081 -0.3196 -0.2031
 2386SOL    HW1 8057   0.553   4.732   1.176  0.3828 -1.4735 -0.8808
 2386SOL    HW2 8058   0.500   4.606   1.266 -0.1721  0.0209  0.9317
 2387SOL     OW 8059   4.478   0.318   1.917 -0.7033  0.1893  0.4228
 2387SOL    HW1 8060   4.402   0.254   1.920 -2.7455  2.4433 -0.4479
 2387SOL    HW2 8061   4.511   0.328   1.823 -1.3861  1.4624  0.2988
 2388SOL     OW 8062   6.807   6.194   0.327  0.7853  0.1796 -0.2572
 2388SOL    HW1 8063   6.807   6.206   0.426  0.0999 -1.8443  0.0319
 2388SOL    HW2 8064   6.730   6.243   0.287  1.9694  2.3572 -0.0406
 2389SOL     OW 8065   4.293   4.934   1.612  0.4256 -0.3377  0.0139
 2389SOL    HW1 8066   4.304   4.849   1.561 -0.4623  0.2807 -1.2404
 2389SOL    HW2 8067   4.221   4.923   1.681  0.4591 -0.6571 -0.0018
 2390SOL     OW 8068   2.866   3.362   3.805 -0.1822 -0.2329 -1.0632
 2390SOL    HW1 8069   2.771   3.333   3.797 -0.7053  1.2354 -0.4494
 2390SOL    HW2 8070   2.877   3.452   3.763  1.1933 -0.8453 -2.1106
 2391SOL     OW 8071   5.579   3.862   1.905  0.7404 -0.0255  0.3513
 2391SOL    HW1 8072   5.647   3.809   1.855  1.1790  0.4929  0.3876
 2391SOL    HW2 8073   5.522   3.912   1.841 -1.3015 -2.3944  0.1534
 2392SOL     OW 8074   6.478   6.814   6.243 -0.0005 -0.2309 -0.2391
 2392SOL    HW1 8075   6.529   6.728   6.248  2.8603  1.3863  0.5543
 2392SOL    HW2 8076   6.433   6.820   6.154  0.8290 -1.9650 -0.8253
 2393SOL     OW 8077   5.211   4.480   4.923 -0.0391  0.1570 -0.3387
 2393SOL    HW1 8078   5.190   4.566   4.971  0.3395  0.8239 -1.3424
 2393SOL    HW2 8079   5.308   4.477   4.900 -0.2240 -0.1266 -1.1045
 2394SOL     OW 8080   6.140   4.426   6.728  0.2906 -0.5633  0.2907
 2394SOL    HW1 8081   6.181   4.515   6.749  2.1086 -1.4950  0.8887
 2394SOL    HW2 8082   6.120   4.378   6.814  0.0026 -1.0488 -0.0431
 2395SOL     OW 8083   3.536   0.119   0.073 -0.3288 -0.1156 -0.1659
 2395SOL    HW1 8084   3.614   0.182   0.079 -0.4267  0.1004 -1.0009
 2395SOL    HW2 8085   3.518   0.098  -0.023 -0.8395 -0.7499  0.0627
 2396SOL     OW 8086   5.080   6.053   6.564  0.0745 -0.6386 -0.8852
 2396SOL    HW1 8087   5.125   5.999   6.493 -0.9746 -0.1854 -1.9376
 2396SOL    HW2 8088   5.058   6.144   6.528  0.7591  0.1019  0.4810
 2397SOL     OW 8089   3.910   6.343   2.266 -0.5903 -0.0067  0.3961
 2397SOL    HW1 8090   3.855   6.374   2.344 -1.7329  0.8292 -0.7150
 2397SOL    HW2 8091   3.906   6.411   2.193 -0.0436 -1.0747 -0.6562
 2398SOL     OW 8092   2.098   6.109   6.335 -0.2427 -1.0878 -0.3020
 2398SOL    HW1 8093   2.087   6.188   6.395 -1.6943  0.1744 -2.1082
 2398SOL    HW2 8094   2.023   6.045   6.350 -0.8947 -0.5258 -1.0747
 2399SOL     OW 8095   0.361   1.357   3.180  0.0812  0.1135 -0.1455
 2399SOL    HW1 8096   0.412   1.392   3.101  2.9819  0.3192  1.6497
 2399SOL    HW2 8097   0.375   1.258   3.187  0.2886  0.1778  0.3814
 2400SOL     OW 8098   4.238   3.770   1.442  0.1749 -0.2829 -0.4280
 2400SOL    HW1 8099   4.173   3.774   1.517  1.1759 -1.6535  0.5568
 2400SOL    HW2 8100   4.330   3.755   1.478  1.0416  1.2932 -1.7982
 2401SOL     OW 8101   4.224   1.973   1.713  0.0436  0.1503  0.0268
 2401SOL    HW1 8102   4.143   1.958   1.770  0.2284 -0.5144  0.1189
 2401SOL    HW2 8103   4.202   1.950   1.618  0.0575  0.2041  0.0102
 2402SOL     OW 8104   3.721   2.109   2.681 -0.4336  0.5014 -0.2174
 2402SOL    HW1 8105   3.624   2.112   2.706 -0.8175 -1.4301 -1.2411
 2402SOL    HW2 8106   3.730   2.090   2.584  1.0122  2.3231 -0.4946
 2403SOL     OW 8107   5.745   3.640   6.847  0.5868  0.2056  0.2964
 2403SOL    HW1 8108   5.768   3.580   6.924  1.8216 -0.3303 -0.4510
 2403SOL    HW2 8109   5.795   3.726   6.854 -1.1877  1.2177  1.3693
 2404SOL     OW 8110   5.856   1.751   5.205 -0.2510  0.6146  0.1703
 2404SOL    HW1 8111   5.764   1.724   5.176 -1.1857  1.4449  2.1771
 2404SOL    HW2 8112   5.883   1.835   5.156  0.1073 -0.4410 -1.5171
 2405SOL     OW 8113   4.957   0.218   3.201  0.5938  0.1318  0.0670
 2405SOL    HW1 8114   4.860   0.231   3.184  0.4980 -0.8290 -0.1961
 2405SOL    HW2 8115   4.987   0.282   3.272 -0.5539 -0.5277  1.1941
 2406SOL     OW 8116   4.554   6.164   2.694  0.3000  0.0324  0.0939
 2406SOL    HW1 8117   4.568   6.158   2.595  1.1221 -0.8897  0.2566
 2406SOL    HW2 8118   4.554   6.260   2.721  0.6132  0.2745 -0.7226
 2407SOL     OW 8119   1.440   0.573   2.637 -0.4353  0.0270 -0.5777
 2407SOL    HW1 8120   1.425   0.589   2.539 -0.7578  0.3062 -0.4848
 2407SOL    HW2 8121   1.532   0.536   2.651 -1.0581 -1.9140 -1.1833
 2408SOL     OW 8122   2.285   0.282   3.328 -0.3160  0.1737 -0.0721
 2408SOL    HW1 8123   2.191   0.283   3.293 -0.1932 -2.2794 -0.6306
 2408SOL    HW2 8124   2.291   0.339   3.410 -1.9666  1.3898 -0.7470
 2409SOL     OW 8125   2.118   0.756   1.036 -0.2133 -0.4280 -0.1698
 2409SOL    HW1 8126   2.189   0.776   1.104  0.4135  0.4143 -1.0447
 2409SOL    HW2 8127   2.086   0.841   0.995 -1.9112 -0.7856  0.3602
 2410SOL     OW 8128   3.466   0.240   0.882 -0.2488 -0.6718 -0.0258
 2410SOL    HW1 8129   3.499   0.317   0.826 -0.4276  0.5825  1.5308
 2410SOL    HW2 8130   3.379   0.207   0.845 -0.0396 -0.3072 -0.8682
 2411SOL     OW 8131   2.049   5.369   3.769  0.2250 -0.0037  0.2678
 2411SOL    HW1 8132   1.987   5.381   3.847 -1.3885 -1.6869 -0.6837
 2411SOL    HW2 8133   1.996   5.365   3.685  1.7163 -0.7541 -0.6714
 2412SOL     OW 8134   6.454   0.828   2.416  0.4500  0.5743  0.3378
 2412SOL    HW1 8135   6.473   0.765   2.340 -1.6478  1.4441 -1.0203
 2412SOL    HW2 8136   6.494   0.793   2.500 -0.3425 -2.4302 -0.4169
 2413SOL     OW 8137   6.032   5.998   0.339 -0.1907  0.2811  0.1048
 2413SOL    HW1 8138   6.109   6.061   0.351 -0.1357  0.1698  0.3354
 2413SOL    HW2 8139   6.010   5.955   0.426 -0.1958 -0.0590 -0.0650
 2414SOL     OW 8140   6.059   5.874   3.662 -0.0115 -0.3346  0.7622
 2414SOL    HW1 8141   6.148   5.835   3.683  0.6193 -1.1573 -2.8363
 2414SOL    HW2 8142   5.991   5.801   3.658 -0.5122  0.0590  1.6654
 2415SOL     OW 8143   3.428   1.204   1.740 -0.1393 -0.1461  0.0566
 2415SOL    HW1 8144   3.515   1.204   1.690 -0.5856 -0.4188 -0.7416
 2415SOL    HW2 8145   3.409   1.297   1.772 -0.7186  0.4567 -1.8945
 2416SOL     OW 8146   2.663   2.370   5.814  0.1075 -0.0349 -0.4158
 2416SOL    HW1 8147   2.759   2.352   5.793  1.2553  1.3306  2.8932
 2416SOL    HW2 8148   2.644   2.468   5.804 -0.8543 -0.2452 -0.7563
 2417SOL     OW 8149   5.931   3.751   0.470  0.2179 -0.5226  0.3754
 2417SOL    HW1 8150   6.016   3.751   0.417  0.1372 -0.8469  0.2445
 2417SOL    HW2 8151   5.864   3.692   0.425  0.1290 -0.7547  0.8115
 2418SOL     OW 8152   2.520   2.547   5.081 -0.7222 -0.2966  0.0242
 2418SOL    HW1 8153   2.572   2.504   5.155 -0.0988  1.0326  0.3894
 2418SOL    HW2 8154   2.560   2.522   4.993  0.0877  0.1070  0.2673
 2419SOL     OW 8155   2.585   5.596   0.900 -0.5737  0.0632 -0.7855
 2419SOL    HW1 8156   2.586   5.501   0.931 -2.1841 -0.4809 -2.2582
 2419SOL    HW2 8157   2.679   5.628   0.888  0.0656 -0.5725  1.8179
 2420SOL     OW 8158   2.710   0.988   2.000 -0.6594 -0.4053  0.1609
 2420SOL    HW1 8159   2.707   0.909   1.938 -0.8126  1.3487 -2.2135
 2420SOL    HW2 8160   2.798   0.989   2.047 -0.7690 -2.1325  0.4770
 2421SOL     OW 8161   6.518   2.793   4.191 -0.2533  0.9078  0.0713
 2421SOL    HW1 8162   6.524   2.693   4.198 -2.1943  0.8895  2.9303
 2421SOL    HW2 8163   6.480   2.817   4.101 -0.8347 -0.9806 -0.2362
 2422SOL     OW 8164   5.494   1.096   0.080  0.1011 -0.8533  0.1850
 2422SOL    HW1 8165   5.593   1.108   0.077  0.3652 -0.6268  4.4220
 2422SOL    HW2 8166   5.469   1.015   0.026  2.5405 -0.9160 -0.9847
 2423SOL     OW 8167   2.628   2.232   2.403 -0.4517 -0.5238 -0.5643
 2423SOL    HW1 8168   2.585   2.318   2.377 -1.7414 -0.6525  1.0401
 2423SOL    HW2 8169   2.589   2.158   2.348 -0.2854 -0.2771 -1.0244
 2424SOL     OW 8170   2.398   3.453   5.779 -0.4443 -0.1208 -0.6568
 2424SOL    HW1 8171   2.493   3.423   5.780 -0.3340  0.1484 -1.5309
 2424SOL    HW2 8172   2.363   3.460   5.872 -0.2274 -2.1296 -0.3952
 2425SOL     OW 8173   3.202   0.192   0.481  0.2787  0.1327 -0.2807
 2425SOL    HW1 8174   3.216   0.094   0.498  0.1638  0.3188  1.0211
 2425SOL    HW2 8175   3.247   0.218   0.396 -1.0283 -1.3597 -1.4866
 2426SOL     OW 8176   1.346   6.746   3.750  0.2741 -0.2129 -0.0840
 2426SOL    HW1 8177   1.427   6.691   3.729  0.4476  0.1765 -0.4500
 2426SOL    HW2 8178   1.264   6.696   3.724  0.3796 -0.7251  0.5430
 2427SOL     OW 8179   6.441   1.082   2.298  0.0990 -0.3869 -0.3035
 2427SOL    HW1 8180   6.437   0.995   2.347  0.4450  0.4035  1.1625
 2427SOL    HW2 8181   6.499   1.071   2.217  0.9357 -1.2734  0.3900
 2428SOL     OW 8182   1.249   2.528   3.114 -0.6819 -0.5748 -0.1637
 2428SOL    HW1 8183   1.195   2.469   3.054  0.0566 -1.2318 -0.1854
 2428SOL    HW2 8184   1.318   2.474   3.161 -2.0886 -0.3408  2.3345
 2429SOL     OW 8185   6.218   5.196   5.376  0.2183  0.1551  0.1149
 2429SOL    HW1 8186   6.120   5.218   5.382  0.2843  0.1279  1.5422
 2429SOL    HW2 8187   6.233   5.102   5.405  0.5077 -0.3707 -1.5984
 2430SOL     OW 8188   0.979   4.507   3.927 -0.0535 -0.3240 -0.6066
 2430SOL    HW1 8189   0.969   4.548   4.018  1.3970  1.9837 -1.3845
 2430SOL    HW2 8190   0.890   4.505   3.882 -0.9968 -2.4508  1.1547
 2431SOL     OW 8191   1.746   0.935   5.618  0.4500 -0.4744 -0.3247
 2431SOL    HW1 8192   1.793   1.016   5.584 -0.8523 -0.3603 -1.9462
 2431SOL    HW2 8193   1.804   0.890   5.686  0.7372  2.4010  1.5044
 2432SOL     OW 8194   2.596   4.256   6.780  0.2026  0.1949  0.1328
 2432SOL    HW1 8195   2.629   4.309   6.702 -1.5359  2.1144  0.6144
 2432SOL    HW2 8196   2.502   4.282   6.801 -0.3174 -2.2356  1.2196
 2433SOL     OW 8197   0.190   1.770   2.215  0.1441  0.0175 -0.1556
 2433SOL    HW1 8198   0.280   1.731   2.233 -0.0537 -0.6306 -0.4996
 2433SOL    HW2 8199   0.182   1.792   2.118 -0.3326 -0.6738 -0.2862
 2434SOL     OW 8200   4.110   3.417   5.868 -0.2470 -0.7334  0.6084
 2434SOL    HW1 8201   4.068   3.450   5.784  1.9735  1.7688  0.3381
 2434SOL    HW2 8202   4.051   3.439   5.946 -0.1748  1.3596  0.1191
 2435SOL     OW 8203   0.363   3.992   1.698 -0.4801  0.6180  0.6407
 2435SOL    HW1 8204   0.439   4.052   1.676 -1.4028  2.6514  2.6144
 2435SOL    HW2 8205   0.398   3.901   1.720  1.2120  1.0854  0.0649
 2436SOL     OW 8206   0.766   1.427   6.490 -0.2897  0.5748 -0.2915
 2436SOL    HW1 8207   0.668   1.444   6.492 -0.2555  0.7311  1.2191
 2436SOL    HW2 8208   0.815   1.514   6.491 -0.1434  0.4980  1.5181
 2437SOL     OW 8209   5.380   3.905   6.331 -0.4007  0.4221  0.3089
 2437SOL    HW1 8210   5.320   3.943   6.401 -0.1851 -1.3904  1.5422
 2437SOL    HW2 8211   5.326   3.858   6.261 -0.4998  0.0944  0.6051
 2438SOL     OW 8212   0.774   6.602   1.192 -0.5006  0.5752 -0.0215
 2438SOL    HW1 8213   0.733   6.667   1.255 -0.0135  1.8321 -0.9591
 2438SOL    HW2 8214   0.862   6.570   1.228  0.0670  1.7556 -0.3197
 2439SOL     OW 8215   0.066   0.938   1.678 -0.1564  0.3215  0.2261
 2439SOL    HW1 8216   0.012   0.865   1.719  1.1934 -1.2884 -0.6910
 2439SOL    HW2 8217   0.060   0.931   1.578 -1.4889  2.6694  0.0892
 2440SOL     OW 8218   0.512   6.056   4.759  0.2949  0.3292 -0.5721
 2440SOL    HW1 8219   0.566   6.042   4.676  1.1118  1.5408 -0.2687
 2440SOL    HW2 8220   0.525   6.150   4.791  0.4579 -0.2862  1.2452
 2441SOL     OW 8221   1.410   0.769   3.894  0.0074 -0.1825  0.7004
 2441SOL    HW1 8222   1.316   0.803   3.889 -0.3542 -1.1278  0.8573
 2441SOL    HW2 8223   1.461   0.799   3.813  0.4030  2.6531  1.8563
 2442SOL     OW 8224   6.163   0.033   1.990 -0.3386 -0.1732 -0.4949
 2442SOL    HW1 8225   6.071   0.053   2.026  0.2878  0.0009  1.1061
 2442SOL    HW2 8226   6.222   0.113   2.004 -0.2231  0.1789 -2.6407
 2443SOL     OW 8227   6.068   2.122   4.695 -0.5264  0.0521  0.4747
 2443SOL    HW1 8228   6.167   2.118   4.680 -0.5112 -0.9760  0.7860
 2443SOL    HW2 8229   6.022   2.145   4.609 -0.0007  0.9084  0.4112
 2444SOL     OW 8230   1.115   1.502   6.248  0.0073 -0.9466 -0.2954
 2444SOL    HW1 8231   1.065   1.495   6.335 -1.0661  1.1207 -0.6744
 2444SOL    HW2 8232   1.117   1.412   6.204  2.3147 -2.5742  2.6997
 2445SOL     OW 8233   0.409   3.563   1.217 -0.0421 -0.1330 -0.3045
 2445SOL    HW1 8234   0.425   3.496   1.289 -0.4714  2.5800  2.5361
 2445SOL    HW2 8235   0.496   3.603   1.187  0.0433 -0.3032 -0.2789
 2446SOL     OW 8236   2.842   4.821   6.281  0.6070 -0.0762 -0.2935
 2446SOL    HW1 8237   2.848   4.788   6.187 -0.8754  1.9298 -1.1885
 2446SOL    HW2 8238   2.864   4.919   6.284  3.1229 -0.5940  1.9189
 2447SOL     OW 8239   4.970   3.860   4.770  0.8515 -0.3288  0.0168
 2447SOL    HW1 8240   4.932   3.775   4.734  0.6820 -0.8903  1.4545
 2447SOL    HW2 8241   5.017   3.909   4.697  1.4186 -1.9206 -0.7290
 2448SOL     OW 8242   6.585   6.159   5.206  0.0444 -0.0356 -0.0400
 2448SOL    HW1 8243   6.645   6.177   5.285  1.5245  0.1428 -1.1583
 2448SOL    HW2 8244   6.576   6.242   5.152 -0.3813 -0.3392 -0.4399
 2449SOL     OW 8245   4.722   0.758   1.861 -0.3693  0.4802  0.6871
 2449SOL    HW1 8246   4.641   0.750   1.803  1.3288  0.4732 -1.8705
 2449SOL    HW2 8247   4.796   0.800   1.809  1.7762 -0.9755  2.3495
 2450SOL     OW 8248   1.490   2.438   6.761  0.4499  0.4423  0.5344
 2450SOL    HW1 8249   1.505   2.344   6.793 -1.3739 -0.5193 -1.1813
 2450SOL    HW2 8250   1.470   2.437   6.663  1.9367  2.8303  0.1283
 2451SOL     OW 8251   1.128   3.102   2.370 -0.1234  0.5954 -0.4229
 2451SOL    HW1 8252   1.080   3.153   2.441 -1.0842 -1.5429  0.5418
 2451SOL    HW2 8253   1.224   3.092   2.395 -0.6134 -0.8423  1.0539
 2452SOL     OW 8254   1.663   6.205   6.088 -0.2605  0.4214 -0.3445
 2452SOL    HW1 8255   1.616   6.163   6.166  0.5761 -2.2288 -1.1848
 2452SOL    HW2 8256   1.609   6.191   6.005  1.2052 -1.3240 -1.0590
 2453SOL     OW 8257   6.591   1.979   6.170 -0.2335  0.0516 -0.3451
 2453SOL    HW1 8258   6.652   2.052   6.202 -2.0915  2.6176 -2.2480
 2453SOL    HW2 8259   6.568   1.995   6.074 -1.8961 -2.2747 -0.4050
 2454SOL     OW 8260   6.686   3.060   2.379 -0.0127  0.7097  0.7701
 2454SOL    HW1 8261   6.701   3.075   2.281  3.9926  0.2536  1.1415
 2454SOL    HW2 8262   6.667   2.963   2.395  0.9420  0.4813  0.5552
 2455SOL     OW 8263   6.277   4.471   4.386 -0.2686 -0.2741  0.0554
 2455SOL    HW1 8264   6.214   4.541   4.352 -1.0028 -1.1008 -0.3009
 2455SOL    HW2 8265   6.225   4.395   4.425  0.4950 -0.9893 -0.2874
 2456SOL     OW 8266   0.786   1.773   4.844 -0.0451  0.1664 -0.5090
 2456SOL    HW1 8267   0.694   1.813   4.839 -0.5704 -0.9602 -0.3846
 2456SOL    HW2 8268   0.848   1.836   4.889 -0.4452  1.4779 -1.7033
 2457SOL     OW 8269   3.638   5.734   5.563 -0.0843  0.3784 -0.5429
 2457SOL    HW1 8270   3.538   5.731   5.569 -0.0770 -1.1868 -0.7429
 2457SOL    HW2 8271   3.666   5.820   5.520 -1.2628  1.4003  0.6397
 2458SOL     OW 8272   3.900   6.592   6.559  0.1747  0.1227  0.0430
 2458SOL    HW1 8273   3.921   6.689   6.570  0.6584 -0.0389  0.6136
 2458SOL    HW2 8274   3.950   6.556   6.480  1.4744 -0.0806  0.9354
 2459SOL     OW 8275   0.464   4.558   2.843 -0.0758 -0.7482  0.0848
 2459SOL    HW1 8276   0.528   4.557   2.766  0.8070 -1.9639  0.7983
 2459SOL    HW2 8277   0.484   4.482   2.904 -1.4758 -0.4629  0.9530
 2460SOL     OW 8278   0.542   4.882   6.672  0.2186 -0.0154 -0.9012
 2460SOL    HW1 8279   0.559   4.871   6.770  1.0588 -0.3776 -1.0847
 2460SOL    HW2 8280   0.612   4.835   6.620 -1.1465 -1.2534 -1.6926
 2461SOL     OW 8281   1.268   1.788   5.164 -0.4632  0.4597  0.0430
 2461SOL    HW1 8282   1.341   1.719   5.161  1.5606  2.5031 -1.3757
 2461SOL    HW2 8283   1.191   1.753   5.217  0.2179 -3.0545 -1.0403
 2462SOL     OW 8284   4.335   5.707   5.903  0.0277 -0.1567 -0.0864
 2462SOL    HW1 8285   4.428   5.672   5.916 -0.3191 -0.5006  1.8746
 2462SOL    HW2 8286   4.313   5.708   5.806  2.1118  0.0473 -0.6097
 2463SOL     OW 8287   2.117   6.495   2.683 -0.3623 -0.3740 -0.1611
 2463SOL    HW1 8288   2.170   6.575   2.709  0.0090 -0.0310 -1.8667
 2463SOL    HW2 8289   2.150   6.415   2.734 -0.5693  0.4708  1.3606
 2464SOL     OW 8290   2.000   1.773   1.658  0.1913  0.6401 -0.8803
 2464SOL    HW1 8291   1.914   1.722   1.662  0.3286  0.4580  0.7460
 2464SOL    HW2 8292   1.998   1.847   1.726  2.1724 -0.8591  0.9750
 2465SOL     OW 8293   1.642   0.400   5.030  0.7755 -0.4006  0.1688
 2465SOL    HW1 8294   1.651   0.453   5.114  1.0163  1.9688 -1.2390
 2465SOL    HW2 8295   1.545   0.387   5.009  0.6868  0.5844 -0.0792
 2466SOL     OW 8296   4.879   1.650   2.285 -0.2333 -0.3529  0.3017
 2466SOL    HW1 8297   4.852   1.609   2.372  0.9707 -2.5363 -0.2735
 2466SOL    HW2 8298   4.967   1.697   2.296 -0.9429  0.9396  0.6383
 2467SOL     OW 8299   0.685   3.408   5.153 -0.0915 -0.1963 -0.1221
 2467SOL    HW1 8300   0.707   3.504   5.135  0.2765 -0.4911 -1.3382
 2467SOL    HW2 8301   0.594   3.402   5.195 -0.3709  0.6511 -0.5747
 2468SOL     OW 8302   3.547   6.656   5.217  0.7567 -0.3482 -0.0550
 2468SOL    HW1 8303   3.528   6.562   5.190 -1.0428 -0.0991  0.2137
 2468SOL    HW2 8304   3.641   6.680   5.191  0.7470 -1.7021 -1.4965
 2469SOL     OW 8305   1.818   6.444   5.874  0.1546  0.1747  0.0890
 2469SOL    HW1 8306   1.818   6.432   5.974  0.0664  0.8499  0.1787
 2469SOL    HW2 8307   1.767   6.370   5.831  0.2349 -0.1489  0.5436
 2470SOL     OW 8308   5.964   6.665   1.568  1.1643  0.2557 -0.5354
 2470SOL    HW1 8309   5.960   6.756   1.610  1.3943  0.5733 -1.1969
 2470SOL    HW2 8310   6.032   6.609   1.616 -0.0536 -0.0911  0.8657
 2471SOL     OW 8311   2.595   6.927   1.085  0.1027  0.1116 -0.0130
 2471SOL    HW1 8312   2.568   7.013   1.043  0.0215  1.4861  2.6158
 2471SOL    HW2 8313   2.692   6.910   1.068  0.5474  1.6358  0.8071
 2472SOL     OW 8314   6.363   3.870   2.579 -0.0952  0.1342 -0.3595
 2472SOL    HW1 8315   6.462   3.861   2.594 -0.0654  1.9053  0.7136
 2472SOL    HW2 8316   6.341   3.841   2.486  1.4424 -0.2265 -0.6389
 2473SOL     OW 8317   5.649   0.083   3.896 -0.4184 -0.2243 -0.9010
 2473SOL    HW1 8318   5.623   0.015   3.828 -2.6096  0.4614 -0.8339
 2473SOL    HW2 8319   5.635   0.046   3.988 -0.1344 -0.1928 -0.8425
 2474SOL     OW 8320   1.817   3.800   3.355  0.0969 -0.1038 -0.1509
 2474SOL    HW1 8321   1.873   3.726   3.393 -1.9977 -2.5737 -1.5171
 2474SOL    HW2 8322   1.740   3.817   3.417 -0.4598 -0.4472 -0.7369
 2475SOL     OW 8323   0.107   3.687   4.872  0.2663  0.3902  0.0441
 2475SOL    HW1 8324   0.087   3.689   4.774 -1.3009  0.4954  0.3367
 2475SOL    HW2 8325   0.196   3.644   4.887  0.0904 -0.5404 -1.3626
 2476SOL     OW 8326   4.201   0.659   0.147  0.1285 -0.7379  0.4761
 2476SOL    HW1 8327   4.101   0.653   0.155  0.1706 -0.1390  1.7041
 2476SOL    HW2 8328   4.230   0.753   0.160  0.9269 -1.0478  1.0178
 2477SOL     OW 8329   6.567   2.735   6.671 -0.1739  0.0189  0.1582
 2477SOL    HW1 8330   6.540   2.705   6.763 -0.4607 -1.4663 -0.3706
 2477SOL    HW2 8331   6.486   2.738   6.612  0.3999 -2.2860 -0.8613
 2478SOL     OW 8332   2.237   4.784   2.774 -0.0103 -0.1953 -0.4467
 2478SOL    HW1 8333   2.306   4.806   2.705 -0.3226 -0.5746 -0.8940
 2478SOL    HW2 8334   2.221   4.685   2.774 -0.5263 -0.1138 -0.3281
 2479SOL     OW 8335   4.102   4.726   6.938  0.0012 -0.1966 -0.4066
 2479SOL    HW1 8336   4.063   4.639   6.969  2.8848 -2.0405 -1.4973
 2479SOL    HW2 8337   4.045   4.801   6.969 -2.6482 -2.4475  0.5953
 2480SOL     OW 8338   5.910   5.250   1.428 -0.4682 -0.5848  0.1760
 2480SOL    HW1 8339   5.889   5.261   1.525 -1.4654  1.8545 -0.2318
 2480SOL    HW2 8340   6.009   5.237   1.417 -0.2515 -0.2409  1.4987
 2481SOL     OW 8341   4.138   5.704   2.144  0.0964 -0.1630 -0.7765
 2481SOL    HW1 8342   4.231   5.725   2.175  0.4458 -0.1705 -1.7848
 2481SOL    HW2 8343   4.074   5.771   2.180  0.1508 -1.3330  1.6688
 2482SOL     OW 8344   2.660   2.273   0.257 -0.1165  0.1134  0.3694
 2482SOL    HW1 8345   2.682   2.370   0.243 -0.1124  0.1578  0.6766
 2482SOL    HW2 8346   2.669   2.250   0.354 -0.4441 -0.1125  0.3492
 2483SOL     OW 8347   5.920   3.078   3.977  0.5623 -0.5567 -0.0068
 2483SOL    HW1 8348   5.901   3.006   4.043 -0.9828  1.3643  1.7926
 2483SOL    HW2 8349   5.835   3.122   3.949  1.5314  2.6198  1.4799
 2484SOL     OW 8350   4.651   4.929   4.747 -0.0633  0.4064 -0.0760
 2484SOL    HW1 8351   4.692   4.923   4.838 -0.1088  1.2100  0.0016
 2484SOL    HW2 8352   4.591   4.850   4.732  1.4820 -0.8104 -0.1855
 2485SOL     OW 8353   4.026   0.717   3.859  0.6217  1.0555 -0.5556
 2485SOL    HW1 8354   4.021   0.646   3.930  1.3148  0.2816 -1.2504
 2485SOL    HW2 8355   4.062   0.676   3.775 -2.1304  1.4093 -2.0339
 2486SOL     OW 8356   0.006   1.923   1.981  0.0054  0.3507  0.2069
 2486SOL    HW1 8357   0.091   1.972   2.001  0.8439 -0.5082 -1.0918
 2486SOL    HW2 8358  -0.070   1.988   1.984  1.0918  1.8168 -1.6071
 2487SOL     OW 8359   1.124   6.375   1.188  0.0168 -0.0074  0.7700
 2487SOL    HW1 8360   1.068   6.369   1.270 -1.2789 -0.1767 -0.0908
 2487SOL    HW2 8361   1.115   6.291   1.135  0.7897  0.1201  0.4301
 2488SOL     OW 8362   0.193   1.162   4.945  0.1575  0.6329  0.3439
 2488SOL    HW1 8363   0.245   1.140   5.028  1.4841  1.3193 -0.2794
 2488SOL    HW2 8364   0.115   1.220   4.970 -1.9517 -2.4610  1.6596
 2489SOL     OW 8365   3.618   1.346   4.877 -0.5381  0.5400  0.3211
 2489SOL    HW1 8366   3.545   1.346   4.946 -1.1921 -1.9591 -0.2651
 2489SOL    HW2 8367   3.601   1.273   4.811  0.6114  2.1942 -1.9464
 2490SOL     OW 8368   0.792   0.931   1.877  0.4436 -0.0166 -0.8761
 2490SOL    HW1 8369   0.851   0.885   1.943  0.1677 -2.6378 -2.2976
 2490SOL    HW2 8370   0.699   0.938   1.914  0.6921  0.2471 -0.2900
 2491SOL     OW 8371   1.086   0.815   6.625 -0.2325 -0.3422 -0.1836
 2491SOL    HW1 8372   1.170   0.869   6.619  0.5195 -1.0697  2.4555
 2491SOL    HW2 8373   1.007   0.875   6.618  0.5268  0.6610 -0.3432
 2492SOL     OW 8374   0.415   0.548   6.124  0.5737  0.4242 -0.2158
 2492SOL    HW1 8375   0.325   0.588   6.141  0.1409 -0.8160  0.5165
 2492SOL    HW2 8376   0.417   0.509   6.032 -0.2793 -1.1260  0.3830
 2493SOL     OW 8377   6.939   5.432   0.728  0.9230  0.0902 -0.6659
 2493SOL    HW1 8378   6.895   5.346   0.701 -0.4296  0.7168 -0.5554
 2493SOL    HW2 8379   6.969   5.426   0.823 -0.2193  0.1133 -0.2855
 2494SOL     OW 8380   6.284   6.231   4.656 -0.4225 -0.0877 -0.9174
 2494SOL    HW1 8381   6.321   6.295   4.724  0.3280  0.5021 -1.8624
 2494SOL    HW2 8382   6.187   6.216   4.675 -0.3364  0.4254  0.0120
 2495SOL     OW 8383   3.752   0.103   5.187  0.0294 -0.0476  0.0253
 2495SOL    HW1 8384   3.769   0.201   5.197 -2.0288  0.3293  0.3695
 2495SOL    HW2 8385   3.733   0.063   5.277  1.1431 -0.8526 -0.0728
 2496SOL     OW 8386   6.564   0.852   1.212 -0.5609 -0.6666  0.9110
 2496SOL    HW1 8387   6.584   0.927   1.275 -1.7200 -0.9326  1.6162
 2496SOL    HW2 8388   6.483   0.875   1.158 -0.0745 -0.8065  0.1078
 2497SOL     OW 8389   4.728   2.254   2.878 -0.2169  0.8074  0.0062
 2497SOL    HW1 8390   4.825   2.255   2.901  0.5559 -3.2955 -2.1511
 2497SOL    HW2 8391   4.714   2.294   2.788 -0.1295 -0.3925 -0.5650
 2498SOL     OW 8392   4.011   0.541   1.706  0.1121  0.1524  0.0491
 2498SOL    HW1 8393   4.022   0.547   1.805 -0.7897  0.2551  0.1478
 2498SOL    HW2 8394   4.101   0.551   1.662  0.5805 -0.3585  0.8654
 2499SOL     OW 8395   2.604   5.205   2.948  0.9577 -0.4187 -0.4507
 2499SOL    HW1 8396   2.504   5.215   2.957  0.8299 -2.3421  0.6384
 2499SOL    HW2 8397   2.643   5.182   3.037  2.1286 -1.6735 -1.2657
 2500SOL     OW 8398   2.982   5.014   6.989 -0.3371  0.1460 -0.1216
 2500SOL    HW1 8399   3.017   5.022   7.083 -0.5810  0.8666 -0.0880
 2500SOL    HW2 8400   2.886   5.043   6.987 -1.0280 -1.9769 -0.1773
 2501SOL     OW 8401   0.222   6.155   2.765  0.2113 -0.2415  0.0460
 2501SOL    HW1 8402   0.154   6.170   2.693  0.9294  0.6943 -0.4636
 2501SOL    HW2 8403   0.295   6.222   2.756  2.7951 -2.9790 -1.3017
 2502SOL     OW 8404   1.249   0.999   4.937  0.3120 -0.7882  0.2538
 2502SOL    HW1 8405   1.219   1.092   4.917  3.2166 -0.0943 -1.5122
 2502SOL    HW2 8406   1.189   0.934   4.890 -1.4092  0.1428  1.0492
 2503SOL     OW 8407   0.767   5.093   5.326 -0.1818  0.0934 -0.0773
 2503SOL    HW1 8408   0.668   5.107   5.312 -0.8759 -4.0527 -0.5436
 2503SOL    HW2 8409   0.806   5.049   5.245  1.6418 -0.1287  0.8740
 2504SOL     OW 8410   3.048   5.626   3.508 -0.0079 -0.1590  0.0216
 2504SOL    HW1 8411   3.016   5.646   3.601 -0.0159 -1.1240  0.2459
 2504SOL    HW2 8412   3.049   5.527   3.495  4.4946 -0.4139  0.6467
 2505SOL     OW 8413   6.276   1.639   1.077  0.5663 -0.7691 -0.5325
 2505SOL    HW1 8414   6.267   1.540   1.062  1.9644 -0.7470 -1.7555
 2505SOL    HW2 8415   6.231   1.688   1.003 -2.8796 -0.3258  1.6120
 2506SOL     OW 8416   5.259   3.075   5.777 -0.2500  0.6713  0.1466
 2506SOL    HW1 8417   5.306   3.079   5.865  0.9834 -0.5017 -0.4297
 2506SOL    HW2 8418   5.243   3.168   5.743  0.4707  1.1100  0.9746
 2507SOL     OW 8419   3.826   6.313   1.488 -0.5123 -0.3580  0.3311
 2507SOL    HW1 8420   3.810   6.306   1.389 -0.4340  0.8467  0.2226
 2507SOL    HW2 8421   3.815   6.408   1.517  1.3287 -0.3509  1.1592
 2508SOL     OW 8422   4.886   0.998   3.384  1.0064 -0.5525 -0.0681
 2508SOL    HW1 8423   4.967   1.031   3.433 -0.2700  2.3525  0.2710
 2508SOL    HW2 8424   4.831   0.942   3.445  0.7172  0.9182  1.0836
 2509SOL     OW 8425   0.481   1.268   0.999 -0.7039 -0.0962 -0.3949
 2509SOL    HW1 8426   0.559   1.276   1.060 -0.3492 -0.9970 -0.7114
 2509SOL    HW2 8427   0.407   1.219   1.046  0.1103 -2.1485 -1.1322
 2510SOL     OW 8428   5.824   1.371   6.361  0.0697 -0.5291 -0.1935
 2510SOL    HW1 8429   5.783   1.283   6.385  1.7088 -1.3386 -0.2087
 2510SOL    HW2 8430   5.922   1.358   6.343  1.0342  1.7536  2.6489
 2511SOL     OW 8431   0.797   4.934   1.899 -0.4223  0.5689  0.1857
 2511SOL    HW1 8432   0.770   4.994   1.823 -1.7258 -0.4803 -0.2312
 2511SOL    HW2 8433   0.778   4.839   1.874  3.0467 -0.2513  0.1923
 2512SOL     OW 8434   0.826   6.870   4.049  0.4083  0.3582  0.0022
 2512SOL    HW1 8435   0.839   6.778   4.087  1.4636  0.1454 -0.8459
 2512SOL    HW2 8436   0.768   6.923   4.111  1.9998  0.0036  1.8945
 2513SOL     OW 8437   2.115   0.404   1.691  0.2421  0.1197 -0.1234
 2513SOL    HW1 8438   2.022   0.408   1.656  0.7313 -0.8870 -1.6518
 2513SOL    HW2 8439   2.180   0.412   1.616  1.3688 -0.4581  0.7439
 2514SOL     OW 8440   0.257   0.607   2.181  0.2569 -0.2405 -0.1902
 2514SOL    HW1 8441   0.183   0.658   2.225  0.3022 -0.6806  0.4244
 2514SOL    HW2 8442   0.288   0.534   2.243  0.4994 -0.7203 -0.8588
 2515SOL     OW 8443   1.175   2.668   2.288 -0.2957  0.9142  0.2972
 2515SOL    HW1 8444   1.182   2.713   2.377 -0.1269  1.2242  0.1268
 2515SOL    HW2 8445   1.251   2.695   2.230 -1.1745  1.8450 -0.4456
 2516SOL     OW 8446   5.802   0.443   2.690  0.4003 -0.2825  0.1504
 2516SOL    HW1 8447   5.729   0.404   2.634  0.3387  0.9390 -0.6726
 2516SOL    HW2 8448   5.765   0.470   2.779  0.0993 -0.6651  0.1422
 2517SOL     OW 8449   1.446   1.157   6.297 -0.0574 -0.2511 -0.1136
 2517SOL    HW1 8450   1.413   1.070   6.333 -1.6203  0.3944  0.1370
 2517SOL    HW2 8451   1.519   1.141   6.231  0.5099 -1.6610  0.8101
 2518SOL     OW 8452   2.598   3.779   0.639  0.3686 -0.7203  0.4253
 2518SOL    HW1 8453   2.565   3.784   0.733 -1.1189  1.9600 -0.1573
 2518SOL    HW2 8454   2.685   3.827   0.631 -0.1105  0.1396  0.2336
 2519SOL     OW 8455   4.932   3.659   3.277 -0.0907 -0.2548  0.2831
 2519SOL    HW1 8456   4.950   3.572   3.230  0.9147  0.0414  0.0736
 2519SOL    HW2 8457   4.956   3.650   3.373 -0.6644 -0.4087  0.4151
 2520SOL     OW 8458   1.203   3.985   2.078  0.1578 -0.3121  0.3737
 2520SOL    HW1 8459   1.111   3.964   2.045 -0.9726  2.1216  1.7143
 2520SOL    HW2 8460   1.237   4.068   2.034  0.2670  0.7247  2.2914
 2521SOL     OW 8461   6.618   1.622   1.450 -0.1425  0.3842  0.7523
 2521SOL    HW1 8462   6.572   1.673   1.378 -0.1346 -0.9359 -0.2361
 2521SOL    HW2 8463   6.549   1.587   1.515 -0.6024 -1.4754 -0.6492
 2522SOL     OW 8464   0.321   5.377   1.914 -0.4255  0.1144 -0.3592
 2522SOL    HW1 8465   0.239   5.319   1.921 -1.7045  1.6319 -1.8069
 2522SOL    HW2 8466   0.296   5.471   1.935  1.0735  0.5358 -0.4010
 2523SOL     OW 8467   2.451   1.158   3.847  0.1167  0.7888  0.2615
 2523SOL    HW1 8468   2.441   1.258   3.849  0.3524  0.8064  0.6144
 2523SOL    HW2 8469   2.385   1.117   3.909 -1.3091  0.6033 -1.2908
 2524SOL     OW 8470   2.978   6.778   5.360  0.1579  0.5103  0.4067
 2524SOL    HW1 8471   3.013   6.871   5.367  1.1292  0.1115  1.0759
 2524SOL    HW2 8472   3.008   6.737   5.274  0.1748  0.6342  0.3535
 2525SOL     OW 8473   5.757   2.366   5.886  0.3546 -0.1384 -0.1120
 2525SOL    HW1 8474   5.814   2.447   5.903  1.0119 -0.0576 -2.3232
 2525SOL    HW2 8475   5.797   2.287   5.932  0.6061  0.4942  0.7700
 2526SOL     OW 8476   3.371   0.767   0.276 -0.4252  0.3378  0.8095
 2526SOL    HW1 8477   3.394   0.863   0.258  2.2010 -0.1147  1.4015
 2526SOL    HW2 8478   3.279   0.748   0.240 -0.0650  2.4304 -1.5014
 2527SOL     OW 8479   2.854   2.325   0.944  0.3322  0.3602  0.8588
 2527SOL    HW1 8480   2.810   2.348   1.031 -0.4677  0.1424  0.5228
 2527SOL    HW2 8481   2.875   2.228   0.942  0.2706  0.3475  0.7816
 2528SOL     OW 8482   3.841   4.898   4.565 -0.0496  0.6499 -0.6554
 2528SOL    HW1 8483   3.902   4.844   4.506 -1.5623 -1.8504 -0.1048
 2528SOL    HW2 8484   3.870   4.889   4.660 -1.4239 -0.9572 -0.3310
 2529SOL     OW 8485   5.705   4.304   0.203 -0.0849  0.1646  0.2359
 2529SOL    HW1 8486   5.612   4.308   0.166 -0.9159  0.3833  2.2181
 2529SOL    HW2 8487   5.719   4.216   0.249  0.4606  0.3920  0.5157
 2530SOL     OW 8488   4.427   1.539   6.277 -0.4528 -0.6372  0.1091
 2530SOL    HW1 8489   4.387   1.508   6.363 -1.4359  0.1514 -0.0501
 2530SOL    HW2 8490   4.450   1.636   6.284 -0.4960 -0.5808 -0.5028
 2531SOL     OW 8491   0.807   1.146   0.033  0.7172 -0.3394 -0.0867
 2531SOL    HW1 8492   0.846   1.189  -0.049  0.9125  0.1542  0.2669
 2531SOL    HW2 8493   0.708   1.157   0.033  0.7223 -0.2886 -0.2199
 2532SOL     OW 8494   4.454   2.722   1.243 -0.4427  0.3848 -0.4735
 2532SOL    HW1 8495   4.515   2.752   1.317 -2.5595  0.5718  1.3082
 2532SOL    HW2 8496   4.486   2.760   1.156  1.0826  1.7522  0.6142
 2533SOL     OW 8497   1.884   5.715   5.637  0.6800 -0.1755  0.1104
 2533SOL    HW1 8498   1.824   5.688   5.562  0.5649 -0.3913  0.2782
 2533SOL    HW2 8499   1.865   5.810   5.662 -1.1103 -0.8589  1.5871
 2534SOL     OW 8500   6.721   5.663   1.684  0.3870 -0.8377  0.2731
 2534SOL    HW1 8501   6.787   5.617   1.624 -1.3203 -3.3471  0.1646
 2534SOL    HW2 8502   6.755   5.662   1.778  2.6764  2.3386 -0.3534
 2535SOL     OW 8503   2.963   1.006   3.815 -0.2037  0.6887 -0.0365
 2535SOL    HW1 8504   2.957   1.098   3.776  0.5621  0.8464  0.2001
 2535SOL    HW2 8505   3.017   0.948   3.754  2.1216  1.2771  1.3420
 2536SOL     OW 8506   4.773   6.576   6.208 -0.2475  0.3245  0.3295
 2536SOL    HW1 8507   4.729   6.487   6.220 -0.8048 -0.6625 -5.6129
 2536SOL    HW2 8508   4.704   6.648   6.216 -0.9261 -0.2991  0.1944
 2537SOL     OW 8509   0.454   1.452   6.833  0.0754 -0.6433  0.1535
 2537SOL    HW1 8510   0.366   1.491   6.862 -0.5889 -2.1273  0.2552
 2537SOL    HW2 8511   0.528   1.492   6.886 -0.0776  2.9839 -2.0265
 2538SOL     OW 8512   5.935   5.950   1.231  0.2502 -0.5281  0.2440
 2538SOL    HW1 8513   5.925   5.851   1.230  1.3239 -0.6529 -0.7972
 2538SOL    HW2 8514   5.935   5.983   1.326  1.3502 -1.6856  0.6684
 2539SOL     OW 8515   5.727   1.477   0.925 -0.1488  0.3647  0.1535
 2539SOL    HW1 8516   5.641   1.495   0.974  0.1051 -3.6180  2.4702
 2539SOL    HW2 8517   5.800   1.533   0.965 -1.1539  1.9906 -0.2057
 2540SOL     OW 8518   2.263   5.967   1.700  0.3637 -0.0487  0.2397
 2540SOL    HW1 8519   2.285   5.912   1.780 -1.4095 -0.8566  0.2358
 2540SOL    HW2 8520   2.164   5.981   1.695  0.4814  0.4774 -1.4872
 2541SOL     OW 8521   6.561   2.378   0.022  0.3111 -0.3739 -0.4213
 2541SOL    HW1 8522   6.652   2.418   0.010  0.7105 -1.3830 -0.8524
 2541SOL    HW2 8523   6.536   2.380   0.119  0.3273  0.8688 -0.4253
 2542SOL     OW 8524   1.460   0.042   6.283 -0.1424 -0.2886  0.5871
 2542SOL    HW1 8525   1.387   0.007   6.225  0.5259 -0.2784 -0.2800
 2542SOL    HW2 8526   1.435   0.133   6.316  0.3129  0.5761 -1.3335
 2543SOL     OW 8527   3.032   6.635   6.018  0.0451 -0.1556 -0.1405
 2543SOL    HW1 8528   3.112   6.606   5.966 -0.1016 -0.9166  0.0523
 2543SOL    HW2 8529   2.954   6.645   5.957  0.1774  0.1826 -0.2605
 2544SOL     OW 8530   0.594   5.670   1.857  0.1771 -0.4903  0.0243
 2544SOL    HW1 8531   0.524   5.646   1.925  0.9712 -1.5249  0.5006
 2544SOL    HW2 8532   0.663   5.598   1.854  1.0316  0.3441 -0.7126
 2545SOL     OW 8533   0.488   0.134   3.095  0.6046 -0.0627 -0.1602
 2545SOL    HW1 8534   0.408   0.149   3.038 -0.2003  0.1651  1.0020
 2545SOL    HW2 8535   0.547   0.215   3.092 -1.0933  1.3858  1.8920
 2546SOL     OW 8536   1.098   6.389   0.075 -0.1200  0.1150  0.1639
 2546SOL    HW1 8537   1.066   6.482   0.095 -1.1394 -0.0865 -0.4249
 2546SOL    HW2 8538   1.019   6.329   0.062  0.5204 -1.0406  1.3861
 2547SOL     OW 8539   0.709   5.811   5.200 -0.4653  0.2964  0.0106
 2547SOL    HW1 8540   0.673   5.726   5.161 -0.4662  0.4804 -0.3888
 2547SOL    HW2 8541   0.696   5.886   5.136 -2.6927  1.1233  1.3221
 2548SOL     OW 8542   5.797   3.262   6.030  0.1308  0.0842 -0.1248
 2548SOL    HW1 8543   5.716   3.307   6.068  0.6232  0.5865  0.3348
 2548SOL    HW2 8544   5.780   3.239   5.934 -0.7768 -0.3500  0.1243
 2549SOL     OW 8545   2.773   0.258   2.326 -0.0469  0.1114 -0.0761
 2549SOL    HW1 8546   2.823   0.171   2.321  2.1416  0.9210  3.8117
 2549SOL    HW2 8547   2.704   0.252   2.398  0.0717  1.5480  0.1762
 2550SOL     OW 8548   0.566   4.699   3.497 -0.5338 -0.0127 -0.2226
 2550SOL    HW1 8549   0.622   4.617   3.483 -1.5548 -0.6443 -0.7608
 2550SOL    HW2 8550   0.624   4.775   3.524  0.8366 -0.2216 -2.3208
 2551SOL     OW 8551   1.129   2.123   1.354  0.2544 -0.2401 -0.2216
 2551SOL    HW1 8552   1.184   2.151   1.432 -0.5289 -0.1472  0.3123
 2551SOL    HW2 8553   1.187   2.116   1.273  0.6772  1.9847 -0.1838
 2552SOL     OW 8554   1.298   4.553   5.817  0.0463 -0.2479  0.2407
 2552SOL    HW1 8555   1.300   4.591   5.724  0.6798  0.0993  0.3924
 2552SOL    HW2 8556   1.204   4.547   5.849 -0.2345 -1.0079 -0.6908
 2553SOL     OW 8557   3.170   3.622   6.496 -0.0184 -0.3187 -0.2642
 2553SOL    HW1 8558   3.256   3.646   6.452 -1.3260  0.1341 -2.7879
 2553SOL    HW2 8559   3.186   3.601   6.592  2.8249  0.0341 -0.5780
 2554SOL     OW 8560   6.704   6.088   4.604 -0.2364  0.0622  0.1636
 2554SOL    HW1 8561   6.650   6.084   4.688  0.2860  0.6315  0.5413
 2554SOL    HW2 8562   6.643   6.102   4.526 -0.5279  4.6670  0.9357
 2555SOL     OW 8563   0.927   0.287   0.120  0.3914  0.3817 -0.4308
 2555SOL    HW1 8564   0.964   0.194   0.114  0.6768  0.4120  0.6080
 2555SOL    HW2 8565   0.860   0.291   0.195 -0.4744  0.7421 -1.2080
 2556SOL     OW 8566   5.767   1.407   4.747  0.1564  0.0690  0.3696
 2556SOL    HW1 8567   5.855   1.373   4.780  0.7115  0.3628 -0.7529
 2556SOL    HW2 8568   5.693   1.357   4.792  0.9147 -1.1989  0.2586
 2557SOL     OW 8569   3.378   4.363   5.941  0.1936 -0.5283 -0.4713
 2557SOL    HW1 8570   3.464   4.351   5.991  0.6494 -0.1765 -1.1478
 2557SOL    HW2 8571   3.314   4.291   5.966  0.2104 -0.0679  1.0055
 2558SOL     OW 8572   0.917   4.996   6.110  0.4824  0.2256 -0.1355
 2558SOL    HW1 8573   0.841   5.004   6.047  0.2513  1.5690  0.2893
 2558SOL    HW2 8574   0.883   4.989   6.204  0.8045 -2.1501 -0.1153
 2559SOL     OW 8575   0.826   3.984   4.223  0.1897 -0.4869 -0.3386
 2559SOL    HW1 8576   0.842   3.986   4.124  2.5113 -0.4094  0.0038
 2559SOL    HW2 8577   0.760   3.912   4.243 -0.8217 -0.0895 -1.9824
 2560SOL     OW 8578   1.311   0.378   0.956  0.3583 -0.6105  0.1028
 2560SOL    HW1 8579   1.389   0.408   0.900  0.3172 -0.4835  0.1143
 2560SOL    HW2 8580   1.233   0.359   0.898  0.1081  0.1677  0.1750
 2561SOL     OW 8581   2.386   6.959   4.595 -0.2541 -0.0529 -0.5071
 2561SOL    HW1 8582   2.290   6.984   4.610 -0.7785 -2.1040 -0.1115
 2561SOL    HW2 8583   2.425   7.018   4.524 -0.6715  3.2450  1.7946
 2562SOL     OW 8584   2.648   3.363   5.739 -0.1306  0.1055  0.0129
 2562SOL    HW1 8585   2.722   3.428   5.721  0.7062 -1.2925 -1.9037
 2562SOL    HW2 8586   2.687   3.275   5.766 -1.2125  0.0329  1.5000
 2563SOL     OW 8587   2.208   2.716   0.505  0.0821 -0.2206  0.5391
 2563SOL    HW1 8588   2.245   2.623   0.499 -0.3831 -0.3141 -1.9726
 2563SOL    HW2 8589   2.257   2.775   0.441  1.2412  1.6484  2.9927
 2564SOL     OW 8590   4.889   2.758   2.376  0.2000  0.2862  0.2025
 2564SOL    HW1 8591   4.978   2.769   2.331 -0.0308 -0.8706 -0.5929
 2564SOL    HW2 8592   4.818   2.750   2.307 -0.4709  0.7486  0.8303
 2565SOL     OW 8593   5.059   1.751   4.749 -0.7428 -0.6944  0.6719
 2565SOL    HW1 8594   5.035   1.675   4.689 -0.8690 -0.1097 -0.0326
 2565SOL    HW2 8595   5.048   1.837   4.700 -0.3851 -0.2276  1.3891
 2566SOL     OW 8596   3.550   6.742   5.484  0.6096 -0.4531 -0.6651
 2566SOL    HW1 8597   3.543   6.842   5.482  0.9176 -0.3957  0.5269
 2566SOL    HW2 8598   3.557   6.707   5.390 -0.2027  0.5852 -1.1331
 2567SOL     OW 8599   6.815   0.715   0.786  0.1704  0.0483 -0.3804
 2567SOL    HW1 8600   6.762   0.707   0.871 -1.2180  1.4096 -1.0778
 2567SOL    HW2 8601   6.865   0.630   0.771 -0.0566 -0.4699  1.4572
 2568SOL     OW 8602   4.536   6.956   3.433  0.3433  0.0764  0.4086
 2568SOL    HW1 8603   4.619   7.010   3.445 -0.8049  1.8558  0.9017
 2568SOL    HW2 8604   4.457   7.018   3.431 -0.8445 -1.3753 -1.8210
 2569SOL     OW 8605   5.481   2.859   5.389  0.1824 -0.1418 -0.1793
 2569SOL    HW1 8606   5.465   2.944   5.440  0.6621  0.7016 -1.3804
 2569SOL    HW2 8607   5.574   2.828   5.404  0.5044  0.4171 -0.9540
 2570SOL     OW 8608   5.845   0.559   3.853 -0.0942 -0.1374  0.0535
 2570SOL    HW1 8609   5.774   0.629   3.850 -0.6884 -0.7156  0.2776
 2570SOL    HW2 8610   5.803   0.469   3.842  0.5004 -0.5484  1.0094
 2571SOL     OW 8611   2.607   6.495   6.427  0.6653 -0.4034 -0.2192
 2571SOL    HW1 8612   2.684   6.462   6.480  1.0365  0.9493  0.1037
 2571SOL    HW2 8613   2.613   6.594   6.415 -2.2490  0.1665  1.8772
 2572SOL     OW 8614   3.426   0.142   2.977 -0.4875 -0.1693  0.0279
 2572SOL    HW1 8615   3.525   0.154   2.971 -0.2397 -0.4864  2.4333
 2572SOL    HW2 8616   3.381   0.205   2.914  1.2130  1.0957 -0.0042
 2573SOL     OW 8617   0.190   2.163   5.567  0.0031  0.0781  0.5410
 2573SOL    HW1 8618   0.189   2.263   5.566  0.2566  0.1014  1.4019
 2573SOL    HW2 8619   0.259   2.130   5.503 -0.2684  0.4395  0.0485
 2574SOL     OW 8620   1.549   2.008   0.672  0.0970 -0.0178  0.1383
 2574SOL    HW1 8621   1.493   2.075   0.721  1.2509  0.5758  0.6958
 2574SOL    HW2 8622   1.643   2.012   0.706  0.1991 -1.9643  0.2172
 2575SOL     OW 8623   1.751   3.363   2.715  0.7117  0.3997 -0.1706
 2575SOL    HW1 8624   1.721   3.302   2.642  1.6879 -0.1493 -0.1314
 2575SOL    HW2 8625   1.685   3.437   2.726 -0.6346 -0.7859 -0.0343
 2576SOL     OW 8626   6.281   2.524   4.048 -0.3809 -0.0463 -0.1844
 2576SOL    HW1 8627   6.348   2.518   4.121 -0.8131  1.4974  0.3671
 2576SOL    HW2 8628   6.322   2.566   3.967 -0.4009 -0.0796 -0.2126
 2577SOL     OW 8629   5.477   5.686   4.026 -0.1167 -0.3059  0.4008
 2577SOL    HW1 8630   5.474   5.783   4.051 -2.0429 -0.5859  1.3883
 2577SOL    HW2 8631   5.434   5.674   3.936  1.3201 -0.1148 -0.3505
 2578SOL     OW 8632   3.348   4.906   4.954 -0.0099  0.1040 -0.2739
 2578SOL    HW1 8633   3.381   4.868   5.040  0.3373  2.6522  0.8169
 2578SOL    HW2 8634   3.248   4.897   4.949 -0.3892  2.1804  1.7068
 2579SOL     OW 8635   2.422   2.459   0.832 -0.1149 -0.1126  0.0064
 2579SOL    HW1 8636   2.372   2.493   0.912  1.6802 -1.9569  2.0532
 2579SOL    HW2 8637   2.406   2.360   0.823 -0.0791  0.0198 -1.7998
 2580SOL     OW 8638   1.608   3.207   5.554  0.0151  0.0895  0.0150
 2580SOL    HW1 8639   1.669   3.176   5.481 -1.5015 -0.7187 -0.9523
 2580SOL    HW2 8640   1.654   3.196   5.642  0.8524 -1.5672 -0.5840
 2581SOL     OW 8641   0.161   2.537   2.590  0.2113  0.5933  0.1210
 2581SOL    HW1 8642   0.217   2.517   2.671 -0.8459  1.1393  1.0307
 2581SOL    HW2 8643   0.073   2.489   2.598  0.3916  0.0338 -1.0966
 2582SOL     OW 8644   2.030   0.946   2.652  0.3774 -0.1482  0.0337
 2582SOL    HW1 8645   2.034   1.003   2.571  1.2255 -0.8221 -0.4124
 2582SOL    HW2 8646   2.106   0.881   2.651 -0.0958 -0.7366  0.9349
 2583SOL     OW 8647   6.081   6.708   6.540 -0.4337  0.0693  0.3157
 2583SOL    HW1 8648   6.181   6.710   6.546 -0.3211 -2.3058  0.4281
 2583SOL    HW2 8649   6.045   6.649   6.613 -1.7369 -0.8517 -1.0285
 2584SOL     OW 8650   3.290   6.008   1.887 -0.0060  0.2137  0.2534
 2584SOL    HW1 8651   3.246   6.061   1.815 -1.3888  0.4000  1.2037
 2584SOL    HW2 8652   3.236   5.926   1.906  0.1460  0.3489  1.3120
 2585SOL     OW 8653   3.752   1.206   6.444  0.4992 -0.4840  0.4103
 2585SOL    HW1 8654   3.779   1.297   6.414  1.3147 -1.3187 -1.5802
 2585SOL    HW2 8655   3.798   1.137   6.387 -0.8100 -2.1162  1.2344
 2586SOL     OW 8656   4.836   4.599   3.385 -0.2889  0.0937 -0.1345
 2586SOL    HW1 8657   4.919   4.566   3.428  1.2642  1.2557 -2.0543
 2586SOL    HW2 8658   4.847   4.596   3.285 -1.1514  3.5492 -0.4382
 2587SOL     OW 8659   3.023   0.548   6.352  0.7418 -0.0509 -0.3381
 2587SOL    HW1 8660   3.085   0.602   6.410  0.9010  2.2753 -2.4792
 2587SOL    HW2 8661   2.947   0.606   6.323 -0.1705 -1.6217 -1.1968
 2588SOL     OW 8662   1.259   2.192   6.675 -0.8499  0.1502  0.0029
 2588SOL    HW1 8663   1.291   2.102   6.645 -1.2195 -0.0665  0.2541
 2588SOL    HW2 8664   1.276   2.203   6.773  2.3420  1.6979 -0.6160
 2589SOL     OW 8665   6.269   6.400   5.899  0.5126 -0.1996 -0.0099
 2589SOL    HW1 8666   6.244   6.422   5.993  0.7812  3.0243 -0.5822
 2589SOL    HW2 8667   6.340   6.329   5.899 -0.3515 -1.1408  2.1104
 2590SOL     OW 8668   6.872   6.321   2.559  0.0875 -0.2610  0.4618
 2590SOL    HW1 8669   6.920   6.407   2.576  2.2035 -1.5380  1.3964
 2590SOL    HW2 8670   6.937   6.245   2.563 -1.7692 -1.9710  0.0490
 2591SOL     OW 8671   0.789   0.106   5.537  0.3870 -0.1714 -0.1090
 2591SOL    HW1 8672   0.777   0.063   5.627 -0.8808  0.6172  0.1268
 2591SOL    HW2 8673   0.881   0.087   5.503  0.2033 -2.2209  0.4189
 2592SOL     OW 8674   6.622   3.852   1.131  0.3328  0.4970  0.2994
 2592SOL    HW1 8675   6.714   3.814   1.135  0.1677  0.0910  0.3123
 2592SOL    HW2 8676   6.622   3.935   1.076  1.0891  1.6265  1.9394
 2593SOL     OW 8677   4.501   1.051   1.277 -0.4877  0.0782  0.0058
 2593SOL    HW1 8678   4.471   1.120   1.343  0.0469  0.6163 -0.3026
 2593SOL    HW2 8679   4.531   1.096   1.193  0.0168 -0.5229 -0.1466
 2594SOL     OW 8680   1.603   1.956   2.699 -0.0223  0.2380 -0.2699
 2594SOL    HW1 8681   1.641   2.042   2.733  2.1940 -0.8850  0.2591
 2594SOL    HW2 8682   1.586   1.964   2.601  1.7979  0.7774 -0.5888
 2595SOL     OW 8683   0.020   1.593   5.275  0.1077 -0.2295 -0.0147
 2595SOL    HW1 8684   0.089   1.566   5.343 -0.2056 -1.7220 -0.2437
 2595SOL    HW2 8685   0.010   1.692   5.275  1.3789 -0.0721  0.8789
 2596SOL     OW 8686   6.038   4.285   6.508  0.3810  0.0478  0.0315
 2596SOL    HW1 8687   6.114   4.280   6.443 -0.3708 -2.2104 -0.7624
 2596SOL    HW2 8688   6.070   4.321   6.595  2.4762 -1.2872 -0.1284
 2597SOL     OW 8689   1.489   4.337   1.339 -0.1216  0.3395  0.0066
 2597SOL    HW1 8690   1.463   4.412   1.278 -0.3110  0.9815  0.8600
 2597SOL    HW2 8691   1.530   4.263   1.285 -1.6989  0.2189 -1.1124
 2598SOL     OW 8692   0.997   4.066   5.402 -0.1241  1.0828  0.3492
 2598SOL    HW1 8693   1.029   4.113   5.484 -1.9028  0.8584  1.2051
 2598SOL    HW2 8694   0.897   4.067   5.399 -0.1618 -0.8274 -0.6897
 2599SOL     OW 8695   3.232   0.173   0.776  0.6743 -0.3917 -0.0860
 2599SOL    HW1 8696   3.203   0.195   0.683 -0.4163 -0.6230  0.1905
 2599SOL    HW2 8697   3.177   0.224   0.842  0.2710 -1.5301  0.4734
 2600SOL     OW 8698   1.321   6.518   0.616 -0.3834  0.1043  0.2843
 2600SOL    HW1 8699   1.274   6.482   0.697 -0.9721 -0.3652 -0.2514
 2600SOL    HW2 8700   1.342   6.442   0.553 -0.6957  0.5624 -0.3852
 2601SOL     OW 8701   2.067   1.666   4.899  0.1756 -0.1091 -0.5050
 2601SOL    HW1 8702   1.991   1.718   4.937  1.3861  0.2295  1.6453
 2601SOL    HW2 8703   2.040   1.570   4.886 -1.2282  0.4330 -1.8896
 2602SOL     OW 8704   5.755   2.772   3.909  0.4891 -0.7499 -0.1805
 2602SOL    HW1 8705   5.676   2.712   3.897  0.5554 -1.0983  1.0510
 2602SOL    HW2 8706   5.723   2.865   3.930  0.3954 -0.3940 -1.7251
 2603SOL     OW 8707   5.602   1.913   6.806 -0.4190 -0.8077  0.3140
 2603SOL    HW1 8708   5.522   1.890   6.861 -0.2047  0.1022  1.0442
 2603SOL    HW2 8709   5.669   1.839   6.812 -1.3046 -1.7109 -0.5472
 2604SOL     OW 8710   5.755   1.074   0.916 -0.2999 -0.3065  0.3563
 2604SOL    HW1 8711   5.682   1.008   0.929 -0.2977 -0.5893 -0.9060
 2604SOL    HW2 8712   5.792   1.065   0.824  3.2150 -2.0802  1.7636
 2605SOL     OW 8713   5.049   2.848   5.827  0.0639 -0.0704 -0.6011
 2605SOL    HW1 8714   5.041   2.831   5.925  0.0874 -1.4347 -0.8081
 2605SOL    HW2 8715   5.103   2.930   5.811  1.3186 -0.6448  0.5119
 2606SOL     OW 8716   4.966   1.736   1.312 -0.1747  0.4936 -0.0241
 2606SOL    HW1 8717   4.984   1.827   1.351 -0.6055  0.6205 -0.1131
 2606SOL    HW2 8718   5.001   1.666   1.374 -0.8304  0.6949  0.5865
 2607SOL     OW 8719   6.302   4.687   5.009  0.1090 -0.1079 -0.3738
 2607SOL    HW1 8720   6.245   4.610   5.034 -0.8286  0.7737  0.2876
 2607SOL    HW2 8721   6.320   4.744   5.090  0.5856  0.4952 -0.8890
 2608SOL     OW 8722   0.909   2.400   0.628  0.2680  0.1514  0.5779
 2608SOL    HW1 8723   0.885   2.497   0.634  0.7317  0.3670 -0.7505
 2608SOL    HW2 8724   0.831   2.349   0.592  0.4590  0.2327  0.0484
 2609SOL     OW 8725   0.056   1.742   4.823  0.1106 -0.0748  0.5035
 2609SOL    HW1 8726   0.120   1.715   4.895  0.6761  1.4909  0.6146
 2609SOL    HW2 8727   0.093   1.819   4.772  0.0843 -1.6185 -2.0112
 2610SOL     OW 8728   5.962   4.318   5.340  0.5125 -0.3241 -0.2606
 2610SOL    HW1 8729   5.937   4.307   5.436 -0.7654  1.2637 -0.3673
 2610SOL    HW2 8730   6.011   4.237   5.309  1.4106 -0.6518  1.8543
 2611SOL     OW 8731   5.920   0.807   5.331 -0.4749 -0.0165  0.3071
 2611SOL    HW1 8732   6.009   0.795   5.374 -0.5955  1.6085  1.0821
 2611SOL    HW2 8733   5.920   0.762   5.241  0.7581 -0.9150  0.7211
 2612SOL     OW 8734   1.746   5.835   6.718 -0.2286  0.6644  0.1529
 2612SOL    HW1 8735   1.745   5.918   6.661 -1.8606  0.4731 -0.1493
 2612SOL    HW2 8736   1.825   5.779   6.694 -1.3395  0.1291 -2.6734
 2613SOL     OW 8737   1.947   2.118   4.196  0.3334 -0.5615 -0.3469
 2613SOL    HW1 8738   1.975   2.061   4.119 -1.0926 -1.9045  0.1000
 2613SOL    HW2 8739   1.881   2.186   4.165 -0.0303 -0.9226 -0.3664
 2614SOL     OW 8740   6.919   2.858   6.256  0.7671  0.1912 -0.2931
 2614SOL    HW1 8741   7.017   2.849   6.271  0.8359 -1.1044 -1.3570
 2614SOL    HW2 8742   6.876   2.898   6.337  2.0225 -0.1740  0.5718
 2615SOL     OW 8743   2.052   6.868   5.132  0.4261 -0.3289 -0.8073
 2615SOL    HW1 8744   2.073   6.885   5.036 -1.4653 -0.6936 -1.3309
 2615SOL    HW2 8745   1.973   6.806   5.138 -0.2372  0.6278  0.9730
 2616SOL     OW 8746   0.329   3.802   3.435  0.2827 -0.0860 -0.1290
 2616SOL    HW1 8747   0.373   3.715   3.416 -0.1354 -0.2043 -0.5850
 2616SOL    HW2 8748   0.235   3.800   3.401 -0.9424 -0.7517  2.9983
 2617SOL     OW 8749   0.069   6.140   2.550  0.5316 -0.4501  0.4325
 2617SOL    HW1 8750   0.117   6.151   2.463  1.1326  0.4794  0.8687
 2617SOL    HW2 8751   0.066   6.043   2.574  0.6109 -0.6860 -0.4803
 2618SOL     OW 8752   3.398   3.199   4.828 -0.7940 -0.0693  0.2516
 2618SOL    HW1 8753   3.387   3.116   4.774  0.2612 -0.1565  0.1466
 2618SOL    HW2 8754   3.429   3.274   4.769  2.3128 -0.6331  0.9428
 2619SOL     OW 8755   3.827   1.459   6.383 -0.0573 -0.0607  0.0677
 2619SOL    HW1 8756   3.802   1.507   6.299  1.2269  1.4627  0.5214
 2619SOL    HW2 8757   3.926   1.461   6.394 -0.0509 -1.8753  0.6959
 2620SOL     OW 8758   1.673   6.396   2.484  0.8016  0.8692 -0.0755
 2620SOL    HW1 8759   1.629   6.372   2.397  1.7413 -0.2348 -0.2623
 2620SOL    HW2 8760   1.602   6.422   2.550 -0.1921 -1.0899 -0.2896
 2621SOL     OW 8761   5.210   6.588   0.769 -0.4481  0.1280 -0.3734
 2621SOL    HW1 8762   5.209   6.532   0.852  0.4194  1.6635  0.7194
 2621SOL    HW2 8763   5.257   6.675   0.787 -0.8364  0.7957 -2.2908
 2622SOL     OW 8764   1.345   4.920   3.665 -0.0563  0.0192 -0.0982
 2622SOL    HW1 8765   1.290   4.911   3.582 -0.6304  0.8625  0.1802
 2622SOL    HW2 8766   1.292   4.891   3.744 -0.9223  2.7178  0.4449
 2623SOL     OW 8767   2.569   1.677   6.621 -0.4730 -0.1235 -0.1362
 2623SOL    HW1 8768   2.647   1.628   6.658  0.4197  0.4921 -1.1447
 2623SOL    HW2 8769   2.558   1.655   6.524 -1.2080  0.2346 -0.1439
 2624SOL     OW 8770   4.607   1.649   0.929  0.1686 -0.1716 -0.3746
 2624SOL    HW1 8771   4.575   1.556   0.911 -0.0190  0.1614 -1.8704
 2624SOL    HW2 8772   4.678   1.646   1.000 -0.6159 -1.3156  0.3945
 2625SOL     OW 8773   2.833   5.328   6.334 -0.4823 -0.2247  0.1393
 2625SOL    HW1 8774   2.902   5.374   6.277  0.8297 -3.6771 -1.3639
 2625SOL    HW2 8775   2.742   5.361   6.310  0.3442  1.2720 -1.1022
 2626SOL     OW 8776   3.179   4.727   0.145 -0.4427  0.2228 -0.6656
 2626SOL    HW1 8777   3.162   4.649   0.085 -0.1761  0.2164 -0.7360
 2626SOL    HW2 8778   3.232   4.796   0.095  1.7604 -0.7345  0.2158
 2627SOL     OW 8779   4.853   6.509   2.708  0.1647  0.3417  0.5722
 2627SOL    HW1 8780   4.883   6.583   2.647  0.8513 -0.1751  0.2665
 2627SOL    HW2 8781   4.837   6.546   2.800 -0.6892  1.0893  0.1313
 2628SOL     OW 8782   6.910   2.070   4.754  0.1229  0.2958  0.4624
 2628SOL    HW1 8783   6.987   2.011   4.729 -0.3911  0.0588 -0.6499
 2628SOL    HW2 8784   6.828   2.039   4.705 -0.3310  1.4614  0.4613
 2629SOL     OW 8785   6.571   5.736   4.278  0.0291  0.3371 -0.2166
 2629SOL    HW1 8786   6.655   5.748   4.330  0.8764  0.9828 -1.6523
 2629SOL    HW2 8787   6.576   5.652   4.225  0.0738  0.7173 -0.8256
 2630SOL     OW 8788   3.654   0.647   0.285 -0.2824 -0.4606  0.2233
 2630SOL    HW1 8789   3.572   0.595   0.263  0.3135 -2.2464  1.8495
 2630SOL    HW2 8790   3.718   0.644   0.208 -0.7445 -1.1612 -0.1397
 2631SOL     OW 8791   5.752   6.489   2.780  0.4868 -0.0741 -0.2640
 2631SOL    HW1 8792   5.672   6.517   2.834  0.3663 -0.7908 -0.0638
 2631SOL    HW2 8793   5.726   6.481   2.684  0.0668 -1.2226 -0.0698
 2632SOL     OW 8794   3.278   0.347   4.528 -0.3627 -0.2488  0.8120
 2632SOL    HW1 8795   3.268   0.248   4.533  0.6262 -0.4173 -0.2205
 2632SOL    HW2 8796   3.363   0.370   4.481 -0.3596  1.0996  1.4174
 2633SOL     OW 8797   6.195   2.922   1.833  0.1892 -0.4948 -0.3308
 2633SOL    HW1 8798   6.113   2.923   1.775 -1.3081 -0.8586  1.6714
 2633SOL    HW2 8799   6.247   3.006   1.817 -1.7352  0.8109 -0.1367
 2634SOL     OW 8800   5.832   0.329   5.747  0.9113  0.1152  0.1666
 2634SOL    HW1 8801   5.867   0.332   5.653 -2.4768  2.9189 -1.2088
 2634SOL    HW2 8802   5.851   0.417   5.792 -1.4213  0.5234  0.4406
 2635SOL     OW 8803   0.264   1.303   0.172 -0.0040 -0.0852  0.0390
 2635SOL    HW1 8804   0.363   1.314   0.181  0.0931 -1.0082  0.2117
 2635SOL    HW2 8805   0.220   1.327   0.258  0.2846 -1.8286  0.7209
 2636SOL     OW 8806   2.639   2.505   6.572 -0.5122  0.1899 -1.0111
 2636SOL    HW1 8807   2.579   2.434   6.609 -0.4396  0.2775 -0.7233
 2636SOL    HW2 8808   2.628   2.589   6.625  0.7164 -0.1289 -0.2136
 2637SOL     OW 8809   1.885   1.287   2.221 -0.7419  0.6159 -0.4016
 2637SOL    HW1 8810   1.953   1.309   2.290 -2.2740  2.3293  0.6851
 2637SOL    HW2 8811   1.802   1.340   2.239 -2.1514 -0.9138 -2.0169
 2638SOL     OW 8812   0.736   3.851   2.512 -0.1548  0.1904  0.1624
 2638SOL    HW1 8813   0.693   3.889   2.430  0.7234  0.6960 -0.0754
 2638SOL    HW2 8814   0.828   3.819   2.490  0.2238  0.6415  1.0228
 2639SOL     OW 8815   4.237   0.244   4.837  0.1253  0.0690 -0.1741
 2639SOL    HW1 8816   4.261   0.341   4.829  0.3882  0.0104 -0.0932
 2639SOL    HW2 8817   4.154   0.235   4.893  0.7546  0.1653  0.7955
 2640SOL     OW 8818   4.999   3.207   1.020  0.4926 -0.8128 -0.5606
 2640SOL    HW1 8819   4.973   3.250   1.106  1.3711  0.9368 -1.1265
 2640SOL    HW2 8820   5.074   3.142   1.037  0.7067 -0.4331 -0.0087
 2641SOL     OW 8821   5.975   5.020   6.338  0.2081 -0.6234  0.0012
 2641SOL    HW1 8822   5.960   4.958   6.415 -0.0801  0.9925  1.2899
 2641SOL    HW2 8823   6.065   5.063   6.347 -0.6441  1.1064  0.5895
 2642SOL     OW 8824   0.768   3.670   5.152 -0.0160  0.4460 -0.5773
 2642SOL    HW1 8825   0.734   3.759   5.122 -0.7920  0.6975  0.9934
 2642SOL    HW2 8826   0.850   3.683   5.208 -0.9663  0.3247  0.9017
 2643SOL     OW 8827   1.374   5.065   6.852 -0.4160 -0.4467  0.7662
 2643SOL    HW1 8828   1.409   4.974   6.828  2.7354  0.4162  1.5653
 2643SOL    HW2 8829   1.377   5.077   6.951  0.3966  0.9254  0.6003
 2644SOL     OW 8830   1.994   2.838   4.137  0.2713  0.6279  0.4114
 2644SOL    HW1 8831   1.934   2.909   4.174  0.4670 -0.1230  2.3106
 2644SOL    HW2 8832   1.938   2.767   4.093 -0.1242  0.6669  0.8397
 2645SOL     OW 8833   1.102   2.557   0.313 -0.3314 -0.1995  0.1006
 2645SOL    HW1 8834   1.176   2.560   0.246 -0.1608  1.1533  0.3323
 2645SOL    HW2 8835   1.114   2.476   0.371  0.4326 -0.4998 -0.4540
 2646SOL     OW 8836   6.253   0.514   6.795 -0.7082 -0.2623 -0.3074
 2646SOL    HW1 8837   6.279   0.575   6.721 -1.1699 -1.2269 -1.2917
 2646SOL    HW2 8838   6.329   0.504   6.859 -0.4922  0.9967 -0.3444
 2647SOL     OW 8839   6.433   1.696   2.064  0.3687 -0.4657  0.0384
 2647SOL    HW1 8840   6.384   1.635   2.001 -0.8787  1.7223 -1.2198
 2647SOL    HW2 8841   6.391   1.691   2.154 -1.9204  0.9219 -0.8710
 2648SOL     OW 8842   0.106   3.151   2.249  0.0837  0.0716  0.2384
 2648SOL    HW1 8843   0.095   3.131   2.347 -0.9558  0.3186  0.1760
 2648SOL    HW2 8844   0.157   3.076   2.206  3.0172  1.2019  1.4606
 2649SOL     OW 8845   4.465   6.620   3.900  0.0580 -0.2205  0.6367
 2649SOL    HW1 8846   4.480   6.718   3.915  2.1837 -0.7376  2.3936
 2649SOL    HW2 8847   4.394   6.587   3.962 -3.1328  0.7148 -2.2129
 2650SOL     OW 8848   4.301   5.572   3.254  0.3574 -0.1839 -0.1413
 2650SOL    HW1 8849   4.392   5.546   3.220  0.6906  1.6089 -0.7798
 2650SOL    HW2 8850   4.242   5.594   3.176 -0.0029  0.4964  0.3109
 2651SOL     OW 8851   3.646   6.951   4.724 -0.8334 -0.1414  0.4242
 2651SOL    HW1 8852   3.669   6.922   4.817  1.7932 -0.6950 -0.3086
 2651SOL    HW2 8853   3.655   7.051   4.718 -0.9586 -0.1074  0.7463
 2652SOL     OW 8854   0.827   0.006   4.906 -0.0223 -0.0885 -0.0334
 2652SOL    HW1 8855   0.830  -0.043   4.993  1.5246 -0.3820 -0.2267
 2652SOL    HW2 8856   0.778  -0.049   4.838 -0.2891 -0.3357  0.3532
 2653SOL     OW 8857   1.203   2.200   1.828  0.1219 -0.0950 -0.7068
 2653SOL    HW1 8858   1.108   2.191   1.800 -0.5706 -2.6872  1.9574
 2653SOL    HW2 8859   1.208   2.261   1.907  0.2782 -1.5852  0.4820
 2654SOL     OW 8860   3.757   1.291   2.408 -0.1849 -0.3459  0.0297
 2654SOL    HW1 8861   3.754   1.215   2.344 -0.0669  0.7325 -1.3092
 2654SOL    HW2 8862   3.779   1.375   2.359  4.0733 -0.0405  2.0481
 2655SOL     OW 8863   5.538   1.284   1.869 -0.8255 -0.1345 -0.5727
 2655SOL    HW1 8864   5.553   1.356   1.801 -2.0201 -0.9300 -1.7240
 2655SOL    HW2 8865   5.461   1.310   1.927 -1.5853 -0.6831 -1.3135
 2656SOL     OW 8866   0.008   6.639   3.061 -0.3883 -0.2212 -0.2238
 2656SOL    HW1 8867  -0.075   6.584   3.059 -1.5947  1.4853 -3.0525
 2656SOL    HW2 8868   0.081   6.589   3.108 -2.7677 -2.0373  1.7948
 2657SOL     OW 8869   6.186   4.415   1.922  0.1038  0.1465  0.2259
 2657SOL    HW1 8870   6.272   4.371   1.948  0.9265  1.7104  0.2937
 2657SOL    HW2 8871   6.169   4.399   1.825  0.9427  0.5458  0.0019
 2658SOL     OW 8872   5.080   0.919   3.635  0.5445 -0.3684  0.1367
 2658SOL    HW1 8873   5.054   0.901   3.730  0.6256 -0.5842  0.1201
 2658SOL    HW2 8874   5.140   0.998   3.631 -2.2180  1.9016 -0.0884
 2659SOL     OW 8875   0.967   6.275   6.199  0.5382  0.2488  0.1676
 2659SOL    HW1 8876   0.910   6.284   6.280 -1.0503 -0.0373 -0.8855
 2659SOL    HW2 8877   0.949   6.352   6.137  1.2398  0.1023 -0.2349
 2660SOL     OW 8878   3.546   3.636   6.110 -0.9462 -0.4845 -0.0062
 2660SOL    HW1 8879   3.597   3.575   6.050  2.8499  1.5383  0.8954
 2660SOL    HW2 8880   3.501   3.706   6.056 -1.8559 -1.5903 -0.7346
 2661SOL     OW 8881   2.104   3.323   4.483  0.3550  0.7853 -0.1295
 2661SOL    HW1 8882   2.119   3.228   4.457  0.7143  1.1103 -1.1443
 2661SOL    HW2 8883   2.081   3.327   4.580  0.5818 -0.3120 -0.0126
 2662SOL     OW 8884   5.904   1.431   6.680 -0.1058 -0.4880  0.3326
 2662SOL    HW1 8885   5.873   1.476   6.596  1.3952 -2.1943 -1.2331
 2662SOL    HW2 8886   5.904   1.332   6.666  0.2514 -0.8207  2.3626
 2663SOL     OW 8887   2.639   2.407   4.322  0.3771  0.1581 -0.0074
 2663SOL    HW1 8888   2.690   2.369   4.244 -0.6365  0.0923 -0.6573
 2663SOL    HW2 8889   2.699   2.411   4.402  1.3795  0.0273 -0.7298
 2664SOL     OW 8890   0.003   5.796   0.438 -0.2195  0.1543 -0.1106
 2664SOL    HW1 8891  -0.016   5.699   0.417 -0.7765  0.4418 -1.0250
 2664SOL    HW2 8892  -0.080   5.850   0.421  0.9670  1.2872 -3.0497
 2665SOL     OW 8893   1.081   2.740   1.243  0.2028 -0.0738 -0.3485
 2665SOL    HW1 8894   1.072   2.641   1.252 -0.0779 -0.2013 -1.8296
 2665SOL    HW2 8895   1.168   2.769   1.282  0.2185 -0.8766  0.2401
 2666SOL     OW 8896   0.205   5.490   5.635  0.1837  0.0726 -0.2761
 2666SOL    HW1 8897   0.233   5.575   5.681  1.9171 -0.2294 -0.7010
 2666SOL    HW2 8898   0.112   5.500   5.601 -1.0779  0.4478  2.9349
 2667SOL     OW 8899   4.513   0.041   3.837  0.3360 -0.0466 -0.0855
 2667SOL    HW1 8900   4.500   0.119   3.899  2.7024  0.9745 -0.7629
 2667SOL    HW2 8901   4.605   0.003   3.851  0.9159  0.1591 -2.8626
 2668SOL     OW 8902   0.697   0.619   6.917  0.0611 -0.1729 -0.4975
 2668SOL    HW1 8903   0.766   0.582   6.856  0.3627  0.3534 -0.4787
 2668SOL    HW2 8904   0.741   0.655   7.000  0.1277  2.7615 -1.6962
 2669SOL     OW 8905   1.115   1.010   3.103  0.0155 -0.1619 -0.0633
 2669SOL    HW1 8906   1.115   0.910   3.101 -0.8415 -0.1522 -0.6924
 2669SOL    HW2 8907   1.022   1.044   3.088 -0.1151  0.6918  2.2711
 2670SOL     OW 8908   2.512   5.764   4.903 -0.0966  0.1217  0.5172
 2670SOL    HW1 8909   2.511   5.724   4.811  0.8537  0.1679  0.4810
 2670SOL    HW2 8910   2.502   5.864   4.896 -1.2928  0.0217  0.5467
 2671SOL     OW 8911   6.049   3.381   3.317 -0.0681 -0.6727  0.0528
 2671SOL    HW1 8912   5.970   3.320   3.317  0.9373 -2.0761 -1.3688
 2671SOL    HW2 8913   6.033   3.458   3.256 -0.2313 -1.1420 -0.5065
 2672SOL     OW 8914   4.024   2.191   3.180  0.0182  0.3679  0.0146
 2672SOL    HW1 8915   4.057   2.099   3.158  1.8310  1.2071 -0.9961
 2672SOL    HW2 8916   3.925   2.194   3.168 -0.1057 -1.4907  0.2520
 2673SOL     OW 8917   4.683   2.316   2.619  0.1075  0.6427  0.3773
 2673SOL    HW1 8918   4.615   2.258   2.576  0.2836  0.3376  0.5033
 2673SOL    HW2 8919   4.643   2.406   2.640 -0.2320  0.4901  0.3878
 2674SOL     OW 8920   4.431   1.046   5.689 -0.4496  0.4149 -0.1049
 2674SOL    HW1 8921   4.332   1.038   5.704 -0.5228 -0.4778 -0.9930
 2674SOL    HW2 8922   4.467   1.120   5.747 -1.6941  1.0091 -0.0467
 2675SOL     OW 8923   2.276   0.578   2.691 -0.0921 -0.2722 -0.2434
 2675SOL    HW1 8924   2.241   0.573   2.784  1.6532 -2.3611  0.3870
 2675SOL    HW2 8925   2.361   0.631   2.689 -0.2335 -0.0532 -0.7042
 2676SOL     OW 8926   4.009   2.900   1.060 -0.6669 -0.4749 -0.3939
 2676SOL    HW1 8927   4.058   2.844   1.128  0.1209  0.0533 -0.5173
 2676SOL    HW2 8928   3.989   2.990   1.099 -0.4154 -0.2484 -0.7873
 2677SOL     OW 8929   3.807   0.816   6.369  0.2179  0.8078  1.0765
 2677SOL    HW1 8930   3.726   0.867   6.400 -0.2695  1.5026 -1.1496
 2677SOL    HW2 8931   3.804   0.724   6.408 -1.0040  1.2072  2.0140
 2678SOL     OW 8932   0.201   4.520   2.745  0.2793 -0.0200  0.2977
 2678SOL    HW1 8933   0.144   4.585   2.795  1.1273  0.6418  0.4331
 2678SOL    HW2 8934   0.293   4.519   2.785  0.6447 -0.3314 -0.5256
 2679SOL     OW 8935   2.240   6.891   6.871  0.2091 -0.0898  0.0817
 2679SOL    HW1 8936   2.241   6.828   6.948 -1.0634 -1.9739 -1.3497
 2679SOL    HW2 8937   2.163   6.870   6.811  0.0436  2.5368 -0.7547
 2680SOL     OW 8938   2.705   5.715   3.457  0.2522 -0.1297  0.3458
 2680SOL    HW1 8939   2.689   5.621   3.487  0.0906  0.6815  3.1078
 2680SOL    HW2 8940   2.678   5.778   3.530 -1.8116  2.2407 -2.2148
 2681SOL     OW 8941   2.997   5.064   0.254 -0.0321 -0.8180 -0.3667
 2681SOL    HW1 8942   3.043   5.064   0.343 -2.3134  1.1497  0.9434
 2681SOL    HW2 8943   2.915   5.008   0.259 -1.2531  0.8740 -0.5313
 2682SOL     OW 8944   4.078   2.336   5.463  0.0585 -0.0707 -0.1518
 2682SOL    HW1 8945   4.154   2.389   5.424 -0.1094  2.0365  2.1058
 2682SOL    HW2 8946   4.003   2.398   5.485 -1.5611 -1.8331 -0.5224
 2683SOL     OW 8947   3.797   0.670   5.651 -0.2051  0.2665  0.3786
 2683SOL    HW1 8948   3.834   0.762   5.663 -1.6827  0.8372  0.7877
 2683SOL    HW2 8949   3.742   0.645   5.731  0.1880 -0.9957  0.2896
 2684SOL     OW 8950   6.128   1.203   4.161 -0.3909 -0.0195 -0.9331
 2684SOL    HW1 8951   6.173   1.286   4.129 -1.0061  0.5334 -0.3911
 2684SOL    HW2 8952   6.195   1.146   4.209  0.3042 -0.3967 -2.2805
 2685SOL     OW 8953   0.972   3.409   1.793  0.5646 -0.7860  0.2228
 2685SOL    HW1 8954   1.011   3.378   1.880 -1.3755 -2.2762  0.6475
 2685SOL    HW2 8955   1.040   3.396   1.720  1.5136 -1.4897  1.1892
 2686SOL     OW 8956   5.248   4.326   6.238  0.0484 -0.6329  0.4556
 2686SOL    HW1 8957   5.291   4.242   6.204  0.2356 -1.3638  2.3470
 2686SOL    HW2 8958   5.238   4.320   6.338 -0.3225  1.4323  0.5900
 2687SOL     OW 8959   4.529   2.180   3.750  0.0384  0.1755  0.7196
 2687SOL    HW1 8960   4.602   2.153   3.813  0.0787  2.1287  1.5840
 2687SOL    HW2 8961   4.445   2.198   3.801  0.2405  2.3976  0.3919
 2688SOL     OW 8962   3.129   1.808   0.391 -0.0439  0.3238  0.2323
 2688SOL    HW1 8963   3.078   1.726   0.364 -0.9618  0.2145  2.0748
 2688SOL    HW2 8964   3.134   1.811   0.491  2.2938  1.1558  0.1408
 2689SOL     OW 8965   0.069   3.653   6.551 -0.0087 -0.1763  0.6035
 2689SOL    HW1 8966   0.075   3.752   6.546  0.4793 -0.2546 -0.8302
 2689SOL    HW2 8967   0.150   3.617   6.597  1.1258 -0.0351 -1.1868
 2690SOL     OW 8968   1.514   3.790   0.025  0.3947 -0.0134 -0.1236
 2690SOL    HW1 8969   1.552   3.873   0.067  1.1750 -1.9132  3.3047
 2690SOL    HW2 8970   1.582   3.717   0.028 -0.8405 -1.2850 -1.4605
 2691SOL     OW 8971   5.385   3.639   6.466  0.4537 -0.2531  0.2251
 2691SOL    HW1 8972   5.437   3.711   6.511 -0.3608 -0.4347  1.5157
 2691SOL    HW2 8973   5.287   3.661   6.472  0.2423 -1.1155 -0.0062
 2692SOL     OW 8974   3.814   5.895   5.418  0.1393  0.2282  0.1409
 2692SOL    HW1 8975   3.853   5.837   5.346  0.1880 -0.4474  0.6995
 2692SOL    HW2 8976   3.804   5.988   5.384 -0.9749 -0.3261 -1.1665
 2693SOL     OW 8977   2.160   0.088   3.594  0.0731  0.6304 -0.1944
 2693SOL    HW1 8978   2.258   0.091   3.609  0.0798  2.5022 -0.4502
 2693SOL    HW2 8979   2.137   0.007   3.539  1.5023  0.3679 -0.4286
 2694SOL     OW 8980   2.048   4.388   1.724 -0.4600  0.7096  0.2592
 2694SOL    HW1 8981   2.005   4.298   1.719 -0.6982  0.8821 -1.1780
 2694SOL    HW2 8982   2.010   4.447   1.653  0.4732  1.6090  0.4833
 2695SOL     OW 8983   5.749   1.573   5.865 -0.0682  0.0157  0.0764
 2695SOL    HW1 8984   5.798   1.497   5.822  1.2037  1.3886 -0.9920
 2695SOL    HW2 8985   5.794   1.598   5.951  0.8250  0.9089 -0.6257
 2696SOL     OW 8986   4.755   1.678   3.923  0.6899  0.5764  0.2538
 2696SOL    HW1 8987   4.722   1.598   3.872  1.3229  0.7355 -0.4179
 2696SOL    HW2 8988   4.741   1.761   3.869 -2.4566  1.3626  1.9912
 2697SOL     OW 8989   2.186   2.017   4.544  0.2254 -0.1803  0.2367
 2697SOL    HW1 8990   2.278   2.045   4.569 -0.0751  0.9125  0.1641
 2697SOL    HW2 8991   2.129   2.012   4.627  1.0123 -3.7172  0.7532
 2698SOL     OW 8992   6.079   1.484   0.483 -1.0176 -0.0504  0.5985
 2698SOL    HW1 8993   6.097   1.513   0.389 -0.7574  0.3270  0.7623
 2698SOL    HW2 8994   5.987   1.446   0.488 -0.7162 -0.8869  0.0086
 2699SOL     OW 8995   2.584   2.433   4.847 -0.2068 -0.3063  0.0441
 2699SOL    HW1 8996   2.655   2.369   4.817 -0.8260 -1.2317  0.5207
 2699SOL    HW2 8997   2.522   2.452   4.771 -0.6160 -1.0818  0.1796
 2700SOL     OW 8998   3.121   4.608   6.183 -1.5229 -0.2584  0.1211
 2700SOL    HW1 8999   3.143   4.602   6.280  5.0636 -1.5454 -0.9372
 2700SOL    HW2 9000   3.102   4.517   6.147 -1.1302 -0.2307 -0.1715
 2701SOL     OW 9001   6.585   6.122   4.338 -0.1664  0.1391  0.0610
 2701SOL    HW1 9002   6.682   6.131   4.312  0.0007 -1.0052  0.2363
 2701SOL    HW2 9003   6.546   6.043   4.292 -0.7855  0.0895  0.6590
 2702SOL     OW 9004   4.105   1.028   1.866  0.1786  0.2461 -0.5048
 2702SOL    HW1 9005   4.092   1.025   1.965 -1.9746 -0.7851 -0.7707
 2702SOL    HW2 9006   4.020   1.002   1.820  2.0748 -2.9773 -2.5993
 2703SOL     OW 9007   1.743   4.757   1.815 -0.0878  0.2133  0.0024
 2703SOL    HW1 9008   1.822   4.738   1.758 -0.0465  1.4310 -0.3704
 2703SOL    HW2 9009   1.675   4.684   1.803  2.0188 -2.3591  2.4093
 2704SOL     OW 9010   5.586   6.301   1.189  0.5765 -0.0762 -0.2695
 2704SOL    HW1 9011   5.664   6.294   1.128  1.8350  0.4386  1.2148
 2704SOL    HW2 9012   5.546   6.393   1.183  0.1235 -0.3058 -0.9456
 2705SOL     OW 9013   4.304   5.339   2.807  0.3875  0.2587  0.6906
 2705SOL    HW1 9014   4.320   5.361   2.904  2.3159  0.0943  0.4459
 2705SOL    HW2 9015   4.299   5.240   2.796 -0.3608  0.2940  0.6862
 2706SOL     OW 9016   3.878   2.131   2.285 -0.5425  0.0323  0.6220
 2706SOL    HW1 9017   3.821   2.171   2.214 -1.4831  1.1327  1.9323
 2706SOL    HW2 9018   3.819   2.085   2.352  0.2627 -0.3418  1.0874
 2707SOL     OW 9019   4.883   4.190   1.541  0.0854 -0.3542  0.9437
 2707SOL    HW1 9020   4.929   4.278   1.549 -1.9874  0.9223 -0.2417
 2707SOL    HW2 9021   4.843   4.166   1.630 -0.1227  0.3795  1.0561
 2708SOL     OW 9022   6.648   1.723   0.499  0.0670  0.3746 -0.1266
 2708SOL    HW1 9023   6.680   1.788   0.568  1.0080  0.3465 -0.5215
 2708SOL    HW2 9024   6.703   1.640   0.504 -1.4523 -0.6215  0.7191
 2709SOL     OW 9025   5.173   2.356   6.009  0.1144 -0.0394  0.4265
 2709SOL    HW1 9026   5.229   2.291   6.061 -0.1905 -0.3927  0.3141
 2709SOL    HW2 9027   5.166   2.325   5.914  1.3328  1.0130 -0.0407
 2710SOL     OW 9028   1.017   0.555   1.361 -0.0266 -0.8995 -0.4423
 2710SOL    HW1 9029   0.922   0.530   1.378 -0.1988  0.2627  0.4859
 2710SOL    HW2 9030   1.027   0.583   1.266 -0.7903 -0.3876 -0.3881
 2711SOL     OW 9031   5.997   4.956   1.271  0.8703 -0.9227 -0.3547
 2711SOL    HW1 9032   6.069   4.982   1.207  0.0582  2.8962  0.0263
 2711SOL    HW2 9033   5.908   4.983   1.234  0.0347 -1.7885  0.9175
 2712SOL     OW 9034   6.584   4.929   5.006 -0.2731  0.2104  0.3662
 2712SOL    HW1 9035   6.491   4.962   4.991 -0.4709 -0.7611 -0.6623
 2712SOL    HW2 9036   6.609   4.942   5.102 -1.0406  1.5347  0.4109
 2713SOL     OW 9037   4.618   2.165   0.712 -0.2129 -0.0301  0.0054
 2713SOL    HW1 9038   4.656   2.245   0.758  1.9408 -1.1395  0.2780
 2713SOL    HW2 9039   4.555   2.118   0.773  0.2552  0.2079  0.6766
 2714SOL     OW 9040   3.424   2.466   6.259 -0.2614  0.3317  0.3053
 2714SOL    HW1 9041   3.481   2.402   6.311 -1.6403 -0.9034  0.3793
 2714SOL    HW2 9042   3.355   2.505   6.320  0.7898  2.2058  0.3404
 2715SOL     OW 9043   3.815   1.956   1.252 -0.0351 -0.0038 -0.4131
 2715SOL    HW1 9044   3.820   1.856   1.257  1.1060  0.0799  0.8118
 2715SOL    HW2 9045   3.884   1.990   1.188  0.3681  0.0406  0.0351
 2716SOL     OW 9046   1.429   0.396   1.560  0.4266  0.5796  0.0418
 2716SOL    HW1 9047   1.483   0.467   1.605 -0.8516  1.5845  0.0746
 2716SOL    HW2 9048   1.375   0.438   1.486 -0.9681 -0.1888  0.5785
 2717SOL     OW 9049   5.901   6.546   0.234 -0.9692 -0.6786 -0.1447
 2717SOL    HW1 9050   5.933   6.509   0.321  2.6013  1.4073 -0.3552
 2717SOL    HW2 9051   5.899   6.473   0.165  0.1047 -1.5903  0.7526
 2718SOL     OW 9052   1.397   0.419   2.871  0.4172  0.2470 -0.0862
 2718SOL    HW1 9053   1.299   0.406   2.890  0.5657 -1.2904 -0.2630
 2718SOL    HW2 9054   1.409   0.447   2.776  0.3132 -4.0991 -1.6136
 2719SOL     OW 9055   6.976   1.345   6.089  0.0323 -0.3364  0.2354
 2719SOL    HW1 9056   7.000   1.250   6.067  0.3730 -0.6743  1.8614
 2719SOL    HW2 9057   6.992   1.403   6.010  1.1985 -1.4219 -0.3686
 2720SOL     OW 9058   2.094   1.513   3.471 -0.1234  0.2077 -0.4198
 2720SOL    HW1 9059   2.072   1.431   3.524  0.0497  0.6156  0.2912
 2720SOL    HW2 9060   2.115   1.487   3.377 -0.6299 -0.5041 -0.3388
 2721SOL     OW 9061   3.465   1.110   4.737 -0.9822 -0.2646  0.0066
 2721SOL    HW1 9062   3.423   1.200   4.749 -1.1190 -0.5070  1.5843
 2721SOL    HW2 9063   3.460   1.059   4.823 -1.9205 -2.2285 -1.1196
 2722SOL     OW 9064   1.572   0.188   5.607  0.4915 -0.2787  0.2561
 2722SOL    HW1 9065   1.538   0.139   5.526  1.2614  1.1075 -0.9542
 2722SOL    HW2 9066   1.668   0.210   5.595  0.8920 -0.9252  2.0311
 2723SOL     OW 9067   3.210   0.909   5.643 -0.5095  0.7487  1.1326
 2723SOL    HW1 9068   3.259   0.850   5.709  1.4745  0.5953 -0.3704
 2723SOL    HW2 9069   3.133   0.859   5.604  1.1676 -0.9944 -0.1558
 2724SOL     OW 9070   4.104   0.120   2.428 -0.0399  0.5203 -0.0565
 2724SOL    HW1 9071   4.094   0.026   2.394 -0.4172  0.5834 -0.1340
 2724SOL    HW2 9072   4.200   0.144   2.432  0.0202  0.6369 -1.4599
 2725SOL     OW 9073   4.730   0.500   5.957 -0.1695  0.6302 -0.6497
 2725SOL    HW1 9074   4.752   0.428   6.023  2.3444  0.5704 -1.4376
 2725SOL    HW2 9075   4.683   0.459   5.878  2.8614 -0.6413 -1.9523
 2726SOL     OW 9076   6.386   3.864   0.375  0.7750 -0.1242  0.1777
 2726SOL    HW1 9077   6.445   3.881   0.454  2.4762 -1.7720 -0.6549
 2726SOL    HW2 9078   6.408   3.929   0.302  2.5324 -1.5075 -0.5850
 2727SOL     OW 9079   1.776   4.109   6.233 -0.1331 -0.0959 -0.0268
 2727SOL    HW1 9080   1.868   4.090   6.267  0.3743  0.9184 -0.7785
 2727SOL    HW2 9081   1.779   4.187   6.171 -0.7757 -2.4567 -3.3109
 2728SOL     OW 9082   2.112   5.395   6.513  0.3904  0.3086 -0.8128
 2728SOL    HW1 9083   2.033   5.404   6.574  0.9752 -0.5680  0.1017
 2728SOL    HW2 9084   2.194   5.373   6.567  0.6979 -1.6909 -1.9933
 2729SOL     OW 9085   3.962   2.149   4.527  0.2112  0.0796 -0.4369
 2729SOL    HW1 9086   3.987   2.149   4.430  2.2241 -3.0838 -0.0550
 2729SOL    HW2 9087   3.885   2.086   4.541  0.2674  0.1242  0.0823
 2730SOL     OW 9088   6.545   5.456   1.621 -0.2254  0.1017 -0.0894
 2730SOL    HW1 9089   6.592   5.377   1.583  0.2016 -0.1592  0.9463
 2730SOL    HW2 9090   6.613   5.525   1.648 -0.5948  0.8549 -1.0340
 2731SOL     OW 9091   2.391   4.223   6.317 -0.4021 -0.2995 -0.4499
 2731SOL    HW1 9092   2.305   4.271   6.305 -1.1013 -1.4525 -0.2320
 2731SOL    HW2 9093   2.373   4.125   6.331  0.8891 -0.4396  0.4101
 2732SOL     OW 9094   1.153   0.332   2.972 -0.1560 -0.4283 -0.5092
 2732SOL    HW1 9095   1.055   0.344   2.954 -0.1183 -0.8987 -1.0649
 2732SOL    HW2 9096   1.165   0.263   3.043 -0.2679  0.6610  0.6055
 2733SOL     OW 9097   3.369   5.551   2.455  0.2856 -0.2269 -0.6006
 2733SOL    HW1 9098   3.385   5.505   2.367  0.5545 -0.3256 -0.4993
 2733SOL    HW2 9099   3.270   5.556   2.472  0.1963  0.3584 -1.2123
 2734SOL     OW 9100   0.922   2.467   2.710 -0.3759  0.6793 -0.3412
 2734SOL    HW1 9101   0.960   2.552   2.673  2.1847  0.2986  1.1946
 2734SOL    HW2 9102   0.844   2.439   2.655  0.2085  2.7313 -2.3671
 2735SOL     OW 9103   2.174   4.501   2.773 -0.3508 -0.2644 -0.2725
 2735SOL    HW1 9104   2.263   4.483   2.815 -0.8237  0.3445  1.0392
 2735SOL    HW2 9105   2.101   4.466   2.832 -1.1369  2.6733  0.6404
 2736SOL     OW 9106   1.189   6.007   1.491 -0.0934  0.2393 -0.7162
 2736SOL    HW1 9107   1.258   6.038   1.426  0.9896 -0.8161 -0.1264
 2736SOL    HW2 9108   1.172   5.910   1.477 -0.6326  0.2438 -0.1263
 2737SOL     OW 9109   1.614   6.323   6.515  0.1413 -0.0207 -0.5206
 2737SOL    HW1 9110   1.525   6.286   6.542 -0.9205  1.8294 -1.3171
 2737SOL    HW2 9111   1.686   6.263   6.550 -1.2894 -0.2861  2.2695
 2738SOL     OW 9112   5.296   3.820   5.683  0.0069  0.3167  0.1121
 2738SOL    HW1 9113   5.385   3.792   5.646 -0.5250  0.6915 -1.5668
 2738SOL    HW2 9114   5.223   3.786   5.623 -0.9242  0.9113  0.8777
 2739SOL     OW 9115   6.764   2.491   5.971  0.7276  0.1127  0.0158
 2739SOL    HW1 9116   6.699   2.549   6.019  1.4508  1.6177 -0.7520
 2739SOL    HW2 9117   6.715   2.436   5.903  0.0065 -0.3746  0.9026
 2740SOL     OW 9118   1.081   6.509   3.906 -0.0930  0.5454 -0.0427
 2740SOL    HW1 9119   0.998   6.471   3.947  1.9783 -5.0210 -0.0819
 2740SOL    HW2 9120   1.073   6.508   3.806  0.0273 -0.1878 -0.0512
 2741SOL     OW 9121   0.087   5.796   6.580 -0.2389 -0.3722  0.0181
 2741SOL    HW1 9122   0.185   5.778   6.566 -0.2293 -0.2927 -0.0206
 2741SOL    HW2 9123   0.047   5.722   6.633 -0.2143 -0.5369 -0.1935
 2742SOL     OW 9124   6.719   0.453   6.274  0.4231 -0.5577  0.4700
 2742SOL    HW1 9125   6.684   0.541   6.305  0.4659 -0.9660  1.7637
 2742SOL    HW2 9126   6.720   0.389   6.351  0.3010 -1.7221 -0.4639
 2743SOL     OW 9127   3.282   5.737   3.350 -0.1000 -0.4315 -0.1716
 2743SOL    HW1 9128   3.201   5.697   3.394 -0.1777  0.4097  0.4654
 2743SOL    HW2 9129   3.254   5.813   3.292  0.3183  0.5207  0.8450
 2744SOL     OW 9130   2.091   3.851   4.321  0.3630  0.1592  0.0523
 2744SOL    HW1 9131   2.094   3.760   4.361 -1.7391  0.0875  0.1744
 2744SOL    HW2 9132   1.999   3.889   4.331  1.4816  2.8581  1.1910
 2745SOL     OW 9133   2.610   0.784   1.235  0.1626 -0.2522  0.3654
 2745SOL    HW1 9134   2.601   0.698   1.185 -1.6513 -0.3709  0.8294
 2745SOL    HW2 9135   2.655   0.766   1.323 -0.3097 -0.7640  0.5115
 2746SOL     OW 9136   6.573   6.647   5.613  0.2648  0.2740 -0.6957
 2746SOL    HW1 9137   6.475   6.663   5.624  0.0404  0.1414 -2.2757
 2746SOL    HW2 9138   6.608   6.598   5.693 -0.4627  2.3122  0.9710
 2747SOL     OW 9139   5.408   6.243   5.759 -0.3826  0.2544  0.1964
 2747SOL    HW1 9140   5.378   6.296   5.680  0.6617  0.5034 -0.0534
 2747SOL    HW2 9141   5.395   6.296   5.842 -0.3513  0.4703  0.0627
 2748SOL     OW 9142   6.246   2.959   3.326 -0.2886  0.1824 -0.2193
 2748SOL    HW1 9143   6.206   3.033   3.380  0.2385  0.2037  0.1465
 2748SOL    HW2 9144   6.327   2.924   3.372  0.5304  0.6108 -1.2929
 2749SOL     OW 9145   0.150   5.562   1.319  0.0742  0.2601  0.5020
 2749SOL    HW1 9146   0.217   5.490   1.338 -0.9859 -1.0755 -0.6046
 2749SOL    HW2 9147   0.140   5.572   1.220 -0.9429  0.8393  0.6571
 2750SOL     OW 9148   0.050   1.852   4.158 -0.1779 -0.0488 -0.2857
 2750SOL    HW1 9149   0.128   1.910   4.137 -0.7088  1.6220  1.9729
 2750SOL    HW2 9150   0.072   1.794   4.237 -1.0731  0.1412  0.1136
 2751SOL     OW 9151   6.071   4.640   3.688  0.8200  0.1696  0.1182
 2751SOL    HW1 9152   6.022   4.676   3.609  1.1402 -0.2536 -0.2747
 2751SOL    HW2 9153   6.164   4.615   3.661  0.9831  0.1723  0.6660
 2752SOL     OW 9154   3.714   5.015   5.474 -0.7085  0.5813  0.0663
 2752SOL    HW1 9155   3.719   5.035   5.376 -0.2226 -0.3440 -0.1074
 2752SOL    HW2 9156   3.792   4.957   5.501 -2.1599 -1.2841  0.4742
 2753SOL     OW 9157   0.119   2.611   1.148 -0.6140  0.3491  0.8088
 2753SOL    HW1 9158   0.204   2.608   1.200 -1.1913  0.0232  1.7410
 2753SOL    HW2 9159   0.140   2.625   1.051  0.4544  1.4158  1.1704
 2754SOL     OW 9160   0.181   6.081   4.900 -0.3461  0.4597 -0.4088
 2754SOL    HW1 9161   0.215   6.033   4.980 -0.5853  1.9609  0.6414
 2754SOL    HW2 9162   0.081   6.073   4.897 -0.2237 -1.0236 -1.5443
 2755SOL     OW 9163   4.289   4.767   1.119  0.0418  0.1237  0.2581
 2755SOL    HW1 9164   4.209   4.719   1.082 -0.1633  0.6005  0.0610
 2755SOL    HW2 9165   4.325   4.717   1.197 -1.2009  0.5269  1.1307
 2756SOL     OW 9166   1.983   4.943   4.798  0.0775  0.1136 -0.3202
 2756SOL    HW1 9167   2.083   4.941   4.800  0.1779  0.6929 -2.3622
 2756SOL    HW2 9168   1.950   5.028   4.839  0.2681 -0.8516  2.0263
 2757SOL     OW 9169   0.053   0.556   6.843  0.2836  0.5062  0.0766
 2757SOL    HW1 9170   0.092   0.492   6.910 -0.0407 -1.3907 -1.4536
 2757SOL    HW2 9171   0.126   0.597   6.789  0.3880 -0.5802 -0.6409
 2758SOL     OW 9172   3.043   3.891   1.371  0.6079  0.5725 -0.1403
 2758SOL    HW1 9173   2.999   3.908   1.459  1.0848 -0.5614  0.3307
 2758SOL    HW2 9174   2.974   3.886   1.299 -0.0795 -1.1271  0.5799
 2759SOL     OW 9175   2.479   1.894   0.448 -0.0286 -0.6721 -0.3987
 2759SOL    HW1 9176   2.565   1.928   0.485  0.8817 -1.6964 -1.5005
 2759SOL    HW2 9177   2.428   1.970   0.407  0.6918 -0.1750 -0.3869
 2760SOL     OW 9178   0.471   2.731   1.229  0.4779 -0.5493  0.0306
 2760SOL    HW1 9179   0.559   2.717   1.183 -0.1711 -0.2555 -1.3464
 2760SOL    HW2 9180   0.474   2.818   1.279  0.2715  0.6254 -1.8681
 2761SOL     OW 9181   2.683   4.718   0.683  0.2227  0.1613  0.0280
 2761SOL    HW1 9182   2.780   4.743   0.679 -0.1970  1.7575 -1.8353
 2761SOL    HW2 9183   2.636   4.752   0.602 -2.0696  0.0654  1.2165
 2762SOL     OW 9184   6.692   6.886   1.998 -0.6307 -0.0997  0.0337
 2762SOL    HW1 9185   6.683   6.790   2.024  0.5244 -0.0052  0.8855
 2762SOL    HW2 9186   6.788   6.913   2.005 -0.8745  1.0051 -0.6248
 2763SOL     OW 9187   5.810   6.472   6.411 -0.5018  0.4449  0.1171
 2763SOL    HW1 9188   5.734   6.504   6.468  0.2678  0.9637  0.8875
 2763SOL    HW2 9189   5.819   6.373   6.421 -2.0675  0.1257 -1.2405
 2764SOL     OW 9190   0.996   5.048   1.243 -0.3307  0.1131 -0.1725
 2764SOL    HW1 9191   1.001   5.121   1.175 -0.6614  0.7926  0.5055
 2764SOL    HW2 9192   1.052   4.971   1.214 -0.3958  0.4268 -1.1607
 2765SOL     OW 9193   6.010   6.916   0.739  0.3866 -0.6788 -0.1181
 2765SOL    HW1 9194   5.974   6.849   0.803  1.3649 -1.5490 -0.4485
 2765SOL    HW2 9195   5.942   6.988   0.723  0.6567  0.4362  3.0457
 2766SOL     OW 9196   2.012   5.498   0.856 -0.2283 -0.1178 -0.6933
 2766SOL    HW1 9197   2.101   5.525   0.819  0.8784 -1.2321  1.0174
 2766SOL    HW2 9198   2.023   5.466   0.950 -2.5187  0.0782 -0.2981
 2767SOL     OW 9199   2.841   1.037   5.694 -0.3252  0.2362  0.2686
 2767SOL    HW1 9200   2.865   1.129   5.664 -0.7566 -0.2646 -1.6922
 2767SOL    HW2 9201   2.882   1.021   5.784  2.7005  1.1302 -0.8230
 2768SOL     OW 9202   0.125   0.448   0.973  0.0595  0.4351 -0.5844
 2768SOL    HW1 9203   0.212   0.404   0.951  0.0873  0.5338 -0.6747
 2768SOL    HW2 9204   0.091   0.496   0.892  1.2840  2.6955  0.1541
 2769SOL     OW 9205   1.275   3.845   5.076 -0.1813  0.0444 -0.0840
 2769SOL    HW1 9206   1.267   3.751   5.109 -0.6991 -0.3378 -1.2326
 2769SOL    HW2 9207   1.227   3.907   5.138 -0.1717 -0.4938  0.4714
 2770SOL     OW 9208   3.076   3.513   2.230  0.3159  1.1563 -0.1266
 2770SOL    HW1 9209   3.055   3.556   2.142  1.1363  1.0490 -0.3830
 2770SOL    HW2 9210   3.173   3.527   2.252  0.4202  0.0692  0.1447
 2771SOL     OW 9211   6.273   2.847   6.550 -0.4803  0.9021  0.0305
 2771SOL    HW1 9212   6.331   2.913   6.503 -0.7622  1.1965  0.0935
 2771SOL    HW2 9213   6.256   2.769   6.489  2.2134 -0.5204  0.9361
 2772SOL     OW 9214   0.046   5.879   2.604  0.3472  0.1338  0.0355
 2772SOL    HW1 9215   0.003   5.845   2.521  0.3680 -0.2059  0.1632
 2772SOL    HW2 9216   0.132   5.831   2.620  0.3588  0.2167  0.2374
 2773SOL     OW 9217   2.033   3.638   3.754 -0.1182 -0.1622  0.0640
 2773SOL    HW1 9218   2.046   3.542   3.779 -0.3741 -0.2741 -0.2274
 2773SOL    HW2 9219   2.027   3.693   3.837 -2.4345 -0.7138  0.3397
 2774SOL     OW 9220   3.900   5.041   6.430  0.3399 -0.2758 -0.0706
 2774SOL    HW1 9221   3.894   5.134   6.396 -1.1453 -0.6191 -0.8044
 2774SOL    HW2 9222   3.839   5.029   6.508  0.1781 -0.7557 -0.2638
 2775SOL     OW 9223   6.863   1.085   2.348  0.0574  0.1329  0.0557
 2775SOL    HW1 9224   6.794   1.094   2.421  0.6826  1.1157  0.5375
 2775SOL    HW2 9225   6.884   1.175   2.310  0.8001 -0.2047 -0.3538
 2776SOL     OW 9226   4.676   3.489   1.130 -0.4173  0.3839 -0.1213
 2776SOL    HW1 9227   4.662   3.587   1.144  0.7500  0.6253 -0.5772
 2776SOL    HW2 9228   4.637   3.462   1.042  2.2742  1.1790 -1.6766
 2777SOL     OW 9229   4.708   4.335   2.165 -0.3774 -0.4704  0.4954
 2777SOL    HW1 9230   4.762   4.408   2.124 -2.2135  0.1067 -1.0674
 2777SOL    HW2 9231   4.646   4.297   2.096  1.5727 -4.6376  0.7487
 2778SOL     OW 9232   0.179   0.415   0.064  0.4439  0.7805 -0.1647
 2778SOL    HW1 9233   0.109   0.354   0.102  1.4407 -0.1016  0.2946
 2778SOL    HW2 9234   0.174   0.504   0.110  0.0860  0.4987  0.3564
 2779SOL     OW 9235   5.493   0.966   3.576  0.2853 -0.0092  0.0655
 2779SOL    HW1 9236   5.440   0.978   3.492 -0.5279  0.7892  0.6772
 2779SOL    HW2 9237   5.501   1.053   3.623  0.9728 -0.3986  0.6937
 2780SOL     OW 9238   2.052   3.094   6.813  0.0920  0.3019 -0.0054
 2780SOL    HW1 9239   1.968   3.148   6.826 -0.0695  0.3527 -1.1241
 2780SOL    HW2 9240   2.116   3.114   6.887 -1.3727 -0.7322  1.6115
 2781SOL     OW 9241   1.978   1.954   1.854  0.1782  0.3433 -0.0984
 2781SOL    HW1 9242   1.967   1.970   1.952  0.7488 -0.3379  0.0897
 2781SOL    HW2 9243   2.052   2.011   1.819  0.4554  0.0674  0.0261
 2782SOL     OW 9244   5.247   1.655   3.017 -0.1758 -0.1520  0.0960
 2782SOL    HW1 9245   5.249   1.738   3.073 -0.4241 -0.2472  0.2494
 2782SOL    HW2 9246   5.268   1.678   2.922 -1.1882  0.2391 -0.0446
 2783SOL     OW 9247   6.674   0.854   0.336  0.2387  0.0302  0.2392
 2783SOL    HW1 9248   6.742   0.846   0.263 -0.9127 -0.7861 -0.7746
 2783SOL    HW2 9249   6.692   0.786   0.407  0.1506 -0.5798 -0.3145
 2784SOL     OW 9250   0.769   3.987   1.456  0.6143 -0.7208  0.6690
 2784SOL    HW1 9251   0.744   3.952   1.546 -0.4692 -0.3594  0.5250
 2784SOL    HW2 9252   0.747   4.084   1.451  0.5364 -0.7679 -0.0314
 2785SOL     OW 9253   1.067   5.732   6.169 -0.2779  0.2884  0.4646
 2785SOL    HW1 9254   0.987   5.678   6.144  0.7378 -0.5762 -1.0397
 2785SOL    HW2 9255   1.052   5.828   6.143 -1.2056  0.3442  1.1440
 2786SOL     OW 9256   1.234   2.584   0.715 -0.3593 -0.1103 -0.0909
 2786SOL    HW1 9257   1.185   2.671   0.712 -1.3060 -0.6275  0.1824
 2786SOL    HW2 9258   1.216   2.539   0.803  2.2483  0.6243  0.9184
 2787SOL     OW 9259   1.056   6.834   1.285 -0.0888 -0.5324  0.2016
 2787SOL    HW1 9260   1.077   6.854   1.189  1.5416 -0.5472  0.5262
 2787SOL    HW2 9261   0.968   6.786   1.290  0.3971 -1.6801 -1.4044
 2788SOL     OW 9262   2.712   6.242   1.771  0.0028 -0.3276 -0.1184
 2788SOL    HW1 9263   2.622   6.271   1.805 -0.2341 -0.9042 -0.2489
 2788SOL    HW2 9264   2.783   6.282   1.829 -0.4268 -2.8812  2.3867
 2789SOL     OW 9265   1.252   4.238   4.128 -0.1782 -0.6227 -0.3130
 2789SOL    HW1 9266   1.246   4.308   4.199 -0.8976 -0.2679 -0.7114
 2789SOL    HW2 9267   1.345   4.236   4.091 -0.4865  1.1348 -1.2899
 2790SOL     OW 9268   1.846   3.401   3.371 -0.2470  0.0457  0.2841
 2790SOL    HW1 9269   1.868   3.309   3.406 -0.3256  0.3809  1.2625
 2790SOL    HW2 9270   1.748   3.407   3.353 -0.1355 -0.2755 -0.4546
 2791SOL     OW 9271   1.893   3.017   4.457  0.3558 -0.1672 -0.2409
 2791SOL    HW1 9272   1.847   3.021   4.368  1.5527  0.5290 -0.8607
 2791SOL    HW2 9273   1.992   3.026   4.444  0.5882 -0.4687  1.1374
 2792SOL     OW 9274   3.917   2.561   5.390 -0.6965 -0.1940 -0.9027
 2792SOL    HW1 9275   3.993   2.540   5.328 -0.1745 -1.3546  0.1057
 2792SOL    HW2 9276   3.851   2.619   5.342 -0.2043 -0.8733 -2.4787
 2793SOL     OW 9277   3.181   3.310   3.540 -0.4205  0.8061 -0.1007
 2793SOL    HW1 9278   3.183   3.344   3.446  1.4725 -0.4280 -0.5449
 2793SOL    HW2 9279   3.241   3.366   3.597 -1.3140  1.3512  0.3242
 2794SOL     OW 9280   1.927   4.051   3.461 -0.1179  0.3457  0.2684
 2794SOL    HW1 9281   1.835   4.032   3.494  0.0801  1.4941  1.6031
 2794SOL    HW2 9282   1.942   4.004   3.375 -2.2319  0.7584 -0.3829
 2795SOL     OW 9283   4.735   5.998   1.686 -0.4882  0.3420  0.2681
 2795SOL    HW1 9284   4.649   5.951   1.707 -0.6647  0.8490  0.6836
 2795SOL    HW2 9285   4.790   6.005   1.768 -0.2244  0.3854  0.0886
 2796SOL     OW 9286   5.951   2.264   3.490  0.5652 -0.2724 -0.4103
 2796SOL    HW1 9287   5.966   2.332   3.561 -0.7724  1.0440 -1.3412
 2796SOL    HW2 9288   6.021   2.193   3.498  1.0876  0.3764  1.5330
 2797SOL     OW 9289   1.676   3.567   0.007  0.0699  0.2421  0.3077
 2797SOL    HW1 9290   1.608   3.497  -0.016 -0.5506  1.0079 -0.2610
 2797SOL    HW2 9291   1.735   3.582  -0.072  0.4776  0.0633  0.5748
 2798SOL     OW 9292   5.462   6.409   5.985  0.0695 -0.1547 -0.1967
 2798SOL    HW1 9293   5.458   6.494   6.038  0.7191 -0.0640 -0.2856
 2798SOL    HW2 9294   5.466   6.331   6.048  1.0092 -0.0382 -0.1063
 2799SOL     OW 9295   2.011   1.013   2.389  0.1748 -0.2532  0.5533
 2799SOL    HW1 9296   1.947   1.008   2.312 -0.4769 -1.6533  1.1543
 2799SOL    HW2 9297   2.055   1.103   2.390 -0.4669  0.1043 -0.9173
 2800SOL     OW 9298   0.516   6.333   4.785 -0.7516 -0.2516  0.2498
 2800SOL    HW1 9299   0.461   6.384   4.718 -0.2069 -0.2590 -0.2141
 2800SOL    HW2 9300   0.613   6.349   4.767 -0.4684 -2.8451 -1.1061
 2801SOL     OW 9301   4.938   5.464   5.050  0.0991  0.1098 -0.0045
 2801SOL    HW1 9302   4.883   5.454   5.133 -0.8039 -0.3786 -0.6327
 2801SOL    HW2 9303   4.876   5.469   4.970  0.9839 -1.3302 -0.8224
 2802SOL     OW 9304   1.047   2.106   2.974 -0.3530 -0.3577  0.3815
 2802SOL    HW1 9305   0.954   2.083   2.945 -0.3766  0.5752 -0.3445
 2802SOL    HW2 9306   1.052   2.204   2.995  0.5839 -0.2933 -0.0938
 2803SOL     OW 9307   6.735   4.711   1.236 -0.3119 -0.3238 -0.2739
 2803SOL    HW1 9308   6.724   4.757   1.149 -0.2468 -1.7547 -1.0772
 2803SOL    HW2 9309   6.822   4.738   1.278 -1.3227  2.0294  0.4313
 2804SOL     OW 9310   6.020   1.971   4.092 -0.2404 -0.0603  0.0385
 2804SOL    HW1 9311   5.946   2.036   4.076  1.9370  2.8125  0.7623
 2804SOL    HW2 9312   6.007   1.926   4.180  0.1308  2.4543  1.4741
 2805SOL     OW 9313   5.717   4.850   0.254 -0.3706  0.1601 -0.5473
 2805SOL    HW1 9314   5.694   4.857   0.351 -0.9078 -1.7741 -0.4846
 2805SOL    HW2 9315   5.807   4.889   0.237  0.3448 -0.7341  1.0140
 2806SOL     OW 9316   3.963   6.472   4.202 -0.6732  0.4705  0.3746
 2806SOL    HW1 9317   4.056   6.443   4.180 -0.0511  0.0428  3.1979
 2806SOL    HW2 9318   3.899   6.401   4.176 -0.1870  0.5572 -1.1402
 2807SOL     OW 9319   6.617   1.015   4.871  0.0296 -0.2036 -0.0897
 2807SOL    HW1 9320   6.543   1.081   4.887  0.5243  0.0905  1.1336
 2807SOL    HW2 9321   6.581   0.935   4.825 -0.7448  0.5890 -0.8956
 2808SOL     OW 9322   0.710   3.387   2.518  0.0440 -0.2369  0.8304
 2808SOL    HW1 9323   0.685   3.350   2.428 -1.3597 -0.4717  1.3099
 2808SOL    HW2 9324   0.669   3.478   2.529  0.9189  0.1648  0.9179
 2809SOL     OW 9325   4.960   2.006   2.585 -0.3195 -0.4645 -0.2383
 2809SOL    HW1 9326   4.876   1.964   2.551 -0.3079 -0.5065 -0.2152
 2809SOL    HW2 9327   4.962   2.103   2.559  0.0385 -0.6695 -0.9982
 2810SOL     OW 9328   0.242   4.419   5.560 -0.2167 -0.2822  0.5111
 2810SOL    HW1 9329   0.259   4.391   5.465 -0.3605 -0.4201  0.5263
 2810SOL    HW2 9330   0.284   4.508   5.576 -0.0257 -0.3469  0.3728
 2811SOL     OW 9331   0.967   5.462   4.012 -0.6380 -0.4498 -0.2332
 2811SOL    HW1 9332   0.975   5.542   3.952 -2.8556 -0.1936 -0.2921
 2811SOL    HW2 9333   0.920   5.388   3.963 -0.9951 -0.8308  0.6614
 2812SOL     OW 9334   1.939   0.457   3.247  0.1425  0.4173 -0.1484
 2812SOL    HW1 9335   1.985   0.376   3.285  2.2755  1.8359  0.4780
 2812SOL    HW2 9336   1.909   0.438   3.154  0.6889 -1.0467 -0.0548
 2813SOL     OW 9337   3.821   6.153   4.182 -0.2655  0.6103 -0.1479
 2813SOL    HW1 9338   3.781   6.146   4.273  0.7250 -0.5065  0.2265
 2813SOL    HW2 9339   3.749   6.150   4.113 -0.8397 -2.5662  0.4558
 2814SOL     OW 9340   1.415   2.867   4.964 -0.3878  0.6611 -0.2007
 2814SOL    HW1 9341   1.491   2.817   5.005  0.0359  0.9967 -0.5719
 2814SOL    HW2 9342   1.329   2.840   5.009 -0.1333 -0.1819 -0.2003
 2815SOL     OW 9343   4.866   0.584   0.359 -0.0239 -0.0602  0.6130
 2815SOL    HW1 9344   4.868   0.562   0.261 -0.6667 -0.1006  0.6029
 2815SOL    HW2 9345   4.959   0.585   0.395  0.8073  4.3267 -0.9910
 2816SOL     OW 9346   3.694   5.642   6.348 -0.4628  0.4964 -0.2621
 2816SOL    HW1 9347   3.641   5.630   6.432  0.0928  2.2811  0.3978
 2816SOL    HW2 9348   3.706   5.553   6.303 -0.4869 -0.5772  1.7189
 2817SOL     OW 9349   0.666   0.489   4.038 -0.4324  0.2506  0.5905
 2817SOL    HW1 9350   0.693   0.406   3.989 -2.0968 -0.5461  0.9309
 2817SOL    HW2 9351   0.730   0.506   4.113 -0.1742 -0.8342  0.6289
 2818SOL     OW 9352   5.885   0.776   3.036  0.3566  0.1602 -0.1199
 2818SOL    HW1 9353   5.939   0.831   2.973 -0.1947  0.3326 -0.4552
 2818SOL    HW2 9354   5.828   0.837   3.092  1.0355  0.0219  0.7296
 2819SOL     OW 9355   4.469   5.984   5.871  0.4634 -0.3104 -0.5268
 2819SOL    HW1 9356   4.444   6.031   5.956  1.9004  0.5457 -0.5581
 2819SOL    HW2 9357   4.420   5.897   5.867  0.2740 -0.3239  1.1292
 2820SOL     OW 9358   3.814   5.850   4.498  0.0473  0.3006  0.0295
 2820SOL    HW1 9359   3.725   5.850   4.454 -0.1355 -0.6995  0.3701
 2820SOL    HW2 9360   3.806   5.810   4.590  0.7679  0.5672  0.2145
 2821SOL     OW 9361   3.061   1.116   4.141  0.3663  1.0612  0.3324
 2821SOL    HW1 9362   3.110   1.032   4.167  0.2397  1.4871  2.0762
 2821SOL    HW2 9363   2.974   1.092   4.098  0.8985  0.3176 -0.3824
 2822SOL     OW 9364   0.710   0.162   5.290 -0.1910  0.7379  0.0642
 2822SOL    HW1 9365   0.746   0.159   5.383  3.1149 -0.5992 -1.0947
 2822SOL    HW2 9366   0.615   0.195   5.292 -0.0491  1.4069  3.7640
 2823SOL     OW 9367   2.815   5.127   3.426 -0.4777 -0.6294 -0.3926
 2823SOL    HW1 9368   2.869   5.165   3.351  0.3895 -1.1357 -0.0418
 2823SOL    HW2 9369   2.875   5.073   3.486 -1.5104 -1.8289 -0.4061
 2824SOL     OW 9370   4.799   6.909   6.167  0.3642  0.4250 -0.3106
 2824SOL    HW1 9371   4.727   6.857   6.213  1.1122 -0.9204 -0.6382
 2824SOL    HW2 9372   4.758   6.965   6.095 -0.2736 -1.0450 -1.1361
 2825SOL     OW 9373   5.745   3.194   6.974  0.1732  0.7775  0.1756
 2825SOL    HW1 9374   5.842   3.216   6.962 -0.2679  1.8500 -1.8207
 2825SOL    HW2 9375   5.710   3.152   6.890 -1.2890  1.1240  0.5869
 2826SOL     OW 9376   3.777   3.655   5.527  0.2878 -0.2054 -0.6848
 2826SOL    HW1 9377   3.825   3.722   5.583  0.7408 -2.0851  1.2839
 2826SOL    HW2 9378   3.679   3.678   5.524  0.4702  0.6683 -0.2517
 2827SOL     OW 9379   3.130   1.739   3.897 -0.6565 -0.1017 -0.1941
 2827SOL    HW1 9380   3.081   1.825   3.906  1.2021  0.8546  1.6142
 2827SOL    HW2 9381   3.191   1.744   3.818 -0.4158  0.3314  0.0142
 2828SOL     OW 9382   0.392   2.734   0.028  0.2132  0.2854 -0.2342
 2828SOL    HW1 9383   0.460   2.793  -0.015  0.2258 -0.5466 -1.4096
 2828SOL    HW2 9384   0.306   2.785   0.041  0.0705  0.4450 -1.6680
 2829SOL     OW 9385   6.106   6.661   2.604  0.3508  0.5424 -1.4762
 2829SOL    HW1 9386   6.020   6.679   2.651  0.3358  2.0360 -2.0185
 2829SOL    HW2 9387   6.094   6.586   2.539 -0.2043 -0.0708 -0.6835
 2830SOL     OW 9388   6.752   1.011   6.282 -0.7114  0.1068 -0.2094
 2830SOL    HW1 9389   6.703   1.055   6.357 -0.4763  0.6677 -0.3810
 2830SOL    HW2 9390   6.845   0.990   6.311 -0.4325  0.8619 -0.5242
 2831SOL     OW 9391   4.941   0.719   4.922  0.1841 -0.0736  0.1487
 2831SOL    HW1 9392   4.997   0.798   4.899 -0.8052  1.2940  2.1497
 2831SOL    HW2 9393   4.976   0.638   4.875  2.5797  1.1133 -0.2393
 2832SOL     OW 9394   5.143   2.753   3.407  0.0837  0.1637 -0.0011
 2832SOL    HW1 9395   5.186   2.828   3.459  0.2555  0.0461  0.0290
 2832SOL    HW2 9396   5.074   2.709   3.464  0.2371  0.0674  0.1141
 2833SOL     OW 9397   2.394   2.517   0.548  0.8032 -0.1603 -0.7511
 2833SOL    HW1 9398   2.363   2.535   0.641 -0.2692  1.0118 -1.3106
 2833SOL    HW2 9399   2.473   2.456   0.550  1.2383  0.4258  0.9529
 2834SOL     OW 9400   5.778   4.958   2.925 -0.8939 -0.0297 -0.2710
 2834SOL    HW1 9401   5.740   4.869   2.948  1.5417 -1.4784 -1.4150
 2834SOL    HW2 9402   5.729   4.996   2.846 -2.3349 -0.0135  0.5929
 2835SOL     OW 9403   0.465   1.416   2.947 -0.0376  0.2005  0.1786
 2835SOL    HW1 9404   0.467   1.360   2.865 -1.7505 -0.2667  0.4314
 2835SOL    HW2 9405   0.445   1.511   2.922 -2.0893 -0.2105  0.1572
 2836SOL     OW 9406   5.148   6.579   6.961  0.0928  0.0718 -0.4675
 2836SOL    HW1 9407   5.131   6.614   7.053  2.5556  1.5041 -0.4513
 2836SOL    HW2 9408   5.178   6.484   6.967  0.6605  0.2836  0.2772
 2837SOL     OW 9409   0.258   5.434   0.406 -0.3198  0.5587 -0.0658
 2837SOL    HW1 9410   0.215   5.471   0.489  0.9458 -1.2655  1.4973
 2837SOL    HW2 9411   0.356   5.455   0.407 -0.1085 -0.3433 -0.5873
 2838SOL     OW 9412   0.788   3.230   4.353  0.3925  0.4534  0.5247
 2838SOL    HW1 9413   0.807   3.318   4.398 -2.3378  1.1470  0.4824
 2838SOL    HW2 9414   0.756   3.247   4.260  0.8151 -0.6856  0.1550
 2839SOL     OW 9415   1.832   6.856   1.799 -0.6864 -0.0709 -0.6231
 2839SOL    HW1 9416   1.827   6.785   1.869  1.2771 -0.5706 -0.9245
 2839SOL    HW2 9417   1.884   6.822   1.720  1.0231  1.9125 -0.4507
 2840SOL     OW 9418   0.030   4.766   2.829 -0.2235 -0.1618  0.3149
 2840SOL    HW1 9419  -0.007   4.745   2.919 -1.4953 -1.2317 -0.4096
 2840SOL    HW2 9420  -0.045   4.789   2.767  0.7423  1.9496 -0.1571
 2841SOL     OW 9421   5.012   0.656   0.696 -0.0322  0.0860 -0.5003
 2841SOL    HW1 9422   5.014   0.604   0.782  0.9244 -0.5630 -0.8944
 2841SOL    HW2 9423   5.095   0.637   0.644 -0.5207  0.6066 -1.4978
 2842SOL     OW 9424   5.304   6.185   2.323 -0.4108  0.2427 -0.2901
 2842SOL    HW1 9425   5.385   6.229   2.360 -0.3372 -0.6453  0.6481
 2842SOL    HW2 9426   5.246   6.254   2.279 -0.1275  1.2040  0.7939
 2843SOL     OW 9427   3.519   1.922   0.997 -0.2091  0.0167 -0.0614
 2843SOL    HW1 9428   3.604   1.974   1.000 -0.2462  0.3283 -2.6895
 2843SOL    HW2 9429   3.441   1.984   0.997 -0.4109 -0.2187  0.7212
 2844SOL     OW 9430   6.867   2.407   6.534 -0.0090  0.0809  0.1336
 2844SOL    HW1 9431   6.875   2.311   6.557 -1.8058 -0.4078 -1.0235
 2844SOL    HW2 9432   6.785   2.421   6.477  1.2536  1.9857 -1.3592
 2845SOL     OW 9433   4.575   2.682   6.419 -0.4768  0.3457 -0.0061
 2845SOL    HW1 9434   4.526   2.598   6.396  0.1039  0.2862 -1.0816
 2845SOL    HW2 9435   4.571   2.697   6.518 -0.8251 -0.7897  0.1649
 2846SOL     OW 9436   0.136   3.164   0.294  0.2389  0.2122  0.2622
 2846SOL    HW1 9437   0.228   3.170   0.333  0.3141  0.5062  0.0397
 2846SOL    HW2 9438   0.136   3.203   0.202 -0.1786  0.4947  0.3799
 2847SOL     OW 9439   1.736   4.919   5.604 -0.0223  0.1667  0.1101
 2847SOL    HW1 9440   1.808   4.989   5.614 -0.1969  0.4460 -0.5200
 2847SOL    HW2 9441   1.770   4.831   5.637  1.8506 -0.5029 -3.1472
 2848SOL     OW 9442   5.620   2.700   6.170  0.0196  0.4240 -0.1385
 2848SOL    HW1 9443   5.574   2.620   6.210  0.2798  0.6895  0.7158
 2848SOL    HW2 9444   5.551   2.763   6.135 -0.1645 -1.0564 -2.6681
 2849SOL     OW 9445   0.434   6.774   5.176 -0.4616 -0.1266 -1.2099
 2849SOL    HW1 9446   0.396   6.828   5.101 -1.0175  0.2777 -0.6385
 2849SOL    HW2 9447   0.528   6.804   5.195 -0.2266 -0.3905 -1.8883
 2850SOL     OW 9448   1.992   1.605   3.073 -0.0719 -0.1673 -0.0344
 2850SOL    HW1 9449   2.056   1.626   2.999 -0.7858  0.5860 -0.4464
 2850SOL    HW2 9450   1.905   1.575   3.035 -0.2107 -0.4959  0.5199
 2851SOL     OW 9451   4.966   3.284   1.551  0.2681  0.0090  0.0584
 2851SOL    HW1 9452   4.943   3.379   1.530  0.3193  0.7026  2.7774
 2851SOL    HW2 9453   4.910   3.253   1.628  0.8313 -1.9174 -0.2612
 2852SOL     OW 9454   1.301   2.935   6.512 -0.7903  0.5387  0.2233
 2852SOL    HW1 9455   1.396   2.926   6.543 -0.2513 -1.3245 -1.6767
 2852SOL    HW2 9456   1.245   2.865   6.556 -1.2349  1.4402  1.1108
 2853SOL     OW 9457   4.134   0.107   4.160 -0.1845  0.8026 -0.2996
 2853SOL    HW1 9458   4.048   0.141   4.122 -0.1961  1.3027  0.1609
 2853SOL    HW2 9459   4.159   0.022   4.114 -0.7331  0.8463 -0.6943
 2854SOL     OW 9460   3.945   5.444   2.038  0.0553  0.2058 -0.2716
 2854SOL    HW1 9461   3.865   5.446   2.097 -0.2568 -0.3146 -0.6691
 2854SOL    HW2 9462   4.013   5.509   2.071 -1.2349  1.9739 -0.9527
 2855SOL     OW 9463   2.799   0.344   4.339  0.0528 -0.5676 -0.1745
 2855SOL    HW1 9464   2.824   0.405   4.414 -3.7108  1.9116 -0.6727
 2855SOL    HW2 9465   2.767   0.257   4.377 -1.5295  0.5369  1.1888
 2856SOL     OW 9466   6.993   0.512   3.402  0.1083 -0.2911 -0.3260
 2856SOL    HW1 9467   6.936   0.433   3.382 -1.1535  0.6074 -0.3632
 2856SOL    HW2 9468   6.943   0.578   3.457  1.0933  0.5448 -0.3799
 2857SOL     OW 9469   4.187   6.736   0.830 -0.7096 -0.1619 -0.1114
 2857SOL    HW1 9470   4.244   6.755   0.910 -0.7264  0.4515 -0.2384
 2857SOL    HW2 9471   4.207   6.803   0.758 -1.5371  0.0165 -0.1823
 2858SOL     OW 9472   4.700   2.478   1.602 -0.3548  0.2071  0.1810
 2858SOL    HW1 9473   4.688   2.461   1.504  2.0743  2.3734 -0.6095
 2858SOL    HW2 9474   4.649   2.560   1.628 -0.1263  0.2592  0.4747
 2859SOL     OW 9475   4.185   1.164   4.999  0.3361 -0.1610  0.1618
 2859SOL    HW1 9476   4.155   1.070   5.015 -0.3773 -0.2101 -1.3066
 2859SOL    HW2 9477   4.146   1.224   5.068 -2.1348 -0.4420 -0.8955
 2860SOL     OW 9478   1.250   4.470   2.085 -0.4373  0.3619 -0.2561
 2860SOL    HW1 9479   1.274   4.377   2.058  0.7965  0.5166  0.2181
 2860SOL    HW2 9480   1.181   4.507   2.022 -1.0735 -0.9181 -0.3386
 2861SOL     OW 9481   0.898   5.984   6.145  0.4258  0.4765  0.0945
 2861SOL    HW1 9482   0.876   5.970   6.049  1.6424 -0.5728 -0.0558
 2861SOL    HW2 9483   0.936   6.076   6.157 -2.3983  1.7398  0.1193
 2862SOL     OW 9484   0.385   1.955   3.542 -0.2641  0.3474 -0.1971
 2862SOL    HW1 9485   0.302   1.911   3.577 -0.0737 -0.6053 -0.8855
 2862SOL    HW2 9486   0.361   2.035   3.488 -0.6495  0.8600  0.7187
 2863SOL     OW 9487   2.258   4.352   0.984 -0.2834 -0.3283  0.2354
 2863SOL    HW1 9488   2.190   4.424   0.973  0.8565  0.8871  0.9017
 2863SOL    HW2 9489   2.315   4.347   0.902 -1.5150 -1.7605 -0.5772
 2864SOL     OW 9490   2.659   1.126   6.645 -0.1156  0.6884 -0.1237
 2864SOL    HW1 9491   2.614   1.046   6.605  1.6535 -1.2218  1.4396
 2864SOL    HW2 9492   2.666   1.113   6.744  2.3848  1.6108 -0.1166
 2865SOL     OW 9493   0.624   0.242   3.634  0.3790 -0.4194  1.2785
 2865SOL    HW1 9494   0.655   0.262   3.541  1.9562  0.8782  2.0380
 2865SOL    HW2 9495   0.608   0.328   3.683 -1.0352 -1.0803  2.0359
 2866SOL     OW 9496   3.348   5.036   2.986  0.9982  0.8131  0.3627
 2866SOL    HW1 9497   3.426   5.043   2.924  3.7600  0.1136  3.4733
 2866SOL    HW2 9498   3.289   4.960   2.957  3.3132 -0.8275 -0.3164
 2867SOL     OW 9499   6.904   0.074   2.750  0.4131  0.3638  0.1342
 2867SOL    HW1 9500   6.961  -0.002   2.781  0.0095  0.6034  1.5436
 2867SOL    HW2 9501   6.890   0.138   2.826 -0.3103  1.1922 -0.6717
 2868SOL     OW 9502   4.948   6.924   1.608 -0.6312  0.5758  0.6147
 2868SOL    HW1 9503   4.965   6.955   1.515 -2.2016 -2.1953 -0.7346
 2868SOL    HW2 9504   5.022   6.865   1.638 -0.5350  0.7834  0.7870
 2869SOL     OW 9505   3.614   5.903   1.001 -0.5758  0.2654  0.8054
 2869SOL    HW1 9506   3.530   5.850   1.012 -0.7505  0.7234  1.8631
 2869SOL    HW2 9507   3.672   5.860   0.932 -2.2046  0.6232 -0.8696
 2870SOL     OW 9508   4.701   2.047   4.784  0.4272 -0.3011  0.4513
 2870SOL    HW1 9509   4.683   1.988   4.863 -0.0806 -0.3670  0.2891
 2870SOL    HW2 9510   4.712   1.990   4.702 -1.7965 -0.1212 -0.0369
 2871SOL     OW 9511   6.060   0.855   6.399 -0.0088  1.0532  0.3912
 2871SOL    HW1 9512   6.086   0.767   6.359 -2.3830  0.4199  0.0813
 2871SOL    HW2 9513   5.979   0.890   6.352 -1.4414  1.5032  2.9911
 2872SOL     OW 9514   6.157   0.697   5.470 -0.2383 -0.4906  0.1848
 2872SOL    HW1 9515   6.141   0.619   5.531  1.8495  0.2450  1.7860
 2872SOL    HW2 9516   6.234   0.676   5.410 -0.2519 -0.0093  0.0019
 2873SOL     OW 9517   1.922   4.495   1.493  0.0530 -0.0597 -0.4665
 2873SOL    HW1 9518   1.841   4.448   1.528  0.2213 -0.2522 -0.3353
 2873SOL    HW2 9519   1.930   4.584   1.539  1.6666 -1.3288  1.8954
 2874SOL     OW 9520   1.526   2.862   2.587  0.3847 -0.0501  0.2154
 2874SOL    HW1 9521   1.527   2.944   2.530 -2.3475 -1.3217 -1.8898
 2874SOL    HW2 9522   1.611   2.811   2.575  0.9199  1.0417 -0.6840
 2875SOL     OW 9523   2.255   5.175   1.950  0.0570  0.0074  0.2965
 2875SOL    HW1 9524   2.326   5.149   1.885 -1.5644 -0.1609 -1.4944
 2875SOL    HW2 9525   2.248   5.105   2.021  0.9768 -0.4782 -0.0693
 2876SOL     OW 9526   6.223   5.184   6.295  0.2422 -0.2754 -0.3329
 2876SOL    HW1 9527   6.231   5.254   6.365  1.4347 -0.3965 -0.3404
 2876SOL    HW2 9528   6.252   5.221   6.207 -0.5735 -0.3352 -0.6346
 2877SOL     OW 9529   6.619   1.108   5.689  0.3143  0.0657 -0.0234
 2877SOL    HW1 9530   6.581   1.040   5.752  0.6217  0.9070  1.1020
 2877SOL    HW2 9531   6.628   1.196   5.736  1.8666  0.3694 -0.8143
 2878SOL     OW 9532   5.943   1.388   1.162  0.2497 -0.4588  0.5219
 2878SOL    HW1 9533   5.996   1.336   1.095  0.1504  1.1633 -0.8889
 2878SOL    HW2 9534   5.846   1.367   1.151  0.1235  0.5899 -0.6380
 2879SOL     OW 9535   2.430   4.424   1.202 -0.1805 -1.0211  0.1581
 2879SOL    HW1 9536   2.402   4.419   1.106  1.1477  1.6921 -0.4707
 2879SOL    HW2 9537   2.431   4.520   1.231  0.7140 -1.6777  2.5119
 2880SOL     OW 9538   5.693   1.033   5.835 -0.1568 -0.5132 -0.0440
 2880SOL    HW1 9539   5.593   1.033   5.833 -0.1908 -2.1703 -0.1422
 2880SOL    HW2 9540   5.727   1.049   5.742 -0.2880  0.8643  0.1206
 2881SOL     OW 9541   2.274   2.518   5.953  0.3981 -0.1008 -0.9293
 2881SOL    HW1 9542   2.236   2.521   5.861  0.1096 -2.7180 -0.9771
 2881SOL    HW2 9543   2.202   2.541   6.019  0.2321  0.4025 -1.2787
 2882SOL     OW 9544   5.488   3.081   5.564  0.1307 -0.3609  0.2650
 2882SOL    HW1 9545   5.389   3.088   5.571  0.2078 -0.2475  1.4473
 2882SOL    HW2 9546   5.523   3.021   5.636  0.8077 -1.5682 -1.0125
 2883SOL     OW 9547   6.365   6.619   1.046  0.4248 -0.0765  0.3720
 2883SOL    HW1 9548   6.406   6.564   1.118  2.8694  0.2169 -0.7160
 2883SOL    HW2 9549   6.273   6.586   1.027  0.0847 -0.7861  2.8941
 2884SOL     OW 9550   4.422   0.150   3.219 -0.0782  0.2412 -0.0448
 2884SOL    HW1 9551   4.376   0.093   3.151 -0.8652  0.0556  0.6303
 2884SOL    HW2 9552   4.357   0.219   3.254 -0.3525 -1.0206  2.0664
 2885SOL     OW 9553   3.073   5.284   1.097 -0.4787 -0.4395 -0.3385
 2885SOL    HW1 9554   3.054   5.224   1.175 -0.1043  0.1200  0.1951
 2885SOL    HW2 9555   3.115   5.232   1.023 -1.8530 -1.2020 -0.5992
 2886SOL     OW 9556   6.297   6.171   1.242  0.0211  0.4760 -0.5129
 2886SOL    HW1 9557   6.314   6.191   1.145  1.7129  0.4749 -0.2469
 2886SOL    HW2 9558   6.383   6.144   1.286 -0.7763  0.2051  0.9337
 2887SOL     OW 9559   1.915   4.723   6.764 -0.5346  0.1790  0.4645
 2887SOL    HW1 9560   1.836   4.777   6.793 -0.5797  0.6901 -0.5555
 2887SOL    HW2 9561   1.949   4.669   6.841 -1.4859  0.4339  1.0780
 2888SOL     OW 9562   1.302   6.239   6.063 -0.1049 -0.3568 -0.1883
 2888SOL    HW1 9563   1.219   6.221   6.009 -1.2184 -0.4507  1.4644
 2888SOL    HW2 9564   1.324   6.158   6.117  1.1059 -0.3304 -0.6100
 2889SOL     OW 9565   5.299   3.341   5.404  0.7385  0.3815  0.2473
 2889SOL    HW1 9566   5.361   3.287   5.347  1.3483  0.8835  0.4237
 2889SOL    HW2 9567   5.302   3.437   5.376  1.8689  0.8445  1.7784
 2890SOL     OW 9568   1.762   5.520   0.978 -0.6989 -0.1943  0.1289
 2890SOL    HW1 9569   1.782   5.567   1.064  0.8929 -1.3719  0.4442
 2890SOL    HW2 9570   1.813   5.564   0.904 -1.0082 -0.0223  0.0155
 2891SOL     OW 9571   4.108   3.480   2.186 -0.2387  0.1260  0.2139
 2891SOL    HW1 9572   4.028   3.483   2.247  0.6259  0.4387  1.3540
 2891SOL    HW2 9573   4.185   3.440   2.234  1.2506  2.8418  0.2936
 2892SOL     OW 9574   4.519   5.099   1.309  0.4422  0.9866 -0.2881
 2892SOL    HW1 9575   4.438   5.120   1.254  0.8063  2.4188 -0.3287
 2892SOL    HW2 9576   4.542   5.003   1.299 -0.8848  0.6955 -0.7689
 2893SOL     OW 9577   4.929   0.417   2.145  0.0135  0.6282 -0.1440
 2893SOL    HW1 9578   4.894   0.510   2.159 -0.1334  0.1281  3.7524
 2893SOL    HW2 9579   5.021   0.422   2.104 -0.0952  2.4595 -0.2421
 2894SOL     OW 9580   5.253   6.474   0.541  0.5445  0.4997 -0.6018
 2894SOL    HW1 9581   5.314   6.398   0.564  0.9074  0.3591 -1.9774
 2894SOL    HW2 9582   5.213   6.511   0.626 -0.9377 -2.2446  0.0115
 2895SOL     OW 9583   5.569   4.525   1.604 -0.0188 -0.1594 -0.5406
 2895SOL    HW1 9584   5.621   4.446   1.637  0.0654  0.3088  0.4945
 2895SOL    HW2 9585   5.503   4.553   1.675  2.0733  2.5983  0.4851
 2896SOL     OW 9586   1.396   6.816   6.476 -0.6266  0.3544 -0.0412
 2896SOL    HW1 9587   1.418   6.880   6.403 -0.3338  0.9687  0.5688
 2896SOL    HW2 9588   1.476   6.760   6.496 -0.7172  0.1633 -0.2162
 2897SOL     OW 9589   3.018   3.246   6.837  0.4928  0.2378  0.0183
 2897SOL    HW1 9590   2.921   3.221   6.848 -0.0378  1.0244 -2.2883
 2897SOL    HW2 9591   3.026   3.319   6.769  2.8647 -1.1639 -1.3480
 2898SOL     OW 9592   0.429   1.896   2.401  0.0108  0.2070  0.3933
 2898SOL    HW1 9593   0.394   1.803   2.391 -0.9599  0.4519  1.3023
 2898SOL    HW2 9594   0.500   1.898   2.470  0.0221  0.1412  0.3829
 2899SOL     OW 9595   3.637   6.923   6.522  0.1110  0.0449 -0.3673
 2899SOL    HW1 9596   3.581   7.006   6.530  0.7821  0.3296  1.8969
 2899SOL    HW2 9597   3.602   6.868   6.447 -2.7349  0.6065  0.4124
 2900SOL     OW 9598   0.090   2.760   3.434  0.6005 -0.2286  0.6020
 2900SOL    HW1 9599   0.079   2.859   3.421  2.8711 -0.0460 -0.5623
 2900SOL    HW2 9600   0.154   2.725   3.366  0.5298 -2.3573  1.5602
 2901SOL     OW 9601   4.643   6.338   6.229  0.6047 -0.1283  0.0177
 2901SOL    HW1 9602   4.609   6.322   6.137 -0.0970 -0.4464  0.3247
 2901SOL    HW2 9603   4.609   6.267   6.290  0.2058  0.6505  0.7323
 2902SOL     OW 9604   2.962   4.805   3.979 -0.3205 -0.0025 -0.1829
 2902SOL    HW1 9605   2.869   4.769   3.985  0.4304 -2.3215 -1.1513
 2902SOL    HW2 9606   3.025   4.741   4.023  0.8409  1.4816  0.3805
 2903SOL     OW 9607   1.442   1.864   2.893  0.0345  0.8586  0.2179
 2903SOL    HW1 9608   1.422   1.939   2.956 -0.3568  1.0041 -0.0800
 2903SOL    HW2 9609   1.502   1.897   2.820  0.6757  0.6344  0.6303
 2904SOL     OW 9610   4.176   6.283   1.013 -0.2780  0.2274  0.3249
 2904SOL    HW1 9611   4.113   6.222   1.060  1.4041 -1.7482  0.1793
 2904SOL    HW2 9612   4.268   6.244   1.015  0.6042  2.0443 -1.1439
 2905SOL     OW 9613   6.869   3.213   2.872  0.0879 -0.1843  0.4255
 2905SOL    HW1 9614   6.865   3.125   2.824 -1.1154  0.0596  0.0387
 2905SOL    HW2 9615   6.868   3.197   2.971  1.8173 -0.6581  0.4062
 2906SOL     OW 9616   2.417   5.552   2.429 -0.1917 -0.0788  0.0785
 2906SOL    HW1 9617   2.336   5.533   2.374 -1.3471  1.7167  1.0906
 2906SOL    HW2 9618   2.394   5.547   2.526  0.5469  1.8349  0.3823
 2907SOL     OW 9619   4.712   1.044   6.612 -0.3659  0.2186  0.1602
 2907SOL    HW1 9620   4.752   1.122   6.660  0.4938  0.9793 -1.6898
 2907SOL    HW2 9621   4.777   1.010   6.544 -1.5810 -0.7236 -0.5754
 2908SOL     OW 9622   5.473   0.895   4.326 -0.0992  0.3404 -0.1643
 2908SOL    HW1 9623   5.520   0.961   4.267  0.6188 -2.6147 -3.2015
 2908SOL    HW2 9624   5.539   0.846   4.382 -0.2130 -0.0636 -0.3791
 2909SOL     OW 9625   2.058   0.245   5.670  0.5742  0.4230  0.0183
 2909SOL    HW1 9626   2.129   0.224   5.603  0.6974  0.3531  0.1694
 2909SOL    HW2 9627   2.076   0.195   5.755 -0.0516 -0.1516 -0.1854
 2910SOL     OW 9628   1.985   6.743   6.282 -0.1504 -0.4027 -0.0551
 2910SOL    HW1 9629   2.032   6.657   6.303  0.3496 -0.5852 -1.7631
 2910SOL    HW2 9630   1.886   6.728   6.280 -0.1064 -0.7690  0.3439
 2911SOL     OW 9631   6.378   1.971   1.701  0.3252  0.1811 -0.4833
 2911SOL    HW1 9632   6.279   1.977   1.705  0.3688  1.8072 -1.1634
 2911SOL    HW2 9633   6.405   1.926   1.616  0.1762  1.1991 -1.0885
 2912SOL     OW 9634   2.416   0.668   2.058 -0.5376 -0.5024  0.3487
 2912SOL    HW1 9635   2.454   0.686   2.149 -1.2515 -0.0661  0.5642
 2912SOL    HW2 9636   2.385   0.754   2.017 -0.0032 -0.6627 -0.4090
 2913SOL     OW 9637   1.752   1.986   5.728  0.3363 -0.1663  0.1336
 2913SOL    HW1 9638   1.686   1.922   5.689 -0.7603  1.1965 -0.3394
 2913SOL    HW2 9639   1.837   1.938   5.749  0.3102 -1.3380 -2.1616
 2914SOL     OW 9640   1.792   3.908   3.993  0.6439  0.2452  0.4622
 2914SOL    HW1 9641   1.697   3.883   3.975  0.2266  1.1118  1.3969
 2914SOL    HW2 9642   1.836   3.938   3.908 -0.4341  1.5192  0.3305
 2915SOL     OW 9643   4.723   1.046   4.981 -0.9020  0.5685  0.3427
 2915SOL    HW1 9644   4.637   1.097   4.982 -0.7932  0.7768 -0.5664
 2915SOL    HW2 9645   4.753   1.031   4.887 -0.5798 -0.5986  0.6143
 2916SOL     OW 9646   2.489   6.092   5.955  0.3062  0.5163  0.1119
 2916SOL    HW1 9647   2.426   6.087   5.877  0.5131  0.9029 -0.0809
 2916SOL    HW2 9648   2.438   6.117   6.037 -0.1630 -1.2303  0.4075
 2917SOL     OW 9649   2.898   3.324   0.452  0.6850  0.5944 -0.3323
 2917SOL    HW1 9650   2.976   3.307   0.512 -0.1343 -0.0987  0.5714
 2917SOL    HW2 9651   2.911   3.275   0.366  0.0003 -1.8598  0.8796
 2918SOL     OW 9652   5.882   2.351   0.329  0.3953  0.4644 -0.0940
 2918SOL    HW1 9653   5.944   2.339   0.407 -0.2910  0.3515  0.4568
 2918SOL    HW2 9654   5.929   2.327   0.244  0.2332 -2.7830  0.5674
 2919SOL     OW 9655   2.000   6.027   1.648 -0.0450  0.3132 -0.2013
 2919SOL    HW1 9656   1.947   6.111   1.654  1.3526  1.1419  1.4967
 2919SOL    HW2 9657   1.939   5.948   1.661 -1.0940  1.1418  0.0545
 2920SOL     OW 9658   2.572   5.309   6.850  0.1951  0.1790 -0.0729
 2920SOL    HW1 9659   2.653   5.280   6.901 -0.0401  1.1978  0.9057
 2920SOL    HW2 9660   2.575   5.408   6.836  0.5515 -0.1214 -2.5937
 2921SOL     OW 9661   3.422   2.787   1.049 -0.3106  0.5590  0.3057
 2921SOL    HW1 9662   3.369   2.702   1.047 -1.7557  1.4525 -1.5008
 2921SOL    HW2 9663   3.416   2.828   1.140  3.5220 -3.0302  2.5796
 2922SOL     OW 9664   1.898   5.357   1.336  0.4596 -0.1040  0.5908
 2922SOL    HW1 9665   1.811   5.393   1.370  0.2330  1.1647 -1.2307
 2922SOL    HW2 9666   1.929   5.284   1.398 -1.0000  0.5817  2.2416
 2923SOL     OW 9667   1.102   1.397   1.273 -0.6261 -0.0710  0.3244
 2923SOL    HW1 9668   1.051   1.345   1.204  1.9692 -1.8648 -0.3740
 2923SOL    HW2 9669   1.102   1.347   1.359  1.2834 -0.9706 -0.1517
 2924SOL     OW 9670   6.742   4.897   5.553 -0.2938  0.1816  0.0710
 2924SOL    HW1 9671   6.819   4.893   5.617 -2.1258 -1.8600  2.3221
 2924SOL    HW2 9672   6.732   4.991   5.520  0.5364  1.4595  3.1087
 2925SOL     OW 9673   0.741   6.167   5.412 -0.4958  0.0503 -0.2579
 2925SOL    HW1 9674   0.740   6.203   5.319 -0.0547  0.2544 -0.1889
 2925SOL    HW2 9675   0.648   6.160   5.447 -0.5294  3.3608  0.5916
 2926SOL     OW 9676   4.823   6.591   3.016 -0.4605  0.6086 -0.9490
 2926SOL    HW1 9677   4.729   6.624   3.009 -0.7141  0.4671  1.2431
 2926SOL    HW2 9678   4.832   6.530   3.095  1.8914  2.2810  0.2048
 2927SOL     OW 9679   4.944   6.557   5.450  0.1648 -0.8081  0.3610
 2927SOL    HW1 9680   4.945   6.653   5.478  1.5367 -1.3063  2.2948
 2927SOL    HW2 9681   4.892   6.546   5.366  0.3652  1.6891 -0.1480
 2928SOL     OW 9682   6.287   6.155   5.389  0.0712 -0.0080  0.5579
 2928SOL    HW1 9683   6.234   6.215   5.330 -0.2405  0.3026  1.1427
 2928SOL    HW2 9684   6.363   6.206   5.429 -1.3040  0.5707  2.5757
 2929SOL     OW 9685   1.829   3.665   0.220 -0.1053 -0.2219  0.5533
 2929SOL    HW1 9686   1.800   3.644   0.313 -0.6056  0.1440  0.4848
 2929SOL    HW2 9687   1.763   3.628   0.155 -0.1318  0.1363  0.3726
 2930SOL     OW 9688   3.470   6.217   2.196 -0.0410  0.1042  0.2666
 2930SOL    HW1 9689   3.540   6.149   2.218 -1.2014 -1.0957  0.3907
 2930SOL    HW2 9690   3.497   6.305   2.234  1.1529 -0.4374  0.7489
 2931SOL     OW 9691   2.764   2.506   0.206 -0.4574 -1.1624 -0.0986
 2931SOL    HW1 9692   2.859   2.475   0.216  0.8549  2.6251  0.5788
 2931SOL    HW2 9693   2.738   2.502   0.110 -0.4797 -4.2248 -0.0715
 2932SOL     OW 9694   5.498   5.827   2.682  0.1007  0.0749 -0.0085
 2932SOL    HW1 9695   5.577   5.877   2.647 -0.5554 -0.4123 -2.3701
 2932SOL    HW2 9696   5.445   5.791   2.605 -1.4626 -1.1085  1.5500
 2933SOL     OW 9697   4.974   2.214   5.390 -0.2466  0.2374 -0.0591
 2933SOL    HW1 9698   5.028   2.262   5.459  0.6321  0.6099 -0.9802
 2933SOL    HW2 9699   4.902   2.275   5.357  1.0168  1.0768 -1.4028
 2934SOL     OW 9700   0.644   3.789   2.153  0.6750  0.3359  0.6746
 2934SOL    HW1 9701   0.632   3.872   2.099  0.7758  1.3651  2.1895
 2934SOL    HW2 9702   0.565   3.775   2.212  0.5590 -0.7921  0.2914
 2935SOL     OW 9703   0.282   6.197   3.085  0.5206  0.0166  0.1782
 2935SOL    HW1 9704   0.202   6.159   3.039  1.4986 -1.9287 -0.0353
 2935SOL    HW2 9705   0.341   6.241   3.017 -0.3366  1.4889  0.3421
 2936SOL     OW 9706   1.254   0.833   2.296 -0.1659  0.2596 -0.5176
 2936SOL    HW1 9707   1.320   0.841   2.370  0.0488 -0.4211 -0.6278
 2936SOL    HW2 9708   1.221   0.924   2.271  0.0134  0.5263  0.1767
 2937SOL     OW 9709   3.215   4.074   4.079 -0.4013 -0.5783  0.1818
 2937SOL    HW1 9710   3.231   3.979   4.052 -0.2572 -0.7128  0.7368
 2937SOL    HW2 9711   3.294   4.130   4.052  0.0756 -0.8504  0.9918
 2938SOL     OW 9712   6.077   6.035   3.037  0.2342 -0.6642  0.0477
 2938SOL    HW1 9713   6.095   6.043   3.135 -1.7423 -1.0888  0.5093
 2938SOL    HW2 9714   5.988   5.990   3.024 -0.4850  1.1850 -1.8940
 2939SOL     OW 9715   1.913   1.682   5.615  0.1982  1.2198  0.1447
 2939SOL    HW1 9716   2.002   1.700   5.657  1.8777 -0.7902 -2.2336
 2939SOL    HW2 9717   1.847   1.657   5.686  2.6797 -1.3194  1.7662
 2940SOL     OW 9718   4.759   1.610   1.496  0.6673  0.3141  0.2885
 2940SOL    HW1 9719   4.726   1.522   1.463  0.3638  0.3707  0.4336
 2940SOL    HW2 9720   4.856   1.604   1.518  0.2348 -0.5117  2.1390
 2941SOL     OW 9721   5.524   4.227   1.081  0.1933  0.8451  0.0337
 2941SOL    HW1 9722   5.430   4.212   1.111  0.6568 -0.1790  1.0412
 2941SOL    HW2 9723   5.549   4.323   1.098 -0.9691  1.4026 -1.1993
 2942SOL     OW 9724   6.531   2.241   3.180  0.1149  0.0524 -0.2526
 2942SOL    HW1 9725   6.462   2.194   3.236 -0.3321 -1.5436 -2.0487
 2942SOL    HW2 9726   6.497   2.250   3.086  2.4959 -1.2550 -1.3311
 2943SOL     OW 9727   3.913   5.724   5.626  0.0443  0.3332  0.4081
 2943SOL    HW1 9728   3.820   5.754   5.603 -0.6665 -1.1164  1.2629
 2943SOL    HW2 9729   3.965   5.802   5.662 -1.7407  0.6179  2.5951
 2944SOL     OW 9730   0.437   2.475   6.918  0.3280 -0.3003 -0.2295
 2944SOL    HW1 9731   0.439   2.560   6.970  1.2730 -0.3516 -0.1607
 2944SOL    HW2 9732   0.500   2.409   6.959 -1.6015 -1.6506  0.7276
 2945SOL     OW 9733   5.129   6.178   1.640  0.7313  0.0951  0.2544
 2945SOL    HW1 9734   5.202   6.186   1.708  0.7686  1.4284  0.0978
 2945SOL    HW2 9735   5.168   6.189   1.549  0.2548  1.7425  0.2141
 2946SOL     OW 9736   5.770   4.163   4.966  0.6498  0.1602  0.2460
 2946SOL    HW1 9737   5.673   4.175   4.988  0.6010  0.3641 -0.0816
 2946SOL    HW2 9738   5.785   4.071   4.932  0.4462  0.3559 -0.3762
 2947SOL     OW 9739   5.948   5.589   4.764  0.1049 -0.7388  0.1102
 2947SOL    HW1 9740   5.953   5.495   4.798  1.1788 -0.5190  0.6272
 2947SOL    HW2 9741   6.006   5.648   4.821 -2.1859  0.6723  1.1872
 2948SOL     OW 9742   1.352   1.497   6.998 -0.8877 -0.4755 -0.0657
 2948SOL    HW1 9743   1.348   1.457   6.906 -1.0642 -1.5151  0.3767
 2948SOL    HW2 9744   1.448   1.501   7.028 -0.8533 -0.3793 -0.1853
 2949SOL     OW 9745   1.057   4.420   5.827  0.4355 -0.2713  0.4477
 2949SOL    HW1 9746   1.092   4.339   5.873  1.2569 -0.1437  0.0815
 2949SOL    HW2 9747   0.965   4.442   5.860  0.9835 -0.2075  1.9811
 2950SOL     OW 9748   6.400   2.325   4.902  0.2161 -0.0789  0.4429
 2950SOL    HW1 9749   6.326   2.378   4.942  1.1797  2.3278 -0.7519
 2950SOL    HW2 9750   6.467   2.387   4.861  2.5782 -2.1726  0.8851
 2951SOL     OW 9751   3.765   3.508   6.916  0.4278  0.1345  0.0533
 2951SOL    HW1 9752   3.728   3.551   6.998 -1.9292  0.8007 -1.2521
 2951SOL    HW2 9753   3.767   3.409   6.928 -1.1443  0.1343  0.4718
 2952SOL     OW 9754   6.963   5.395   2.711 -0.7110 -0.0805  0.5963
 2952SOL    HW1 9755   6.930   5.392   2.805  0.6897 -0.6284  1.1080
 2952SOL    HW2 9756   7.028   5.470   2.700 -1.8557  0.8038 -0.3035
 2953SOL     OW 9757   5.258   4.243   4.179 -0.0776 -0.0680 -0.4834
 2953SOL    HW1 9758   5.282   4.188   4.099  2.9591  0.4565 -0.0715
 2953SOL    HW2 9759   5.341   4.265   4.230 -1.7687  0.7626  2.0967
 2954SOL     OW 9760   1.294   3.252   3.110  0.4341  0.0571  0.0033
 2954SOL    HW1 9761   1.326   3.327   3.051  0.6821 -0.1740 -0.1561
 2954SOL    HW2 9762   1.324   3.269   3.204  2.3530 -0.8998 -0.3863
 2955SOL     OW 9763   4.126   3.127   5.657  0.4486 -0.2783  0.4566
 2955SOL    HW1 9764   4.043   3.149   5.606  0.1644  0.7929  1.3554
 2955SOL    HW2 9765   4.182   3.209   5.668  1.5450 -0.9459  0.0308
 2956SOL     OW 9766   4.643   0.255   0.889  0.4606 -0.5072  0.3248
 2956SOL    HW1 9767   4.618   0.349   0.866 -1.6014 -0.6004  1.8475
 2956SOL    HW2 9768   4.719   0.255   0.954 -1.2881  0.3366  2.4989
 2957SOL     OW 9769   1.221   3.309   5.240 -0.1710 -0.1888  0.4170
 2957SOL    HW1 9770   1.215   3.239   5.169  2.5968 -1.8005  1.6076
 2957SOL    HW2 9771   1.161   3.283   5.316 -0.0009 -0.7034  0.3831
 2958SOL     OW 9772   0.832   5.784   3.963  0.8262 -0.3041 -0.1904
 2958SOL    HW1 9773   0.885   5.794   4.047  0.3600 -1.8758  0.3373
 2958SOL    HW2 9774   0.887   5.813   3.885  1.7608 -0.0959  0.5231
 2959SOL     OW 9775   0.958   4.419   0.168 -0.3869 -0.6132  0.2959
 2959SOL    HW1 9776   0.977   4.367   0.251  0.2481  0.2774  0.7209
 2959SOL    HW2 9777   1.039   4.472   0.143 -1.4479  1.2618  0.6774
 2960SOL     OW 9778   5.364   1.518   1.380  0.7194 -0.6440  0.3814
 2960SOL    HW1 9779   5.360   1.618   1.390 -1.0673 -0.6081 -0.2311
 2960SOL    HW2 9780   5.373   1.495   1.283 -0.9771 -1.0434  0.2767
 2961SOL     OW 9781   1.740   3.986   2.532  0.2726 -0.1030 -0.7817
 2961SOL    HW1 9782   1.794   4.068   2.553 -0.2374  0.4066 -1.4227
 2961SOL    HW2 9783   1.702   3.948   2.616  1.1713 -0.1517 -0.3869
 2962SOL     OW 9784   1.014   1.771   3.056 -0.1539 -0.1797 -0.1954
 2962SOL    HW1 9785   1.084   1.824   3.104 -2.0370  1.9081  0.3708
 2962SOL    HW2 9786   0.958   1.721   3.122 -1.5919  1.2365 -0.3004
 2963SOL     OW 9787   1.409   6.776   0.927 -0.2946 -0.0421  0.3965
 2963SOL    HW1 9788   1.502   6.768   0.961 -0.5703  0.3206  1.2650
 2963SOL    HW2 9789   1.353   6.702   0.966  0.0441 -1.4587 -1.6475
 2964SOL     OW 9790   4.921   1.801   6.619  0.0790 -0.2677  0.0517
 2964SOL    HW1 9791   4.823   1.783   6.613 -0.1058  0.3765  0.9654
 2964SOL    HW2 9792   4.964   1.731   6.676  0.0868 -0.3027  0.0038
 2965SOL     OW 9793   1.810   3.324   6.312 -0.4819  0.3472  0.4865
 2965SOL    HW1 9794   1.775   3.254   6.250 -1.8152 -0.3216  1.9441
 2965SOL    HW2 9795   1.737   3.387   6.336  0.0967  0.7834  1.1331
 2966SOL     OW 9796   0.242   5.693   1.679 -0.3064  0.1104 -0.4475
 2966SOL    HW1 9797   0.271   5.600   1.658 -1.3436 -0.2679 -0.2770
 2966SOL    HW2 9798   0.237   5.706   1.778 -1.5477 -0.1237 -0.4615
 2967SOL     OW 9799   0.971   0.230   4.826  0.6663 -0.1244  0.2134
 2967SOL    HW1 9800   0.996   0.282   4.907 -1.0113  0.9270  0.0934
 2967SOL    HW2 9801   0.924   0.146   4.853 -0.2960  0.4450  0.3398
 2968SOL     OW 9802   2.169   5.660   3.756 -0.1838 -0.0990 -0.5337
 2968SOL    HW1 9803   2.073   5.633   3.765 -0.0077 -0.6959 -0.4463
 2968SOL    HW2 9804   2.213   5.602   3.688  0.4480 -0.6934  0.3694
 2969SOL     OW 9805   6.032   2.745   1.208  0.0407 -0.1789  0.5659
 2969SOL    HW1 9806   6.126   2.745   1.242  0.0500 -0.2272  0.5401
 2969SOL    HW2 9807   6.020   2.821   1.143  0.7012 -1.4922 -1.1931
 2970SOL     OW 9808   1.174   2.358   4.515  0.1082  0.2111 -0.3683
 2970SOL    HW1 9809   1.268   2.353   4.548  0.0167  0.1954 -0.1048
 2970SOL    HW2 9810   1.112   2.332   4.589 -0.0534 -0.7577 -0.8392
 2971SOL     OW 9811   4.422   6.572   1.847 -0.4811 -0.2643  0.4712
 2971SOL    HW1 9812   4.363   6.541   1.921 -2.0639 -1.3788 -1.1926
 2971SOL    HW2 9813   4.368   6.620   1.778  0.6841 -0.5336 -0.6823
 2972SOL     OW 9814   6.940   5.702   6.361 -1.2331 -0.1423  0.2065
 2972SOL    HW1 9815   6.988   5.763   6.424  0.4724  0.1335 -1.2759
 2972SOL    HW2 9816   6.903   5.624   6.412  1.8950 -1.0353  1.3534
 2973SOL     OW 9817   6.306   0.026   1.325 -0.4294  0.1491  0.5445
 2973SOL    HW1 9818   6.346   0.002   1.414  0.7581 -1.4513 -0.3639
 2973SOL    HW2 9819   6.247   0.106   1.336  0.5182  0.6562  2.5634
 2974SOL     OW 9820   6.270   6.256   6.749  0.2695 -0.6823 -0.0603
 2974SOL    HW1 9821   6.199   6.185   6.744  0.4242 -0.9155  0.7890
 2974SOL    HW2 9822   6.228   6.346   6.746  0.0162 -0.8125 -0.4960
 2975SOL     OW 9823   5.949   4.259   5.609 -0.0812 -0.1653  0.2673
 2975SOL    HW1 9824   5.915   4.177   5.655 -1.1928  0.1052 -0.0447
 2975SOL    HW2 9825   6.045   4.274   5.633  0.5651 -2.3460 -0.7786
 2976SOL     OW 9826   3.300   5.668   6.251  0.2994 -0.1229 -0.4183
 2976SOL    HW1 9827   3.364   5.720   6.307 -0.7469 -2.5405  3.4528
 2976SOL    HW2 9828   3.350   5.609   6.188  1.7601  0.0717  0.5268
 2977SOL     OW 9829   6.291   3.540   5.646  0.5976  0.5186 -0.4089
 2977SOL    HW1 9830   6.262   3.617   5.703  0.5917 -0.5092  1.0198
 2977SOL    HW2 9831   6.357   3.484   5.696 -1.0512 -1.6497 -0.5114
 2978SOL     OW 9832   2.702   5.085   3.177  0.2692 -0.1974  0.8456
 2978SOL    HW1 9833   2.755   5.008   3.143  1.8470  1.5014 -0.7253
 2978SOL    HW2 9834   2.725   5.101   3.273  1.1072 -0.7107  0.7382
 2979SOL     OW 9835   4.014   3.304   0.316  0.1712  0.1361 -0.4790
 2979SOL    HW1 9836   4.007   3.248   0.398 -0.9672  1.8684  0.7041
 2979SOL    HW2 9837   3.944   3.276   0.250 -0.5782  0.3167  0.2195
 2980SOL     OW 9838   4.570   3.643   5.842  1.0971  0.5139  0.1664
 2980SOL    HW1 9839   4.553   3.544   5.845  0.3555  0.6363  0.1822
 2980SOL    HW2 9840   4.574   3.678   5.936  0.9122  0.5707  0.1532
 2981SOL     OW 9841   0.921   4.192   0.379 -0.0200  0.0039 -0.2855
 2981SOL    HW1 9842   0.861   4.113   0.375  0.2697 -0.2048 -0.5440
 2981SOL    HW2 9843   0.892   4.253   0.453  0.6084 -1.0430  0.8576
 2982SOL     OW 9844   0.860   0.371   5.553 -0.3647 -0.2297 -0.5443
 2982SOL    HW1 9845   0.818   0.281   5.561  0.0542 -0.3295  0.8639
 2982SOL    HW2 9846   0.934   0.379   5.620  1.8261 -0.0184 -2.8516
 2983SOL     OW 9847   3.292   5.756   5.092  0.0711 -0.1583 -0.7641
 2983SOL    HW1 9848   3.318   5.668   5.132  1.3641 -0.1346 -1.4938
 2983SOL    HW2 9849   3.357   5.826   5.123 -1.3183  0.7050  0.3364
 2984SOL     OW 9850   0.121   1.267   4.057  0.8568  0.2622  0.2180
 2984SOL    HW1 9851   0.056   1.340   4.038  0.8685  0.3671  0.5776
 2984SOL    HW2 9852   0.122   1.248   4.155 -1.6054 -2.4754 -0.1436
 2985SOL     OW 9853   0.094   6.878   3.908 -0.3903  0.0656  0.1864
 2985SOL    HW1 9854   0.035   6.909   3.983 -0.9351  2.0303 -0.9800
 2985SOL    HW2 9855   0.045   6.809   3.854 -0.8327  0.1840  0.4287
 2986SOL     OW 9856   3.801   5.286   0.670 -0.0136  0.5196  0.2511
 2986SOL    HW1 9857   3.723   5.236   0.710  0.1592 -0.7472 -0.9122
 2986SOL    HW2 9858   3.883   5.270   0.725  0.0137 -0.4212 -0.0485
 2987SOL     OW 9859   1.900   4.274   0.936  0.4371  0.0245 -0.0226
 2987SOL    HW1 9860   1.936   4.278   1.029  2.0559 -1.3667 -0.5296
 2987SOL    HW2 9861   1.968   4.311   0.873  0.2505 -0.9700 -0.8439
 2988SOL     OW 9862   6.378   4.916   4.195 -0.0283  0.0995  0.0838
 2988SOL    HW1 9863   6.379   5.016   4.204  1.6382  0.4113 -2.5148
 2988SOL    HW2 9864   6.301   4.889   4.137  0.5998  0.1015 -0.7726
 2989SOL     OW 9865   0.792   4.741   6.283 -0.1782  0.1556  0.2391
 2989SOL    HW1 9866   0.729   4.672   6.318 -0.0414  0.7675  1.8005
 2989SOL    HW2 9867   0.885   4.719   6.311 -0.2183  1.3085  1.4127
 2990SOL     OW 9868   2.230   0.483   0.551  0.1119  0.3577  0.3181
 2990SOL    HW1 9869   2.150   0.446   0.504  1.1092 -0.8875 -0.4821
 2990SOL    HW2 9870   2.205   0.513   0.643 -1.6175  1.6043 -0.5148
 2991SOL     OW 9871   2.441   2.151   4.304  0.0677  0.7052 -0.6775
 2991SOL    HW1 9872   2.466   2.161   4.400  1.3914 -1.7430 -0.6765
 2991SOL    HW2 9873   2.481   2.226   4.251  1.5274  0.7079  0.3626
 2992SOL     OW 9874   4.356   5.153   2.496  0.0020  0.1641 -0.6537
 2992SOL    HW1 9875   4.335   5.064   2.535 -0.8772  0.4757 -0.3790
 2992SOL    HW2 9876   4.282   5.217   2.518  2.1979  1.9423  2.1550
 2993SOL     OW 9877   4.768   1.401   0.244 -0.9589 -0.1604 -0.1761
 2993SOL    HW1 9878   4.789   1.471   0.313 -1.6306 -0.8989  0.8069
 2993SOL    HW2 9879   4.783   1.439   0.153  0.2310  0.7534  0.3670
 2994SOL     OW 9880   2.542   0.518   4.770  0.2287  0.2762  0.0269
 2994SOL    HW1 9881   2.489   0.514   4.855  0.2989  3.5384  0.3426
 2994SOL    HW2 9882   2.625   0.464   4.781  0.2422  0.6264  2.0947
 2995SOL     OW 9883   0.919   0.406   2.343 -0.4207 -0.2839  0.2325
 2995SOL    HW1 9884   0.863   0.359   2.411  0.3387 -0.5286  0.7114
 2995SOL    HW2 9885   0.981   0.341   2.300  0.9732  0.3082  1.2340
 2996SOL     OW 9886   1.896   5.516   2.912  0.2123  0.1467 -0.6285
 2996SOL    HW1 9887   1.907   5.416   2.909  0.5540 -0.0327  2.6763
 2996SOL    HW2 9888   1.801   5.539   2.891  0.1126 -0.8735 -1.3846
 2997SOL     OW 9889   3.809   2.793   0.727 -0.1315 -0.7108 -0.0533
 2997SOL    HW1 9890   3.751   2.855   0.780  1.6172 -0.2378  1.4107
 2997SOL    HW2 9891   3.839   2.839   0.643 -0.7330 -0.4753 -0.1499
 2998SOL     OW 9892   3.762   1.116   0.342  0.4443  0.2913  0.1942
 2998SOL    HW1 9893   3.846   1.076   0.378 -0.2588  0.0392  1.6169
 2998SOL    HW2 9894   3.736   1.069   0.257 -0.5462 -2.6215  1.9716
 2999SOL     OW 9895   1.507   3.596   1.631 -0.0193 -0.0175 -0.0148
 2999SOL    HW1 9896   1.514   3.669   1.563  0.4228 -0.3117 -0.2889
 2999SOL    HW2 9897   1.575   3.526   1.612 -0.4269 -0.4962  0.2593
 3000SOL     OW 9898   5.388   6.152   3.922 -0.1406  0.1126 -0.0792
 3000SOL    HW1 9899   5.376   6.084   3.994  0.4306  0.3012  0.1995
 3000SOL    HW2 9900   5.299   6.192   3.899 -0.3708 -0.1830  0.2844
 3001SOL     OW 9901   1.519   5.485   4.696  0.1362 -0.2837  0.1586
 3001SOL    HW1 9902   1.438   5.510   4.642 -2.0453 -0.1448  3.2395
 3001SOL    HW2 9903   1.508   5.392   4.731  0.8279  0.0887  1.4085
 3002SOL     OW 9904   6.853   3.873   6.858 -0.0084  0.1143 -0.0147
 3002SOL    HW1 9905   6.838   3.919   6.770 -0.8570  1.4519  0.7922
 3002SOL    HW2 9906   6.901   3.935   6.920  1.6522 -1.2358  0.1218
 3003SOL     OW 9907   5.595   5.843   2.330 -1.0919 -0.0731 -0.5557
 3003SOL    HW1 9908   5.516   5.903   2.316 -0.4845  0.2006 -3.4628
 3003SOL    HW2 9909   5.573   5.774   2.399 -2.8162  1.7033  0.7753
 3004SOL     OW 9910   5.677   6.424   2.094 -0.4722  0.5340  0.2981
 3004SOL    HW1 9911   5.670   6.456   1.999  0.4135  1.2520  0.4702
 3004SOL    HW2 9912   5.683   6.502   2.155  1.6166  0.0825  0.7380
 3005SOL     OW 9913   1.096   3.846   0.014 -0.0751 -0.2305  0.0478
 3005SOL    HW1 9914   1.014   3.794   0.040 -0.6630  0.0120 -1.2717
 3005SOL    HW2 9915   1.173   3.814   0.069 -0.7173 -1.5510  0.2339
 3006SOL     OW 9916   4.198   6.705   4.995 -0.4339  0.3926 -0.4723
 3006SOL    HW1 9917   4.190   6.803   4.978 -2.4457  0.8567  2.4347
 3006SOL    HW2 9918   4.222   6.690   5.091 -2.5153 -1.9454 -0.2198
 3007SOL     OW 9919   1.756   5.869   0.247 -0.2706 -0.2733 -0.3770
 3007SOL    HW1 9920   1.667   5.839   0.281 -0.7090  2.1720  0.8603
 3007SOL    HW2 9921   1.778   5.820   0.162 -2.8757 -0.8026 -0.8261
 3008SOL     OW 9922   6.718   0.094   0.387  0.0046  0.0990  0.0782
 3008SOL    HW1 9923   6.715   0.189   0.416 -2.7836  0.2679 -0.4803
 3008SOL    HW2 9924   6.665   0.083   0.303 -0.0010 -1.9986  0.2999
 3009SOL     OW 9925   4.878   0.218   3.660 -0.0782 -1.3392 -0.7447
 3009SOL    HW1 9926   4.862   0.297   3.602  0.8225 -1.4126 -1.1213
 3009SOL    HW2 9927   4.829   0.229   3.747  0.5038 -0.0882 -0.5533
 3010SOL     OW 9928   1.730   5.135   0.787  0.5758  0.1065  0.5566
 3010SOL    HW1 9929   1.769   5.223   0.761  0.2571  0.3844  1.0145
 3010SOL    HW2 9930   1.638   5.126   0.748  1.6714 -1.2659 -2.0004
 3011SOL     OW 9931   0.223   3.684   5.926 -0.5640  0.0850  0.2458
 3011SOL    HW1 9932   0.220   3.775   5.965 -1.4971  0.9696 -1.7203
 3011SOL    HW2 9933   0.131   3.654   5.903 -0.0637 -0.1093 -1.7418
 3012SOL     OW 9934   3.473   4.101   0.314  0.0986  0.3107  0.0389
 3012SOL    HW1 9935   3.380   4.134   0.297 -0.0077  0.7051  1.3008
 3012SOL    HW2 9936   3.468   4.008   0.352  0.2557  0.0919 -0.4667
 3013SOL     OW 9937   2.917   0.807   2.320  0.5473  0.4133 -0.1911
 3013SOL    HW1 9938   2.869   0.837   2.402  3.1161  1.3190  1.1008
 3013SOL    HW2 9939   2.891   0.713   2.299 -0.6690  0.3867  1.2540
 3014SOL     OW 9940   1.030   4.365   2.423  0.0743  0.1833  0.3992
 3014SOL    HW1 9941   0.999   4.322   2.507  0.2571 -2.0413 -0.6128
 3014SOL    HW2 9942   0.986   4.321   2.345  2.4518 -0.1125 -0.8489
 3015SOL     OW 9943   3.423   1.041   1.497 -0.6074  0.1931 -0.3208
 3015SOL    HW1 9944   3.400   1.133   1.462 -0.6634  0.7276  1.0709
 3015SOL    HW2 9945   3.514   1.043   1.539 -1.3729  0.1050  1.4077
 3016SOL     OW 9946   6.194   3.914   5.623 -0.3663 -0.0050  0.3566
 3016SOL    HW1 9947   6.269   3.873   5.572  0.2047  0.5060  0.7650
 3016SOL    HW2 9948   6.128   3.953   5.559 -1.2354 -2.0306 -0.0580
 3017SOL     OW 9949   2.772   0.583   5.557 -0.9052  0.2481 -0.4340
 3017SOL    HW1 9950   2.704   0.519   5.594 -0.6403  1.0769  1.6250
 3017SOL    HW2 9951   2.741   0.615   5.468 -2.9293  0.1013  0.1504
 3018SOL     OW 9952   6.645   1.203   6.462 -0.7604 -0.1940 -0.5635
 3018SOL    HW1 9953   6.555   1.180   6.498  0.1267  0.0299  2.0158
 3018SOL    HW2 9954   6.712   1.202   6.536  1.3533 -0.1815 -2.3693
 3019SOL     OW 9955   4.275   6.076   1.774 -0.0531 -0.2656 -0.1832
 3019SOL    HW1 9956   4.201   6.009   1.765  0.8294 -1.1621 -1.0523
 3019SOL    HW2 9957   4.304   6.106   1.683  1.9940 -1.4813  0.0011
 3020SOL     OW 9958   3.174   2.141   1.178  0.2976 -0.0747 -0.5811
 3020SOL    HW1 9959   3.112   2.218   1.180  0.2053 -0.1604  0.7245
 3020SOL    HW2 9960   3.241   2.149   1.252 -0.4108 -1.7951  0.2994
 3021SOL     OW 9961   2.254   5.261   3.936  0.1981 -0.5631 -0.7637
 3021SOL    HW1 9962   2.262   5.327   4.010  0.9063 -0.1991 -1.1574
 3021SOL    HW2 9963   2.196   5.299   3.863  0.3897 -0.4806 -0.8738
 3022SOL     OW 9964   5.687   4.821   4.200  0.0625 -0.0277 -0.5291
 3022SOL    HW1 9965   5.650   4.871   4.279  0.1918 -0.6873 -0.0357
 3022SOL    HW2 9966   5.707   4.885   4.126  0.6198  0.7072  0.2339
 3023SOL     OW 9967   0.897   0.932   0.779  0.3892 -0.6132 -0.1710
 3023SOL    HW1 9968   0.967   1.003   0.773  0.5507 -0.9044 -2.1135
 3023SOL    HW2 9969   0.875   0.916   0.876  3.4847 -1.0347  0.5587
 3024SOL     OW 9970   6.346   5.535   4.434  0.1753 -0.5863 -0.2609
 3024SOL    HW1 9971   6.427   5.546   4.377  1.3923 -0.2802  1.4243
 3024SOL    HW2 9972   6.333   5.618   4.489 -2.3858  0.1336 -1.7632
 3025SOL     OW 9973   0.198   3.069   1.073 -1.3302  0.0938  0.5536
 3025SOL    HW1 9974   0.280   3.021   1.040 -2.0893 -0.3642 -0.7287
 3025SOL    HW2 9975   0.220   3.116   1.159  0.2705 -0.0395  0.2633
 3026SOL     OW 9976   3.229   2.094   3.133 -0.4759  0.5338 -0.2584
 3026SOL    HW1 9977   3.183   2.014   3.095  0.2843  0.0967 -0.2817
 3026SOL    HW2 9978   3.163   2.151   3.182 -0.7817 -0.7869  0.9098
 3027SOL     OW 9979   1.379   0.336   0.571 -0.2485 -0.2030 -0.4587
 3027SOL    HW1 9980   1.406   0.270   0.501  0.8641  1.0282 -1.2079
 3027SOL    HW2 9981   1.376   0.428   0.532 -2.5057  0.1490  0.3788
 3028SOL     OW 9982   4.008   2.572   6.777  0.5557  0.4597 -0.2800
 3028SOL    HW1 9983   3.932   2.607   6.832  0.1608  0.2743 -0.6950
 3028SOL    HW2 9984   3.979   2.566   6.681  1.4385  1.4060 -0.6206
 3029SOL     OW 9985   0.212   1.012   1.356 -0.3753 -0.9565 -0.6345
 3029SOL    HW1 9986   0.206   1.110   1.340  0.9861 -0.5086  1.3631
 3029SOL    HW2 9987   0.120   0.972   1.351 -1.5790  1.1013  2.5091
 3030SOL     OW 9988   2.813   6.669   6.696  0.6759  0.3355 -0.4898
 3030SOL    HW1 9989   2.874   6.629   6.627  1.5289  1.6587 -0.5188
 3030SOL    HW2 9990   2.861   6.677   6.783  0.1494  0.3018 -0.1864
 3031SOL     OW 9991   0.799   2.631   1.383  0.7436  0.3969 -0.9611
 3031SOL    HW1 9992   0.783   2.689   1.303 -1.7113  1.1756  0.0102
 3031SOL    HW2 9993   0.793   2.535   1.356 -1.2628  0.6407 -1.5704
 3032SOL     OW 9994   5.629   5.298   2.027 -0.0083 -0.3977 -0.6665
 3032SOL    HW1 9995   5.566   5.254   2.091 -0.8215  0.6076 -0.7654
 3032SOL    HW2 9996   5.614   5.261   1.935 -0.0797 -0.5348 -0.6006
 3033SOL     OW 9997   2.170   0.606   0.807 -0.0974  0.3124  0.2266
 3033SOL    HW1 9998   2.164   0.690   0.861  2.7387  1.0989 -0.5177
 3033SOL    HW2 9999   2.246   0.550   0.840 -1.0018 -1.2829 -0.2696
 3034SOL     OW10000   2.197   0.820   2.326 -0.0509 -0.2421  0.0967
 3034SOL    HW110001   2.164   0.726   2.333 -1.0916 -0.0353 -1.6138
 3034SOL    HW210002   2.130   0.882   2.367 -0.6796 -0.0271 -1.2279
 3035SOL     OW10003   3.655   0.252   4.717  0.3387 -0.8519  0.4142
 3035SOL    HW110004   3.683   0.324   4.780 -0.0828  0.9118 -1.3220
 3035SOL    HW210005   3.697   0.268   4.628 -0.8365 -1.9911 -0.3810
 3036SOL     OW10006   2.730   4.657   1.651 -0.0793  0.8240 -0.0398
 3036SOL    HW110007   2.645   4.631   1.604  0.0320  1.6830 -0.7368
 3036SOL    HW210008   2.728   4.622   1.744 -0.7583 -0.0378 -0.3556
 3037SOL     OW10009   6.479   0.247   1.221 -0.4403 -0.5130 -0.1616
 3037SOL    HW110010   6.405   0.269   1.285 -0.3442 -2.0920  0.5214
 3037SOL    HW210011   6.439   0.222   1.132 -0.5724  1.6853 -0.7881
 3038SOL     OW10012   4.431   0.794   6.905 -0.4059  0.5984  0.8308
 3038SOL    HW110013   4.373   0.852   6.962  0.8590  1.1978  1.5314
 3038SOL    HW210014   4.425   0.699   6.937 -2.9577  0.1350 -0.6948
 3039SOL     OW10015   1.361   2.171   2.118 -0.2121  0.0406  0.3591
 3039SOL    HW110016   1.413   2.171   2.033  0.2906 -1.5729  0.6416
 3039SOL    HW210017   1.416   2.211   2.191  0.9788 -2.2802  0.8140
 3040SOL     OW10018   2.575   0.321   1.275 -0.2183 -0.3983 -0.1465
 3040SOL    HW110019   2.561   0.323   1.374  0.0003 -1.9108 -0.0574
 3040SOL    HW210020   2.654   0.263   1.254  0.0620  0.3301 -1.1855
 3041SOL     OW10021   1.412   0.024   1.537 -0.1612  0.4018  0.3777
 3041SOL    HW110022   1.426   0.105   1.595 -0.7036  0.6130  0.2165
 3041SOL    HW210023   1.315   0.002   1.533  0.1257 -1.6201  2.2530
 3042SOL     OW10024   5.059   3.523   6.691  0.3371  0.3438 -0.2812
 3042SOL    HW110025   5.110   3.530   6.777 -0.7793  0.9561  0.3484
 3042SOL    HW210026   5.093   3.591   6.626  1.5221 -0.4498 -0.5307
 3043SOL     OW10027   4.891   5.774   4.335 -0.4176 -0.0227 -0.0743
 3043SOL    HW110028   4.793   5.775   4.317 -0.3573  1.2928 -0.4176
 3043SOL    HW210029   4.941   5.777   4.249 -0.0794 -0.2689  0.1118
 3044SOL     OW10030   1.513   6.956   0.332  0.0204  0.1929 -0.0452
 3044SOL    HW110031   1.573   6.946   0.411  0.8167  1.4544 -0.4512
 3044SOL    HW210032   1.490   6.865   0.296 -1.0700 -0.4483  2.0980
 3045SOL     OW10033   5.618   5.735   5.948  0.2959 -0.0392  0.2709
 3045SOL    HW110034   5.634   5.671   5.873 -0.3602 -0.2442  0.2966
 3045SOL    HW210035   5.544   5.797   5.923 -2.1234 -2.0567  1.8775
 3046SOL     OW10036   2.340   6.108   1.211 -0.1554  0.1105 -0.0733
 3046SOL    HW110037   2.396   6.190   1.221 -1.0767  0.4982  2.5208
 3046SOL    HW210038   2.248   6.134   1.182 -0.5090  0.0599  0.9555
 3047SOL     OW10039   3.670   5.472   0.947  0.9634 -0.5211 -0.4195
 3047SOL    HW110040   3.576   5.473   0.912  1.2830 -1.8862 -1.3838
 3047SOL    HW210041   3.675   5.526   1.031 -0.9340 -1.4155  0.3174
 3048SOL     OW10042   1.126   5.428   3.719 -0.5376 -0.4828  0.1027
 3048SOL    HW110043   1.182   5.485   3.780 -0.3492  0.0664 -0.5609
 3048SOL    HW210044   1.162   5.335   3.717 -0.8757 -0.6535  1.2434
 3049SOL     OW10045   0.589   3.680   0.275 -0.8544  0.3109 -0.8190
 3049SOL    HW110046   0.573   3.679   0.373  1.3817  0.5906 -0.3816
 3049SOL    HW210047   0.523   3.621   0.229 -1.6478 -0.1878  0.8944
 3050SOL     OW10048   1.804   2.189   4.718  0.0437  0.4267 -0.0333
 3050SOL    HW110049   1.740   2.142   4.658 -2.6417  2.1443  1.2685
 3050SOL    HW210050   1.833   2.275   4.675  2.0025 -0.5830 -0.8410
 3051SOL     OW10051   1.217   5.832   3.572 -0.4418  0.4122  0.1380
 3051SOL    HW110052   1.161   5.783   3.505  1.5337  0.6503 -1.7717
 3051SOL    HW210053   1.254   5.915   3.530  2.2871 -0.3292  0.9106
 3052SOL     OW10054   1.730   2.359   0.601 -0.1561  0.7791 -0.3892
 3052SOL    HW110055   1.761   2.440   0.651  0.9404  0.5560 -0.6893
 3052SOL    HW210056   1.742   2.278   0.657  1.2830  0.4989 -1.0519
 3053SOL     OW10057   2.390   0.905   6.251  0.0144  0.4941  0.0753
 3053SOL    HW110058   2.334   0.823   6.249  0.7918 -0.0907 -2.5979
 3053SOL    HW210059   2.486   0.881   6.235  0.9866  1.5725  3.4366
 3054SOL     OW10060   2.216   0.814   4.115 -0.0439 -0.3258 -0.4393
 3054SOL    HW110061   2.183   0.796   4.023  1.0927 -0.4588 -0.8285
 3054SOL    HW210062   2.294   0.754   4.135  1.3509  1.4589 -0.3321
 3055SOL     OW10063   5.246   1.714   1.965 -0.0442  0.1238 -0.0581
 3055SOL    HW110064   5.212   1.751   1.878  0.9148 -0.9073 -0.8981
 3055SOL    HW210065   5.344   1.697   1.957 -0.0278 -0.3690  1.1060
 3056SOL     OW10066   5.775   5.121   1.230  0.0969 -0.0874 -0.2486
 3056SOL    HW110067   5.804   5.181   1.304 -1.8912 -0.9597  1.3469
 3056SOL    HW210068   5.752   5.175   1.150 -0.3912  1.1785  0.7075
 3057SOL     OW10069   1.263   0.926   5.753  0.6996 -0.3642 -0.0318
 3057SOL    HW110070   1.203   0.863   5.703  1.3751 -0.0824 -1.2208
 3057SOL    HW210071   1.323   0.973   5.689  1.1112  0.5307  0.9865
 3058SOL     OW10072   6.354   4.526   5.559 -0.0730  0.0112  0.1312
 3058SOL    HW110073   6.280   4.560   5.617  1.3907 -0.1407  2.1750
 3058SOL    HW210074   6.422   4.598   5.546  0.3166 -0.4121 -0.2105
 3059SOL     OW10075   2.489   0.678   2.341  0.3247 -0.0981  0.0744
 3059SOL    HW110076   2.582   0.700   2.369 -0.0570  0.3252  1.0316
 3059SOL    HW210077   2.427   0.751   2.369  0.2328  1.7882 -4.1842
 3060SOL     OW10078   1.761   2.212   0.076  0.0546  0.6249 -0.0854
 3060SOL    HW110079   1.807   2.263   0.148 -0.0331  0.0815  0.3591
 3060SOL    HW210080   1.731   2.123   0.111 -3.7189  1.9207  0.5266
 3061SOL     OW10081   2.078   0.813   6.194 -0.2124 -0.0994  0.0373
 3061SOL    HW110082   2.073   0.845   6.099  2.0110 -1.2462 -0.5198
 3061SOL    HW210083   2.064   0.891   6.255 -0.4049  0.9024 -1.2269
 3062SOL     OW10084   2.270   4.694   5.053 -0.4381 -0.3154  0.3134
 3062SOL    HW110085   2.221   4.610   5.031  0.2765 -0.6355 -0.0807
 3062SOL    HW210086   2.312   4.686   5.144 -1.1752 -0.0022  0.6950
 3063SOL     OW10087   2.433   5.035   6.170  0.7969  0.3650 -0.2258
 3063SOL    HW110088   2.409   5.085   6.087 -0.5868 -0.6954 -0.4996
 3063SOL    HW210089   2.485   4.953   6.147 -0.5675 -0.5444 -0.1912
 3064SOL     OW10090   3.401   6.713   2.074 -0.6042  0.0464 -0.8503
 3064SOL    HW110091   3.350   6.641   2.027 -0.3136  0.0637 -1.2016
 3064SOL    HW210092   3.365   6.725   2.166  0.7500 -2.0889  0.0277
 3065SOL     OW10093   6.922   0.875   4.400  0.0147 -0.0627 -0.5456
 3065SOL    HW110094   6.890   0.781   4.388 -2.4955  0.3128  2.0687
 3065SOL    HW210095   6.849   0.939   4.375  1.1695  1.1579 -0.9121
 3066SOL     OW10096   1.766   5.135   3.854  0.1416 -0.2797 -0.5127
 3066SOL    HW110097   1.860   5.102   3.851 -0.0747 -1.6248  2.8415
 3066SOL    HW210098   1.757   5.217   3.797  2.9215 -0.9585 -2.0857
 3067SOL     OW10099   0.585   2.483   2.973 -0.0332 -0.6226  0.4871
 3067SOL    HW110100   0.624   2.453   2.886 -1.3178 -0.5815 -0.1179
 3067SOL    HW210101   0.625   2.572   2.999 -0.5364 -0.0350 -0.6907
 3068SOL     OW10102   0.566   5.919   0.509 -0.3200 -0.4794  0.1755
 3068SOL    HW110103   0.507   5.924   0.590  0.1022 -1.4194  0.5540
 3068SOL    HW210104   0.602   5.826   0.499 -0.9542 -0.5921 -1.5127
 3069SOL     OW10105   4.052   3.318   4.905  0.0270 -0.0098  0.1821
 3069SOL    HW110106   4.002   3.391   4.951  0.1705 -0.0542  0.4089
 3069SOL    HW210107   4.117   3.276   4.969 -1.3591 -1.5869  0.6250
 3070SOL     OW10108   1.047   1.854   1.944  0.6237  0.0595 -0.2073
 3070SOL    HW110109   1.110   1.799   1.999 -0.1209 -0.9514 -0.3396
 3070SOL    HW210110   1.009   1.797   1.871 -0.9431  0.4726  0.2639
 3071SOL     OW10111   4.639   3.505   0.840 -0.3092 -0.3425  0.1538
 3071SOL    HW110112   4.544   3.535   0.834 -0.7439 -1.8084 -0.7527
 3071SOL    HW210113   4.699   3.585   0.831 -1.4202  0.7008  1.4370
 3072SOL     OW10114   0.463   0.011   0.689  0.3340  0.6732  0.4585
 3072SOL    HW110115   0.463   0.009   0.589 -3.3868 -0.6113  0.3264
 3072SOL    HW210116   0.403   0.084   0.721  0.2290  0.0809  1.6662
 3073SOL     OW10117   3.289   5.051   0.765 -0.3207  0.1556 -0.2418
 3073SOL    HW110118   3.204   5.051   0.818  1.5053  2.4741  3.0112
 3073SOL    HW210119   3.323   5.144   0.756  1.9570 -0.7124 -1.3684
 3074SOL     OW10120   4.888   3.631   0.849  0.2751 -0.2576  0.3701
 3074SOL    HW110121   4.985   3.653   0.832  0.2830 -0.0912  0.6171
 3074SOL    HW210122   4.882   3.561   0.921  0.2263 -0.5847  0.0482
 3075SOL     OW10123   3.992   3.469   6.144 -0.6272 -0.0992 -0.5014
 3075SOL    HW110124   3.968   3.379   6.180 -0.3558  0.6919  1.7913
 3075SOL    HW210125   3.919   3.534   6.163  0.1264  0.6545 -0.0860
 3076SOL     OW10126   1.287   6.937   5.085  0.3066 -0.0575 -0.2864
 3076SOL    HW110127   1.226   6.897   5.016  0.0263 -0.7314  0.3339
 3076SOL    HW210128   1.381   6.905   5.069  0.4129  0.5349 -0.9048
 3077SOL     OW10129   1.360   4.060   2.831 -0.0088 -0.4826  0.0090
 3077SOL    HW110130   1.354   3.974   2.781  0.2279 -0.7916  0.5151
 3077SOL    HW210131   1.415   4.125   2.778  1.0343 -1.1156  0.2921
 3078SOL     OW10132   6.761   6.021   6.033 -0.6787  0.3359 -0.4977
 3078SOL    HW110133   6.773   5.992   5.938 -1.6125  0.3978 -0.6429
 3078SOL    HW210134   6.665   6.044   6.049 -0.3909  1.0532  0.2609
 3079SOL     OW10135   6.232   2.215   4.351  0.1775  0.1965  0.4879
 3079SOL    HW110136   6.140   2.178   4.365 -0.0326  0.5957  0.1584
 3079SOL    HW210137   6.297   2.139   4.342  0.1051 -0.1036  2.1091
 3080SOL     OW10138   1.685   0.672   6.004 -0.3290  0.3104  0.3043
 3080SOL    HW110139   1.624   0.705   5.932 -1.0916 -1.2423  0.1918
 3080SOL    HW210140   1.777   0.661   5.967 -0.6860 -0.3522 -0.4118
 3081SOL     OW10141   5.197   4.075   6.820 -0.2699 -0.8096 -0.1213
 3081SOL    HW110142   5.292   4.061   6.793  0.5669  2.7064  0.5761
 3081SOL    HW210143   5.180   4.032   6.909  0.0719 -2.9161 -0.9980
 3082SOL     OW10144   3.809   0.107   5.927  0.1128  0.0655  0.1076
 3082SOL    HW110145   3.851   0.197   5.938  0.5576 -0.0384 -0.6763
 3082SOL    HW210146   3.710   0.117   5.930  0.1016  0.8230 -1.5081
 3083SOL     OW10147   3.391   3.340   2.084 -0.5900 -0.7309 -0.3163
 3083SOL    HW110148   3.485   3.304   2.082 -0.6236 -0.9024  0.7065
 3083SOL    HW210149   3.328   3.267   2.111 -0.8510 -0.2825  0.2959
 3084SOL     OW10150   4.726   4.421   0.019 -0.4188 -0.4980  0.5809
 3084SOL    HW110151   4.671   4.483   0.075 -1.1533 -0.0923 -0.5475
 3084SOL    HW210152   4.692   4.423  -0.075  2.0726  0.4153 -0.3769
 3085SOL     OW10153   6.562   3.126   6.856  0.2659 -0.1221 -0.3422
 3085SOL    HW110154   6.496   3.052   6.846  1.0098 -0.5939 -2.2307
 3085SOL    HW210155   6.642   3.093   6.907  1.5840 -1.3871 -3.0612
 3086SOL     OW10156   0.957   6.270   0.762  0.4515  0.3020  0.2612
 3086SOL    HW110157   0.940   6.360   0.804  0.3262  0.5678 -0.3538
 3086SOL    HW210158   1.053   6.265   0.734  1.0402 -0.5686  2.2141
 3087SOL     OW10159   3.907   1.356   5.813 -0.0491 -0.2870 -0.5080
 3087SOL    HW110160   3.907   1.333   5.910 -0.7375 -1.1126 -0.6962
 3087SOL    HW210161   3.991   1.323   5.770 -0.5936 -1.6225 -0.5752
 3088SOL     OW10162   3.060   4.979   5.605 -0.0388 -0.4944 -0.0864
 3088SOL    HW110163   3.066   5.073   5.639  1.1657 -1.1162  1.5358
 3088SOL    HW210164   3.149   4.934   5.615 -0.7749 -2.0337 -0.1678
 3089SOL     OW10165   3.282   0.059   4.538 -0.3664 -0.5217 -0.0992
 3089SOL    HW110166   3.195   0.043   4.582  0.8992 -1.1723  2.3124
 3089SOL    HW210167   3.338  -0.024   4.541  0.5725  0.0414 -1.0399
 3090SOL     OW10168   1.302   5.146   0.996  0.0360  0.2203  0.3429
 3090SOL    HW110169   1.399   5.142   0.972 -0.0213  1.3974 -0.1535
 3090SOL    HW210170   1.294   5.176   1.091  0.1558 -0.2920  0.5215
 3091SOL     OW10171   0.455   6.832   1.601 -0.6412  0.1347 -0.1541
 3091SOL    HW110172   0.477   6.922   1.564  1.6326 -0.0951  0.4875
 3091SOL    HW210173   0.453   6.765   1.527  0.3882  0.2647 -0.3101
 3092SOL     OW10174   0.630   4.073   6.589  0.2108  0.0071 -0.1927
 3092SOL    HW110175   0.712   4.045   6.539  1.6420  1.9858  0.9437
 3092SOL    HW210176   0.590   3.993   6.634  0.4014 -1.3312 -2.2298
 3093SOL     OW10177   6.663   3.870   1.449  0.5372 -0.0580 -0.4293
 3093SOL    HW110178   6.706   3.849   1.362 -1.1079  1.3887 -1.6678
 3093SOL    HW210179   6.564   3.858   1.441  0.1491  1.9483  0.6231
 3094SOL     OW10180   6.961   0.517   5.861 -0.0614 -0.8094  0.5706
 3094SOL    HW110181   6.927   0.606   5.832  1.5309 -0.4031 -0.1152
 3094SOL    HW210182   6.967   0.514   5.961 -0.1027 -0.1580  0.5947
 3095SOL     OW10183   4.596   0.265   5.810  0.5580 -0.1146 -0.6927
 3095SOL    HW110184   4.568   0.237   5.718  1.5972  0.0473 -1.0750
 3095SOL    HW210185   4.515   0.289   5.863 -0.1751 -1.4611 -1.1311
 3096SOL     OW10186   2.740   0.550   2.498 -0.2864 -0.2036 -0.0588
 3096SOL    HW110187   2.682   0.470   2.517 -0.2875 -0.1856  0.0140
 3096SOL    HW210188   2.833   0.519   2.481 -0.9782 -0.6280 -3.8972
 3097SOL     OW10189   4.866   0.379   2.645 -0.1542 -0.0830  0.3627
 3097SOL    HW110190   4.876   0.299   2.704  0.7710 -1.3955 -1.4770
 3097SOL    HW210191   4.881   0.462   2.699  1.3744 -1.2395  1.8311
 3098SOL     OW10192   6.374   0.417   3.993 -0.2325 -0.3625 -0.4242
 3098SOL    HW110193   6.419   0.506   3.986  0.7856 -0.7328  0.9746
 3098SOL    HW210194   6.358   0.396   4.089 -0.1479 -1.8321 -0.7171
 3099SOL     OW10195   3.951   6.883   5.815 -0.5639 -0.2894  0.1250
 3099SOL    HW110196   3.865   6.833   5.822 -1.8237  1.5723 -1.2644
 3099SOL    HW210197   3.939   6.976   5.849  1.2375 -0.3202  0.9635
 3100SOL     OW10198   6.850   6.670   5.221 -0.3298 -0.0942 -0.0863
 3100SOL    HW110199   6.935   6.714   5.249 -0.7139  1.9236 -1.8279
 3100SOL    HW210200   6.816   6.612   5.295  2.3448 -0.7001  0.7796
 3101SOL     OW10201   1.397   2.226   0.723 -0.1885 -0.2561 -0.2448
 3101SOL    HW110202   1.312   2.176   0.709 -0.3118 -0.3131  0.6611
 3101SOL    HW210203   1.384   2.295   0.795  1.2861 -2.2313  2.0656
 3102SOL     OW10204   3.494   1.292   4.317  0.3819  0.2138  0.5262
 3102SOL    HW110205   3.466   1.197   4.326  0.3913  0.3677  2.6351
 3102SOL    HW210206   3.416   1.352   4.333  0.6311  0.5795  0.3980
 3103SOL     OW10207   5.221   0.824   6.553 -0.4859  0.6176  0.4027
 3103SOL    HW110208   5.309   0.821   6.600 -0.9178  1.4349  1.3242
 3103SOL    HW210209   5.223   0.765   6.473  1.6358  2.2959 -0.8955
 3104SOL     OW10210   1.689   6.230   3.249  0.0981 -0.1308 -0.2788
 3104SOL    HW110211   1.744   6.250   3.331 -0.1418 -0.5560 -0.0144
 3104SOL    HW210212   1.736   6.267   3.169  0.2187  0.5014  0.0711
 3105SOL     OW10213   2.299   1.469   4.617 -0.2160  0.9157 -0.1959
 3105SOL    HW110214   2.376   1.462   4.554 -0.8219 -0.9360 -0.8084
 3105SOL    HW210215   2.291   1.563   4.650  2.1187  1.2147 -0.3124
 3106SOL     OW10216   6.136   1.933   3.854 -0.6072  0.4648 -0.7429
 3106SOL    HW110217   6.072   1.969   3.922 -1.4836 -0.5310 -1.0156
 3106SOL    HW210218   6.135   1.833   3.858  0.8580  0.4329 -0.8415
 3107SOL     OW10219   4.768   4.829   1.531 -0.0346 -0.1808 -0.1844
 3107SOL    HW110220   4.730   4.919   1.550 -1.9148 -0.8793 -0.3878
 3107SOL    HW210221   4.742   4.765   1.603 -1.1200 -1.1858 -1.4248
 3108SOL     OW10222   2.356   0.979   3.322  0.0799  0.6188  0.3167
 3108SOL    HW110223   2.429   1.046   3.332  1.5627 -0.9087  0.1116
 3108SOL    HW210224   2.297   0.982   3.403  0.4093  1.8102  0.5299
 3109SOL     OW10225   4.849   0.579   0.079 -0.3999  0.0696 -0.3740
 3109SOL    HW110226   4.930   0.539   0.037 -0.5867 -0.9645  0.2160
 3109SOL    HW210227   4.770   0.520   0.062 -0.8524  0.6072 -0.1795
 3110SOL     OW10228   0.139   2.926   0.718 -0.4136  0.1457 -0.3876
 3110SOL    HW110229   0.230   2.945   0.681 -0.9360 -1.8806 -2.9905
 3110SOL    HW210230   0.070   2.947   0.648 -1.7467 -0.8259  0.5905
 3111SOL     OW10231   2.192   6.662   1.142  0.4182  0.0212 -0.2316
 3111SOL    HW110232   2.138   6.743   1.169 -1.6336 -1.2180 -0.4106
 3111SOL    HW210233   2.287   6.689   1.128 -0.1667  2.3771 -0.1392
 3112SOL     OW10234   6.741   6.145   6.382  0.4595 -0.6034  0.1881
 3112SOL    HW110235   6.743   6.112   6.476  0.5353 -1.1330  0.0031
 3112SOL    HW210236   6.831   6.132   6.340  0.3679 -0.5660 -0.0231
 3113SOL     OW10237   6.869   5.813   2.787  0.1994  0.6727 -0.3838
 3113SOL    HW110238   6.942   5.830   2.720 -0.1187  1.3625 -0.5613
 3113SOL    HW210239   6.804   5.888   2.785 -0.9233 -0.2828 -0.7466
 3114SOL     OW10240   0.020   6.294   0.153 -0.5975 -0.6533  0.7083
 3114SOL    HW110241   0.055   6.223   0.091 -0.6810  0.2426 -0.3742
 3114SOL    HW210242  -0.046   6.253   0.216  0.1093 -1.7455  0.7706
 3115SOL     OW10243   3.259   6.497   4.348  0.3987 -0.4373 -0.4831
 3115SOL    HW110244   3.179   6.439   4.332  0.2114 -0.6497  0.9993
 3115SOL    HW210245   3.246   6.586   4.306 -0.0716 -0.8921 -1.3090
 3116SOL     OW10246   0.925   4.284   2.680 -0.5923 -0.2615 -0.4476
 3116SOL    HW110247   0.909   4.367   2.734 -0.1322  0.9705 -2.1036
 3116SOL    HW210248   0.960   4.212   2.739  1.0657  1.4040  0.7274
 3117SOL     OW10249   2.715   6.300   2.544 -0.0604  0.1104 -0.3359
 3117SOL    HW110250   2.645   6.371   2.548  0.5014  0.6431  0.4979
 3117SOL    HW210251   2.700   6.242   2.464 -0.5301  1.1650 -1.0345
 3118SOL     OW10252   0.359   2.432   1.958  0.1215 -0.3795  0.1842
 3118SOL    HW110253   0.259   2.424   1.959  0.0906  0.0252  0.2182
 3118SOL    HW210254   0.398   2.369   2.026 -0.2021  0.8145  1.5234
 3119SOL     OW10255   4.450   0.609   6.392  0.0189 -0.1444  0.0673
 3119SOL    HW110256   4.411   0.670   6.461  0.6443  3.9958 -2.8343
 3119SOL    HW210257   4.534   0.568   6.427 -0.8533 -0.0194  2.4844
 3120SOL     OW10258   5.938   4.048   5.789  0.2489  0.5802 -0.1279
 3120SOL    HW110259   5.886   3.971   5.752  2.0773 -0.4893 -0.6046
 3120SOL    HW210260   5.934   4.047   5.889  1.8193 -1.3634 -0.0208
 3121SOL     OW10261   1.431   1.296   3.421  0.5856  0.0792 -0.5055
 3121SOL    HW110262   1.372   1.369   3.386  0.6027 -0.0335 -0.7768
 3121SOL    HW210263   1.388   1.207   3.404  1.0052 -0.0261 -1.0545
 3122SOL     OW10264   4.336   0.649   5.824 -0.1924  0.0230  0.0502
 3122SOL    HW110265   4.415   0.709   5.830 -0.3600  0.4311 -1.4231
 3122SOL    HW210266   4.283   0.654   5.908  0.4345  1.0257  0.3949
 3123SOL     OW10267   5.447   5.963   3.410  0.1208 -0.0343  0.1046
 3123SOL    HW110268   5.473   5.969   3.506 -0.5496  1.7111  0.2214
 3123SOL    HW210269   5.349   5.944   3.403 -0.3973  2.3480 -0.1231
 3124SOL     OW10270   4.604   4.981   4.188 -0.5900  0.3026  0.0864
 3124SOL    HW110271   4.561   4.893   4.209 -1.4327  1.3021  2.9399
 3124SOL    HW210272   4.583   5.047   4.259  0.1633  2.8394 -1.8802
 3125SOL     OW10273   0.990   0.529   4.692  0.4061 -0.2279 -0.1247
 3125SOL    HW110274   0.926   0.583   4.638 -2.1646 -1.6480  1.2741
 3125SOL    HW210275   0.982   0.433   4.666  1.8295 -0.4707  0.2671
 3126SOL     OW10276   5.071   4.260   5.039  0.7928  0.4512 -0.0012
 3126SOL    HW110277   5.119   4.337   4.996  0.7448  1.8791  2.3181
 3126SOL    HW210278   5.101   4.251   5.134  0.5082 -2.2110 -0.1003
 3127SOL     OW10279   6.459   5.201   1.419  0.1591 -0.3752 -0.2017
 3127SOL    HW110280   6.470   5.148   1.335 -0.2195  0.9527 -1.1222
 3127SOL    HW210281   6.546   5.247   1.441 -0.6358  2.3117 -2.0549
 3128SOL     OW10282   6.566   3.900   2.943 -0.6291 -0.3596  0.6363
 3128SOL    HW110283   6.566   3.813   2.895  0.2882 -0.6530  1.1502
 3128SOL    HW210284   6.519   3.969   2.887 -1.0284 -1.0798  0.0642
 3129SOL     OW10285   6.697   6.806   1.642 -0.3397  0.3779  0.4492
 3129SOL    HW110286   6.725   6.895   1.676 -2.1131  1.3515 -0.4702
 3129SOL    HW210287   6.775   6.759   1.600  0.1926  2.4309 -1.0024
 3130SOL     OW10288   3.162   2.843   0.971  0.7153  0.0828 -0.0889
 3130SOL    HW110289   3.108   2.815   1.051 -0.7291 -0.4278 -1.2052
 3130SOL    HW210290   3.259   2.849   0.997  0.4834 -1.5542  1.3213
 3131SOL     OW10291   6.747   3.941   4.423  0.2951  0.1602 -0.0387
 3131SOL    HW110292   6.802   4.016   4.386  2.3944 -0.7933  0.9977
 3131SOL    HW210293   6.778   3.855   4.383 -0.1030 -0.4673  0.9776
 3132SOL     OW10294   3.143   6.354   3.988 -0.7602  0.0062 -0.1235
 3132SOL    HW110295   3.106   6.262   3.985 -0.9861  0.1285 -1.3068
 3132SOL    HW210296   3.081   6.414   4.039 -0.9433 -0.3305  0.0490
 3133SOL     OW10297   3.477   1.093   5.182 -0.5089 -0.3845 -0.2932
 3133SOL    HW110298   3.473   1.178   5.130  1.2359 -0.7585 -1.0957
 3133SOL    HW210299   3.390   1.080   5.231 -1.2031  1.2924 -1.0039
 3134SOL     OW10300   5.875   4.919   1.757 -0.6884  0.3998 -0.0270
 3134SOL    HW110301   5.941   4.856   1.798 -0.1207 -0.2956 -1.9021
 3134SOL    HW210302   5.848   4.884   1.667 -3.3367  0.8631  0.5051
 3135SOL     OW10303   0.649   1.558   0.008 -0.2544 -0.1229 -0.3922
 3135SOL    HW110304   0.707   1.478   0.021 -0.1957 -0.0326 -0.0930
 3135SOL    HW210305   0.706   1.639  -0.008 -0.2538  0.1455  0.8631
 3136SOL     OW10306   3.951   4.869   3.357  0.3340 -0.2308  0.2607
 3136SOL    HW110307   3.992   4.960   3.348 -1.0757  0.3569 -0.5329
 3136SOL    HW210308   3.899   4.864   3.442 -1.1265  0.3674 -0.5729
 3137SOL     OW10309   1.185   4.314   0.700 -0.5748 -0.1223 -0.4989
 3137SOL    HW110310   1.154   4.225   0.665  1.2701 -0.7100 -0.7739
 3137SOL    HW210311   1.265   4.344   0.647 -0.5068  1.1900  0.3063
 3138SOL     OW10312   6.526   3.629   1.838 -0.2236 -0.3125 -0.5203
 3138SOL    HW110313   6.536   3.722   1.804 -0.8153 -0.4870 -1.2081
 3138SOL    HW210314   6.430   3.602   1.833 -0.0976 -0.8592 -0.0611
 3139SOL     OW10315   5.408   3.890   5.943 -0.7104  0.0172  0.2775
 3139SOL    HW110316   5.508   3.883   5.933 -0.8374 -1.2143 -0.4138
 3139SOL    HW210317   5.365   3.868   5.855 -1.6344 -1.1341  0.9885
 3140SOL     OW10318   5.418   5.195   4.947 -0.2613 -0.4262  0.2707
 3140SOL    HW110319   5.334   5.243   4.974 -0.7773 -1.4631  0.5686
 3140SOL    HW210320   5.397   5.100   4.927  0.7263 -0.5161 -0.4134
 3141SOL     OW10321   5.247   6.506   1.331 -0.0529  0.4382  0.4722
 3141SOL    HW110322   5.226   6.430   1.270  2.5755  0.8208 -1.0568
 3141SOL    HW210323   5.342   6.499   1.362 -0.8634  1.0818  3.4145
 3142SOL     OW10324   5.520   0.664   2.844 -0.0299  0.5750  0.1611
 3142SOL    HW110325   5.605   0.619   2.873  0.1604  2.3155  2.6147
 3142SOL    HW210326   5.543   0.746   2.792 -0.2000  1.0031  0.7570
 3143SOL     OW10327   2.386   4.781   6.809 -0.0643  0.1977  0.1547
 3143SOL    HW110328   2.444   4.700   6.801  1.4470  1.2958 -0.5809
 3143SOL    HW210329   2.443   4.861   6.824 -1.3966  1.3561 -0.6945
 3144SOL     OW10330   1.013   3.644   4.345  0.2537 -0.4580  0.2984
 3144SOL    HW110331   0.994   3.715   4.412  0.8212 -2.1868  2.4060
 3144SOL    HW210332   0.970   3.558   4.374  1.2450 -1.4731 -1.1009
 3145SOL     OW10333   0.313   4.524   3.577  0.0989 -0.2045  0.3658
 3145SOL    HW110334   0.405   4.548   3.547  0.0975  0.2240  0.6936
 3145SOL    HW210335   0.248   4.592   3.543 -0.6344 -2.2579 -2.7855
 3146SOL     OW10336   0.346   1.108   6.090 -0.1148  0.2291  0.3785
 3146SOL    HW110337   0.384   1.186   6.141  0.5667 -0.8477  1.6011
 3146SOL    HW210338   0.342   1.028   6.151 -4.1642  0.1546  0.2577
 3147SOL     OW10339   5.209   0.622   2.769 -0.4620 -0.3516  0.2054
 3147SOL    HW110340   5.274   0.595   2.699 -0.2500 -0.1538  0.3231
 3147SOL    HW210341   5.255   0.625   2.858 -0.8847 -1.2460  0.4615
 3148SOL     OW10342   0.378   4.672   0.261 -0.1837  0.1805 -0.1407
 3148SOL    HW110343   0.380   4.736   0.185 -1.5928  1.7573  1.0565
 3148SOL    HW210344   0.466   4.627   0.269  0.2055  0.4476 -2.2755
 3149SOL     OW10345   0.004   3.615   6.296  0.0713 -0.0899 -0.2312
 3149SOL    HW110346   0.020   3.640   6.391 -2.5182 -0.8846  0.5030
 3149SOL    HW210347   0.051   3.529   6.276  1.1798  0.4226  0.0932
 3150SOL     OW10348   1.487   1.416   1.204 -0.2336  0.2487 -0.3370
 3150SOL    HW110349   1.447   1.324   1.211 -0.2782  0.3058  0.2397
 3150SOL    HW210350   1.570   1.420   1.260  0.8929 -0.0268 -1.9524
 3151SOL     OW10351   2.451   4.438   5.119 -0.5302 -0.1968  0.2903
 3151SOL    HW110352   2.471   4.514   5.057 -0.6943 -0.1332  0.3168
 3151SOL    HW210353   2.522   4.434   5.190 -1.0998  0.5931  0.9177
 3152SOL     OW10354   0.762   1.624   3.877  0.5552  0.3327 -0.3291
 3152SOL    HW110355   0.772   1.719   3.906 -0.2320 -0.1285  1.5847
 3152SOL    HW210356   0.845   1.573   3.897  0.5764  0.3630 -0.3395
 3153SOL     OW10357   2.171   0.116   5.889  0.1137  0.2183 -0.2096
 3153SOL    HW110358   2.181   0.069   5.976  1.6797  2.0432  0.6793
 3153SOL    HW210359   2.230   0.071   5.820  1.9018  1.0201  0.7249
 3154SOL     OW10360   6.962   2.448   3.017  0.0335  0.1530 -0.0771
 3154SOL    HW110361   6.961   2.479   3.112  2.0571 -0.0241  0.0623
 3154SOL    HW210362   7.026   2.371   3.009  0.5061  0.6752 -1.7094
 3155SOL     OW10363   5.211   6.806   5.661 -0.3767  0.4596  0.0882
 3155SOL    HW110364   5.280   6.733   5.666  0.4484  1.2131  0.1398
 3155SOL    HW210365   5.159   6.808   5.747  0.3582  0.6417  0.5409
 3156SOL     OW10366   5.278   6.053   2.943  0.3651 -0.0336  0.5525
 3156SOL    HW110367   5.298   6.062   2.846 -0.5716  0.2095  0.3715
 3156SOL    HW210368   5.181   6.032   2.955  0.3086  0.6797  1.4604
 3157SOL     OW10369   2.230   5.859   0.719 -0.1139  0.0872  0.5709
 3157SOL    HW110370   2.237   5.762   0.739 -1.1344  0.4484  2.9992
 3157SOL    HW210371   2.299   5.909   0.771 -0.9656  0.8188  1.0404
 3158SOL     OW10372   6.476   0.960   5.437 -0.1688 -0.1329 -0.2842
 3158SOL    HW110373   6.541   0.983   5.510  1.6296 -2.8546 -0.8568
 3158SOL    HW210374   6.493   0.866   5.406 -2.3353  0.1641 -2.7124
 3159SOL     OW10375   0.812   5.760   5.464  0.1390  0.3167  0.5039
 3159SOL    HW110376   0.862   5.845   5.483  0.3853  0.0272  1.2064
 3159SOL    HW210377   0.757   5.771   5.381 -0.3331  1.3866  0.9307
 3160SOL     OW10378   0.257   3.582   0.687 -0.1076 -0.0831  0.0754
 3160SOL    HW110379   0.183   3.638   0.649  0.1622 -0.5032 -1.1178
 3160SOL    HW210380   0.226   3.487   0.693  0.2041 -0.1931 -0.0697
 3161SOL     OW10381   0.584   5.024   4.580 -0.0287  0.3749 -0.1869
 3161SOL    HW110382   0.633   5.108   4.605 -0.5473  0.6060  0.0712
 3161SOL    HW210383   0.517   5.045   4.508  0.0589  0.1145 -0.3465
 3162SOL     OW10384   4.353   0.374   5.454  0.2336  0.1405  0.0087
 3162SOL    HW110385   4.421   0.311   5.492  3.3390  1.3438 -2.9634
 3162SOL    HW210386   4.358   0.461   5.502 -0.9417 -0.4680  1.2891
 3163SOL     OW10387   1.796   3.606   2.965  0.3805 -0.0851  0.3665
 3163SOL    HW110388   1.797   3.648   2.874 -0.8381 -1.5682 -0.3747
 3163SOL    HW210389   1.888   3.610   3.004  1.1361 -0.1791 -1.3031
 3164SOL     OW10390   0.123   2.237   2.980 -0.6785  0.2322  0.2566
 3164SOL    HW110391   0.113   2.146   3.019  0.8719  0.7473  1.9966
 3164SOL    HW210392   0.126   2.231   2.880  0.0159 -1.6693  0.3566
 3165SOL     OW10393   1.419   6.410   2.634 -0.0839 -0.3250  0.0685
 3165SOL    HW110394   1.322   6.396   2.619 -0.1363 -2.1014  1.7256
 3165SOL    HW210395   1.438   6.410   2.733  1.6253 -0.2755 -0.2243
 3166SOL     OW10396   1.208   1.942   2.739 -0.0368  0.1331 -0.0310
 3166SOL    HW110397   1.124   1.922   2.790  0.2566 -1.8527 -0.2609
 3166SOL    HW210398   1.287   1.929   2.798  0.1615  1.6107  0.0675
 3167SOL     OW10399   5.551   3.859   0.095 -0.4064  0.2017 -0.5432
 3167SOL    HW110400   5.623   3.924   0.072 -0.9528  0.7179 -0.8427
 3167SOL    HW210401   5.540   3.855   0.194 -1.1934  1.5087 -0.5526
 3168SOL     OW10402   4.002   1.953   3.839 -0.0993  0.2072 -0.2765
 3168SOL    HW110403   3.991   2.049   3.815  1.5220  1.2844  2.6529
 3168SOL    HW210404   3.913   1.914   3.863 -0.9088  0.6301 -2.3648
 3169SOL     OW10405   1.981   2.764   5.947  0.5866 -0.2016  0.8444
 3169SOL    HW110406   2.049   2.822   5.903 -1.4579  1.7783  0.1266
 3169SOL    HW210407   1.917   2.730   5.879 -0.9631  0.5572  1.8840
 3170SOL     OW10408   3.501   0.548   2.478 -0.0427  0.0485  0.0457
 3170SOL    HW110409   3.565   0.619   2.447 -0.5229  0.6762  0.4474
 3170SOL    HW210410   3.522   0.523   2.572 -0.4989  0.4002  0.2462
 3171SOL     OW10411   1.992   1.409   4.854 -0.6134  0.3028 -0.0756
 3171SOL    HW110412   1.965   1.388   4.760 -1.5898 -0.1746  0.3055
 3171SOL    HW210413   1.916   1.393   4.915  0.4600 -0.8422  1.0104
 3172SOL     OW10414   0.959   1.503   4.072 -0.0919  0.3239  0.1895
 3172SOL    HW110415   0.996   1.442   4.002  3.3255  2.5495 -0.1713
 3172SOL    HW210416   0.968   1.460   4.162 -0.1031 -0.6918 -0.2876
 3173SOL     OW10417   0.959   6.267   1.423 -0.0499  0.2500  0.0500
 3173SOL    HW110418   0.988   6.192   1.482 -1.0318  0.5766  0.9884
 3173SOL    HW210419   0.872   6.244   1.379 -0.1018  0.6275 -0.0537
 3174SOL     OW10420   1.453   6.792   1.889  0.1105  0.6056 -0.4409
 3174SOL    HW110421   1.425   6.885   1.913  0.7924  0.8241 -0.4743
 3174SOL    HW210422   1.546   6.775   1.923  0.1257  0.0556 -0.7414
 3175SOL     OW10423   1.966   5.867   5.977  0.6055  0.5337 -0.2926
 3175SOL    HW110424   1.967   5.906   6.069  1.6546 -0.2614  0.0504
 3175SOL    HW210425   1.926   5.776   5.979  1.3286  0.2047 -0.4851
 3176SOL     OW10426   0.355   0.618   6.475  0.2760 -0.0014 -0.8075
 3176SOL    HW110427   0.447   0.655   6.469  0.8016 -0.2502  3.1144
 3176SOL    HW210428   0.351   0.529   6.431  1.9273 -0.0188 -0.9661
 3177SOL     OW10429   2.335   2.345   5.680  0.2502  0.2992  0.3108
 3177SOL    HW110430   2.298   2.269   5.733 -0.3417  0.9700  0.8875
 3177SOL    HW210431   2.263   2.413   5.664  0.0147 -0.4651 -2.5241
 3178SOL     OW10432   3.683   0.131   0.590 -0.0756 -0.2430 -0.2658
 3178SOL    HW110433   3.627   0.201   0.547 -0.3515 -0.2748  0.0380
 3178SOL    HW210434   3.693   0.151   0.688 -2.9577 -2.3477  0.5958
 3179SOL     OW10435   4.131   6.401   2.587 -0.1825  1.1181 -0.0942
 3179SOL    HW110436   4.201   6.386   2.517 -0.8910  0.1472 -0.6109
 3179SOL    HW210437   4.057   6.456   2.550  0.4273  2.4180  0.5487
 3180SOL     OW10438   6.014   1.669   6.341  0.2058  0.5019 -0.2464
 3180SOL    HW110439   6.074   1.724   6.282  0.3034  1.4867  0.7412
 3180SOL    HW210440   6.048   1.575   6.345  1.4768  0.9573  0.0070
 3181SOL     OW10441   1.130   0.188   3.562  0.6663  0.7566  0.4611
 3181SOL    HW110442   1.193   0.112   3.545 -0.8602 -0.4264 -0.2060
 3181SOL    HW210443   1.128   0.208   3.660  3.9127  2.5523  0.3059
 3182SOL     OW10444   3.063   0.582   5.021 -0.1030  0.5028 -0.1723
 3182SOL    HW110445   3.136   0.529   5.064 -1.0163 -1.7720 -1.2398
 3182SOL    HW210446   3.093   0.613   4.931  0.2253  1.3331  0.2137
 3183SOL     OW10447   1.381   6.376   3.860 -0.3273  0.3430  0.0573
 3183SOL    HW110448   1.289   6.374   3.899 -0.7609 -0.0303 -0.9670
 3183SOL    HW210449   1.442   6.428   3.921 -0.9782 -0.2346  1.2285
 3184SOL     OW10450   0.869   6.636   6.475  0.1174 -0.4402 -0.3229
 3184SOL    HW110451   0.941   6.701   6.501 -0.3016 -0.3745  0.6984
 3184SOL    HW210452   0.800   6.683   6.421  0.9127 -0.5403 -1.4577
 3185SOL     OW10453   2.025   4.286   5.332 -0.1920 -0.1639  0.0721
 3185SOL    HW110454   1.972   4.366   5.306  1.3306  0.5492 -0.9701
 3185SOL    HW210455   2.108   4.281   5.277  1.2346 -0.7972  2.1601
 3186SOL     OW10456   6.277   1.613   4.883 -0.0349 -0.0187 -1.2466
 3186SOL    HW110457   6.179   1.632   4.889  0.0617  0.7642 -1.9962
 3186SOL    HW210458   6.299   1.581   4.790  0.3664 -0.5511 -0.9757
 3187SOL     OW10459   4.560   5.943   3.455  0.0012  0.2567 -0.3977
 3187SOL    HW110460   4.594   5.866   3.403 -0.1888 -0.4194  0.4587
 3187SOL    HW210461   4.478   5.916   3.506  1.1011  0.4046  1.5491
 3188SOL     OW10462   4.542   5.818   0.631 -0.2468 -0.3935  0.0922
 3188SOL    HW110463   4.624   5.803   0.687 -0.1420 -2.6815 -0.5877
 3188SOL    HW210464   4.515   5.914   0.638  2.1372  0.3071  0.8037
 3189SOL     OW10465   0.195   4.594   2.472  0.3796 -0.0506  0.1417
 3189SOL    HW110466   0.252   4.608   2.553 -0.0705 -0.6652  0.5720
 3189SOL    HW210467   0.103   4.629   2.490 -0.3167 -2.0338  0.6645
 3190SOL     OW10468   6.061   0.512   3.674 -0.5539 -0.0752  0.1668
 3190SOL    HW110469   6.045   0.506   3.575 -0.2154 -0.0460  0.1089
 3190SOL    HW210470   5.976   0.494   3.723 -0.7927  0.2247 -0.1398
 3191SOL     OW10471   2.784   0.081   0.795 -0.0369 -0.4190 -0.6930
 3191SOL    HW110472   2.803  -0.016   0.813  0.6576 -0.2051 -0.2377
 3191SOL    HW210473   2.799   0.134   0.878 -0.2879  0.1014 -0.9740
 3192SOL     OW10474   5.229   5.951   0.000  0.3049 -0.2725  0.0855
 3192SOL    HW110475   5.274   6.026   0.048 -0.1161  0.5451 -0.7722
 3192SOL    HW210476   5.130   5.963   0.004  0.2646  0.3795 -1.8253
 3193SOL     OW10477   1.957   1.473   0.586  0.1306  0.1048 -0.0210
 3193SOL    HW110478   1.986   1.559   0.545 -0.2847  0.1287 -0.2636
 3193SOL    HW210479   1.955   1.402   0.516 -1.8234  0.4291 -0.3290
 3194SOL     OW10480   6.212   3.760   5.299 -0.2737  0.3757  0.6488
 3194SOL    HW110481   6.144   3.698   5.338  0.5266 -0.4188  0.8117
 3194SOL    HW210482   6.290   3.767   5.361  0.2105  0.5273  0.0374
 3195SOL     OW10483   5.135   3.252   1.345 -0.1631 -0.2335 -0.3301
 3195SOL    HW110484   5.070   3.292   1.280 -1.4124 -1.8488 -0.1462
 3195SOL    HW210485   5.092   3.244   1.435 -0.3876 -2.8315 -0.5844
 3196SOL     OW10486   3.880   0.245   3.276  0.7194  0.2686 -0.2454
 3196SOL    HW110487   3.939   0.164   3.272  1.4982  0.8744 -1.1944
 3196SOL    HW210488   3.898   0.295   3.361  0.2349 -0.5387  0.3454
 3197SOL     OW10489   4.603   0.182   2.403 -0.0476 -0.5886 -0.2640
 3197SOL    HW110490   4.700   0.185   2.429 -0.7846  2.1860  2.8509
 3197SOL    HW210491   4.593   0.211   2.308  2.2448 -3.3295 -1.5131
 3198SOL     OW10492   5.563   2.392   2.117  0.2435 -0.1742  0.4574
 3198SOL    HW110493   5.622   2.418   2.041  1.4547 -1.2767  0.9678
 3198SOL    HW210494   5.551   2.293   2.118 -4.0619  0.1444 -1.3102
 3199SOL     OW10495   6.001   5.018   4.088  0.3754 -0.3275  0.5481
 3199SOL    HW110496   6.091   5.006   4.046 -0.0163 -0.0306 -0.4090
 3199SOL    HW210497   6.003   4.985   4.182  1.1386 -1.5065  0.1389
 3200SOL     OW10498   1.489   2.755   4.620 -1.0265 -0.1586  0.6131
 3200SOL    HW110499   1.559   2.813   4.660 -1.5657  1.2287 -0.3972
 3200SOL    HW210500   1.528   2.665   4.599 -0.4396 -0.5484  3.1030
 3201SOL     OW10501   6.405   0.048   5.385 -0.0860  0.4162 -0.6662
 3201SOL    HW110502   6.461  -0.032   5.364 -0.4257  0.1562 -0.5921
 3201SOL    HW210503   6.436   0.089   5.471 -1.6026 -1.2371  0.7565
 3202SOL     OW10504   4.482   5.686   5.559  0.6773  0.3737 -0.0881
 3202SOL    HW110505   4.526   5.692   5.649  0.5216  1.2312 -0.0555
 3202SOL    HW210506   4.383   5.695   5.570  0.5437 -0.7181 -0.2418
 3203SOL     OW10507   2.149   5.670   2.923 -0.0002  0.1400  0.1574
 3203SOL    HW110508   2.127   5.755   2.875  0.6151 -0.9610 -2.2820
 3203SOL    HW210509   2.083   5.600   2.897  0.2539 -0.4707  1.1045
 3204SOL     OW10510   5.684   0.205   5.331 -0.3263 -0.2457 -0.1890
 3204SOL    HW110511   5.664   0.134   5.265  0.8231 -0.5584 -0.2273
 3204SOL    HW210512   5.632   0.287   5.310 -1.8274 -1.1277 -0.0189
 3205SOL     OW10513   0.888   6.891   6.169 -0.4106 -0.1006 -0.6838
 3205SOL    HW110514   0.939   6.976   6.181  0.7273 -0.9553  0.9693
 3205SOL    HW210515   0.802   6.897   6.219  0.2486 -0.3525  0.5176
 3206SOL     OW10516   6.995   6.833   3.264  0.0446 -0.1437 -0.4943
 3206SOL    HW110517   7.017   6.780   3.182  1.9980  1.1640 -0.8726
 3206SOL    HW210518   6.926   6.901   3.241 -1.1384 -1.2901 -0.4464
 3207SOL     OW10519   0.317   3.513   0.357 -0.4900  0.2019  0.5723
 3207SOL    HW110520   0.375   3.470   0.288 -0.4127 -0.1825  0.8717
 3207SOL    HW210521   0.373   3.575   0.413  0.1493 -1.7799  2.2581
 3208SOL     OW10522   1.644   6.485   1.976 -0.2210 -0.2237  0.4900
 3208SOL    HW110523   1.649   6.471   1.877  1.9129 -2.9074  0.8712
 3208SOL    HW210524   1.683   6.574   1.999  0.7639 -0.2409 -0.9784
 3209SOL     OW10525   5.666   0.814   0.626  0.5311 -0.0251 -0.0418
 3209SOL    HW110526   5.575   0.844   0.654  1.0388  0.5478  1.0441
 3209SOL    HW210527   5.708   0.762   0.700  1.7376  1.1585  0.1521
 3210SOL     OW10528   1.666   0.515   4.251 -0.1929 -0.4905 -0.1702
 3210SOL    HW110529   1.740   0.546   4.311 -0.8941 -1.6251  1.3559
 3210SOL    HW210530   1.600   0.588   4.239 -0.7542 -0.6498  1.6399
 3211SOL     OW10531   2.527   4.506   1.539  0.6309 -0.1597  0.8828
 3211SOL    HW110532   2.452   4.463   1.589 -0.0212 -1.8476 -1.3659
 3211SOL    HW210533   2.489   4.567   1.469  1.1823 -2.0789 -1.1996
 3212SOL     OW10534   6.059   3.073   3.658 -0.4053  0.4385  0.0135
 3212SOL    HW110535   6.114   3.036   3.732  0.9514  1.7420 -0.3034
 3212SOL    HW210536   6.113   3.137   3.604 -1.3950 -0.3405 -2.0281
 3213SOL     OW10537   5.463   4.539   4.017  0.0040  0.1482  0.3474
 3213SOL    HW110538   5.482   4.564   3.922 -0.9184 -1.7743 -0.3938
 3213SOL    HW210539   5.390   4.596   4.054 -0.4916  0.0867 -0.5260
 3214SOL     OW10540   1.920   5.497   3.243  0.4031  0.4741 -0.1346
 3214SOL    HW110541   1.967   5.544   3.168 -0.2175 -1.4454 -1.8259
 3214SOL    HW210542   1.824   5.485   3.220 -0.4306  2.0713  2.1515
 3215SOL     OW10543   0.973   3.177   5.322  0.6959 -0.0623  0.4048
 3215SOL    HW110544   0.883   3.206   5.355  0.6375 -0.7180  0.8397
 3215SOL    HW210545   0.979   3.193   5.223  0.1278  0.0382  0.3833
 3216SOL     OW10546   4.761   6.464   4.869  0.8068 -0.4753 -0.3134
 3216SOL    HW110547   4.773   6.553   4.911  0.0845 -0.6323  0.2509
 3216SOL    HW210548   4.770   6.392   4.938 -2.3335 -0.6513  0.0705
 3217SOL     OW10549   1.169   1.890   6.958 -0.4179  0.3727 -0.0075
 3217SOL    HW110550   1.141   1.794   6.965 -0.0607  0.3275  1.0219
 3217SOL    HW210551   1.092   1.944   6.925 -0.2314 -0.4378 -1.9024
 3218SOL     OW10552   6.150   4.895   5.175 -0.4011  0.5724 -0.2229
 3218SOL    HW110553   6.206   4.833   5.230 -0.4540 -1.6801 -2.5179
 3218SOL    HW210554   6.209   4.944   5.111 -0.5523  1.8489  0.5753
 3219SOL     OW10555   0.028   3.225   3.594  0.0593  0.1253  0.3023
 3219SOL    HW110556   0.082   3.266   3.667 -1.7273  0.7086  1.3711
 3219SOL    HW210557   0.022   3.289   3.517  0.3106  0.3352  0.4544
 3220SOL     OW10558   6.415   1.613   4.619 -0.4826 -0.2736  0.4193
 3220SOL    HW110559   6.434   1.525   4.576 -0.2090  1.0879 -2.5186
 3220SOL    HW210560   6.501   1.658   4.643 -0.5202  0.0243  0.0176
 3221SOL     OW10561   5.627   4.306   6.286  0.4492 -0.2506 -0.1106
 3221SOL    HW110562   5.564   4.379   6.262 -1.4492 -1.2901  1.4180
 3221SOL    HW210563   5.577   4.220   6.295  2.5562 -1.7081 -1.4827
 3222SOL     OW10564   2.780   2.216   4.779  0.1088 -0.4425 -0.1422
 3222SOL    HW110565   2.863   2.245   4.731  0.4604 -0.8343  0.2167
 3222SOL    HW210566   2.802   2.198   4.875 -0.6342  0.5575  0.2320
 3223SOL     OW10567   5.304   5.730   2.524 -0.0488 -0.1849  0.4694
 3223SOL    HW110568   5.286   5.660   2.455 -2.4137  2.6439 -2.0803
 3223SOL    HW210569   5.235   5.725   2.596 -0.6015 -0.1075 -0.0483
 3224SOL     OW10570   3.198   2.930   6.905 -0.0247 -0.4699  0.1311
 3224SOL    HW110571   3.226   2.836   6.886  1.5278 -0.2787  1.2722
 3224SOL    HW210572   3.205   2.947   7.003  0.4176  1.0402 -0.1384
 3225SOL     OW10573   0.721   6.016   4.085  0.0193 -0.5526 -0.2669
 3225SOL    HW110574   0.795   6.081   4.103  0.2317 -0.6783 -0.6527
 3225SOL    HW210575   0.758   5.923   4.082  0.0943 -0.5031 -1.7620
 3226SOL     OW10576   6.204   0.893   3.521 -0.5702  0.0348 -0.1418
 3226SOL    HW110577   6.287   0.898   3.466 -1.0072 -0.2896 -0.8355
 3226SOL    HW210578   6.223   0.843   3.606  0.3008  1.2264  0.3903
 3227SOL     OW10579   6.388   0.541   2.862 -0.1885  0.1014 -0.4258
 3227SOL    HW110580   6.339   0.513   2.780 -2.4802  1.0196  0.5288
 3227SOL    HW210581   6.485   0.555   2.841 -0.8314  1.0445 -3.1431
 3228SOL     OW10582   4.790   5.359   1.227 -0.4114  0.5142 -0.6299
 3228SOL    HW110583   4.786   5.412   1.143 -1.3391  0.0363 -0.9006
 3228SOL    HW210584   4.803   5.262   1.205  0.3987  0.5151 -0.1799
 3229SOL     OW10585   6.941   1.544   4.061 -0.4786  0.3233 -0.2306
 3229SOL    HW110586   6.969   1.640   4.064  1.0126 -0.0789 -0.2666
 3229SOL    HW210587   6.881   1.524   4.139 -0.0083  1.0603  0.3319
 3230SOL     OW10588   4.028   4.188   6.001 -0.4252  0.1680  0.0930
 3230SOL    HW110589   3.944   4.138   5.977 -1.6326  2.0066  0.3208
 3230SOL    HW210590   4.093   4.124   6.042 -1.6658 -1.3369 -0.1655
 3231SOL     OW10591   5.164   0.673   6.338  0.3808  0.0497  0.1466
 3231SOL    HW110592   5.066   0.666   6.318  0.3988 -2.0115  0.5153
 3231SOL    HW210593   5.216   0.669   6.253  0.1749  0.4465  0.0001
 3232SOL     OW10594   5.288   0.366   5.737 -0.6500 -0.2995  0.1076
 3232SOL    HW110595   5.383   0.356   5.705 -0.8797  1.5676 -1.3512
 3232SOL    HW210596   5.237   0.283   5.716  0.3074 -0.7662 -0.4556
 3233SOL     OW10597   4.887   1.744   4.346 -0.2273  0.4855 -0.0067
 3233SOL    HW110598   4.917   1.648   4.340 -0.2401  0.5656 -2.5005
 3233SOL    HW210599   4.966   1.804   4.331 -0.5583  0.7962 -0.5599
 3234SOL     OW10600   5.814   1.905   2.758  0.1167  0.1669  0.7035
 3234SOL    HW110601   5.872   1.878   2.835 -0.5451 -0.9190  0.8459
 3234SOL    HW210602   5.870   1.945   2.686  1.1761 -1.6545  0.4734
 3235SOL     OW10603   4.517   5.961   3.908  0.1487 -0.1798  0.5626
 3235SOL    HW110604   4.469   6.042   3.873 -1.2623 -1.1200  0.2254
 3235SOL    HW210605   4.589   5.990   3.971  0.7795  1.4034 -0.8053
 3236SOL     OW10606   6.110   4.015   5.326  0.0715  0.2534 -0.4872
 3236SOL    HW110607   6.140   3.922   5.305  1.4388  0.2514  1.2816
 3236SOL    HW210608   6.187   4.069   5.358 -1.0104  1.5482  0.0468
 3237SOL     OW10609   6.328   5.834   4.411  0.1738  0.4616 -0.6160
 3237SOL    HW110610   6.417   5.790   4.424  0.5715  0.6757 -2.3295
 3237SOL    HW210611   6.280   5.789   4.335 -0.5183  1.3330 -0.7094
 3238SOL     OW10612   5.332   5.326   1.370 -0.2848  0.8597 -0.2176
 3238SOL    HW110613   5.404   5.356   1.307  0.0356  1.6070  0.4841
 3238SOL    HW210614   5.363   5.339   1.464 -1.1792  0.7930  0.0940
 3239SOL     OW10615   6.671   0.373   0.423  0.3432  0.1391  0.2326
 3239SOL    HW110616   6.615   0.396   0.344  0.3493 -0.6152 -0.0003
 3239SOL    HW210617   6.618   0.385   0.507  0.2085  0.5574  0.0874
 3240SOL     OW10618   6.763   3.015   5.344  0.2806  0.6137 -0.1008
 3240SOL    HW110619   6.765   2.916   5.356  1.9149  0.4622 -1.2300
 3240SOL    HW210620   6.733   3.059   5.429  1.4174 -0.7840  1.0715
 3241SOL     OW10621   3.833   2.948   4.988  0.0145 -0.0430  0.5172
 3241SOL    HW110622   3.864   2.963   4.894  0.4192  0.5220  0.7369
 3241SOL    HW210623   3.754   2.886   4.988  0.8985 -1.2161 -0.0817
 3242SOL     OW10624   3.220   3.663   6.067  0.2129 -0.3663  0.6069
 3242SOL    HW110625   3.246   3.757   6.085 -0.4562 -0.3987  1.8073
 3242SOL    HW210626   3.144   3.660   6.003  0.2123 -0.0888  0.5975
 3243SOL     OW10627   6.604   2.841   2.722  0.0167  0.7529  0.1862
 3243SOL    HW110628   6.556   2.763   2.681  0.8191  0.8734 -1.0358
 3243SOL    HW210629   6.547   2.923   2.715 -0.6118  0.3919  0.9957
 3244SOL     OW10630   2.294   0.668   0.308 -0.1459 -0.2181  0.3822
 3244SOL    HW110631   2.270   0.590   0.367 -0.7547 -0.7514 -0.5406
 3244SOL    HW210632   2.340   0.634   0.226 -1.1288  0.3044 -0.4076
 3245SOL     OW10633   1.185   4.189   0.243  0.3902  0.1863  0.2823
 3245SOL    HW110634   1.265   4.159   0.296  0.4176 -0.8851 -0.3397
 3245SOL    HW210635   1.102   4.165   0.293  0.3770 -2.0528 -0.7247
 3246SOL     OW10636   0.604   6.479   1.639  0.3281 -0.4309 -0.0246
 3246SOL    HW110637   0.627   6.560   1.694 -1.2264  1.4463 -1.9639
 3246SOL    HW210638   0.636   6.493   1.546 -0.5021 -1.7920 -0.5313
 3247SOL     OW10639   0.633   5.258   3.987 -0.1028 -0.0824 -0.1741
 3247SOL    HW110640   0.659   5.181   3.930 -1.5754 -0.5050 -0.3054
 3247SOL    HW210641   0.571   5.318   3.936  0.5985  0.9171  0.1102
 3248SOL     OW10642   6.458   5.341   1.033 -0.1793  0.0673 -0.2766
 3248SOL    HW110643   6.387   5.405   1.005 -0.1777 -0.3982 -1.4199
 3248SOL    HW210644   6.519   5.384   1.099 -1.2920  0.5999  0.4225
 3249SOL     OW10645   3.278   3.547   2.654 -0.2206  0.0545  0.3954
 3249SOL    HW110646   3.216   3.482   2.610 -0.9769  1.0774 -0.0926
 3249SOL    HW210647   3.368   3.543   2.611  0.2786 -1.8678  1.4944
 3250SOL     OW10648   6.184   0.252   3.315 -0.0658 -0.4622  0.3971
 3250SOL    HW110649   6.276   0.290   3.307 -0.5647  0.7905  0.3046
 3250SOL    HW210650   6.120   0.325   3.338 -1.1123 -1.2210 -0.0256
 3251SOL     OW10651   1.016   4.741   2.096  0.4582 -0.0829  0.1854
 3251SOL    HW110652   1.033   4.682   2.016  0.3868 -1.0310  0.8581
 3251SOL    HW210653   1.045   4.834   2.074  0.1309 -0.2481 -1.0693
 3252SOL     OW10654   1.560   3.131   6.723 -0.0102  0.2310  0.2747
 3252SOL    HW110655   1.567   3.094   6.630 -1.2886 -0.3797  0.4009
 3252SOL    HW210656   1.508   3.068   6.780 -0.5945  1.3283  0.9966
 3253SOL     OW10657   5.676   3.871   2.487 -0.1061 -0.1433  0.3831
 3253SOL    HW110658   5.745   3.941   2.470 -1.6819  1.9478  2.0106
 3253SOL    HW210659   5.591   3.915   2.516 -1.3288 -2.7524  1.0259
 3254SOL     OW10660   1.359   5.980   2.380 -0.4201 -0.0892 -0.3092
 3254SOL    HW110661   1.264   5.972   2.411 -1.6379  3.2854 -2.6127
 3254SOL    HW210662   1.411   6.033   2.447 -0.6026 -0.4968  0.1619
 3255SOL     OW10663   0.062   4.629   0.876  0.0699 -0.4771  0.0801
 3255SOL    HW110664  -0.015   4.619   0.939  0.8033  2.4242  1.6426
 3255SOL    HW210665   0.042   4.701   0.810  0.7501 -0.9881 -0.7059
 3256SOL     OW10666   6.843   3.552   0.438 -0.2179 -0.5786  0.3288
 3256SOL    HW110667   6.858   3.454   0.442 -0.0460 -0.5057  2.7567
 3256SOL    HW210668   6.914   3.599   0.490 -1.0452  0.7357  0.3228
 3257SOL     OW10669   1.063   3.756   3.547 -0.3933  0.3954  0.5581
 3257SOL    HW110670   1.097   3.819   3.616 -1.1352  0.4305  0.9087
 3257SOL    HW210671   0.967   3.777   3.528  0.0208  0.9363 -1.1135
 3258SOL     OW10672   5.229   4.011   2.411 -0.2307 -0.1308  0.3637
 3258SOL    HW110673   5.217   4.107   2.433 -3.2089 -0.2471 -0.2914
 3258SOL    HW210674   5.205   3.995   2.315  4.0256 -1.0017 -0.7932
 3259SOL     OW10675   5.815   0.289   1.107  0.3650 -0.3609  0.0755
 3259SOL    HW110676   5.902   0.273   1.062 -0.9310 -2.4937 -1.8717
 3259SOL    HW210677   5.812   0.237   1.193  0.7720 -0.8840 -0.2186
 3260SOL     OW10678   2.624   2.446   3.742 -0.6060  0.0826  0.3221
 3260SOL    HW110679   2.589   2.407   3.657 -3.0610 -3.5531  2.6807
 3260SOL    HW210680   2.719   2.419   3.754  0.3752  2.1894 -1.9682
 3261SOL     OW10681   6.663   0.794   3.718 -0.2478 -0.5745 -0.2877
 3261SOL    HW110682   6.573   0.758   3.742 -0.5315 -0.0671 -0.5706
 3261SOL    HW210683   6.671   0.889   3.749  0.1603 -0.5904 -0.3364
 3262SOL     OW10684   4.293   6.419   2.375  0.0060  0.1474 -0.3414
 3262SOL    HW110685   4.364   6.460   2.318 -0.0654  0.0958 -0.4663
 3262SOL    HW210686   4.285   6.322   2.354 -0.1102  0.1556 -0.3361
 3263SOL     OW10687   6.748   2.059   3.123 -0.4705 -0.2984  0.2027
 3263SOL    HW110688   6.758   2.104   3.035 -1.8176  0.4865  0.4211
 3263SOL    HW210689   6.695   2.117   3.185 -0.4451 -1.2802  1.1932
 3264SOL     OW10690   0.519   2.753   4.995  0.1085  0.2174 -0.0362
 3264SOL    HW110691   0.425   2.749   4.962 -0.2931  1.0805  0.9561
 3264SOL    HW210692   0.543   2.666   5.038  0.4113 -0.6784 -1.9057
 3265SOL     OW10693   5.919   1.233   6.074 -0.4914 -0.2071  0.3971
 3265SOL    HW110694   5.825   1.198   6.079 -1.0259  1.2876  1.4949
 3265SOL    HW210695   5.981   1.157   6.052 -1.8931 -1.2986  0.0324
 3266SOL     OW10696   3.186   3.489   3.813  0.4212  0.2570 -0.0391
 3266SOL    HW110697   3.142   3.573   3.784  0.9197  0.8231  0.7949
 3266SOL    HW210698   3.119   3.414   3.813 -0.1468  0.7619 -0.3028
 3267SOL     OW10699   6.653   0.821   1.596  0.1493 -0.0450  0.0790
 3267SOL    HW110700   6.700   0.743   1.636  0.7382 -0.1344 -0.7718
 3267SOL    HW210701   6.717   0.897   1.586  0.2008 -0.2358 -1.2823
 3268SOL     OW10702   3.278   1.262   2.438 -0.4014 -0.3263 -0.3524
 3268SOL    HW110703   3.187   1.295   2.465 -0.3745 -1.2931  1.0236
 3268SOL    HW210704   3.278   1.243   2.340 -1.4480  0.4082 -0.5199
 3269SOL     OW10705   4.310   1.722   1.841 -0.0430 -0.4919  0.3027
 3269SOL    HW110706   4.217   1.758   1.830  0.4903  0.9461  0.2129
 3269SOL    HW210707   4.371   1.767   1.776  0.5021 -2.3733 -0.5566
 3270SOL     OW10708   6.942   2.251   0.529 -0.0037  0.1640  0.0784
 3270SOL    HW110709   6.895   2.163   0.517  0.0872  0.2359 -0.8825
 3270SOL    HW210710   7.036   2.243   0.498  0.2409  0.3918  0.7420
 3271SOL     OW10711   3.187   1.030   1.600  0.0928 -0.6717 -0.3841
 3271SOL    HW110712   3.182   1.097   1.675 -0.9494 -1.2935  0.1214
 3271SOL    HW210713   3.281   1.025   1.567  0.3740  0.3621  0.1914
 3272SOL     OW10714   3.960   2.578   0.680  0.3699  0.6325 -0.4047
 3272SOL    HW110715   3.906   2.656   0.711  0.7732  0.0323  2.0236
 3272SOL    HW210716   3.931   2.496   0.731  2.2334 -0.0832 -0.4417
 3273SOL     OW10717   5.638   0.350   0.656 -0.5199 -0.3259  0.2894
 3273SOL    HW110718   5.653   0.362   0.558 -2.0407 -0.9054 -0.0380
 3273SOL    HW210719   5.616   0.255   0.675 -0.3116 -0.2039  1.1856
 3274SOL     OW10720   1.571   0.399   6.755  0.2859  0.2100  0.1728
 3274SOL    HW110721   1.539   0.307   6.731  1.1531  0.1072 -0.6598
 3274SOL    HW210722   1.669   0.398   6.770  0.8390  1.4792 -2.6637
 3275SOL     OW10723   4.946   6.496   1.219  0.2970 -0.3196 -0.2711
 3275SOL    HW110724   4.972   6.407   1.181  0.8455 -1.3732  2.3456
 3275SOL    HW210725   4.969   6.498   1.316 -3.0988  1.3115  0.6297
 3276SOL     OW10726   4.145   3.475   1.668  0.1149  1.2868  0.0036
 3276SOL    HW110727   4.053   3.437   1.666  0.8859 -0.6299 -0.6691
 3276SOL    HW210728   4.155   3.534   1.749 -0.7571 -0.9223  1.8161
 3277SOL     OW10729   5.743   2.126   5.239  0.2322 -0.1260  0.3823
 3277SOL    HW110730   5.797   2.059   5.189  1.2301  0.3587  0.7886
 3277SOL    HW210731   5.679   2.171   5.177  0.2463 -0.7466 -0.0856
 3278SOL     OW10732   6.845   2.348   4.851  0.2736  0.3354 -0.4071
 3278SOL    HW110733   6.902   2.430   4.845 -0.6014  0.8565 -1.9759
 3278SOL    HW210734   6.899   2.269   4.821  0.5796  0.6216 -0.6293
 3279SOL     OW10735   3.620   2.566   0.789 -0.3238 -0.0921 -0.6028
 3279SOL    HW110736   3.659   2.658   0.790 -0.0488 -0.2024 -0.9680
 3279SOL    HW210737   3.521   2.572   0.800 -0.2196  0.1916  0.3401
 3280SOL     OW10738   5.740   2.505   5.611  0.3132 -0.4658 -0.3197
 3280SOL    HW110739   5.659   2.512   5.553 -1.2400 -0.4905  1.7356
 3280SOL    HW210740   5.729   2.429   5.675  1.8892 -0.3440  0.1444
 3281SOL     OW10741   6.513   2.387   5.236 -1.0758  0.4856  0.0034
 3281SOL    HW110742   6.555   2.306   5.275 -0.5464  1.0014  0.5300
 3281SOL    HW210743   6.413   2.375   5.231 -0.9493 -0.4053 -0.4560
 3282SOL     OW10744   1.933   5.443   2.105 -0.1825 -0.3390 -0.1579
 3282SOL    HW110745   1.952   5.540   2.087  0.0387 -0.3525 -0.0027
 3282SOL    HW210746   1.835   5.428   2.110 -0.2016  0.1983  1.5687
 3283SOL     OW10747   0.313   5.190   3.163 -0.5394  0.0683  0.4118
 3283SOL    HW110748   0.325   5.218   3.259  0.4557  0.2987  0.2342
 3283SOL    HW210749   0.326   5.092   3.155  0.0867  0.1506  0.4067
 3284SOL     OW10750   2.982   2.345   6.641 -0.0681 -0.0268 -0.0482
 3284SOL    HW110751   2.948   2.411   6.574  0.5019  0.7396  0.3967
 3284SOL    HW210752   3.064   2.301   6.605 -0.5173 -0.5823 -0.3949
 3285SOL     OW10753   2.991   1.638   5.430  0.2605 -0.1460 -0.6733
 3285SOL    HW110754   2.947   1.688   5.355  0.5260 -0.0499 -0.7641
 3285SOL    HW210755   2.969   1.541   5.422 -1.7079  0.1417  0.4828
 3286SOL     OW10756   4.011   4.810   2.554  0.5242 -0.6506  0.3244
 3286SOL    HW110757   3.987   4.875   2.626  1.4531  0.2700 -0.1738
 3286SOL    HW210758   3.932   4.796   2.494 -0.1297 -1.1127  1.2552
 3287SOL     OW10759   4.344   0.764   4.346 -0.2310 -0.5049 -0.1950
 3287SOL    HW110760   4.342   0.740   4.443 -0.0806 -1.5226 -0.4275
 3287SOL    HW210761   4.387   0.853   4.334 -1.0682  0.0426  0.7476
 3288SOL     OW10762   5.337   2.205   0.894  0.2232 -0.2466  0.3559
 3288SOL    HW110763   5.320   2.303   0.884 -2.4285 -0.7075 -0.5703
 3288SOL    HW210764   5.276   2.167   0.964  0.7392 -1.3436  0.2371
 3289SOL     OW10765   0.654   5.841   2.541  0.0981 -0.5607  0.0801
 3289SOL    HW110766   0.711   5.888   2.473 -2.8548  3.0403 -0.2293
 3289SOL    HW210767   0.567   5.815   2.499 -0.7122 -0.7426  1.7956
 3290SOL     OW10768   6.750   0.017   4.788 -0.0290 -0.0867  0.2564
 3290SOL    HW110769   6.655   0.041   4.770  0.3266  1.7931  0.5927
 3290SOL    HW210770   6.760  -0.009   4.884  0.0901  1.7871  0.8076
 3291SOL     OW10771   3.468   4.174   3.529 -0.1170 -0.2644  0.5490
 3291SOL    HW110772   3.567   4.174   3.538 -0.1769  1.7510  1.6760
 3291SOL    HW210773   3.443   4.175   3.432  0.8806 -2.3929  0.1990
 3292SOL     OW10774   6.565   5.317   2.969  0.1636  0.0290  0.2044
 3292SOL    HW110775   6.638   5.311   3.038 -0.7539  0.0330  1.2106
 3292SOL    HW210776   6.558   5.411   2.937  0.1117  0.1895  0.6682
 3293SOL     OW10777   6.475   4.989   0.153 -0.0845 -0.1714 -0.2370
 3293SOL    HW110778   6.410   5.062   0.175  0.5853  0.0020  1.2866
 3293SOL    HW210779   6.455   4.953   0.061 -0.9041  1.3774 -0.6952
 3294SOL     OW10780   0.312   1.387   5.829  0.1507  0.4441  0.0125
 3294SOL    HW110781   0.384   1.450   5.855 -0.1530  1.3300 -1.2333
 3294SOL    HW210782   0.230   1.405   5.884  0.3481  0.5423  0.2733
 3295SOL     OW10783   1.833   1.117   4.683 -0.6696 -0.4986 -0.0079
 3295SOL    HW110784   1.824   1.214   4.661  1.8101 -0.6951 -2.4317
 3295SOL    HW210785   1.924   1.100   4.722 -0.8141 -1.9612 -0.2534
 3296SOL     OW10786   0.411   0.378   2.297 -0.3939  0.0336  0.3272
 3296SOL    HW110787   0.492   0.388   2.239  0.5795  0.6046  1.7133
 3296SOL    HW210788   0.423   0.298   2.356 -2.4772 -2.0535 -1.8969
 3297SOL     OW10789   5.794   1.185   0.114 -0.0469  0.2631 -0.3622
 3297SOL    HW110790   5.858   1.114   0.085  1.0552  0.8426  0.5418
 3297SOL    HW210791   5.756   1.231   0.034  2.7425  1.6972 -0.9596
 3298SOL     OW10792   4.770   5.533   3.555 -0.4230 -0.1953 -0.3137
 3298SOL    HW110793   4.866   5.516   3.577 -0.2153  2.5548  1.3554
 3298SOL    HW210794   4.712   5.498   3.628 -0.6640 -1.2438 -0.9927
 3299SOL     OW10795   0.574   6.219   1.134  0.4034  0.5437 -0.0738
 3299SOL    HW110796   0.617   6.203   1.223 -1.7417 -0.3487  0.8671
 3299SOL    HW210797   0.484   6.175   1.132 -1.1220  3.4854 -1.4344
 3300SOL     OW10798   3.416   1.078   5.994  0.3252 -0.3540 -0.1850
 3300SOL    HW110799   3.359   1.123   5.925 -0.8122 -0.2813  0.7695
 3300SOL    HW210800   3.468   1.003   5.952 -0.3414 -0.3101 -1.1034
 3301SOL     OW10801   5.319   5.831   5.797 -0.8371 -0.1419 -0.0024
 3301SOL    HW110802   5.301   5.740   5.758  2.2618 -0.3213 -1.2512
 3301SOL    HW210803   5.303   5.901   5.727  0.8332 -0.1303 -0.4107
 3302SOL     OW10804   2.825   5.356   4.353 -0.0663  0.3949 -0.3746
 3302SOL    HW110805   2.903   5.397   4.399 -0.5588  0.3452  0.5350
 3302SOL    HW210806   2.754   5.334   4.421  0.6151 -3.0408 -0.6034
 3303SOL     OW10807   6.295   0.893   4.957  0.3993  0.2038 -0.0260
 3303SOL    HW110808   6.384   0.849   4.964  1.7425  2.4915 -1.3402
 3303SOL    HW210809   6.306   0.992   4.968 -1.9527  0.5578 -0.3905
 3304SOL     OW10810   6.633   6.800   3.504  0.9311 -0.3695  0.3102
 3304SOL    HW110811   6.644   6.701   3.510  1.3226 -0.4308 -1.1158
 3304SOL    HW210812   6.582   6.833   3.584  1.9360 -1.5333  1.4741
 3305SOL     OW10813   0.994   6.418   2.042  0.2667  0.4194  0.4031
 3305SOL    HW110814   1.038   6.446   2.127 -0.4753  1.5007  0.4579
 3305SOL    HW210815   1.013   6.322   2.024  1.8615  0.6214  0.8906
 3306SOL     OW10816   4.212   1.949   2.568 -0.0581 -0.0784  0.1317
 3306SOL    HW110817   4.164   1.908   2.490 -0.9398 -0.1629  0.7150
 3306SOL    HW210818   4.232   2.045   2.547  1.6178 -0.6377 -1.0550
 3307SOL     OW10819   5.905   3.778   2.046 -0.0329 -0.4048  0.1991
 3307SOL    HW110820   5.902   3.859   2.105 -1.0939  0.8198 -1.4481
 3307SOL    HW210821   5.905   3.696   2.103  3.4301  0.6598  2.0279
 3308SOL     OW10822   0.247   6.559   3.518  0.2137 -0.4502 -0.3718
 3308SOL    HW110823   0.293   6.584   3.603 -0.0946 -1.2286  0.0363
 3308SOL    HW210824   0.287   6.610   3.442  0.8085 -0.0912  0.1724
 3309SOL     OW10825   6.492   4.106   1.601 -0.1492  0.1858  0.4280
 3309SOL    HW110826   6.591   4.095   1.616 -0.2323 -0.2649  0.6639
 3309SOL    HW210827   6.442   4.048   1.665 -0.5505 -0.4149 -0.4094
 3310SOL     OW10828   3.667   5.547   4.279  0.6068 -0.3125  0.1202
 3310SOL    HW110829   3.709   5.625   4.324  0.2511 -1.2965  2.2501
 3310SOL    HW210830   3.671   5.561   4.180  1.7327  1.7583  0.3861
 3311SOL     OW10831   6.898   0.390   2.320 -0.4753 -0.2104 -0.4487
 3311SOL    HW110832   6.995   0.391   2.342 -0.1055 -1.3710 -1.8407
 3311SOL    HW210833   6.855   0.311   2.362 -1.1442  0.9968  1.2521
 3312SOL     OW10834   6.733   2.776   5.219  0.0238  0.6919  0.0884
 3312SOL    HW110835   6.645   2.815   5.246  0.3398  1.4477  0.0623
 3312SOL    HW210836   6.722   2.721   5.136 -0.4687  0.5852  0.2273
 3313SOL     OW10837   3.811   0.209   6.525 -0.7284  0.0384  0.0963
 3313SOL    HW110838   3.902   0.205   6.484 -0.6412 -1.2506  0.3723
 3313SOL    HW210839   3.774   0.116   6.534 -2.3123  0.5618 -0.5345
 3314SOL     OW10840   2.667   6.918   2.603  0.3716 -0.3720  0.3002
 3314SOL    HW110841   2.571   6.898   2.582  0.3453  0.3483 -0.3075
 3314SOL    HW210842   2.673   7.001   2.658  0.6200 -0.7739  0.9033
 3315SOL     OW10843   4.241   0.672   6.098 -0.0607  0.0554 -0.2215
 3315SOL    HW110844   4.171   0.688   6.168  0.7319 -0.5089  0.7278
 3315SOL    HW210845   4.329   0.708   6.130  0.0518  0.9690 -1.5033
 3316SOL     OW10846   5.712   2.765   0.879 -0.2355  0.6036  0.3446
 3316SOL    HW110847   5.715   2.724   0.787  1.3002  2.0929 -0.3270
 3316SOL    HW210848   5.801   2.754   0.922 -0.3266  1.6931  0.8359
 3317SOL     OW10849   0.018   3.745   0.630 -0.5495 -0.1288 -0.6363
 3317SOL    HW110850   0.065   3.832   0.619  1.8496 -1.4561 -1.6237
 3317SOL    HW210851  -0.048   3.752   0.705  0.0870  2.2912 -0.2201
 3318SOL     OW10852   6.027   1.801   2.892  0.4465 -0.2128  0.5274
 3318SOL    HW110853   6.041   1.737   2.969  1.5931  1.6248  1.9472
 3318SOL    HW210854   6.110   1.803   2.836 -0.0564 -0.8805 -0.2492
 3319SOL     OW10855   5.178   2.998   2.637  0.5052 -0.0207 -0.2413
 3319SOL    HW110856   5.079   3.005   2.651  0.4138 -0.3798 -0.6798
 3319SOL    HW210857   5.207   3.070   2.573  0.7137  0.7886  0.7348
 3320SOL     OW10858   0.892   3.247   6.951  0.2217  0.2700 -0.0726
 3320SOL    HW110859   0.852   3.174   6.895  1.0056  1.2656 -1.9934
 3320SOL    HW210860   0.819   3.289   7.006 -0.4163 -1.2535  0.3251
 3321SOL     OW10861   2.917   6.736   0.834 -0.1735 -0.3036 -0.2976
 3321SOL    HW110862   2.844   6.732   0.766  0.8232 -2.0507 -1.3582
 3321SOL    HW210863   3.002   6.764   0.790  0.3137 -0.6572  0.3884
 3322SOL     OW10864   0.521   5.825   0.838  0.2744  0.2272 -0.0497
 3322SOL    HW110865   0.465   5.891   0.788  1.2899  0.5842 -0.7492
 3322SOL    HW210866   0.462   5.754   0.877 -0.6881  0.7689 -0.4821
 3323SOL     OW10867   0.732   2.593   6.397  0.2515  0.2142 -0.9024
 3323SOL    HW110868   0.690   2.640   6.320 -0.4129  2.2879  0.6420
 3323SOL    HW210869   0.744   2.496   6.375 -1.6118  0.3745 -2.8875
 3324SOL     OW10870   1.089   2.644   4.403  0.7616 -0.0548  0.3109
 3324SOL    HW110871   1.045   2.565   4.445  1.9867 -1.0490 -0.1961
 3324SOL    HW210872   1.048   2.728   4.438 -0.4159 -0.9028  1.0379
 3325SOL     OW10873   3.940   6.886   4.674  0.0547  0.0127  0.5812
 3325SOL    HW110874   3.841   6.891   4.659  0.2335 -1.0941 -1.3648
 3325SOL    HW210875   3.979   6.978   4.668 -0.8691  0.5102  1.7211
 3326SOL     OW10876   1.863   0.942   6.934  0.8089  0.1669  0.2561
 3326SOL    HW110877   1.786   0.966   6.993  0.3641  0.5609 -0.4783
 3326SOL    HW210878   1.945   0.991   6.964  0.5481  0.4895  0.4447
 3327SOL     OW10879   5.762   5.667   4.045 -0.0984 -0.6281 -0.3383
 3327SOL    HW110880   5.765   5.748   3.987  0.7283 -0.3220  0.1007
 3327SOL    HW210881   5.684   5.673   4.107  0.6785  0.4806  0.5733
 3328SOL     OW10882   4.823   2.586   4.796  0.1592  0.2841  0.0872
 3328SOL    HW110883   4.829   2.506   4.737 -0.6952  0.5946 -0.4359
 3328SOL    HW210884   4.727   2.610   4.811  0.3922  2.1169 -1.0166
 3329SOL     OW10885   6.611   2.916   3.002 -0.9354 -0.2063 -0.1928
 3329SOL    HW110886   6.604   2.917   2.902 -1.0617 -0.8411 -0.1959
 3329SOL    HW210887   6.520   2.921   3.042 -0.9602 -1.0707 -0.1292
 3330SOL     OW10888   1.855   4.188   2.980  0.2241 -0.7365 -0.2532
 3330SOL    HW110889   1.817   4.114   3.036 -0.2466 -0.0322  0.3806
 3330SOL    HW210890   1.793   4.209   2.905 -0.3056 -0.0854  0.3531
 3331SOL     OW10891   0.817   5.932   6.400 -0.2523 -0.1870  0.3153
 3331SOL    HW110892   0.855   5.919   6.308 -0.2403  0.3416  0.2410
 3331SOL    HW210893   0.884   5.978   6.457  0.0137 -1.1717  0.8059
 3332SOL     OW10894   0.525   3.118   1.541 -0.0106  0.4401  0.5414
 3332SOL    HW110895   0.498   3.201   1.590  1.8239  0.1001  2.2419
 3332SOL    HW210896   0.618   3.128   1.506 -0.1819 -0.4982 -0.2419
 3333SOL     OW10897   1.044   1.988   5.904 -0.0384 -0.7486 -1.0678
 3333SOL    HW110898   0.955   2.017   5.939 -0.0345 -0.8489 -0.9770
 3333SOL    HW210899   1.043   1.890   5.887  0.1813 -0.8159 -0.6973
 3334SOL     OW10900   1.160   3.782   3.045 -0.0616 -0.0467 -0.8395
 3334SOL    HW110901   1.069   3.748   3.067  0.6776 -1.0145  0.8469
 3334SOL    HW210902   1.160   3.882   3.047 -0.5807 -0.0452  1.4874
 3335SOL     OW10903   6.458   3.338   4.571  0.2645 -0.6412  0.0224
 3335SOL    HW110904   6.369   3.330   4.526  0.7122 -2.4127 -0.6446
 3335SOL    HW210905   6.452   3.298   4.663  0.2841 -0.4817  0.0920
 3336SOL     OW10906   4.948   2.912   1.878 -0.2937  0.3435 -0.3142
 3336SOL    HW110907   4.860   2.932   1.921  0.5991  0.3788  1.6054
 3336SOL    HW210908   4.989   2.831   1.920  0.9125  0.7466 -0.6534
 3337SOL     OW10909   6.212   1.811   6.214  0.1648 -0.5365  0.0956
 3337SOL    HW110910   6.310   1.793   6.219  0.5960  1.5381  0.2841
 3337SOL    HW210911   6.189   1.844   6.123 -0.0173  0.5564  0.5166
 3338SOL     OW10912   3.841   4.597   0.279 -0.3205  0.2847 -0.7313
 3338SOL    HW110913   3.900   4.653   0.338 -1.3241  1.8850 -1.1908
 3338SOL    HW210914   3.893   4.566   0.200  0.9040 -1.4745  0.6709
 3339SOL     OW10915   3.121   4.266   1.514 -0.2942  0.1332  0.4339
 3339SOL    HW110916   3.098   4.362   1.531 -1.4846 -0.0353 -0.1312
 3339SOL    HW210917   3.050   4.224   1.458  1.5028 -0.3616 -1.6375
 3340SOL     OW10918   0.179   6.680   6.365 -0.0846  0.0827 -0.0110
 3340SOL    HW110919   0.120   6.754   6.399 -1.8977 -1.5116  0.5321
 3340SOL    HW210920   0.221   6.633   6.443 -0.3596 -0.5484 -0.2425
 3341SOL     OW10921   4.576   5.372   5.984 -0.8127  0.6918 -1.0204
 3341SOL    HW110922   4.555   5.275   5.970 -0.1483  0.5518 -1.1104
 3341SOL    HW210923   4.675   5.384   5.982 -0.9103  1.4786 -1.7029
 3342SOL     OW10924   6.748   2.529   0.752  0.2723  0.2632 -0.2437
 3342SOL    HW110925   6.711   2.609   0.798 -0.4412 -0.0552 -0.2629
 3342SOL    HW210926   6.689   2.450   0.768  2.0696 -0.8087  1.5783
 3343SOL     OW10927   6.750   6.830   2.414  0.4165 -0.1860  0.8280
 3343SOL    HW110928   6.763   6.875   2.503  0.1127 -1.7449  1.6888
 3343SOL    HW210929   6.683   6.881   2.360  0.3755  0.6026  1.6009
 3344SOL     OW10930   0.493   4.244   1.219  0.0745 -0.1320  0.9472
 3344SOL    HW110931   0.548   4.311   1.169  0.0368 -0.1423  0.8927
 3344SOL    HW210932   0.472   4.167   1.160 -0.7027  0.2567  0.7059
 3345SOL     OW10933   2.070   0.773   4.366  0.7088  0.8269 -0.4700
 3345SOL    HW110934   2.004   0.756   4.294  0.4540 -0.0692 -0.0282
 3345SOL    HW210935   2.151   0.818   4.327  0.4961  0.5212 -1.2700
 3346SOL     OW10936   6.702   1.582   6.035 -0.3321  0.0922 -0.0209
 3346SOL    HW110937   6.684   1.524   6.114  0.4495 -0.4459 -0.2282
 3346SOL    HW210938   6.786   1.635   6.050 -1.4492  1.8129  0.5099
 3347SOL     OW10939   5.289   6.189   6.202 -0.0319  0.1399 -0.1678
 3347SOL    HW110940   5.268   6.285   6.217  0.8055  0.5462 -1.5139
 3347SOL    HW210941   5.388   6.176   6.204 -0.1610 -0.8647  0.9021
 3348SOL     OW10942   3.317   5.265   2.035  0.2215 -0.3925  0.0991
 3348SOL    HW110943   3.266   5.298   1.955  0.7353 -0.5718 -0.3128
 3348SOL    HW210944   3.323   5.166   2.033  2.0903 -0.3036 -0.8357
 3349SOL     OW10945   6.920   1.014   5.357 -0.3314 -0.5348 -0.1655
 3349SOL    HW110946   6.922   1.111   5.383  1.0437 -0.7218  0.5089
 3349SOL    HW210947   6.895   1.006   5.261 -0.7796  0.4666 -0.1453
 3350SOL     OW10948   5.114   6.380   2.225  0.4693  0.1653  0.4824
 3350SOL    HW110949   5.137   6.403   2.320 -1.3357  2.3306  0.4730
 3350SOL    HW210950   5.117   6.462   2.169 -0.0980 -0.7903 -1.0171
 3351SOL     OW10951   0.503   1.259   6.261 -0.1108 -0.5040  0.0943
 3351SOL    HW110952   0.589   1.217   6.290  1.2025  2.1819  0.3423
 3351SOL    HW210953   0.446   1.276   6.341  0.1037 -0.2250  0.1876
 3352SOL     OW10954   0.399   4.384   3.788 -0.4396 -0.2088 -0.3398
 3352SOL    HW110955   0.355   4.427   3.710 -1.8919 -0.1266  0.4981
 3352SOL    HW210956   0.418   4.288   3.767 -2.3631 -0.6433 -0.2207
 3353SOL     OW10957   3.651   1.311   6.087  0.3108 -0.3743 -0.3574
 3353SOL    HW110958   3.625   1.389   6.029 -0.0043 -0.0447  0.2147
 3353SOL    HW210959   3.572   1.251   6.099  0.6121 -0.9049 -0.9737
 3354SOL     OW10960   4.866   2.613   1.309  0.3879  0.0226 -0.5553
 3354SOL    HW110961   4.911   2.647   1.392  1.5828  1.2706 -1.6731
 3354SOL    HW210962   4.805   2.538   1.334 -2.2323  2.7313  2.0416
 3355SOL     OW10963   0.699   3.586   1.490  0.5438 -0.4890 -0.5872
 3355SOL    HW110964   0.796   3.563   1.477  0.2257 -0.8753 -2.6035
 3355SOL    HW210965   0.689   3.685   1.499  1.1166 -0.4424 -0.4150
 3356SOL     OW10966   1.431   2.937   0.424  0.3656  0.1815  0.5621
 3356SOL    HW110967   1.434   2.837   0.421  0.1117  0.2010 -1.0171
 3356SOL    HW210968   1.463   2.974   0.337 -2.3002  1.4007  0.0040
 3357SOL     OW10969   0.666   3.822   5.502  0.4803 -0.1927 -0.0887
 3357SOL    HW110970   0.658   3.723   5.494  0.0497 -0.3102  1.4590
 3357SOL    HW210971   0.575   3.862   5.514  0.7726  0.2415  0.7284
 3358SOL     OW10972   6.595   6.590   6.087  0.0996 -0.3322  0.4107
 3358SOL    HW110973   6.593   6.497   6.123  0.6519 -0.4066  0.2530
 3358SOL    HW210974   6.628   6.589   5.992  0.4387  0.0515  0.5207
 3359SOL     OW10975   1.377   1.334   2.206  0.2613  0.3141 -0.3266
 3359SOL    HW110976   1.394   1.370   2.114 -0.1129  1.3478  0.0004
 3359SOL    HW210977   1.425   1.390   2.273  1.7996 -1.3369  0.0223
 3360SOL     OW10978   4.703   0.774   0.519  0.0352  0.2766 -0.0806
 3360SOL    HW110979   4.725   0.745   0.613  0.7263 -0.0068 -0.3186
 3360SOL    HW210980   4.730   0.702   0.455  0.6942  0.9568 -0.5902
 3361SOL     OW10981   1.111   1.298   6.578  0.4181 -0.1216  0.0444
 3361SOL    HW110982   1.164   1.342   6.505  0.6863 -1.4107 -0.5698
 3361SOL    HW210983   1.086   1.206   6.549 -1.0661  0.0083  0.8647
 3362SOL     OW10984   4.173   3.102   6.326  0.2417 -0.4965  0.0444
 3362SOL    HW110985   4.074   3.090   6.320 -0.0289  1.9116 -2.6712
 3362SOL    HW210986   4.219   3.016   6.304 -1.1956 -1.4990  0.7805
 3363SOL     OW10987   0.384   6.006   2.379  0.0628  0.4535 -0.0919
 3363SOL    HW110988   0.413   6.050   2.464 -2.0419 -0.2810  1.0927
 3363SOL    HW210989   0.384   5.907   2.392 -0.2812  0.3320 -0.9711
 3364SOL     OW10990   5.787   6.633   5.596  0.1943 -0.1405  0.8125
 3364SOL    HW110991   5.788   6.705   5.667 -0.1927  0.6309  0.0516
 3364SOL    HW210992   5.878   6.625   5.556 -0.3428  1.8904 -1.0002
 3365SOL     OW10993   3.903   4.032   0.096 -0.3773  0.0427 -0.8139
 3365SOL    HW110994   3.956   3.949   0.076 -2.4796 -1.3810 -0.8665
 3365SOL    HW210995   3.808   4.006   0.116 -0.5726  2.2537  1.6112
 3366SOL     OW10996   5.210   2.678   3.842  0.4177  0.1133  0.2569
 3366SOL    HW110997   5.285   2.735   3.810  0.6142 -0.5182 -0.4288
 3366SOL    HW210998   5.247   2.600   3.892  0.2552 -0.4563 -0.4910
 3367SOL     OW10999   4.161   5.210   1.747  0.0713 -0.4428 -0.2707
 3367SOL    HW111000   4.117   5.178   1.663 -1.7678  1.0046  0.0828
 3367SOL    HW211001   4.163   5.136   1.814 -3.3762 -0.1903  0.2652
 3368SOL     OW11002   4.209   5.114   3.033  0.2165  0.8186  0.6063
 3368SOL    HW111003   4.117   5.076   3.046  0.1113  0.3926 -1.1174
 3368SOL    HW211004   4.230   5.176   3.108 -2.0471  2.0136  0.3626
 3369SOL     OW11005   2.052   1.352   0.051  0.1412 -0.4618 -0.4800
 3369SOL    HW111006   2.063   1.401  -0.036  0.8413  1.0265  0.3940
 3369SOL    HW211007   2.081   1.412   0.126 -3.0339 -0.6712  1.0588
 3370SOL     OW11008   4.241   0.044   2.815 -0.0794 -0.0865  0.2034
 3370SOL    HW111009   4.148   0.080   2.816  0.0331  0.2264  1.3002
 3370SOL    HW211010   4.296   0.094   2.748 -0.8898 -0.8357 -1.0607
 3371SOL     OW11011   5.726   4.207   3.236  0.8061  0.3746  0.2655
 3371SOL    HW111012   5.749   4.295   3.194  0.0767  0.5116  0.1400
 3371SOL    HW211013   5.637   4.177   3.204  1.2253 -0.6230 -0.0081
 3372SOL     OW11014   6.557   0.364   2.285  0.3005  0.1858 -0.1069
 3372SOL    HW111015   6.563   0.342   2.383  2.3597 -1.8159 -0.6072
 3372SOL    HW211016   6.594   0.288   2.231 -2.8969  0.2072 -2.6351
 3373SOL     OW11017   3.395   6.203   4.364  0.3810 -0.1453 -0.1824
 3373SOL    HW111018   3.375   6.285   4.310 -0.0177  0.5218  0.9458
 3373SOL    HW211019   3.320   6.186   4.427 -1.1426 -3.2946 -2.5578
 3374SOL     OW11020   2.011   4.236   5.730 -0.4517 -0.3692  0.2645
 3374SOL    HW111021   1.912   4.240   5.718 -0.5069  0.1817  0.8818
 3374SOL    HW211022   2.033   4.175   5.805 -0.1969 -2.2619 -1.2764
 3375SOL     OW11023   3.166   4.883   3.684  0.1709  0.3749  0.1956
 3375SOL    HW111024   3.102   4.839   3.747  0.1219  1.0759  0.6434
 3375SOL    HW211025   3.259   4.867   3.715  0.0981  2.4123  1.6233
 3376SOL     OW11026   3.055   3.635   2.832  0.0137  0.6492 -0.3080
 3376SOL    HW111027   2.977   3.621   2.772  1.3010  1.1755 -2.1743
 3376SOL    HW211028   3.135   3.588   2.795  0.7611  0.6503  1.2139
 3377SOL     OW11029   0.651   5.680   0.585  0.2125  0.2164 -0.2148
 3377SOL    HW111030   0.631   5.709   0.679 -0.7602  0.1578 -0.4032
 3377SOL    HW211031   0.732   5.621   0.586  1.1793  1.4854  0.3840
 3378SOL     OW11032   4.955   2.742   5.367 -0.5450 -0.3377 -0.2939
 3378SOL    HW111033   4.863   2.716   5.394 -0.7982 -0.8590 -1.5748
 3378SOL    HW211034   4.978   2.698   5.280  0.6050  0.4325 -0.4054
 3379SOL     OW11035   0.567   0.115   5.026 -0.3598  0.0137 -0.6336
 3379SOL    HW111036   0.665   0.100   5.044 -0.6498 -0.9414  0.2551
 3379SOL    HW211037   0.532   0.182   5.091 -1.0905 -2.3987  1.6366
 3380SOL     OW11038   2.054   1.716   0.802  0.1988 -0.2975  0.2374
 3380SOL    HW111039   2.140   1.675   0.772 -0.5983 -0.8141 -1.4727
 3380SOL    HW211040   1.991   1.643   0.829 -0.3486 -0.0692 -0.3863
 3381SOL     OW11041   3.335   0.403   3.710 -0.3311  0.1937 -0.3853
 3381SOL    HW111042   3.287   0.490   3.722 -1.1587 -0.2613 -0.3775
 3381SOL    HW211043   3.426   0.410   3.751  0.4206  1.7263 -2.1271
 3382SOL     OW11044   6.686   3.893   5.653  0.3027 -0.9551  0.1123
 3382SOL    HW111045   6.643   3.970   5.701 -0.3255 -0.8423 -0.6239
 3382SOL    HW211046   6.758   3.855   5.711  0.0737 -0.3345  0.8277
 3383SOL     OW11047   2.534   1.753   6.035  0.0358  0.3382  0.0107
 3383SOL    HW111048   2.463   1.711   6.091 -1.5279  1.4692 -1.0467
 3383SOL    HW211049   2.590   1.681   5.992 -0.6435 -0.5734  0.6143
 3384SOL     OW11050   3.080   0.038   5.895  0.5192 -0.0380 -0.0436
 3384SOL    HW111051   3.045   0.130   5.914 -1.6365 -0.7844 -0.0979
 3384SOL    HW211052   3.003  -0.022   5.871  1.7762 -2.0495  0.7605
 3385SOL     OW11053   0.107   6.515   0.024  0.6590  0.2422  0.5431
 3385SOL    HW111054   0.056   6.596   0.052 -2.3488 -0.1897 -2.8604
 3385SOL    HW211055   0.091   6.441   0.089 -0.4796  1.0653  1.2341
 3386SOL     OW11056   1.272   6.969   4.324  0.4905 -0.1794  0.4524
 3386SOL    HW111057   1.253   6.933   4.232 -0.8552  1.0116  0.2402
 3386SOL    HW211058   1.191   6.960   4.381  1.2745 -0.7727  1.5092
 3387SOL     OW11059   2.273   2.107   1.545  0.2725 -0.0463  0.0478
 3387SOL    HW111060   2.245   2.184   1.603  1.5247 -0.4559  1.2374
 3387SOL    HW211061   2.193   2.053   1.521 -0.1651 -0.7385  2.7014
 3388SOL     OW11062   1.240   2.485   4.912 -0.0089  0.5417  0.7879
 3388SOL    HW111063   1.328   2.450   4.879 -0.5147 -1.0508  1.0451
 3388SOL    HW211064   1.228   2.579   4.881 -0.6767 -0.9079 -4.0788
 3389SOL     OW11065   5.031   6.890   4.941 -0.9391 -0.1186  0.4963
 3389SOL    HW111066   4.961   6.819   4.936 -0.7706 -0.2647  0.1356
 3389SOL    HW211067   5.121   6.849   4.930 -0.8317  0.1349  0.4078
 3390SOL     OW11068   0.833   4.251   1.079  0.2901 -0.1031 -0.6956
 3390SOL    HW111069   0.860   4.255   0.982  0.2190  0.2528 -0.7027
 3390SOL    HW211070   0.812   4.343   1.111 -3.8636 -0.5383 -1.5227
 3391SOL     OW11071   4.266   6.961   4.907  0.3205 -0.3797  0.5644
 3391SOL    HW111072   4.260   7.059   4.890  2.1395 -0.2032  0.7423
 3391SOL    HW211073   4.254   6.911   4.821 -0.7794 -0.0361  0.5006
 3392SOL     OW11074   4.190   4.674   2.948  0.0389 -0.5188 -0.4119
 3392SOL    HW111075   4.164   4.613   2.873 -0.2780 -0.5447 -0.2798
 3392SOL    HW211076   4.240   4.752   2.911 -2.3427  0.8239 -0.9692
 3393SOL     OW11077   6.935   6.613   1.674  0.0614  0.0154 -0.7258
 3393SOL    HW111078   6.984   6.527   1.691  0.3494  0.1407 -0.9189
 3393SOL    HW211079   6.940   6.635   1.577 -3.0371 -1.5969 -1.3958
 3394SOL     OW11080   4.847   3.518   1.487  0.0738 -0.2207  0.1140
 3394SOL    HW111081   4.796   3.592   1.446  0.4604  0.4607  0.8311
 3394SOL    HW211082   4.929   3.554   1.531  0.2899 -1.0756  0.4438
 3395SOL     OW11083   3.444   0.233   5.285  0.7054 -0.5994  0.1648
 3395SOL    HW111084   3.469   0.329   5.300  1.0590 -0.8179  1.1068
 3395SOL    HW211085   3.429   0.216   5.188  0.5624  0.4283  0.0014
 3396SOL     OW11086   3.819   6.789   1.390 -1.1817  0.8179 -0.0575
 3396SOL    HW111087   3.777   6.875   1.360 -1.4605  0.2898 -1.2672
 3396SOL    HW211088   3.894   6.766   1.328 -0.5300  0.6357  0.7865
 3397SOL     OW11089   1.182   1.924   5.519  0.6316 -0.3233 -0.0378
 3397SOL    HW111090   1.268   1.937   5.470  0.8959 -1.2424  0.1556
 3397SOL    HW211091   1.156   2.009   5.564  0.4704  0.5032 -1.6116
 3398SOL     OW11092   5.579   2.265   5.070  0.4018 -0.2231 -0.3325
 3398SOL    HW111093   5.595   2.329   4.996  0.5831  0.2854  0.1432
 3398SOL    HW211094   5.565   2.173   5.032 -0.1189  0.1376 -1.0236
 3399SOL     OW11095   1.009   1.435   4.332  1.0207  0.2856  0.1635
 3399SOL    HW111096   1.074   1.389   4.393  1.1841  1.2595  0.7309
 3399SOL    HW211097   0.974   1.517   4.376  1.5442  1.3105 -1.2487
 3400SOL     OW11098   3.005   6.610   5.689  0.4037  0.0354  0.0059
 3400SOL    HW111099   2.947   6.578   5.614  1.2401  0.4532 -0.8535
 3400SOL    HW211100   3.098   6.575   5.675  0.6140  0.2992  0.7403
 3401SOL     OW11101   6.806   1.805   6.262  0.9852 -0.0474 -0.2680
 3401SOL    HW111102   6.828   1.882   6.323  0.0401  0.6027 -0.7163
 3401SOL    HW211103   6.710   1.813   6.232  0.0252 -2.7905  1.6982
 3402SOL     OW11104   4.974   1.335   2.567 -0.2094 -0.1559 -0.1938
 3402SOL    HW111105   4.922   1.330   2.481  0.2056  2.8989 -0.7290
 3402SOL    HW211106   5.057   1.388   2.552 -0.6041  1.2873  2.2962
 3403SOL     OW11107   2.530   5.967   0.662 -0.3277 -0.3028  0.1785
 3403SOL    HW111108   2.513   5.944   0.758  0.5507 -0.6448  0.2591
 3403SOL    HW211109   2.505   5.890   0.604 -0.0670 -0.4177  0.2134
 3404SOL     OW11110   5.506   0.139   3.325  0.1489  0.4688  0.2137
 3404SOL    HW111111   5.466   0.159   3.236  0.8210  0.9589  0.0067
 3404SOL    HW211112   5.554   0.052   3.321 -1.7821 -0.6795  0.7776
 3405SOL     OW11113   1.527   5.661   3.250 -0.1245 -0.2726  0.1373
 3405SOL    HW111114   1.510   5.615   3.337 -1.1482 -0.5856 -0.2230
 3405SOL    HW211115   1.449   5.718   3.226  0.2939  0.0760 -0.4143
 3406SOL     OW11116   0.912   5.980   1.395  0.0572 -0.5784  0.3210
 3406SOL    HW111117   0.946   5.969   1.302 -0.1930 -1.8738  0.3664
 3406SOL    HW211118   0.988   6.000   1.456  0.4878 -1.5677  0.1213
 3407SOL     OW11119   6.910   3.730   0.200  0.1864  0.2881 -0.3728
 3407SOL    HW111120   6.866   3.671   0.267  0.1515 -0.5923 -1.1500
 3407SOL    HW211121   6.856   3.814   0.189 -0.4941 -0.1204 -0.2245
 3408SOL     OW11122   5.854   6.188   1.952  0.4488 -0.2058  0.0504
 3408SOL    HW111123   5.832   6.250   2.028  2.0617 -0.0426  0.4324
 3408SOL    HW211124   5.920   6.120   1.983 -0.2396 -1.2571 -0.7483
 3409SOL     OW11125   0.660   0.626   6.168  0.3952 -0.7168  0.2109
 3409SOL    HW111126   0.672   0.717   6.130  2.8341 -0.4642  1.3357
 3409SOL    HW211127   0.563   0.601   6.169 -0.4226  2.1907  0.6714
 3410SOL     OW11128   2.308   0.358   6.010  0.0259 -0.0373 -0.1770
 3410SOL    HW111129   2.228   0.315   5.968 -1.8413  1.5309  1.6013
 3410SOL    HW211130   2.389   0.304   5.989 -1.1680 -0.8078 -3.4526
 3411SOL     OW11131   0.680   6.530   3.099 -0.4052 -0.0685 -0.0055
 3411SOL    HW111132   0.716   6.594   3.167  0.9662  0.4325 -1.1439
 3411SOL    HW211133   0.582   6.518   3.112 -0.4713  1.3522  0.9646
 3412SOL     OW11134   2.836   6.977   2.379  0.4184  0.2013 -0.1637
 3412SOL    HW111135   2.792   6.956   2.466  0.3951  1.7590  0.2288
 3412SOL    HW211136   2.795   6.921   2.306  1.1137 -1.8429  0.9433
 3413SOL     OW11137   5.672   5.841   4.271  0.4806 -0.2426  0.5801
 3413SOL    HW111138   5.662   5.909   4.343  1.6693 -0.8263  1.3378
 3413SOL    HW211139   5.770   5.827   4.252  0.2321 -1.1980 -0.0629
 3414SOL     OW11140   4.102   3.891   2.007 -0.0330 -0.1995  1.4784
 3414SOL    HW111141   4.092   3.792   1.997 -0.5911 -0.0172 -0.2954
 3414SOL    HW211142   4.172   3.924   1.943 -1.0016  0.7229  0.8587
 3415SOL     OW11143   0.437   3.506   2.780 -0.4344  0.0389  0.2246
 3415SOL    HW111144   0.357   3.509   2.840 -0.2012 -0.1213  0.5485
 3415SOL    HW211145   0.411   3.467   2.692 -0.4627 -1.1513  0.7407
 3416SOL     OW11146   6.340   4.129   6.060  0.1908 -0.5180 -0.1449
 3416SOL    HW111147   6.285   4.212   6.056  0.8147 -0.1406 -1.7490
 3416SOL    HW211148   6.308   4.064   5.991  0.8479 -0.8558 -0.1414
 3417SOL     OW11149   0.617   3.551   4.075  0.5095 -0.2356 -0.4411
 3417SOL    HW111150   0.534   3.516   4.119  1.5209 -0.7485  1.1401
 3417SOL    HW211151   0.684   3.477   4.066  0.6622  0.0713 -2.0957
 3418SOL     OW11152   0.334   1.031   2.461  0.8691  0.3225  0.1970
 3418SOL    HW111153   0.378   1.025   2.371  0.8905 -1.2844  0.2792
 3418SOL    HW211154   0.374   0.962   2.522  0.8682  1.3952  1.4657
 3419SOL     OW11155   3.439   0.303   5.765  0.3561  0.1748  0.3186
 3419SOL    HW111156   3.393   0.253   5.692  2.6720  2.2269 -2.8049
 3419SOL    HW211157   3.476   0.238   5.832 -0.2366 -1.9529 -1.3129
 3420SOL     OW11158   6.381   3.785   5.488 -0.2535  0.1237 -0.0888
 3420SOL    HW111159   6.434   3.729   5.552  0.4453  1.2518  0.3563
 3420SOL    HW211160   6.442   3.829   5.423 -0.9616 -0.9765 -1.5368
 3421SOL     OW11161   6.240   1.803   2.731 -0.3777 -0.0975  0.4084
 3421SOL    HW111162   6.238   1.846   2.641  0.6488  0.2028  0.5187
 3421SOL    HW211163   6.276   1.710   2.722 -0.4733 -0.1424  0.4873
 3422SOL     OW11164   6.940   6.999   5.828 -0.0632 -0.5755  0.0429
 3422SOL    HW111165   6.864   7.063   5.834  2.2035  2.2944  0.0789
 3422SOL    HW211166   7.000   7.026   5.753  2.4911 -0.8552  1.8704
 3423SOL     OW11167   3.613   0.947   4.971 -0.2010 -0.5279 -0.8075
 3423SOL    HW111168   3.565   1.001   5.041  0.6297  1.0882 -1.4352
 3423SOL    HW211169   3.708   0.932   5.000 -1.1818 -4.7271  0.9998
 3424SOL     OW11170   4.876   3.530   2.335 -0.1548 -0.4963 -0.2910
 3424SOL    HW111171   4.951   3.484   2.287 -0.4537 -0.5215 -0.7402
 3424SOL    HW211172   4.823   3.584   2.270 -0.5945 -0.5653  0.0077
 3425SOL     OW11173   4.494   2.124   2.087  0.6339 -0.7196 -0.7555
 3425SOL    HW111174   4.528   2.143   2.179 -1.6301 -0.3484  0.0491
 3425SOL    HW211175   4.471   2.027   2.079  0.6954 -0.7240 -0.8795
 3426SOL     OW11176   4.438   2.667   0.830  0.9329 -0.2063 -0.6160
 3426SOL    HW111177   4.426   2.766   0.830  2.1013 -0.0545 -0.6079
 3426SOL    HW211178   4.498   2.640   0.905  3.3971 -0.5295 -2.5891
 3427SOL     OW11179   4.334   3.969   5.838 -0.0805  0.1734 -0.2215
 3427SOL    HW111180   4.258   3.922   5.794 -0.2573 -1.8202  2.0043
 3427SOL    HW211181   4.418   3.956   5.784 -0.6131 -0.6196 -0.8709
 3428SOL     OW11182   2.343   0.640   6.335 -0.6759  0.5505 -0.4139
 3428SOL    HW111183   2.299   0.684   6.414  0.5517 -0.7850  1.1018
 3428SOL    HW211184   2.304   0.549   6.321 -0.7438  0.6985 -1.2259
 3429SOL     OW11185   2.683   6.671   4.902  0.9858  0.4050 -0.0406
 3429SOL    HW111186   2.645   6.658   4.994 -0.7144 -1.7799 -0.9501
 3429SOL    HW211187   2.780   6.695   4.909  0.9637  0.0662  2.3107
 3430SOL     OW11188   3.834   6.374   1.209 -0.1082 -0.1209 -0.4509
 3430SOL    HW111189   3.826   6.278   1.181  0.0794  0.0426 -1.0851
 3430SOL    HW211190   3.742   6.412   1.222 -0.2109 -0.1133 -1.1705
 3431SOL     OW11191   0.235   5.942   6.795  0.2446  0.0559 -0.4683
 3431SOL    HW111192   0.238   5.844   6.811 -0.3049 -0.1997 -1.7633
 3431SOL    HW211193   0.287   5.964   6.712 -0.8611  0.6390 -1.0325
 3432SOL     OW11194   4.708   6.077   0.043 -0.1882 -0.2413  0.3327
 3432SOL    HW111195   4.721   6.053  -0.053  0.3634  0.9298  0.1003
 3432SOL    HW211196   4.624   6.132   0.053  0.4257  0.7223  0.3108
 3433SOL     OW11197   3.201   5.236   4.584  0.2595 -0.2950  0.1320
 3433SOL    HW111198   3.240   5.255   4.674 -0.3685  1.5363  0.0583
 3433SOL    HW211199   3.200   5.137   4.568 -0.3948 -0.7352  2.4971
 3434SOL     OW11200   3.920   6.973   1.625 -0.2013 -0.9849  0.1471
 3434SOL    HW111201   3.936   6.912   1.548  0.1583  1.1128 -1.5179
 3434SOL    HW211202   3.853   7.042   1.601 -0.5376 -0.6232  1.9461
 3435SOL     OW11203   6.106   4.313   1.371  0.1877 -0.2262  0.0596
 3435SOL    HW111204   6.056   4.392   1.335 -0.7600 -0.2815  1.1844
 3435SOL    HW211205   6.132   4.253   1.296 -2.3842 -0.7293 -0.5288
 3436SOL     OW11206   0.962   3.793   4.615  0.3242 -0.1410  0.1755
 3436SOL    HW111207   0.914   3.733   4.679 -0.0156  0.9497  0.9492
 3436SOL    HW211208   1.055   3.808   4.648 -0.2112  1.3673  1.0579
 3437SOL     OW11209   4.981   1.444   6.336  0.0803  0.4208  0.3689
 3437SOL    HW111210   4.922   1.408   6.264 -0.4792 -1.1033  1.5252
 3437SOL    HW211211   4.925   1.475   6.413  0.6694  1.8550  0.2504
 3438SOL     OW11212   3.814   3.239   5.036  0.4885  0.6256 -0.1165
 3438SOL    HW111213   3.888   3.249   4.969  1.6737  1.7817  1.2852
 3438SOL    HW211214   3.803   3.143   5.060  0.7582  0.3164 -1.1890
 3439SOL     OW11215   6.831   1.721   2.854 -0.1747 -0.0741 -0.4885
 3439SOL    HW111216   6.835   1.695   2.757 -0.3076  2.3964 -1.2291
 3439SOL    HW211217   6.885   1.656   2.908  0.2992 -1.2447 -2.2674
 3440SOL     OW11218   2.510   4.515   1.977  0.0257 -0.3364  0.1592
 3440SOL    HW111219   2.605   4.548   1.985  0.0473 -0.5810  0.9442
 3440SOL    HW211220   2.503   4.424   2.017 -0.6564 -0.1007  0.5861
 3441SOL     OW11221   2.746   1.198   0.746  0.3319  0.8142  0.3290
 3441SOL    HW111222   2.693   1.154   0.674  0.5174 -0.4829  0.9726
 3441SOL    HW211223   2.833   1.231   0.708 -0.2271  1.5359 -0.3663
 3442SOL     OW11224   4.243   2.022   4.781 -0.3628  0.6352  0.5398
 3442SOL    HW111225   4.316   2.017   4.712  0.0096 -0.1455  0.9828
 3442SOL    HW211226   4.254   2.106   4.834 -0.4390  1.0645 -0.1013
 3443SOL     OW11227   5.521   6.020   3.701 -0.1480 -0.3669  0.5710
 3443SOL    HW111228   5.477   6.075   3.772  0.8688 -0.2279  1.1181
 3443SOL    HW211229   5.612   6.057   3.682  1.1841 -2.6422  2.0013
 3444SOL     OW11230   1.196   0.384   0.080 -0.0226 -0.1641  0.0872
 3444SOL    HW111231   1.099   0.366   0.095 -0.2177  1.0061  0.3093
 3444SOL    HW211232   1.230   0.324   0.008 -0.8554 -0.7173  0.1372
 3445SOL     OW11233   2.755   1.275   3.958  0.1136 -0.5828  0.1678
 3445SOL    HW111234   2.749   1.345   4.029 -1.0241  1.0793 -1.4665
 3445SOL    HW211235   2.668   1.227   3.950  0.2373 -0.7722 -0.0784
 3446SOL     OW11236   4.505   2.231   2.349 -0.2652  0.1245  0.1003
 3446SOL    HW111237   4.414   2.215   2.387  0.1963  0.2192  1.2844
 3446SOL    HW211238   4.532   2.326   2.365  0.9740 -0.4717  1.8907
 3447SOL     OW11239   0.424   5.134   4.357  0.0307  0.0998  0.6802
 3447SOL    HW111240   0.410   5.233   4.365  1.1711  0.2677  0.7301
 3447SOL    HW211241   0.338   5.087   4.377 -0.5208  1.0757  0.6767
 3448SOL     OW11242   3.311   6.112   2.861  0.3106 -0.7872  0.0468
 3448SOL    HW111243   3.317   6.023   2.815  1.4217 -1.0591  0.6771
 3448SOL    HW211244   3.239   6.166   2.819 -0.0977 -1.8225 -0.6353
 3449SOL     OW11245   1.616   1.705   5.445 -0.4208 -0.3794 -0.8127
 3449SOL    HW111246   1.633   1.606   5.452  0.0639 -0.2408  0.0544
 3449SOL    HW211247   1.704   1.752   5.436 -0.4667  0.1461  1.0954
 3450SOL     OW11248   4.400   6.559   3.518  0.3159  0.5361  0.0320
 3450SOL    HW111249   4.339   6.593   3.447  1.0738 -0.9532 -1.3822
 3450SOL    HW211250   4.463   6.632   3.545 -0.7838  1.4857  0.1062
 3451SOL     OW11251   2.181   2.448   4.031 -0.2267 -0.5305 -0.0425
 3451SOL    HW111252   2.165   2.498   4.117 -0.8019 -0.0170 -0.4427
 3451SOL    HW211253   2.163   2.351   4.046 -2.2092 -0.2073 -0.0424
 3452SOL     OW11254   1.620   0.917   4.338 -0.8705 -0.7616 -0.2508
 3452SOL    HW111255   1.555   0.889   4.408 -0.2650  0.0716  0.6655
 3452SOL    HW211256   1.707   0.869   4.351 -1.3707 -2.1604 -1.6991
 3453SOL     OW11257   6.962   4.940   5.335  0.3972  0.4136  0.3637
 3453SOL    HW111258   6.899   4.867   5.363  0.4989 -0.5272 -1.7034
 3453SOL    HW211259   7.036   4.947   5.402 -0.4027 -0.3638  1.3642
 3454SOL     OW11260   0.888   2.113   4.727 -0.7345  0.3827  0.0967
 3454SOL    HW111261   0.925   2.103   4.634 -0.8085 -1.2901  0.2126
 3454SOL    HW211262   0.788   2.103   4.723 -0.5372 -2.5178  0.6401
 3455SOL     OW11263   6.134   2.060   3.499  1.0774  0.5445  0.1899
 3455SOL    HW111264   6.068   1.986   3.484 -0.1646  1.7094 -0.2995
 3455SOL    HW211265   6.176   2.049   3.589 -1.0217  0.6437  1.2491
 3456SOL     OW11266   0.802   0.532   6.654  0.3146 -0.6302 -0.0353
 3456SOL    HW111267   0.817   0.434   6.671  0.3765 -0.8645 -1.3599
 3456SOL    HW211268   0.890   0.576   6.637  0.4214 -0.0862  1.6576
 3457SOL     OW11269   2.989   6.899   2.716  0.0393  0.0519 -0.1327
 3457SOL    HW111270   3.008   6.992   2.747  1.3081  0.2211 -1.3560
 3457SOL    HW211271   2.984   6.897   2.617  0.3230 -1.2382 -0.1384
 3458SOL     OW11272   5.719   5.733   1.789  0.1982  0.2303  0.2361
 3458SOL    HW111273   5.774   5.659   1.827 -0.0607 -0.0999 -0.0296
 3458SOL    HW211274   5.636   5.745   1.844 -2.3126 -3.0130 -2.4450
 3459SOL     OW11275   5.327   0.942   1.925 -0.1064  0.6189 -0.2596
 3459SOL    HW111276   5.309   0.856   1.876  2.2229 -0.3774  0.5113
 3459SOL    HW211277   5.366   0.921   2.014  0.6326  2.5116 -0.1185
 3460SOL     OW11278   3.051   6.618   6.501 -0.2234  0.1655  0.1869
 3460SOL    HW111279   3.072   6.715   6.493 -0.3293  0.0870 -1.3653
 3460SOL    HW211280   3.104   6.567   6.434 -1.2454 -0.6790 -0.0057
 3461SOL     OW11281   1.419   1.426   2.745  0.5364 -0.0396  0.3456
 3461SOL    HW111282   1.453   1.499   2.804  1.0403  0.6137 -0.7094
 3461SOL    HW211283   1.327   1.399   2.773  0.0891  1.4461  0.3776
 3462SOL     OW11284   1.097   6.942   4.101 -0.0730  0.2465 -0.6620
 3462SOL    HW111285   1.000   6.923   4.084  0.0572 -0.8894 -0.1901
 3462SOL    HW211286   1.152   6.863   4.074  0.5973  0.3446  0.3754
 3463SOL     OW11287   3.331   1.687   3.055 -0.3842 -0.1787  0.3132
 3463SOL    HW111288   3.424   1.725   3.057 -0.0978 -0.8570  0.1408
 3463SOL    HW211289   3.266   1.759   3.032 -0.0553  0.5983  1.6895
 3464SOL     OW11290   6.885   6.332   5.658  0.1797  0.2927  0.7883
 3464SOL    HW111291   6.845   6.312   5.569 -0.2360 -0.0061  1.0373
 3464SOL    HW211292   6.982   6.311   5.658  0.0182 -0.4525  0.6456
 3465SOL     OW11293   5.330   0.176   3.584  0.3123  0.3207  0.2168
 3465SOL    HW111294   5.266   0.253   3.582 -0.6092 -0.4182  0.7788
 3465SOL    HW211295   5.387   0.179   3.502 -0.5542  0.8995 -0.3851
 3466SOL     OW11296   2.421   5.759   0.477 -0.4340  0.5448  0.6351
 3466SOL    HW111297   2.495   5.743   0.413 -0.8395  0.5110  0.1673
 3466SOL    HW211298   2.336   5.776   0.426 -1.2907 -1.8687  1.1240
 3467SOL     OW11299   2.038   0.807   0.373 -0.2395  0.8576  0.3952
 3467SOL    HW111300   2.126   0.761   0.387 -0.2629  1.0821  1.2990
 3467SOL    HW211301   2.033   0.888   0.430 -0.0584  2.2227 -1.4191
 3468SOL     OW11302   6.419   0.936   3.330 -0.4978  0.4104 -0.6201
 3468SOL    HW111303   6.510   0.906   3.303 -0.4769 -1.1916  1.0432
 3468SOL    HW211304   6.353   0.907   3.261 -0.1401 -1.4620 -0.2512
 3469SOL     OW11305   6.920   2.506   2.751  0.2359  0.2288  0.2549
 3469SOL    HW111306   6.940   2.490   2.847 -0.9279 -2.4094  0.1362
 3469SOL    HW211307   6.865   2.590   2.742  0.7544  0.7694  1.7996
 3470SOL     OW11308   0.657   1.135   2.504 -0.0404 -0.0869  0.5814
 3470SOL    HW111309   0.625   1.159   2.412  1.5196  0.3736  0.1285
 3470SOL    HW211310   0.680   1.037   2.506 -2.0524 -0.5806  1.1088
 3471SOL     OW11311   2.567   0.164   4.467  0.2391 -0.2323  0.0507
 3471SOL    HW111312   2.555   0.191   4.372  2.3711 -0.8893 -0.4710
 3471SOL    HW211313   2.487   0.191   4.520 -1.1520 -0.1306 -1.9700
 3472SOL     OW11314   1.083   3.971   3.320 -0.3176 -0.6172 -0.5993
 3472SOL    HW111315   1.176   3.998   3.345 -1.1856  0.9238  1.1836
 3472SOL    HW211316   1.052   4.026   3.242  0.5548 -1.8322 -1.8700
 3473SOL     OW11317   0.151   6.239   4.010 -0.2260 -0.5845  0.6938
 3473SOL    HW111318   0.178   6.270   4.101 -0.9555  2.0445  0.1125
 3473SOL    HW211319   0.222   6.180   3.972  2.1384  1.6252  1.3553
 3474SOL     OW11320   0.953   4.238   2.178 -0.2622  0.5188 -0.3050
 3474SOL    HW111321   0.951   4.153   2.125 -2.6808  0.5859 -0.4429
 3474SOL    HW211322   1.035   4.290   2.155  0.8183 -1.3654 -0.8733
 3475SOL     OW11323   3.894   0.253   4.123 -0.4655  0.5027  0.2556
 3475SOL    HW111324   3.924   0.327   4.062 -1.6554 -1.2290 -2.6696
 3475SOL    HW211325   3.795   0.239   4.113 -0.5413 -0.4266  1.9712
 3476SOL     OW11326   2.208   6.612   4.131  0.5537  0.2310  0.2876
 3476SOL    HW111327   2.162   6.536   4.086  1.4276 -0.3478  0.3385
 3476SOL    HW211328   2.244   6.675   4.063  0.2369  0.3530  0.2322
 3477SOL     OW11329   4.964   0.611   5.846  0.4237 -0.4838 -0.1816
 3477SOL    HW111330   4.905   0.531   5.852  1.8295 -1.5597 -0.2632
 3477SOL    HW211331   4.908   0.693   5.838 -1.0356 -1.5478 -1.3934
 3478SOL     OW11332   5.881   3.014   3.412  1.2432  0.0564  0.3602
 3478SOL    HW111333   5.841   2.932   3.452 -2.0216  1.5293  0.4858
 3478SOL    HW211334   5.942   3.058   3.478  1.7701 -1.3876  0.8671
 3479SOL     OW11335   2.786   5.142   4.174 -0.1636 -0.2833  0.0923
 3479SOL    HW111336   2.791   5.231   4.219 -0.6002 -0.5696  0.7228
 3479SOL    HW211337   2.701   5.096   4.200 -0.2167 -0.6465 -0.6799
 3480SOL     OW11338   5.193   1.624   5.714  0.8826  0.3257 -0.3766
 3480SOL    HW111339   5.105   1.579   5.730  0.1474  0.5939 -3.1509
 3480SOL    HW211340   5.267   1.559   5.727  0.2302 -0.1948  0.9311
 3481SOL     OW11341   0.184   5.604   3.215  0.3677 -0.2265  0.2831
 3481SOL    HW111342   0.212   5.682   3.159  0.7146 -0.0404  0.7111
 3481SOL    HW211343   0.135   5.636   3.296 -0.4042 -0.5129 -0.0638
 3482SOL     OW11344   0.823   1.513   6.199 -0.0179 -0.0794 -0.2485
 3482SOL    HW111345   0.763   1.592   6.188  0.1284 -0.0418 -0.7907
 3482SOL    HW211346   0.818   1.481   6.293  1.0165  1.4602  0.3758
 3483SOL     OW11347   1.703   5.326   1.644  0.6635 -0.2585  0.1502
 3483SOL    HW111348   1.645   5.261   1.596  0.0187  0.2697  0.2020
 3483SOL    HW211349   1.777   5.277   1.690 -0.8379 -1.1910  1.7016
 3484SOL     OW11350   5.799   4.826   0.974 -0.0097  0.6277  0.3007
 3484SOL    HW111351   5.835   4.752   1.030 -0.0247  0.7985  0.5383
 3484SOL    HW211352   5.718   4.864   1.018 -1.0777 -0.3943 -0.7026
 3485SOL     OW11353   1.374   1.180   1.752 -0.2634 -0.2799 -0.3914
 3485SOL    HW111354   1.333   1.216   1.668  0.0261  0.5544 -0.1893
 3485SOL    HW211355   1.474   1.181   1.743 -0.2558 -1.5357 -0.5753
 3486SOL     OW11356   3.912   3.199   5.465  0.1528  0.1115  0.0210
 3486SOL    HW111357   3.923   3.148   5.379  0.5843 -2.3604  1.4654
 3486SOL    HW211358   3.830   3.168   5.512  1.2010 -0.3331  1.6237
 3487SOL     OW11359   6.261   3.787   3.120 -0.2593 -0.3225  0.0848
 3487SOL    HW111360   6.295   3.746   3.035 -0.4433 -1.3367  0.4863
 3487SOL    HW211361   6.266   3.887   3.113 -0.2057 -0.3897 -1.0857
 3488SOL     OW11362   5.216   4.810   6.573 -0.2876  0.0258  0.1001
 3488SOL    HW111363   5.307   4.809   6.614 -1.0893 -0.6342  1.9364
 3488SOL    HW211364   5.222   4.780   6.478  1.4871  0.6460 -0.0165
 3489SOL     OW11365   3.778   2.315   5.481 -0.3068 -0.4292 -0.3024
 3489SOL    HW111366   3.851   2.303   5.413 -1.0390  1.7877 -1.6002
 3489SOL    HW211367   3.691   2.331   5.434 -0.7711  1.5643  1.1077
 3490SOL     OW11368   1.258   5.554   3.911  0.2370  0.7956 -0.1218
 3490SOL    HW111369   1.313   5.495   3.970 -0.3858  0.6114  0.2853
 3490SOL    HW211370   1.309   5.637   3.889  0.9558  0.2972 -0.3485
 3491SOL     OW11371   6.164   6.547   1.316 -0.0996  0.2106 -0.2340
 3491SOL    HW111372   6.141   6.452   1.296 -2.1201  0.7782 -0.8151
 3491SOL    HW211373   6.082   6.596   1.345  1.1315  1.5215  1.2034
 3492SOL     OW11374   3.600   5.701   2.478 -0.2635 -0.4603  0.1775
 3492SOL    HW111375   3.523   5.668   2.424 -0.6726  0.9477 -0.1449
 3492SOL    HW211376   3.575   5.786   2.523  1.5807  0.8661 -1.1514
 3493SOL     OW11377   6.896   6.514   4.133  0.2631 -0.4284 -0.3170
 3493SOL    HW111378   6.848   6.601   4.124  0.4954 -0.3019 -0.3289
 3493SOL    HW211379   6.909   6.493   4.230  1.1818  0.0899 -0.3139
 3494SOL     OW11380   0.774   2.638   4.397 -0.5704 -0.2434  0.5513
 3494SOL    HW111381   0.719   2.554   4.391  0.8801 -1.1573 -0.5241
 3494SOL    HW211382   0.829   2.636   4.480 -0.8719 -0.1346  0.7563
 3495SOL     OW11383   1.053   4.975   2.380  0.5172  0.5614  0.3516
 3495SOL    HW111384   1.100   4.893   2.346 -0.2279  0.5680 -0.7313
 3495SOL    HW211385   1.100   5.008   2.463  0.3204 -1.4348  1.3176
 3496SOL     OW11386   0.840   2.442   6.859  0.1994 -0.1078 -0.6341
 3496SOL    HW111387   0.817   2.465   6.954  0.2985 -0.9816 -0.3934
 3496SOL    HW211388   0.790   2.360   6.831  0.6352 -0.2082 -1.1383
 3497SOL     OW11389   0.470   1.519   4.613 -0.2700  0.2886  0.1450
 3497SOL    HW111390   0.473   1.445   4.546 -0.3445  0.6445 -0.2564
 3497SOL    HW211391   0.378   1.558   4.616 -0.6158 -0.5821  1.4041
 3498SOL     OW11392   0.242   3.905   1.412  0.0287  0.0907 -0.2943
 3498SOL    HW111393   0.222   3.809   1.430 -0.7779  0.4215  0.6615
 3498SOL    HW211394   0.284   3.947   1.492 -1.6467  1.0607  0.1273
 3499SOL     OW11395   2.468   6.536   0.003 -0.1211  0.1285  0.3527
 3499SOL    HW111396   2.498   6.543  -0.092  1.7497  0.2987  0.9265
 3499SOL    HW211397   2.460   6.440   0.029  0.6539  0.0800  0.4099
 3500SOL     OW11398   3.653   4.112   4.454  0.1457  0.2289 -0.8465
 3500SOL    HW111399   3.636   4.155   4.542 -1.1146 -1.8145  0.0043
 3500SOL    HW211400   3.750   4.088   4.446  0.3416  0.7783 -0.1836
 3501SOL     OW11401   1.689   4.916   6.854  0.6220  0.2347 -0.4961
 3501SOL    HW111402   1.736   4.968   6.783 -0.6619 -0.2447 -1.7341
 3501SOL    HW211403   1.600   4.885   6.820  0.3693 -0.8029  1.0061
 3502SOL     OW11404   3.183   3.127   5.027 -0.3964 -0.3877 -0.4167
 3502SOL    HW111405   3.196   3.032   4.999  0.1592 -0.3169 -0.3990
 3502SOL    HW211406   3.104   3.165   4.979 -0.4964 -0.7925 -0.5800
 3503SOL     OW11407   6.356   2.471   6.540 -0.2044  0.1020 -0.5719
 3503SOL    HW111408   6.394   2.454   6.631  1.2507 -0.5907 -1.2764
 3503SOL    HW211409   6.372   2.391   6.482 -0.4849  0.8045 -1.6401
 3504SOL     OW11410   5.852   4.660   5.813 -0.0817  0.0615 -0.0700
 3504SOL    HW111411   5.835   4.757   5.829  3.1601  0.5717  0.9453
 3504SOL    HW211412   5.820   4.607   5.891 -1.8486  0.2513 -0.6201
 3505SOL     OW11413   4.780   1.649   6.984 -0.2536 -0.1651  0.2051
 3505SOL    HW111414   4.720   1.680   7.058 -0.7395 -2.7026  0.9787
 3505SOL    HW211415   4.874   1.676   7.004 -0.5926  0.5334  0.9377
 3506SOL     OW11416   1.650   1.588   1.901 -0.2123  0.5004  0.3580
 3506SOL    HW111417   1.699   1.551   1.980 -0.6202 -1.1185 -0.1161
 3506SOL    HW211418   1.555   1.557   1.904 -0.7865  2.1836  0.3438
 3507SOL     OW11419   5.387   1.413   2.951  0.5101 -0.0058  0.1214
 3507SOL    HW111420   5.368   1.504   2.915  2.2721 -0.1261 -1.2576
 3507SOL    HW211421   5.307   1.378   2.998 -1.0380  1.2689 -1.4423
 3508SOL     OW11422   1.146   1.615   3.730 -0.2346  0.3394 -0.9709
 3508SOL    HW111423   1.123   1.519   3.746  0.0297  0.1827 -1.4944
 3508SOL    HW211424   1.229   1.639   3.780  0.7987 -0.2483 -2.3407
 3509SOL     OW11425   6.686   2.125   0.662  0.4104 -0.2017  0.2504
 3509SOL    HW111426   6.691   2.197   0.592  0.9978  0.8784  1.3521
 3509SOL    HW211427   6.606   2.141   0.721 -1.5887 -2.5537 -1.6300
 3510SOL     OW11428   5.436   1.352   5.370  0.0136  0.6753 -0.8516
 3510SOL    HW111429   5.508   1.419   5.385 -0.3651  0.7333  0.8320
 3510SOL    HW211430   5.349   1.398   5.358 -0.2998  0.5063  0.6212
 3511SOL     OW11431   2.677   6.749   1.823 -0.2295  0.1368  0.2390
 3511SOL    HW111432   2.746   6.705   1.765 -2.5732 -1.2612 -1.6648
 3511SOL    HW211433   2.636   6.681   1.883 -2.7554 -0.0948 -1.5852
 3512SOL     OW11434   3.553   5.539   1.649 -0.4530  0.4149  0.6953
 3512SOL    HW111435   3.476   5.513   1.590 -1.4224 -0.6897  2.3646
 3512SOL    HW211436   3.638   5.533   1.596 -1.1995 -1.1942 -0.4312
 3513SOL     OW11437   2.607   6.424   4.810  0.4701 -0.3730 -0.1099
 3513SOL    HW111438   2.552   6.394   4.888  0.7015 -1.1953 -0.2506
 3513SOL    HW211439   2.625   6.522   4.817 -2.8490  0.4371 -1.1536
 3514SOL     OW11440   1.600   3.228   3.836 -0.0233 -0.3033  0.2345
 3514SOL    HW111441   1.668   3.238   3.764 -1.6333 -0.7966 -1.4560
 3514SOL    HW211442   1.610   3.138   3.879  0.4482 -0.3362  0.0571
 3515SOL     OW11443   6.683   3.378   0.070 -0.6515 -0.3090  0.1166
 3515SOL    HW111444   6.735   3.412  -0.009 -1.2106 -0.2844 -0.2443
 3515SOL    HW211445   6.589   3.358   0.042 -1.5527  1.9025  1.2587
 3516SOL     OW11446   6.384   3.717   5.072 -0.1774 -0.1963 -0.5808
 3516SOL    HW111447   6.472   3.764   5.076 -0.6703  0.7001  0.0186
 3516SOL    HW211448   6.332   3.736   5.156 -0.6966 -1.2008 -0.6649
 3517SOL     OW11449   0.805   5.940   6.754  0.0113  0.1136 -0.3450
 3517SOL    HW111450   0.830   5.902   6.664  0.7783 -0.8609  0.2563
 3517SOL    HW211451   0.888   5.967   6.802 -0.2523 -0.8995  0.7193
 3518SOL     OW11452   0.139   5.865   0.222 -0.5783 -0.1639 -0.4912
 3518SOL    HW111453   0.115   5.827   0.311 -3.0246  0.3964 -0.8390
 3518SOL    HW211454   0.086   5.820   0.151  1.5439 -0.7838 -1.7417
 3519SOL     OW11455   3.466   3.051   6.022  0.0408 -0.0556 -0.2938
 3519SOL    HW111456   3.551   3.010   6.056  0.4193  0.6661 -0.3387
 3519SOL    HW211457   3.482   3.147   6.001 -0.9803  0.2816  0.3926
 3520SOL     OW11458   1.878   5.785   6.274 -0.5375  0.0692  0.2191
 3520SOL    HW111459   1.935   5.725   6.330 -1.3291 -0.3797  0.5632
 3520SOL    HW211460   1.799   5.733   6.240 -0.5467  0.5788 -0.5529
 3521SOL     OW11461   6.247   4.094   4.496 -0.0555 -0.0336  0.2787
 3521SOL    HW111462   6.216   3.999   4.500 -0.2265 -0.0692 -1.1693
 3521SOL    HW211463   6.321   4.108   4.561  0.4276 -1.3552  0.0457
 3522SOL     OW11464   2.450   0.588   4.525  0.0496  0.2704  0.0532
 3522SOL    HW111465   2.518   0.603   4.453 -0.6101 -1.6533 -1.0785
 3522SOL    HW211466   2.495   0.554   4.607  0.5364 -0.4883 -0.5148
 3523SOL     OW11467   3.931   1.907   3.433 -0.0702  0.4241  0.5205
 3523SOL    HW111468   3.857   1.962   3.470  0.2182  0.0550  1.7065
 3523SOL    HW211469   4.013   1.963   3.423 -0.3717  0.7162 -0.3272
 3524SOL     OW11470   2.123   0.025   4.642 -0.0544 -0.2523 -0.5920
 3524SOL    HW111471   2.104  -0.025   4.558  0.2377 -0.7294 -0.3790
 3524SOL    HW211472   2.073   0.111   4.641 -1.8421 -1.2360 -0.2570
 3525SOL     OW11473   3.811   3.911   0.455 -0.4691  0.0354  0.9438
 3525SOL    HW111474   3.889   3.960   0.417 -1.0166 -0.3424 -0.7165
 3525SOL    HW211475   3.752   3.975   0.505 -1.0885  1.0835 -1.0496
 3526SOL     OW11476   6.493   6.054   0.685  0.4264  0.2946  0.4422
 3526SOL    HW111477   6.498   6.064   0.785  3.6683  0.3166  0.3933
 3526SOL    HW211478   6.468   5.960   0.663 -1.2406  0.5131  1.2111
 3527SOL     OW11479   5.484   1.630   3.486  0.4791 -0.4258 -0.2089
 3527SOL    HW111480   5.429   1.580   3.419  0.9786  0.5137 -1.3554
 3527SOL    HW211481   5.560   1.573   3.517  0.1858 -0.9077 -0.3682
 3528SOL     OW11482   1.746   2.189   5.919  0.3717  0.3132  0.4210
 3528SOL    HW111483   1.745   2.124   5.843  1.8133 -0.4512  1.0080
 3528SOL    HW211484   1.824   2.169   5.979  1.6498  3.4096 -0.0466
 3529SOL     OW11485   0.187   4.241   4.425 -0.5353 -0.1242  0.1776
 3529SOL    HW111486   0.147   4.328   4.394  0.5383  0.9334  1.6279
 3529SOL    HW211487   0.259   4.260   4.492  1.5779 -1.9999 -1.4177
 3530SOL     OW11488   4.935   2.769   1.101  0.4952 -0.4191 -0.2606
 3530SOL    HW111489   5.000   2.706   1.057  1.4617 -0.1177  0.6817
 3530SOL    HW211490   4.906   2.730   1.188  0.9844  0.3526  0.2629
 3531SOL     OW11491   0.228   0.187   1.683  0.4774  0.1330 -0.0398
 3531SOL    HW111492   0.163   0.261   1.669  0.7441  0.4875  0.5372
 3531SOL    HW211493   0.286   0.209   1.761  0.2157 -0.9346  0.4610
 3532SOL     OW11494   2.063   3.933   6.934  0.3564  0.0217  0.0699
 3532SOL    HW111495   2.081   4.031   6.929  0.1554  0.0952  0.6991
 3532SOL    HW211496   2.048   3.897   6.842  1.0881  0.4543 -0.2224
 3533SOL     OW11497   5.642   1.156   6.476  0.2273  0.0223  0.1989
 3533SOL    HW111498   5.612   1.090   6.406 -0.9233  0.2972  0.4153
 3533SOL    HW211499   5.565   1.213   6.503  1.0217  0.9197  0.6171
 3534SOL     OW11500   0.100   3.999   5.188 -0.6620  0.3476  0.2518
 3534SOL    HW111501   0.027   4.051   5.144 -1.0313  0.1012  0.5672
 3534SOL    HW211502   0.098   3.904   5.154  0.2686  0.6206 -0.6375
 3535SOL     OW11503   2.776   6.350   5.871 -0.5628 -0.4963  0.2180
 3535SOL    HW111504   2.787   6.449   5.873 -1.8881 -0.3353  0.3899
 3535SOL    HW211505   2.684   6.327   5.840 -0.2155 -1.6811  0.0190
 3536SOL     OW11506   5.501   2.195   1.438  0.2298 -0.2021 -0.1120
 3536SOL    HW111507   5.531   2.239   1.523  0.0449  0.3288 -0.3132
 3536SOL    HW211508   5.511   2.260   1.362  0.0167 -0.5363 -0.4259
 3537SOL     OW11509   1.682   1.607   5.754  0.3060 -0.0065  0.0596
 3537SOL    HW111510   1.603   1.645   5.705 -0.3439 -1.2566  0.1111
 3537SOL    HW211511   1.661   1.600   5.851  0.3822 -0.5750  0.0380
 3538SOL     OW11512   2.529   4.830   6.433 -0.0561  0.2623  0.1573
 3538SOL    HW111513   2.581   4.905   6.474  0.5743 -1.0067  1.7690
 3538SOL    HW211514   2.583   4.787   6.361  1.6084 -1.5363  2.3152
 3539SOL     OW11515   0.606   5.441   5.373  0.3948 -0.0905 -0.2869
 3539SOL    HW111516   0.648   5.469   5.460 -1.2838  2.4537 -0.1874
 3539SOL    HW211517   0.677   5.412   5.310  1.7260 -1.3194  1.6696
 3540SOL     OW11518   1.303   0.797   0.247 -0.4415  0.3340 -0.6355
 3540SOL    HW111519   1.223   0.738   0.252 -0.6784  0.7147  0.2153
 3540SOL    HW211520   1.276   0.889   0.218 -0.9601  1.5325  3.1685
 3541SOL     OW11521   3.407   1.446   2.155  0.3106  0.4351  0.0310
 3541SOL    HW111522   3.443   1.363   2.111 -0.4518  0.5692 -0.8791
 3541SOL    HW211523   3.483   1.506   2.180  0.9384 -0.8835  1.4695
 3542SOL     OW11524   3.485   3.757   3.132  0.6506 -0.7787 -0.0026
 3542SOL    HW111525   3.541   3.761   3.049  1.1248 -1.1874  0.2901
 3542SOL    HW211526   3.421   3.680   3.125 -0.6049  0.3080 -0.7794
 3543SOL     OW11527   3.857   6.158   4.924  0.2573 -0.7220 -0.0317
 3543SOL    HW111528   3.808   6.245   4.932  1.7257  0.3991 -2.0952
 3543SOL    HW211529   3.806   6.096   4.864  0.7808  0.0527 -1.3327
 3544SOL     OW11530   1.211   0.010   4.697  0.8725  0.1205 -0.1609
 3544SOL    HW111531   1.183   0.059   4.780  0.0713  0.8530 -0.8451
 3544SOL    HW211532   1.263   0.072   4.638  0.1090  0.0670 -0.9020
 3545SOL     OW11533   3.681   5.967   4.816 -0.7188 -0.6440 -0.0661
 3545SOL    HW111534   3.709   5.872   4.802  2.3692  0.3089 -1.2850
 3545SOL    HW211535   3.619   5.995   4.743 -1.7555 -1.7360  0.3752
 3546SOL     OW11536   6.671   3.253   2.562  0.4564  0.1891  0.0006
 3546SOL    HW111537   6.653   3.187   2.489  0.2860 -0.3463  0.5244
 3546SOL    HW211538   6.649   3.212   2.650 -0.1973  1.1463  0.2899
 3547SOL     OW11539   3.849   0.953   5.612  0.0655 -0.6449  0.1219
 3547SOL    HW111540   3.826   1.005   5.530 -0.4647 -1.6763 -0.3954
 3547SOL    HW211541   3.809   0.998   5.692 -0.6905 -0.4509 -0.3573
 3548SOL     OW11542   4.453   1.672   2.896  0.5259 -0.6232  0.3915
 3548SOL    HW111543   4.399   1.744   2.852  0.0229 -1.6161 -0.6568
 3548SOL    HW211544   4.499   1.710   2.976 -1.1356  0.4405  0.9009
 3549SOL     OW11545   0.104   3.791   2.069 -0.3477  0.1535 -0.4294
 3549SOL    HW111546   0.041   3.737   2.125 -0.7358 -0.4319 -1.4071
 3549SOL    HW211547   0.051   3.852   2.010  0.0608  0.8128 -0.1256
 3550SOL     OW11548   3.927   5.750   5.912 -0.2863  0.0211 -0.3908
 3550SOL    HW111549   3.904   5.711   5.823 -0.6576  0.8992 -0.6845
 3550SOL    HW211550   3.939   5.676   5.978 -0.6668 -0.6058 -1.0128
 3551SOL     OW11551   3.942   5.834   2.276  0.1226 -0.6250 -0.2169
 3551SOL    HW111552   3.927   5.796   2.367  0.7530 -1.0265 -0.2734
 3551SOL    HW211553   3.920   5.932   2.277  1.3251 -0.3318  0.7068
 3552SOL     OW11554   6.577   0.325   2.585 -0.1369  0.3086 -0.0688
 3552SOL    HW111555   6.617   0.325   2.676  1.3959  2.8965 -0.6513
 3552SOL    HW211556   6.478   0.334   2.592 -0.1430 -0.5024  1.3040
 3553SOL     OW11557   5.556   4.342   5.482  0.2716 -0.1152 -0.6651
 3553SOL    HW111558   5.519   4.264   5.533  1.1174 -0.6430 -0.8510
 3553SOL    HW211559   5.639   4.375   5.527  0.7804 -0.3050 -1.4509
 3554SOL     OW11560   6.678   5.983   2.386  0.3706 -0.5054 -0.1829
 3554SOL    HW111561   6.641   6.039   2.460 -2.6991  0.5174 -2.2952
 3554SOL    HW211562   6.722   6.042   2.318  0.5031 -1.0884 -0.6145
 3555SOL     OW11563   1.270   1.895   0.217  0.0140 -0.4139  0.2442
 3555SOL    HW111564   1.287   1.980   0.265 -1.1202  0.4579 -0.8130
 3555SOL    HW211565   1.241   1.915   0.123  1.8242 -2.0290 -0.7213
 3556SOL     OW11566   3.155   0.773   6.174 -0.5239  0.2985 -0.1857
 3556SOL    HW111567   3.111   0.737   6.257 -0.8793 -0.0070 -0.5069
 3556SOL    HW211568   3.244   0.730   6.163 -0.8206 -0.2716 -0.4048
 3557SOL     OW11569   2.295   6.950   6.121 -0.0185  0.0085 -0.3324
 3557SOL    HW111570   2.216   6.952   6.183 -0.6272  0.8720 -1.1104
 3557SOL    HW211571   2.370   7.002   6.162 -0.1983  0.0381 -0.0366
 3558SOL     OW11572   2.284   2.595   5.453 -0.2720  0.5938 -0.0022
 3558SOL    HW111573   2.361   2.575   5.391 -0.5042  0.8282 -0.3729
 3558SOL    HW211574   2.223   2.661   5.409 -0.4861  0.6980  0.4482
 3559SOL     OW11575   4.372   4.975   5.133 -0.2497  0.0924 -0.1791
 3559SOL    HW111576   4.343   5.025   5.051 -2.1703 -0.9022 -0.1630
 3559SOL    HW211577   4.315   5.002   5.210 -0.2192 -0.9067  0.2111
 3560SOL     OW11578   0.320   5.998   0.739 -0.3059 -0.6854  0.1982
 3560SOL    HW111579   0.333   6.084   0.691 -1.1654  0.2214  1.5360
 3560SOL    HW211580   0.240   5.951   0.703  0.1685 -0.9511 -0.5373
 3561SOL     OW11581   4.549   6.418   0.216  0.6825 -0.1703 -0.3492
 3561SOL    HW111582   4.503   6.357   0.152  0.6388  0.7782 -1.2525
 3561SOL    HW211583   4.593   6.492   0.165  1.1823  0.2593  0.6803
 3562SOL     OW11584   6.105   2.611   0.453 -0.1636  0.2635  0.2740
 3562SOL    HW111585   6.075   2.596   0.547  0.5868  1.0838  0.6593
 3562SOL    HW211586   6.025   2.623   0.394 -0.6340  0.0239  0.8541
 3563SOL     OW11587   4.888   0.075   2.198  0.1723  0.2918  1.1457
 3563SOL    HW111588   4.805   0.067   2.143  1.8876 -1.6067 -1.4093
 3563SOL    HW211589   4.866   0.121   2.284 -3.4824 -0.1326  0.6289
 3564SOL     OW11590   3.752   0.383   5.207 -0.1517 -0.7240  0.0009
 3564SOL    HW111591   3.738   0.428   5.294  0.6147 -0.1529 -0.1557
 3564SOL    HW211592   3.715   0.440   5.133 -0.0413 -0.8009 -0.1152
 3565SOL     OW11593   3.638   2.093   3.762 -0.1167  0.4506 -0.2398
 3565SOL    HW111594   3.608   2.163   3.826 -0.2894  0.5641 -0.4444
 3565SOL    HW211595   3.593   2.007   3.784 -2.0082  1.0294 -1.6442
 3566SOL     OW11596   4.525   0.045   6.637  0.1237  0.1428  0.0468
 3566SOL    HW111597   4.612   0.027   6.681  0.2693  0.9651  0.1000
 3566SOL    HW211598   4.478   0.119   6.684 -0.0884  0.4786 -0.6792
 3567SOL     OW11599   1.774   6.429   6.154 -0.2689 -0.0682 -0.0563
 3567SOL    HW111600   1.706   6.486   6.199 -1.2591 -0.9181 -0.4176
 3567SOL    HW211601   1.735   6.338   6.137  1.9943 -1.7232  2.6541
 3568SOL     OW11602   0.881   6.308   3.155  0.6915 -0.6327  0.3189
 3568SOL    HW111603   0.958   6.314   3.091  0.5663 -1.0379  0.1274
 3568SOL    HW211604   0.829   6.393   3.152  1.4300 -0.1492  0.8369
 3569SOL     OW11605   3.263   2.998   4.211 -0.1982 -0.1789 -0.1028
 3569SOL    HW111606   3.248   3.093   4.184  1.7167  0.3679  0.5965
 3569SOL    HW211607   3.224   2.983   4.302  0.8582  0.4261  0.4772
 3570SOL     OW11608   0.013   3.012   3.402 -0.6093 -0.4470 -0.0609
 3570SOL    HW111609   0.045   3.065   3.481 -0.0048 -0.6829 -0.1445
 3570SOL    HW211610  -0.087   3.003   3.406 -0.7344  0.8406 -0.1403
 3571SOL     OW11611   5.708   5.593   6.918 -0.6821  0.3213 -0.1975
 3571SOL    HW111612   5.704   5.531   6.839 -0.1292  0.2472 -0.1727
 3571SOL    HW211613   5.762   5.674   6.894  0.4687 -0.2302  0.4537
 3572SOL     OW11614   1.221   5.499   0.467  0.0233  0.1585 -0.0077
 3572SOL    HW111615   1.318   5.495   0.492  0.5608  3.1865 -1.2616
 3572SOL    HW211616   1.173   5.557   0.532  0.1095  2.6503 -2.0330
 3573SOL     OW11617   5.539   6.297   2.351 -0.1893  0.5229  0.7428
 3573SOL    HW111618   5.565   6.331   2.261 -0.5405 -2.8022 -0.7489
 3573SOL    HW211619   5.621   6.265   2.399 -0.1887  0.8946  0.9966
 3574SOL     OW11620   6.306   2.347   0.503 -0.2113 -0.1033  0.2535
 3574SOL    HW111621   6.352   2.413   0.563 -0.4027  1.8914 -1.6962
 3574SOL    HW211622   6.207   2.360   0.508 -0.2634 -0.3766 -0.0155
 3575SOL     OW11623   3.405   2.526   5.553  0.1643 -0.0700 -0.0934
 3575SOL    HW111624   3.404   2.609   5.608 -0.2901 -1.1563  1.6254
 3575SOL    HW211625   3.499   2.490   5.548  0.5421  1.0049 -1.6622
 3576SOL     OW11626   6.319   5.897   5.437  0.2899  0.7891  0.3718
 3576SOL    HW111627   6.331   5.848   5.351 -1.5056  0.1126  0.4569
 3576SOL    HW211628   6.292   5.992   5.418  0.1961  0.7249  0.1847
 3577SOL     OW11629   5.440   1.011   2.970  0.1357 -0.0055 -0.1273
 3577SOL    HW111630   5.391   0.977   2.889 -0.9928 -1.0644  0.9498
 3577SOL    HW211631   5.375   1.058   3.030  1.1371  1.5653 -0.2472
 3578SOL     OW11632   4.946   1.902   6.224 -0.1392  0.4796 -0.3271
 3578SOL    HW111633   5.019   1.843   6.259 -0.1021 -1.1864 -2.9233
 3578SOL    HW211634   4.969   1.932   6.132 -1.3261  2.5976 -0.0048
 3579SOL     OW11635   4.409   5.446   1.003 -0.3991 -0.0005  0.1141
 3579SOL    HW111636   4.314   5.459   0.976 -0.3839  1.2322  0.5853
 3579SOL    HW211637   4.412   5.416   1.099 -0.2927  1.1723  0.4923
 3580SOL     OW11638   5.742   4.930   3.672 -0.4520  0.6775 -0.1991
 3580SOL    HW111639   5.787   5.013   3.638 -1.5346  0.9468 -1.0564
 3580SOL    HW211640   5.642   4.944   3.670 -0.6064  0.2290  1.9343
 3581SOL     OW11641   4.814   3.714   5.405 -0.1753  0.1247  0.5545
 3581SOL    HW111642   4.773   3.671   5.325  0.2635  0.3078  0.2236
 3581SOL    HW211643   4.804   3.814   5.398  0.7819  0.2100  0.2000
 3582SOL     OW11644   5.040   3.422   2.813  0.0486  0.4465  0.4218
 3582SOL    HW111645   5.078   3.341   2.857 -0.9515 -0.0142  0.4605
 3582SOL    HW211646   5.004   3.398   2.723  0.5933  1.0483  0.0355
 3583SOL     OW11647   6.542   1.529   5.358  0.1743 -0.1586 -0.2961
 3583SOL    HW111648   6.581   1.543   5.267  1.3449 -0.3481  0.1626
 3583SOL    HW211649   6.616   1.524   5.426 -0.7217  1.2052  0.8369
 3584SOL     OW11650   2.762   6.148   6.080  0.2015  0.1727 -0.3637
 3584SOL    HW111651   2.667   6.129   6.057 -0.2585  1.5421  0.2700
 3584SOL    HW211652   2.802   6.209   6.011  0.8084 -0.8615 -0.9387
 3585SOL     OW11653   3.093   0.020   2.434  0.5134 -0.7743  0.2446
 3585SOL    HW111654   3.140   0.090   2.379  1.0797  1.2234  3.0444
 3585SOL    HW211655   2.997   0.016   2.407  0.7587  0.1639 -0.8617
 3586SOL     OW11656   5.181   2.948   5.556 -0.0222  0.2059  0.2379
 3586SOL    HW111657   5.213   2.991   5.641  0.0733  1.4908 -0.4231
 3586SOL    HW211658   5.198   2.849   5.561  2.9742  0.6158  0.4422
 3587SOL     OW11659   5.448   1.292   3.339 -0.1057  0.2810  0.1134
 3587SOL    HW111660   5.448   1.193   3.325  0.8018  0.4333 -1.2371
 3587SOL    HW211661   5.526   1.317   3.396  0.4806  0.3301 -0.6919
 3588SOL     OW11662   4.351   4.601   2.251  0.2127 -0.4956 -0.2248
 3588SOL    HW111663   4.413   4.614   2.174  0.5017 -1.4666 -0.1714
 3588SOL    HW211664   4.346   4.504   2.275 -2.6159 -0.7277 -1.2975
 3589SOL     OW11665   0.608   3.640   6.521  0.2790 -0.2435 -0.2263
 3589SOL    HW111666   0.574   3.554   6.561 -1.3070 -0.6441 -2.2856
 3589SOL    HW211667   0.582   3.716   6.581  2.2338 -1.1519  1.9495
 3590SOL     OW11668   4.492   6.685   1.293 -0.0176 -0.1380 -0.2845
 3590SOL    HW111669   4.534   6.595   1.305  0.9275  0.1810 -1.0511
 3590SOL    HW211670   4.401   6.684   1.332  1.1846 -0.4557  2.7586
 3591SOL     OW11671   4.053   1.553   2.185 -0.4303  0.3884 -1.0445
 3591SOL    HW111672   3.975   1.533   2.244 -1.2498  2.5913 -1.2938
 3591SOL    HW211673   4.042   1.505   2.098 -0.5963 -0.6907 -0.4468
 3592SOL     OW11674   4.944   6.437   3.274  0.3976 -0.4039 -0.1641
 3592SOL    HW111675   5.028   6.442   3.219  0.7688 -1.6182  0.2715
 3592SOL    HW211676   4.883   6.368   3.235  0.3919 -0.8266  0.5936
 3593SOL     OW11677   4.177   6.903   6.478 -0.0914  0.1045 -0.2503
 3593SOL    HW111678   4.085   6.916   6.516 -0.3545 -1.4350 -0.3208
 3593SOL    HW211679   4.190   6.807   6.454  0.5120  0.7722 -2.9155
 3594SOL     OW11680   2.148   5.565   1.484 -0.8075 -0.7127 -0.4869
 3594SOL    HW111681   2.054   5.531   1.483 -0.8793 -0.5042 -1.6138
 3594SOL    HW211682   2.199   5.518   1.555 -1.8446 -0.5957  0.3606
 3595SOL     OW11683   2.581   0.540   2.741  0.4562 -0.2657  0.0224
 3595SOL    HW111684   2.558   0.636   2.733  0.6021 -0.1602  0.7647
 3595SOL    HW211685   2.675   0.531   2.776  1.1373 -0.6825 -1.8153
 3596SOL     OW11686   6.065   5.192   4.412 -0.6123  0.0856 -0.6904
 3596SOL    HW111687   5.998   5.266   4.413 -1.6134 -0.8068 -0.0427
 3596SOL    HW211688   6.019   5.104   4.422  0.7037 -0.4995  0.7029
 3597SOL     OW11689   5.697   1.642   3.889 -0.3294  0.4856 -0.4333
 3597SOL    HW111690   5.687   1.739   3.865 -3.1086  0.2124 -0.6212
 3597SOL    HW211691   5.626   1.616   3.954  2.2827 -0.7278  2.1419
 3598SOL     OW11692   5.091   5.298   0.114  0.9354  0.3074 -0.0506
 3598SOL    HW111693   5.006   5.343   0.139 -0.5577 -1.6353 -1.3226
 3598SOL    HW211694   5.088   5.271   0.018  2.0359 -1.8063  0.4377
 3599SOL     OW11695   5.883   3.991   3.552  0.2137 -0.0446 -0.0659
 3599SOL    HW111696   5.904   3.973   3.456  1.2682  1.7197 -0.2144
 3599SOL    HW211697   5.870   3.905   3.600 -1.2240 -0.9663 -1.9569
 3600SOL     OW11698   5.175   5.092   6.489 -0.1718  0.0225 -0.0025
 3600SOL    HW111699   5.105   5.149   6.530 -0.4141  0.1299 -0.5597
 3600SOL    HW211700   5.160   4.996   6.516 -0.5201  0.0463 -0.1105
 3601SOL     OW11701   1.441   3.464   0.276 -0.2470 -0.0947  0.4316
 3601SOL    HW111702   1.479   3.494   0.189 -2.9410  2.8994  0.1180
 3601SOL    HW211703   1.452   3.536   0.344 -2.9335 -0.1143  0.9927
 3602SOL     OW11704   6.968   0.524   6.166  0.0962 -0.6080 -0.2685
 3602SOL    HW111705   6.877   0.484   6.179 -0.6535  0.7922 -1.0154
 3602SOL    HW211706   6.993   0.578   6.246  0.4356 -1.2484  0.0719
 3603SOL     OW11707   4.772   6.907   5.461  0.2626  0.1313 -0.0222
 3603SOL    HW111708   4.769   7.007   5.465  1.1772  0.1317  0.9748
 3603SOL    HW211709   4.868   6.877   5.461  0.0147 -0.8175  2.2466
 3604SOL     OW11710   6.381   0.064   4.001 -0.5919 -0.1027 -0.3375
 3604SOL    HW111711   6.442   0.100   3.930  1.2417 -1.7409  0.3145
 3604SOL    HW211712   6.369   0.133   4.072  1.4816 -0.1159  0.0796
 3605SOL     OW11713   0.830   6.928   5.784 -0.3481 -0.8426 -0.6208
 3605SOL    HW111714   0.888   7.000   5.823  0.2602 -0.7453 -1.6806
 3605SOL    HW211715   0.779   6.884   5.857  0.5681 -0.4891  0.2532
 3606SOL     OW11716   4.771   0.105   5.028 -0.2636 -0.5276  0.0101
 3606SOL    HW111717   4.704   0.179   5.032  1.6860  1.4917 -1.6185
 3606SOL    HW211718   4.859   0.138   5.062  0.8785 -1.8139 -1.5070
 3607SOL     OW11719   0.381   5.732   0.291 -0.0486  0.2835 -0.0837
 3607SOL    HW111720   0.319   5.807   0.269 -0.4385  0.8246  2.4866
 3607SOL    HW211721   0.461   5.768   0.339  0.0859 -0.8545  0.5940
 3608SOL     OW11722   2.670   2.292   4.072  0.1599 -0.2051 -0.0017
 3608SOL    HW111723   2.621   2.230   4.011 -1.0618  1.5945 -0.9180
 3608SOL    HW211724   2.626   2.382   4.071  2.8796  1.2230 -0.0762
 3609SOL     OW11725   6.326   4.438   0.649 -0.1183 -0.6865  0.2174
 3609SOL    HW111726   6.226   4.431   0.647 -0.0942 -1.5944  1.4543
 3609SOL    HW211727   6.353   4.505   0.718  0.1228  0.2835 -0.7848
 3610SOL     OW11728   0.570   6.017   3.430 -0.3553 -0.0659 -0.3656
 3610SOL    HW111729   0.547   6.102   3.385  0.4053  0.1789 -0.3149
 3610SOL    HW211730   0.670   6.008   3.436 -0.3584  0.6867  2.6292
 3611SOL     OW11731   5.618   1.679   6.247 -0.5126  0.5812  1.0623
 3611SOL    HW111732   5.566   1.641   6.171 -0.9441  0.3024  1.4871
 3611SOL    HW211733   5.652   1.770   6.223  0.5622 -0.0651  0.0088
 3612SOL     OW11734   3.773   3.608   2.728 -0.4177 -0.0947 -0.5136
 3612SOL    HW111735   3.821   3.679   2.676  0.6236 -1.0064 -0.8385
 3612SOL    HW211736   3.838   3.536   2.752 -0.8362  0.3463  2.1791
 3613SOL     OW11737   3.385   0.089   4.268 -0.2571  0.3892  0.1892
 3613SOL    HW111738   3.314   0.050   4.209  0.6797 -3.7287  1.4268
 3613SOL    HW211739   3.348   0.099   4.361  0.4656 -0.9632  0.6471
 3614SOL     OW11740   0.299   4.925   5.759 -0.5418 -0.0965  0.1569
 3614SOL    HW111741   0.360   4.996   5.723 -2.5461  0.7835 -1.7748
 3614SOL    HW211742   0.288   4.936   5.857  1.0290  0.7770  0.2604
 3615SOL     OW11743   0.052   1.594   3.591 -0.0064 -0.0819 -0.6653
 3615SOL    HW111744  -0.028   1.539   3.565 -0.1098 -0.2868  0.0612
 3615SOL    HW211745   0.124   1.580   3.523  0.7080 -2.7421  0.4950
 3616SOL     OW11746   1.795   6.693   0.731 -0.7109 -0.0933 -0.1136
 3616SOL    HW111747   1.748   6.648   0.807 -0.8231  1.3025  0.6837
 3616SOL    HW211748   1.857   6.762   0.768 -0.2340  0.1160 -1.2813
 3617SOL     OW11749   0.650   3.763   4.271 -0.3274  0.5555 -0.2972
 3617SOL    HW111750   0.636   3.676   4.225 -0.5898  1.1035 -1.2915
 3617SOL    HW211751   0.643   3.750   4.370 -2.8593 -0.1423 -0.4882
 3618SOL     OW11752   5.322   1.886   5.860  0.2380  0.2523  0.0643
 3618SOL    HW111753   5.402   1.937   5.828  0.6647 -0.3272  0.2041
 3618SOL    HW211754   5.270   1.852   5.781 -0.9942  2.3117 -0.0888
 3619SOL     OW11755   0.304   0.306   4.730  0.3616  0.7799 -0.0059
 3619SOL    HW111756   0.399   0.275   4.736  0.0536 -0.1202  0.5223
 3619SOL    HW211757   0.252   0.267   4.806 -0.3974  1.3946 -0.2007
 3620SOL     OW11758   6.343   1.168   5.015  0.2776 -0.4133  0.0794
 3620SOL    HW111759   6.316   1.143   5.108  0.9541 -1.1794  0.0845
 3620SOL    HW211760   6.369   1.264   5.012 -1.1968  0.0256  0.3413
 3621SOL     OW11761   0.217   2.122   2.344  0.0060 -0.2482 -0.8979
 3621SOL    HW111762   0.287   2.128   2.415  0.7826 -0.1774 -1.6577
 3621SOL    HW211763   0.254   2.073   2.265 -1.4309 -2.0104 -0.5573
 3622SOL     OW11764   5.906   1.109   3.598  0.5821  0.1547 -0.6465
 3622SOL    HW111765   5.936   1.204   3.613 -0.1744  0.3935 -0.5845
 3622SOL    HW211766   5.912   1.059   3.685 -3.9320  1.5809  0.8206
 3623SOL     OW11767   6.121   3.546   2.137  0.1402  0.7211  1.0080
 3623SOL    HW111768   6.194   3.560   2.203 -0.2876 -0.4562  1.7681
 3623SOL    HW211769   6.038   3.592   2.169  0.9774  3.8204 -0.8374
 3624SOL     OW11770   2.177   3.026   4.517  0.2680 -0.4734  0.0536
 3624SOL    HW111771   2.224   3.038   4.604 -1.4909 -3.1691  1.5110
 3624SOL    HW211772   2.225   2.958   4.462  0.2720 -0.2479 -0.2257
 3625SOL     OW11773   4.426   0.157   2.616 -0.6105  0.9256 -0.1271
 3625SOL    HW111774   4.479   0.162   2.700 -1.4502 -0.5071  0.5282
 3625SOL    HW211775   4.488   0.153   2.537  0.2922 -0.8685  0.6209
 3626SOL     OW11776   1.479   0.980   5.590 -0.3458 -0.5364 -0.1353
 3626SOL    HW111777   1.577   0.962   5.583 -0.2407  0.1356 -0.4037
 3626SOL    HW211778   1.442   0.996   5.499 -0.6302 -0.3908  0.0075
 3627SOL     OW11779   1.685   6.221   0.273 -0.1649  0.4354  0.1186
 3627SOL    HW111780   1.606   6.162   0.286 -1.2187  1.3356 -1.8950
 3627SOL    HW211781   1.759   6.169   0.230  0.0150 -0.1489  1.0968
 3628SOL     OW11782   1.343   2.942   0.966 -0.2168  0.0146 -0.0273
 3628SOL    HW111783   1.246   2.923   0.983 -0.2746 -0.3899 -0.7911
 3628SOL    HW211784   1.360   2.943   0.868  0.3877  0.9432  0.0752
 3629SOL     OW11785   0.660   4.527   0.232 -0.5847 -0.2786  0.1434
 3629SOL    HW111786   0.683   4.551   0.137 -3.2301  3.4712  0.2253
 3629SOL    HW211787   0.698   4.595   0.293  1.5536 -2.9484  2.0232
 3630SOL     OW11788   3.096   1.611   1.112  0.3957 -0.4202 -0.3589
 3630SOL    HW111789   3.100   1.581   1.207 -1.0065 -0.7736 -0.3776
 3630SOL    HW211790   3.131   1.705   1.105  0.3968 -0.3425  0.5252
 3631SOL     OW11791   0.456   4.814   5.256  0.0440 -0.7711  0.3944
 3631SOL    HW111792   0.477   4.912   5.264 -0.7440 -0.5409 -0.2634
 3631SOL    HW211793   0.459   4.787   5.160  0.1471 -1.3725  0.5614
 3632SOL     OW11794   1.643   1.624   3.997 -0.9454  0.2415  0.6483
 3632SOL    HW111795   1.583   1.657   3.924 -0.4356  1.5504  0.7885
 3632SOL    HW211796   1.640   1.688   4.073  0.6722  0.3914  0.6268
 3633SOL     OW11797   5.946   4.320   4.118  0.4569  0.1134  0.3581
 3633SOL    HW111798   5.898   4.327   4.030 -1.3542  1.7253  1.3869
 3633SOL    HW211799   6.029   4.376   4.116 -0.0078  0.8053 -0.0773
 3634SOL     OW11800   6.559   6.158   6.767 -0.2078 -0.5409 -0.1189
 3634SOL    HW111801   6.605   6.209   6.839 -0.2618 -1.3493  0.5072
 3634SOL    HW211802   6.461   6.179   6.768 -0.0024  0.4808 -0.8502
 3635SOL     OW11803   5.749   4.535   6.050 -0.0680  0.2509 -0.5358
 3635SOL    HW111804   5.785   4.442   6.053 -2.8998 -0.9735 -1.7108
 3635SOL    HW211805   5.711   4.559   6.139 -1.9324 -0.8968 -0.9701
 3636SOL     OW11806   1.585   6.030   5.602  0.8671 -0.1862  0.0494
 3636SOL    HW111807   1.655   6.012   5.671  0.5647  0.3853  0.5045
 3636SOL    HW211808   1.599   6.120   5.562  0.4674 -0.1252  0.0429
 3637SOL     OW11809   3.922   6.477   5.701 -0.0162  0.2772  0.5470
 3637SOL    HW111810   4.008   6.519   5.674  0.1148 -1.0010 -1.1674
 3637SOL    HW211811   3.848   6.544   5.693  0.3815  0.5781 -0.8518
 3638SOL     OW11812   6.181   0.275   2.872  0.6616 -0.0181  0.4470
 3638SOL    HW111813   6.141   0.337   2.939 -2.7165  1.5498 -2.6719
 3638SOL    HW211814   6.227   0.327   2.800  0.5954 -1.3124 -0.5792
 3639SOL     OW11815   1.301   6.458   3.337  0.1893  0.0504  0.1174
 3639SOL    HW111816   1.317   6.371   3.289  0.7098 -0.2482  0.8134
 3639SOL    HW211817   1.343   6.454   3.428  1.7277  1.6329 -0.4637
 3640SOL     OW11818   2.606   0.435   0.353 -0.3959 -0.3147  0.3390
 3640SOL    HW111819   2.590   0.416   0.256 -2.9531  0.4071  0.5321
 3640SOL    HW211820   2.694   0.480   0.364  0.1513 -0.8051 -1.5870
 3641SOL     OW11821   1.827   0.182   0.927  0.0427  0.0717 -0.0006
 3641SOL    HW111822   1.893   0.255   0.943  1.5033 -1.0467 -0.6115
 3641SOL    HW211823   1.788   0.190   0.836  0.1349  0.1462 -0.0330
 3642SOL     OW11824   5.534   2.353   1.198 -0.3309  0.1681 -0.1254
 3642SOL    HW111825   5.610   2.369   1.136 -0.8466  1.1956 -0.5188
 3642SOL    HW211826   5.448   2.365   1.149 -0.7533 -0.3742  0.4593
 3643SOL     OW11827   3.531   3.399   5.513 -0.4997  0.3123  0.2211
 3643SOL    HW111828   3.545   3.498   5.504 -0.6480  0.2548 -0.6912
 3643SOL    HW211829   3.515   3.376   5.609 -1.1008  1.2553  0.3543
 3644SOL     OW11830   2.058   2.737   4.410  0.2947 -0.0381  0.3250
 3644SOL    HW111831   2.016   2.759   4.498 -2.3459 -2.7609 -0.0671
 3644SOL    HW211832   2.004   2.779   4.337 -0.7660 -2.0423 -0.1176
 3645SOL     OW11833   2.128   4.153   2.177 -0.1543  0.5126  0.0134
 3645SOL    HW111834   2.098   4.213   2.102 -1.9591 -0.0172  0.2794
 3645SOL    HW211835   2.144   4.207   2.259  2.1422  1.1465 -0.7735
 3646SOL     OW11836   2.273   4.782   2.407  0.2535 -0.3737  0.1129
 3646SOL    HW111837   2.184   4.737   2.406  0.9031 -1.7867  1.5619
 3646SOL    HW211838   2.326   4.753   2.327  0.0572 -0.8935  0.1692
 3647SOL     OW11839   1.320   3.209   1.651  0.7183  0.3019  0.0774
 3647SOL    HW111840   1.268   3.126   1.673 -0.2419  1.0885  0.8540
 3647SOL    HW211841   1.411   3.204   1.693  1.2035 -0.9460 -1.0299
 3648SOL     OW11842   5.585   1.322   0.486 -0.0472  0.3722 -0.3706
 3648SOL    HW111843   5.547   1.244   0.435  1.6334 -0.9111  0.2603
 3648SOL    HW211844   5.683   1.329   0.468  0.1262  1.3564  0.8541
 3649SOL     OW11845   5.236   3.139   4.084 -0.0136 -0.2022 -0.4354
 3649SOL    HW111846   5.297   3.065   4.055  1.3101  1.6468 -2.7481
 3649SOL    HW211847   5.153   3.137   4.028  0.8906  1.1507 -1.8951
 3650SOL     OW11848   2.840   6.422   0.230 -0.3732  0.3579  0.3378
 3650SOL    HW111849   2.939   6.430   0.219 -0.2791 -0.3877  0.5507
 3650SOL    HW211850   2.813   6.460   0.319 -0.2726  0.5053  0.3058
 3651SOL     OW11851   6.000   3.415   4.092 -0.1628  0.4322  0.3266
 3651SOL    HW111852   5.922   3.354   4.104 -0.8151  1.3693  1.0281
 3651SOL    HW211853   6.045   3.396   4.005 -1.7967  0.5528 -0.5854
 3652SOL     OW11854   3.770   6.790   2.974  0.3428 -0.0681 -0.7610
 3652SOL    HW111855   3.826   6.716   2.938 -0.8076 -1.4269  0.1145
 3652SOL    HW211856   3.675   6.780   2.942  0.1985  1.1457 -0.7819
 3653SOL     OW11857   3.846   6.577   2.808  0.1427  0.2347  0.1699
 3653SOL    HW111858   3.916   6.507   2.790  0.8345  1.2483 -1.2704
 3653SOL    HW211859   3.757   6.543   2.779  0.4421 -0.1237 -0.3556
 3654SOL     OW11860   6.649   5.110   3.202 -0.2178 -0.0411  0.5244
 3654SOL    HW111861   6.655   5.196   3.252  1.8741 -0.3669  0.9582
 3654SOL    HW211862   6.738   5.064   3.206 -0.2542 -0.5899 -2.6411
 3655SOL     OW11863   0.882   4.553   1.125 -0.1856  0.1503 -0.4809
 3655SOL    HW111864   0.792   4.593   1.111  0.0392  0.0903 -2.2591
 3655SOL    HW211865   0.931   4.548   1.038  0.6598 -1.9361  0.0657
 3656SOL     OW11866   3.897   1.817   5.670  1.0247 -0.0151  0.4129
 3656SOL    HW111867   3.952   1.817   5.754  1.8638  0.1985 -0.1227
 3656SOL    HW211868   3.848   1.903   5.662 -3.5136 -1.9552  3.4629
 3657SOL     OW11869   1.458   4.109   6.265 -0.6121 -0.1806 -0.1520
 3657SOL    HW111870   1.433   4.206   6.276 -2.9196 -0.8440  1.2226
 3657SOL    HW211871   1.494   4.094   6.172 -2.7131  1.5398 -1.3435
 3658SOL     OW11872   4.399   5.358   6.697  0.0808 -0.1379 -0.3073
 3658SOL    HW111873   4.414   5.442   6.750 -2.6025 -0.4914  1.1979
 3658SOL    HW211874   4.477   5.297   6.708  1.0778  1.1998  0.4334
 3659SOL     OW11875   5.373   2.611   2.309  0.7750 -0.6586  0.0014
 3659SOL    HW111876   5.471   2.594   2.322  0.9921  1.5615  1.9881
 3659SOL    HW211877   5.326   2.598   2.396 -0.0962  1.6165 -0.0633
 3660SOL     OW11878   1.419   5.935   5.272  0.4560  0.4722  0.1074
 3660SOL    HW111879   1.367   5.938   5.187 -1.9427  0.9565  1.4941
 3660SOL    HW211880   1.463   6.024   5.287 -0.9732  1.1489  0.4310
 3661SOL     OW11881   0.646   6.501   0.845  0.4114 -0.5523 -0.0793
 3661SOL    HW111882   0.612   6.591   0.818 -0.5844 -0.3598  1.6615
 3661SOL    HW211883   0.568   6.441   0.864  0.9874 -0.5337  2.6975
 3662SOL     OW11884   0.411   4.704   5.927  0.3475  0.3050 -0.1839
 3662SOL    HW111885   0.398   4.607   5.949  1.2810 -0.5017 -2.7368
 3662SOL    HW211886   0.330   4.756   5.952 -1.0951 -1.5633 -0.7719
 3663SOL     OW11887   1.154   3.153   6.915 -0.2768  0.7839 -0.0270
 3663SOL    HW111888   1.060   3.185   6.900 -0.4965  0.5439  0.7408
 3663SOL    HW211889   1.169   3.142   7.014  0.7634  1.4160 -0.0997
 3664SOL     OW11890   0.357   3.474   4.942  0.5422  0.3871 -0.7471
 3664SOL    HW111891   0.417   3.536   4.891  2.5736 -0.2788  0.6756
 3664SOL    HW211892   0.339   3.513   5.032 -0.3940  0.1324 -0.8208
 3665SOL     OW11893   2.401   0.627   3.706 -0.3103  0.4478  0.5259
 3665SOL    HW111894   2.483   0.579   3.674 -1.9188 -1.5074 -0.9586
 3665SOL    HW211895   2.386   0.708   3.649 -0.2751 -0.0866 -0.2561
 3666SOL     OW11896   5.641   0.169   2.353  0.2702  0.4078 -0.2474
 3666SOL    HW111897   5.707   0.113   2.304 -0.2293 -0.1748 -0.2768
 3666SOL    HW211898   5.554   0.170   2.303  0.3225  1.3799 -0.3473
 3667SOL     OW11899   5.150   5.581   5.428  0.5162  0.0536 -0.4229
 3667SOL    HW111900   5.215   5.516   5.387  0.7801  0.6014 -0.8807
 3667SOL    HW211901   5.118   5.645   5.358 -1.4866 -0.9563 -0.5040
 3668SOL     OW11902   1.578   6.357   2.230  0.3389 -0.6467 -0.0422
 3668SOL    HW111903   1.491   6.315   2.207 -0.7717  1.8332 -0.7028
 3668SOL    HW211904   1.614   6.407   2.151  0.6197  1.1455  1.1483
 3669SOL     OW11905   6.020   1.680   4.915  0.2872  0.2314 -0.1280
 3669SOL    HW111906   5.990   1.638   5.001  1.0989 -2.2851 -1.0021
 3669SOL    HW211907   5.959   1.756   4.892 -0.4612  0.4044  2.2020
 3670SOL     OW11908   5.351   2.994   4.490 -0.3354 -0.4859  0.6100
 3670SOL    HW111909   5.442   2.994   4.447 -1.0814 -2.1907 -1.1120
 3670SOL    HW211910   5.341   2.912   4.546 -1.3501 -1.1714 -0.5275
 3671SOL     OW11911   3.434   6.077   0.818 -0.1321  0.4466  0.0825
 3671SOL    HW111912   3.436   6.171   0.782  0.6840  0.5983  0.5188
 3671SOL    HW211913   3.523   6.054   0.857 -0.4303 -0.3995  0.2773
 3672SOL     OW11914   3.633   6.371   3.599  0.2203  0.2534 -1.0371
 3672SOL    HW111915   3.557   6.330   3.649  0.2141  0.4429 -0.8897
 3672SOL    HW211916   3.622   6.352   3.501  0.5724 -0.6637 -0.9105
 3673SOL     OW11917   1.403   0.482   0.243  0.5523 -0.2001 -0.6731
 3673SOL    HW111918   1.323   0.426   0.223 -0.1861  0.7673 -0.4994
 3673SOL    HW211919   1.484   0.438   0.206 -0.0563 -1.1889 -0.8719
 3674SOL     OW11920   5.111   2.977   0.783 -0.6434  0.0477 -0.0270
 3674SOL    HW111921   5.050   2.902   0.759 -1.9986  1.0977  0.0287
 3674SOL    HW211922   5.073   3.063   0.749  0.8271  0.7336 -0.0113
 3675SOL     OW11923   0.221   3.179   5.715 -0.1439  0.0593 -0.0971
 3675SOL    HW111924   0.164   3.118   5.660 -1.3173  1.7375 -0.8371
 3675SOL    HW211925   0.209   3.157   5.812 -0.7030 -0.7425 -0.3352
 3676SOL     OW11926   0.939   4.625   2.539  0.2685  0.0270  0.1380
 3676SOL    HW111927   0.908   4.684   2.464 -0.3168 -1.1848 -0.6140
 3676SOL    HW211928   0.979   4.542   2.501 -0.0729 -0.6336  1.1812
 3677SOL     OW11929   0.002   6.694   0.237  0.3901  0.1214  0.2864
 3677SOL    HW111930   0.005   6.646   0.324 -0.0423 -0.0268  0.2207
 3677SOL    HW211931  -0.035   6.786   0.249 -0.0164 -0.0309  0.1995
 3678SOL     OW11932   6.077   1.248   0.984  0.1155  0.3215 -0.2177
 3678SOL    HW111933   6.066   1.151   1.005 -3.4367  0.5747 -0.3470
 3678SOL    HW211934   6.155   1.260   0.923  0.3926 -2.5033 -0.5531
 3679SOL     OW11935   1.819   4.731   5.326  0.9051 -0.1586 -0.1992
 3679SOL    HW111936   1.774   4.741   5.415 -1.7974 -1.0214 -1.3469
 3679SOL    HW211937   1.917   4.747   5.336  0.5516  0.7967  2.7098
 3680SOL     OW11938   0.196   6.371   5.408  0.1730 -0.0343 -0.1101
 3680SOL    HW111939   0.171   6.439   5.339 -0.0983 -1.4322 -1.4616
 3680SOL    HW211940   0.296   6.362   5.412  0.3035  1.6745  1.3653
 3681SOL     OW11941   1.120   0.804   6.178 -0.7251  0.0848 -0.7131
 3681SOL    HW111942   1.191   0.742   6.144  0.5517  1.4706 -0.7226
 3681SOL    HW211943   1.130   0.814   6.277 -1.7408 -0.6874 -0.5212
 3682SOL     OW11944   2.522   6.515   6.740  0.4772 -0.2811 -0.2727
 3682SOL    HW111945   2.622   6.519   6.735  0.6048  0.1747  1.7109
 3682SOL    HW211946   2.483   6.556   6.658  1.9028 -0.6686 -1.1855
 3683SOL     OW11947   4.737   4.224   4.303  0.0025 -0.2220  1.2830
 3683SOL    HW111948   4.771   4.308   4.346  0.2157 -0.8378  2.3374
 3683SOL    HW211949   4.772   4.145   4.353 -0.7972 -0.9300  0.7344
 3684SOL     OW11950   4.918   1.422   4.947  0.0571 -0.2305  0.0192
 3684SOL    HW111951   4.941   1.324   4.946 -1.7107 -0.6896  0.3850
 3684SOL    HW211952   4.841   1.437   5.008 -0.1862  1.2880 -0.6277
 3685SOL     OW11953   0.565   0.257   6.844  0.1203 -0.2220 -0.3931
 3685SOL    HW111954   0.530   0.336   6.894 -0.9716 -0.3202 -0.9612
 3685SOL    HW211955   0.567   0.177   6.904  1.0883  0.1810  0.1411
 3686SOL     OW11956   4.616   0.674   4.319 -0.5152 -0.3135 -0.0020
 3686SOL    HW111957   4.630   0.631   4.409 -0.2464 -0.9702 -0.3542
 3686SOL    HW211958   4.532   0.728   4.321 -0.4662 -0.2545  0.6735
 3687SOL     OW11959   4.225   5.733   5.654 -0.0392  0.1208  0.4941
 3687SOL    HW111960   4.176   5.811   5.691 -2.4854 -1.8853  1.8221
 3687SOL    HW211961   4.179   5.701   5.571  1.0137  0.1294 -0.1167
 3688SOL     OW11962   2.095   4.582   3.225  0.2084  0.4790  0.0493
 3688SOL    HW111963   2.062   4.508   3.166 -0.2936 -0.5450  1.5536
 3688SOL    HW211964   2.174   4.550   3.277  0.2573  1.1495  0.3870
 3689SOL     OW11965   0.995   2.821   3.727  0.1124 -0.4446  0.4921
 3689SOL    HW111966   1.001   2.831   3.628 -1.9287 -1.1710  0.2485
 3689SOL    HW211967   1.061   2.882   3.771 -1.0452  2.2137 -1.2208
 3690SOL     OW11968   5.898   1.065   4.295 -0.8834  0.4629  0.1782
 3690SOL    HW111969   5.971   1.133   4.279  0.1570 -0.1390  2.0606
 3690SOL    HW211970   5.926   0.977   4.256  0.0788 -0.1189  2.0774
 3691SOL     OW11971   0.160   4.730   6.418  0.3449  0.0846  0.4073
 3691SOL    HW111972   0.109   4.814   6.397 -0.8602 -0.3143  1.6010
 3691SOL    HW211973   0.181   4.683   6.333 -0.3163  0.8264 -0.1903
 3692SOL     OW11974   3.929   5.649   4.243 -0.0741 -0.1211  0.3350
 3692SOL    HW111975   3.930   5.657   4.143 -0.1601 -2.4840  0.0951
 3692SOL    HW211976   3.954   5.737   4.283 -0.2238  0.9391 -1.7508
 3693SOL     OW11977   1.691   4.325   6.422  0.2074  0.5263 -0.5422
 3693SOL    HW111978   1.608   4.362   6.381 -1.1024 -1.0595  0.5795
 3693SOL    HW211979   1.722   4.245   6.370  1.2826  1.3107 -1.1652
 3694SOL     OW11980   6.727   0.181   6.962  0.5089 -0.4207  0.1770
 3694SOL    HW111981   6.643   0.196   6.910  1.5308  2.3937 -0.8230
 3694SOL    HW211982   6.798   0.146   6.901  1.1753  1.0937  0.0485
 3695SOL     OW11983   5.100   1.926   4.401 -0.1140 -0.2108  0.1922
 3695SOL    HW111984   5.171   1.961   4.463  0.9605  0.6356 -1.4557
 3695SOL    HW211985   5.011   1.960   4.431  0.2465 -0.6217  1.8256
 3696SOL     OW11986   5.936   0.553   4.447 -0.0523 -0.1265 -0.3697
 3696SOL    HW111987   6.030   0.535   4.419 -0.0240  0.0307 -0.3780
 3696SOL    HW211988   5.935   0.598   4.536 -0.0862  0.4967 -0.6758
 3697SOL     OW11989   0.205   3.128   3.217 -0.0068  0.3234  0.2146
 3697SOL    HW111990   0.167   3.147   3.126 -0.6872  1.9015  0.7877
 3697SOL    HW211991   0.133   3.089   3.275  0.6223 -1.3999 -0.1015
 3698SOL     OW11992   1.143   6.744   4.962 -0.3388 -0.0602  0.4874
 3698SOL    HW111993   1.216   6.677   4.969 -0.6828 -0.5841 -0.6644
 3698SOL    HW211994   1.064   6.714   5.016  0.4213  0.7236  2.0905
 3699SOL     OW11995   4.532   6.501   4.497  0.1320 -0.7591 -0.3158
 3699SOL    HW111996   4.458   6.435   4.512 -1.2910  0.6163 -1.0086
 3699SOL    HW211997   4.494   6.586   4.461  1.5833  1.2487  2.4597
 3700SOL     OW11998   4.336   5.561   4.399  0.0818 -0.4443  0.2855
 3700SOL    HW111999   4.295   5.585   4.311  3.6837  0.5894 -1.2739
 3700SOL    HW212000   4.334   5.641   4.460  2.1296  0.5467 -0.8384
 3701SOL     OW12001   5.958   4.961   0.288 -0.7103  0.0341  0.8588
 3701SOL    HW112002   6.032   4.978   0.353 -0.1694 -0.9767  0.5282
 3701SOL    HW212003   5.991   4.903   0.214 -1.1752  1.5502 -0.6095
 3702SOL     OW12004   4.644   2.710   0.105 -0.4791  0.0111 -0.0620
 3702SOL    HW112005   4.719   2.654   0.137  0.5468  1.4820  0.2245
 3702SOL    HW212006   4.679   2.799   0.075 -2.0876  0.7093  0.0002
 3703SOL     OW12007   1.880   1.313   2.594 -0.0836  0.4390  0.5061
 3703SOL    HW112008   1.841   1.228   2.627  0.8743 -0.4869 -0.6454
 3703SOL    HW212009   1.841   1.390   2.645 -2.9844 -0.4336 -0.1829
 3704SOL     OW12010   1.524   3.098   0.117  0.2831 -0.1648  0.6521
 3704SOL    HW112011   1.509   3.061   0.025  0.6528  2.4447 -0.5390
 3704SOL    HW212012   1.611   3.065   0.152  0.1240 -1.2177  0.1121
 3705SOL     OW12013   5.587   0.884   0.911 -0.2151  0.2831 -0.0438
 3705SOL    HW112014   5.542   0.819   0.972  0.5006 -0.3396 -0.1570
 3705SOL    HW212015   5.520   0.923   0.849 -0.3240 -2.3609 -1.7651
 3706SOL     OW12016   6.844   3.054   3.107  0.0975  0.6501 -0.4801
 3706SOL    HW112017   6.929   3.005   3.124 -0.1842  0.2805 -0.1031
 3706SOL    HW212018   6.772   2.989   3.083 -0.3305  0.8458  0.2173
 3707SOL     OW12019   2.507   1.983   0.751 -0.0073  0.5275  0.1463
 3707SOL    HW112020   2.606   1.977   0.735  0.1909 -1.2861  1.7139
 3707SOL    HW212021   2.478   1.908   0.809 -2.2247  1.4385  0.3179
 3708SOL     OW12022   1.474   5.724   2.681 -0.1606 -0.3924 -0.1282
 3708SOL    HW112023   1.484   5.823   2.678 -3.8168  0.0952 -1.8492
 3708SOL    HW212024   1.385   5.701   2.722 -0.2007 -2.8380 -1.4128
 3709SOL     OW12025   6.840   3.451   4.924  0.1646 -0.7752 -0.6108
 3709SOL    HW112026   6.937   3.428   4.930  0.3953  0.2513 -0.2342
 3709SOL    HW212027   6.828   3.533   4.869 -0.4872 -0.8883 -0.6467
 3710SOL     OW12028   5.509   0.320   4.219  0.0001 -0.4786 -0.0832
 3710SOL    HW112029   5.556   0.233   4.204 -3.1324 -2.2223 -0.7156
 3710SOL    HW212030   5.423   0.321   4.168 -0.4031  2.7681  0.4266
 3711SOL     OW12031   6.353   5.528   1.396  0.0454 -0.1649  0.5797
 3711SOL    HW112032   6.362   5.468   1.475  0.8239 -2.5882 -1.2257
 3711SOL    HW212033   6.338   5.473   1.314 -0.9066  2.2497 -0.9765
 3712SOL     OW12034   4.903   3.872   4.172  0.2479 -0.2022  0.0138
 3712SOL    HW112035   4.860   3.912   4.252 -0.7192 -1.1383 -0.0169
 3712SOL    HW212036   5.002   3.870   4.185  0.0828 -0.6655  1.3552
 3713SOL     OW12037   0.956   2.335   5.677 -0.1097  0.5565 -0.6362
 3713SOL    HW112038   0.865   2.351   5.639 -0.4697  0.3781  0.1356
 3713SOL    HW212039   0.972   2.398   5.753  0.6125  0.9270 -1.0751
 3714SOL     OW12040   2.283   5.392   3.622  0.0134 -0.0568  0.0545
 3714SOL    HW112041   2.365   5.372   3.675  1.7835 -0.0116 -2.4560
 3714SOL    HW212042   2.206   5.409   3.683  2.3192  2.0143  2.6175
 3715SOL     OW12043   5.215   6.099   0.976  0.2620 -0.3849 -0.3933
 3715SOL    HW112044   5.300   6.079   1.024  0.6895 -0.2608 -1.0784
 3715SOL    HW212045   5.204   6.034   0.901 -0.1431 -0.2709 -0.4306
 3716SOL     OW12046   3.336   0.334   2.791 -0.3330  0.7001 -0.7372
 3716SOL    HW112047   3.298   0.425   2.778 -1.4305  0.6568  1.5885
 3716SOL    HW212048   3.274   0.266   2.750 -0.7275  0.8823 -0.4541
 3717SOL     OW12049   5.346   5.365   3.466  0.3595 -0.1237  0.0491
 3717SOL    HW112050   5.428   5.328   3.511  0.1460 -2.1055 -1.0783
 3717SOL    HW212051   5.272   5.371   3.533  0.4108 -1.8196  0.3258
 3718SOL     OW12052   4.079   4.674   6.666 -0.1668 -0.9218 -0.7672
 3718SOL    HW112053   4.113   4.717   6.750  1.0029  0.8316 -2.0639
 3718SOL    HW212054   4.144   4.605   6.635  0.3347 -0.2812 -1.1786
 3719SOL     OW12055   3.954   0.967   0.509  0.0851 -0.4165 -0.4210
 3719SOL    HW112056   4.001   0.889   0.552 -0.5286  0.0904  1.2347
 3719SOL    HW212057   3.954   1.044   0.572 -2.4064 -0.1962 -0.6193
 3720SOL     OW12058   2.887   6.308   5.236 -0.0891 -0.3200 -0.4891
 3720SOL    HW112059   2.857   6.323   5.142 -0.5643 -0.9808 -0.4541
 3720SOL    HW212060   2.893   6.210   5.254  1.1190 -0.1984 -0.1719
 3721SOL     OW12061   0.772   2.835   0.359  0.0576 -0.1469  0.1218
 3721SOL    HW112062   0.856   2.808   0.406 -0.7986 -2.7774  0.3098
 3721SOL    HW212063   0.794   2.865   0.266  1.3077  0.5628  0.6233
 3722SOL     OW12064   2.166   1.762   6.506  0.3717  0.0475  0.1570
 3722SOL    HW112065   2.194   1.687   6.566  2.4605  0.3068 -0.3871
 3722SOL    HW212066   2.068   1.778   6.515  0.2482 -1.3590  1.8274
 3723SOL     OW12067   3.765   5.346   6.721 -0.0216 -0.5709 -0.2783
 3723SOL    HW112068   3.737   5.280   6.790 -0.9367 -0.2179 -0.2993
 3723SOL    HW212069   3.684   5.382   6.675  0.5679 -0.8532 -1.5865
 3724SOL     OW12070   1.138   6.264   5.103 -0.2701  0.1503  0.1048
 3724SOL    HW112071   1.187   6.301   5.024  0.8055  1.4091  1.3053
 3724SOL    HW212072   1.086   6.337   5.147  0.1340 -0.2408  1.2695
 3725SOL     OW12073   3.120   5.500   1.278 -0.3548  0.3698  0.6369
 3725SOL    HW112074   3.131   5.426   1.212 -1.3377  0.7450  0.0402
 3725SOL    HW212075   3.044   5.559   1.251 -0.6456  0.6563  1.9891
 3726SOL     OW12076   6.509   3.709   4.473 -0.0964 -0.6602 -0.0617
 3726SOL    HW112077   6.447   3.726   4.396 -0.4844 -1.7461 -0.0068
 3726SOL    HW212078   6.456   3.675   4.551  0.6209 -2.3158 -0.2491
 3727SOL     OW12079   1.980   6.213   2.256 -0.2777  0.4185  0.4489
 3727SOL    HW112080   2.073   6.248   2.248  0.4200 -1.3809  0.2440
 3727SOL    HW212081   1.958   6.201   2.353 -0.1741  0.5144  0.4848
 3728SOL     OW12082   1.919   4.177   2.580  0.0003 -0.7407  0.5112
 3728SOL    HW112083   2.018   4.168   2.571  0.0932  1.1133 -0.9666
 3728SOL    HW212084   1.898   4.263   2.628 -0.8895 -0.7727  0.2014
 3729SOL     OW12085   5.614   3.249   1.057 -0.0505  0.4389 -0.2876
 3729SOL    HW112086   5.673   3.324   1.026  1.0013 -0.4871 -0.6210
 3729SOL    HW212087   5.664   3.193   1.123 -0.4732 -0.5023 -0.7494
 3730SOL     OW12088   6.377   2.149   0.009 -0.7719  0.2914  0.4382
 3730SOL    HW112089   6.347   2.133  -0.085  0.3587 -0.1008  0.1241
 3730SOL    HW212090   6.430   2.234   0.013 -0.3232  0.0073  0.5996
 3731SOL     OW12091   1.451   6.559   5.687 -0.1269 -0.6548  0.5378
 3731SOL    HW112092   1.415   6.599   5.603 -0.8178  0.6228  1.4071
 3731SOL    HW212093   1.376   6.537   5.749  0.3921 -1.1589  1.0040
 3732SOL     OW12094   3.645   0.431   0.778  0.2794 -0.7204  0.9420
 3732SOL    HW112095   3.664   0.393   0.688 -0.2449  3.1588 -1.0383
 3732SOL    HW212096   3.731   0.459   0.821  0.3636  0.1172  0.2568
 3733SOL     OW12097   5.411   5.346   6.505 -0.1460  0.2999  0.1368
 3733SOL    HW112098   5.372   5.285   6.436 -1.3010  0.0058  1.0273
 3733SOL    HW212099   5.502   5.377   6.475 -0.9103  0.7563 -1.8442
 3734SOL     OW12100   2.039   6.652   4.349  0.0279 -0.2768  0.0204
 3734SOL    HW112101   2.071   6.707   4.426  0.6215 -0.8467  0.1889
 3734SOL    HW212102   2.109   6.653   4.277 -1.0058  1.2126 -1.0271
 3735SOL     OW12103   2.080   1.504   5.878 -0.0579  0.0528 -0.1461
 3735SOL    HW112104   2.149   1.537   5.814  1.3067 -1.4019  0.5040
 3735SOL    HW212105   2.120   1.493   5.969 -1.2715 -0.4007  0.3644
 3736SOL     OW12106   1.386   3.495   5.990 -0.0027  0.5942  0.2736
 3736SOL    HW112107   1.305   3.478   5.934 -1.6816  0.4712  2.5746
 3736SOL    HW212108   1.436   3.410   6.003 -1.6337 -0.1785  1.8650
 3737SOL     OW12109   0.366   6.124   0.067 -0.7927 -0.1058  0.1895
 3737SOL    HW112110   0.435   6.112   0.138 -0.0203  1.0529 -0.3319
 3737SOL    HW212111   0.325   6.036   0.045  0.8642 -0.9177  0.1905
 3738SOL     OW12112   1.179   5.225   2.228 -0.2682 -0.1304  0.3302
 3738SOL    HW112113   1.209   5.303   2.174 -0.2230 -0.7092 -0.4976
 3738SOL    HW212114   1.255   5.160   2.238 -0.8010 -0.9104 -0.5331
 3739SOL     OW12115   2.790   6.495   3.120  0.8663 -0.1979 -0.1040
 3739SOL    HW112116   2.774   6.451   3.031  0.5344  0.2975 -0.2932
 3739SOL    HW212117   2.759   6.590   3.116  1.2884 -0.0382  0.4017
 3740SOL     OW12118   2.195   0.672   4.575 -0.2040  0.4305 -0.3623
 3740SOL    HW112119   2.283   0.641   4.538 -0.0941  0.7707 -0.3852
 3740SOL    HW212120   2.138   0.706   4.501 -1.2884 -1.9850 -0.7147
 3741SOL     OW12121   3.562   3.937   6.668  0.8652 -0.3277 -0.0184
 3741SOL    HW112122   3.648   3.986   6.655 -0.1999  1.3881 -0.8503
 3741SOL    HW212123   3.515   3.973   6.749  1.8339 -2.7060  1.7341
 3742SOL     OW12124   6.130   3.551   6.933  0.1984 -0.0677 -0.2225
 3742SOL    HW112125   6.080   3.484   6.877 -1.4452  1.4600 -0.6938
 3742SOL    HW212126   6.126   3.523   7.029 -1.3012 -0.1841 -0.2958
 3743SOL     OW12127   4.856   4.005   5.300  0.4315  0.5820  0.1313
 3743SOL    HW112128   4.946   4.023   5.341  0.3110 -0.9918  1.1892
 3743SOL    HW212129   4.868   3.961   5.211  0.8459 -2.4243  1.5301
 3744SOL     OW12130   4.327   4.593   3.689 -0.1849  0.3434  0.1217
 3744SOL    HW112131   4.360   4.500   3.671 -1.1268  0.0405 -0.1196
 3744SOL    HW212132   4.343   4.650   3.608  1.2835  0.6726  0.6143
 3745SOL     OW12133   3.578   2.085   4.386  0.3028 -0.0644  0.2346
 3745SOL    HW112134   3.639   2.127   4.319  0.4932 -2.3703 -1.1376
 3745SOL    HW212135   3.626   2.074   4.473  1.2059 -0.1678 -0.2727
 3746SOL     OW12136   3.159   0.633   6.724  0.7407 -0.1217  0.3781
 3746SOL    HW112137   3.228   0.565   6.699 -0.8110 -1.7400  0.3239
 3746SOL    HW212138   3.068   0.594   6.712 -0.1963  1.7998  0.8985
 3747SOL     OW12139   4.335   3.412   0.723  0.2864  0.0933  0.7015
 3747SOL    HW112140   4.350   3.327   0.773 -0.8194 -0.0258  0.8594
 3747SOL    HW212141   4.347   3.396   0.625  0.5693 -0.1158  0.7685
 3748SOL     OW12142   1.831   3.813   6.274  0.1970 -0.8282 -0.0446
 3748SOL    HW112143   1.762   3.769   6.216  1.5422 -0.2555 -2.2288
 3748SOL    HW212144   1.796   3.900   6.307  0.0828 -0.1309 -1.8448
 3749SOL     OW12145   3.003   3.977   4.251 -0.1603  0.0656  0.9516
 3749SOL    HW112146   3.075   4.028   4.203 -0.8556  0.4532  0.3122
 3749SOL    HW212147   3.007   4.000   4.349  0.5409  0.1296  0.9146
 3750SOL     OW12148   2.257   4.522   5.353 -0.0433 -0.1728  0.7012
 3750SOL    HW112149   2.303   4.484   5.272 -2.7162 -1.4465 -0.3394
 3750SOL    HW212150   2.311   4.501   5.435  1.6435 -0.7764 -0.5041
 3751SOL     OW12151   4.564   3.367   5.485 -0.4879 -0.7164 -0.4627
 3751SOL    HW112152   4.610   3.357   5.397  1.1873 -1.8046  0.4944
 3751SOL    HW212153   4.563   3.463   5.511 -0.1670 -0.4937 -1.2333
 3752SOL     OW12154   0.208   0.121   0.124  0.1759 -0.0317 -0.4683
 3752SOL    HW112155   0.204   0.131   0.025 -1.2929  0.8844 -0.3381
 3752SOL    HW212156   0.262   0.195   0.163 -1.5888  1.2656 -0.3889
 3753SOL     OW12157   1.779   5.881   2.411 -0.4122  0.0296 -0.2504
 3753SOL    HW112158   1.760   5.954   2.345 -1.4926 -0.7496 -0.8244
 3753SOL    HW212159   1.791   5.794   2.363  0.3987 -0.2638  0.4629
 3754SOL     OW12160   1.104   3.240   1.296 -0.4952  0.4951 -0.2154
 3754SOL    HW112161   1.041   3.249   1.219  0.8154 -0.0685 -1.3865
 3754SOL    HW212162   1.079   3.161   1.351 -1.7499  1.1974  0.2739
 3755SOL     OW12163   5.769   3.471   1.014 -0.0245  0.1048  0.4418
 3755SOL    HW112164   5.711   3.530   1.070  0.1944  1.2305 -0.4708
 3755SOL    HW212165   5.744   3.481   0.918 -0.7392 -2.1859  0.3247
 3756SOL     OW12166   1.179   6.159   1.714  0.2334 -0.2699  0.0919
 3756SOL    HW112167   1.197   6.134   1.619  0.7493 -1.6719  0.5414
 3756SOL    HW212168   1.234   6.239   1.738  2.6341 -1.8438  0.1340
 3757SOL     OW12169   4.086   0.187   0.905 -0.1798 -0.0013  0.2452
 3757SOL    HW112170   4.181   0.194   0.934 -0.2855  1.2052  0.3547
 3757SOL    HW212171   4.029   0.161   0.983 -0.0741  0.2558  0.4055
 3758SOL     OW12172   5.897   4.787   6.886 -0.2881 -0.1535 -0.5545
 3758SOL    HW112173   5.865   4.703   6.840  1.3591 -1.2360  0.1945
 3758SOL    HW212174   5.935   4.763   6.975 -1.4591  1.6602  0.4934
 3759SOL     OW12175   4.625   5.781   2.686  0.4785  0.8862 -0.4409
 3759SOL    HW112176   4.619   5.856   2.752  0.2009 -0.1470  0.7263
 3759SOL    HW212177   4.637   5.694   2.733 -2.2330 -0.2253 -1.5222
 3760SOL     OW12178   5.007   2.345   4.125 -0.4566  0.5548  0.4948
 3760SOL    HW112179   5.013   2.247   4.144 -2.1448  0.6952  1.9479
 3760SOL    HW212180   5.006   2.359   4.026 -1.3859 -1.0124  0.2435
 3761SOL     OW12181   3.974   4.864   3.962  0.0885 -0.0067  0.3452
 3761SOL    HW112182   4.015   4.864   3.871 -1.4566 -0.3968 -0.3861
 3761SOL    HW212183   3.882   4.903   3.957 -0.0583 -0.1195  1.7385
 3762SOL     OW12184   5.766   6.772   3.648  0.3727 -0.1355  0.5282
 3762SOL    HW112185   5.683   6.744   3.600 -2.9194  0.2016  5.3186
 3762SOL    HW212186   5.821   6.692   3.670  0.6981 -0.5224 -1.5030
 3763SOL     OW12187   3.633   4.748   1.188 -0.0217  0.3437 -0.4258
 3763SOL    HW112188   3.646   4.813   1.113 -0.0110  0.0433 -0.6880
 3763SOL    HW212189   3.720   4.704   1.209 -0.4583 -1.3443 -1.8843
 3764SOL     OW12190   1.975   2.107   6.024  0.3152 -0.2141  0.5453
 3764SOL    HW112191   1.951   2.096   6.121 -0.1510  0.1986  0.4769
 3764SOL    HW212192   2.037   2.185   6.014 -1.0221  0.8677  0.3108
 3765SOL     OW12193   2.109   1.098   6.965  0.0400 -0.1460 -0.5899
 3765SOL    HW112194   2.086   1.178   7.021  0.8973 -0.5854  0.4296
 3765SOL    HW212195   2.103   1.122   6.868  0.7313  1.2825 -0.3027
 3766SOL     OW12196   2.290   5.469   1.680  0.2349 -0.1262 -0.2436
 3766SOL    HW112197   2.383   5.504   1.671 -0.2528  1.2742 -0.0236
 3766SOL    HW212198   2.256   5.488   1.772 -1.2567  1.9262 -1.1714
 3767SOL     OW12199   1.704   4.823   5.043  0.4439  0.0865  0.1372
 3767SOL    HW112200   1.799   4.821   5.074 -0.4319  1.1976  3.2877
 3767SOL    HW212201   1.648   4.762   5.101 -0.9209  0.1354 -1.0650
 3768SOL     OW12202   1.269   3.477   4.786 -0.0865  0.0552  0.1373
 3768SOL    HW112203   1.299   3.567   4.756 -1.4203 -0.3287 -2.5798
 3768SOL    HW212204   1.346   3.413   4.782  0.3019  0.5420 -0.2300
 3769SOL     OW12205   3.194   5.515   5.963  0.0631  0.4912  0.1960
 3769SOL    HW112206   3.286   5.515   6.001 -0.2616  1.1176  1.0279
 3769SOL    HW212207   3.187   5.584   5.891  0.4388 -0.0751 -0.3918
 3770SOL     OW12208   2.018   1.289   0.368  0.1511 -0.0635 -0.3386
 3770SOL    HW112209   1.997   1.215   0.305  1.5425  0.1795 -1.1178
 3770SOL    HW212210   2.110   1.324   0.350 -0.2232  1.4218  0.4393
 3771SOL     OW12211   2.003   4.961   1.007  0.5813 -0.2883 -0.8215
 3771SOL    HW112212   1.987   4.902   1.086  0.3800 -0.8617 -1.2750
 3771SOL    HW212213   1.928   4.949   0.942 -0.3160  1.7105 -0.2113
 3772SOL     OW12214   2.223   0.863   1.467 -0.6260  0.5606 -0.3534
 3772SOL    HW112215   2.277   0.791   1.510 -2.2632  0.0357  0.9210
 3772SOL    HW212216   2.270   0.951   1.479  0.4611 -0.0073 -0.2563
 3773SOL     OW12217   3.556   3.257   3.957 -0.4359  0.5554 -0.0521
 3773SOL    HW112218   3.568   3.162   3.929 -0.9842  0.9078 -1.6223
 3773SOL    HW212219   3.462   3.270   3.989 -0.9800  0.9338 -1.6613
 3774SOL     OW12220   4.883   6.735   2.527 -0.7927 -0.2424 -0.3017
 3774SOL    HW112221   4.809   6.781   2.575  0.3398  0.8916  0.4177
 3774SOL    HW212222   4.852   6.707   2.436 -1.6567  1.6138 -0.6074
 3775SOL     OW12223   4.228   0.894   3.482 -0.1969 -0.4629  0.3259
 3775SOL    HW112224   4.251   0.947   3.563  1.3937  0.5993 -0.7508
 3775SOL    HW212225   4.150   0.936   3.436  0.3024  0.2671  0.1269
 3776SOL     OW12226   5.955   5.335   4.856 -0.0252  0.3649 -0.4025
 3776SOL    HW112227   6.018   5.260   4.836  1.3284  1.4834 -0.4870
 3776SOL    HW212228   5.964   5.361   4.952  0.1558  0.9735 -0.5793
 3777SOL     OW12229   1.913   1.216   1.168 -0.0112  0.0188 -0.4256
 3777SOL    HW112230   1.859   1.269   1.234  0.2825 -0.1905 -0.0107
 3777SOL    HW212231   1.984   1.274   1.130 -0.7324  0.3971 -1.2357
 3778SOL     OW12232   2.863   3.273   2.782  0.4181  0.0479 -0.3396
 3778SOL    HW112233   2.789   3.262   2.848 -0.6177  0.0473 -1.4566
 3778SOL    HW212234   2.951   3.269   2.829 -0.3040  1.4385  1.2155
 3779SOL     OW12235   5.168   6.105   4.447 -0.3699 -0.1928 -0.2093
 3779SOL    HW112236   5.237   6.080   4.514 -0.5844 -0.0452  0.0677
 3779SOL    HW212237   5.198   6.187   4.398 -1.1967  0.9993  1.2176
 3780SOL     OW12238   1.323   1.154   2.981 -0.1584 -0.0343 -0.2442
 3780SOL    HW112239   1.409   1.127   3.023 -0.6898 -0.2080  0.7505
 3780SOL    HW212240   1.247   1.106   3.026 -0.8791  1.0486 -0.2746
 3781SOL     OW12241   5.074   6.329   2.820  0.0282 -0.5425  0.7219
 3781SOL    HW112242   4.996   6.369   2.771 -0.1842  0.0633  1.5254
 3781SOL    HW212243   5.054   6.234   2.843 -0.8749 -0.1479  1.6953
 3782SOL     OW12244   5.145   1.896   6.569 -0.3518  0.4159 -0.4055
 3782SOL    HW112245   5.050   1.865   6.567 -0.3069  0.1516  0.7880
 3782SOL    HW212246   5.151   1.983   6.619  0.2125 -0.3041  0.8134
 3783SOL     OW12247   6.846   4.096   2.867  0.0402  0.2792  0.5884
 3783SOL    HW112248   6.899   4.177   2.839  2.2355 -0.2020  3.0053
 3783SOL    HW212249   6.894   4.013   2.839  0.0409 -0.1721  1.8665
 3784SOL     OW12250   6.407   2.966   0.021 -0.5718 -0.2441  0.1592
 3784SOL    HW112251   6.315   2.984   0.056 -1.3422  0.8622 -2.1884
 3784SOL    HW212252   6.470   3.034   0.058 -1.6362  1.7783 -1.4644
 3785SOL     OW12253   6.656   4.424   6.038 -0.3155 -0.7135  0.1413
 3785SOL    HW112254   6.667   4.501   5.976 -0.8971  0.0523  0.9573
 3785SOL    HW212255   6.718   4.350   6.011  0.7116  0.2702 -0.2898
 3786SOL     OW12256   3.740   2.089   3.507  0.5662 -0.4754 -0.6046
 3786SOL    HW112257   3.682   2.072   3.427 -0.6023 -0.6248  0.2362
 3786SOL    HW212258   3.682   2.094   3.589  1.7160 -0.1771  0.2119
 3787SOL     OW12259   6.088   3.066   2.537 -0.1277 -0.0701  0.0318
 3787SOL    HW112260   6.077   2.967   2.539  0.5828 -0.1479  0.3895
 3787SOL    HW212261   6.089   3.098   2.442  0.2086 -0.4737 -0.1036
 3788SOL     OW12262   4.494   5.530   5.277  0.0519  0.2379 -0.2822
 3788SOL    HW112263   4.434   5.450   5.267 -0.9499  1.1437 -1.7260
 3788SOL    HW212264   4.458   5.589   5.350  0.6075 -0.4341  0.5582
 3789SOL     OW12265   0.210   2.251   0.482 -0.1814  0.5257  0.1025
 3789SOL    HW112266   0.252   2.161   0.466 -2.4280 -0.3571 -1.2425
 3789SOL    HW212267   0.240   2.286   0.571 -0.0390 -2.0141  1.1318
 3790SOL     OW12268   6.587   1.097   1.371  0.5982  0.0193  0.0391
 3790SOL    HW112269   6.674   1.135   1.402  0.0975  1.5658 -0.3430
 3790SOL    HW212270   6.516   1.115   1.440  0.4202 -0.5502  0.0076
 3791SOL     OW12271   0.008   1.888   2.374  0.1843 -0.2866 -0.3708
 3791SOL    HW112272   0.046   1.980   2.371 -1.1213  0.4484  2.1224
 3791SOL    HW212273   0.065   1.826   2.320 -0.2174  2.3289 -4.1663
 3792SOL     OW12274   2.483   5.644   1.602 -0.0938 -0.3488 -0.4754
 3792SOL    HW112275   2.421   5.670   1.527  2.0712  0.3185 -2.1423
 3792SOL    HW212276   2.520   5.726   1.645 -0.3331 -0.7404  0.5144
 3793SOL     OW12277   6.808   6.684   3.735  0.7489  0.1664 -0.1343
 3793SOL    HW112278   6.860   6.721   3.658  0.7351  0.8794  0.1859
 3793SOL    HW212279   6.834   6.589   3.751  1.2742  0.2354 -0.5697
 3794SOL     OW12280   0.506   3.308   2.273  0.1692 -0.2156 -0.2091
 3794SOL    HW112281   0.480   3.248   2.198 -0.5035 -1.3046  0.8623
 3794SOL    HW212282   0.605   3.319   2.274  0.1055  0.9702 -2.0866
 3795SOL     OW12283   1.641   6.640   5.436 -0.0611 -0.3866 -0.4105
 3795SOL    HW112284   1.718   6.688   5.478  0.3838 -0.8623 -0.6637
 3795SOL    HW212285   1.556   6.686   5.460  0.1870 -0.5670  0.9140
 3796SOL     OW12286   0.460   4.399   6.296  0.1127  0.1510 -0.1534
 3796SOL    HW112287   0.557   4.379   6.281  0.5409 -1.9608  4.1535
 3796SOL    HW212288   0.440   4.398   6.393 -4.1649  1.4031 -0.8188
 3797SOL     OW12289   2.944   3.009   5.860  0.5665  0.6087  0.0610
 3797SOL    HW112290   2.973   2.991   5.954 -1.6906  0.2543  0.7419
 3797SOL    HW212291   2.922   2.922   5.815  1.0709  0.8242 -0.6222
 3798SOL     OW12292   5.276   0.697   0.508  0.1458  0.0256  0.3831
 3798SOL    HW112293   5.298   0.794   0.500 -0.5834  0.4455  2.7701
 3798SOL    HW212294   5.345   0.650   0.563  0.7400 -0.9730 -1.1160
 3799SOL     OW12295   6.838   4.325   6.564  0.0889  1.1028  0.0263
 3799SOL    HW112296   6.936   4.317   6.546  0.3311  0.6670  1.3934
 3799SOL    HW212297   6.809   4.419   6.552  0.7005  1.2466 -0.3164
 3800SOL     OW12298   3.007   2.149   6.043 -0.7854 -0.1438 -0.5292
 3800SOL    HW112299   2.986   2.228   5.985  1.0002 -0.1161 -1.2086
 3800SOL    HW212300   3.009   2.177   6.139  3.4542  1.6772 -0.9201
 3801SOL     OW12301   1.805   6.437   5.479 -0.4062 -0.3806 -0.8009
 3801SOL    HW112302   1.743   6.516   5.476  0.8139  0.7315  1.1507
 3801SOL    HW212303   1.874   6.452   5.550  0.7944 -2.5519 -1.4381
 3802SOL     OW12304   4.739   0.119   4.238 -0.0460 -0.3288  0.0123
 3802SOL    HW112305   4.763   0.057   4.163  0.1996 -0.0273 -0.1634
 3802SOL    HW212306   4.801   0.198   4.236 -1.0286  0.4401 -0.4133
 3803SOL     OW12307   5.464   1.053   1.255 -0.5057 -0.0167 -0.5098
 3803SOL    HW112308   5.447   1.081   1.161 -1.0282 -0.7694 -0.6495
 3803SOL    HW212309   5.479   1.134   1.312  1.5812  0.3807 -1.5391
 3804SOL     OW12310   4.876   4.720   2.738 -0.0736  0.0997 -0.1829
 3804SOL    HW112311   4.847   4.815   2.747  0.1624  0.2889 -1.2874
 3804SOL    HW212312   4.799   4.663   2.712  0.1220  0.2672 -1.1402
 3805SOL     OW12313   5.456   1.970   1.069  0.1402 -0.0805  0.1426
 3805SOL    HW112314   5.458   2.068   1.049  1.2839 -0.2652 -0.6843
 3805SOL    HW212315   5.517   1.921   1.007  1.1959 -1.0731  1.8803
 3806SOL     OW12316   1.930   3.865   1.619  0.5168  0.1517 -0.5126
 3806SOL    HW112317   1.869   3.824   1.686  0.5160  2.2038  0.8290
 3806SOL    HW212318   2.024   3.837   1.638  0.3992 -0.0990 -0.2951
 3807SOL     OW12319   6.217   0.122   2.397  0.0082  0.1139 -0.1502
 3807SOL    HW112320   6.216   0.037   2.450  0.3336 -0.1795 -0.6088
 3807SOL    HW212321   6.263   0.107   2.310 -1.7682  0.2273 -1.1501
 3808SOL     OW12322   5.675   6.057   4.438  0.1847 -0.0565 -0.2594
 3808SOL    HW112323   5.722   6.144   4.427  3.2583 -1.4336  0.7675
 3808SOL    HW212324   5.638   6.051   4.531 -0.1264  0.1787 -0.3660
 3809SOL     OW12325   6.093   5.393   0.696 -0.2739  0.0923 -0.1607
 3809SOL    HW112326   6.031   5.318   0.714  0.4735 -0.4488  0.2429
 3809SOL    HW212327   6.041   5.477   0.678 -1.1049 -0.4071 -0.1050
 3810SOL     OW12328   2.333   5.886   3.686  0.5060 -0.3868  0.0792
 3810SOL    HW112329   2.432   5.878   3.692  0.3496 -2.5732  0.7153
 3810SOL    HW212330   2.290   5.814   3.741 -1.4314  0.1297 -0.6563
 3811SOL     OW12331   5.781   5.207   4.608 -0.0875 -0.3337  0.1281
 3811SOL    HW112332   5.851   5.271   4.641  1.3153 -0.9431 -1.4920
 3811SOL    HW212333   5.787   5.122   4.661  1.0310 -0.7038 -0.5576
 3812SOL     OW12334   4.325   5.214   6.402  0.2482  0.3563  0.0871
 3812SOL    HW112335   4.315   5.136   6.464  1.3203 -1.1536 -1.5622
 3812SOL    HW212336   4.322   5.182   6.308  0.9157  2.3136 -0.6383
 3813SOL     OW12337   5.211   6.865   1.787  0.0937 -0.1604 -0.0598
 3813SOL    HW112338   5.229   6.962   1.772  1.8819 -0.3171  0.7150
 3813SOL    HW212339   5.134   6.854   1.850  0.5768  0.8042  0.7180
 3814SOL     OW12340   3.535   5.046   1.808 -0.2049 -0.0149  0.1600
 3814SOL    HW112341   3.544   5.142   1.784  1.5482 -0.4643 -1.2209
 3814SOL    HW212342   3.442   5.015   1.790 -0.5749  1.2310 -0.1240
 3815SOL     OW12343   3.675   1.690   3.618 -0.3383  0.5168 -0.0388
 3815SOL    HW112344   3.667   1.591   3.604 -0.6679  0.4830  0.3708
 3815SOL    HW212345   3.648   1.738   3.534  0.1112  0.2555 -0.3394
 3816SOL     OW12346   3.462   0.608   0.019 -0.1397  0.1749 -0.1749
 3816SOL    HW112347   3.476   0.657  -0.067 -0.3231  0.5244 -0.0124
 3816SOL    HW212348   3.452   0.675   0.094 -0.6542 -0.1009  0.0107
 3817SOL     OW12349   1.205   2.183   0.322 -0.2695 -0.0974 -0.2943
 3817SOL    HW112350   1.143   2.215   0.250 -3.0384 -0.9566  1.5409
 3817SOL    HW212351   1.192   2.238   0.404  0.6953 -0.9533  0.4505
 3818SOL     OW12352   3.339   4.019   4.413 -0.1254  0.4766  0.1510
 3818SOL    HW112353   3.335   4.055   4.320  1.6498  2.8259  0.9203
 3818SOL    HW212354   3.371   3.924   4.410  1.8962  1.1418 -1.5445
 3819SOL     OW12355   5.336   0.213   5.297  0.5555 -0.0524 -0.3144
 3819SOL    HW112356   5.383   0.207   5.385  0.9057 -0.2469 -0.5079
 3819SOL    HW212357   5.341   0.307   5.263  2.1531 -0.3639 -1.0399
 3820SOL     OW12358   4.752   4.709   0.833 -0.1151  0.3223 -0.1630
 3820SOL    HW112359   4.779   4.705   0.930  0.6529 -0.0764 -0.3842
 3820SOL    HW212360   4.683   4.639   0.815 -1.5244  1.4829  0.4566
 3821SOL     OW12361   2.562   0.243   2.487  0.5677 -0.4501 -0.0294
 3821SOL    HW112362   2.536   0.316   2.424  1.5468  0.3545  0.4517
 3821SOL    HW212363   2.480   0.201   2.526 -0.0217 -0.0482 -0.8098
 3822SOL     OW12364   3.712   5.144   5.708 -0.8808 -0.8411  0.7647
 3822SOL    HW112365   3.616   5.147   5.738 -0.8638 -0.6836  0.8042
 3822SOL    HW212366   3.719   5.086   5.627 -0.6640 -2.6242  2.0134
 3823SOL     OW12367   4.377   4.528   0.594  0.0173 -0.4198 -0.0753
 3823SOL    HW112368   4.373   4.575   0.506  0.5152 -0.3940 -0.0862
 3823SOL    HW212369   4.370   4.430   0.580 -0.6910 -0.3758 -0.0787
 3824SOL     OW12370   0.355   2.640   5.975 -0.6630 -0.3573 -0.3741
 3824SOL    HW112371   0.306   2.611   6.057 -0.5459 -0.9626 -0.5132
 3824SOL    HW212372   0.290   2.671   5.906 -0.7177  1.2485  0.3373
 3825SOL     OW12373   5.167   6.232   2.017 -0.3321  0.6563  0.0695
 3825SOL    HW112374   5.266   6.216   2.017 -0.4829 -0.4528 -1.0555
 3825SOL    HW212375   5.140   6.272   2.104  0.9543 -0.0470  0.8263
 3826SOL     OW12376   2.284   2.140   1.165 -0.4792 -0.0769  0.2473
 3826SOL    HW112377   2.201   2.173   1.211 -2.3979 -1.0643 -2.2802
 3826SOL    HW212378   2.265   2.052   1.122  1.0418  0.8546 -2.5894
 3827SOL     OW12379   2.074   0.133   1.610 -0.1070  0.0501  0.2735
 3827SOL    HW112380   1.983   0.127   1.569  0.1421  0.6441 -0.3813
 3827SOL    HW212381   2.085   0.223   1.653  0.2906  0.1173  0.0388
 3828SOL     OW12382   4.075   4.001   6.803 -0.1649 -0.4023  0.3350
 3828SOL    HW112383   4.108   4.013   6.897 -0.5446  2.5814  0.1933
 3828SOL    HW212384   4.137   4.047   6.740 -1.5032  0.3316 -0.5066
 3829SOL     OW12385   6.177   3.661   0.440  0.8039 -0.5410 -0.0853
 3829SOL    HW112386   6.238   3.736   0.416 -1.6474  1.9579  0.9412
 3829SOL    HW212387   6.186   3.640   0.537 -0.1172  0.0248  0.1306
 3830SOL     OW12388   2.956   6.773   0.319 -0.0135  0.5432 -0.3447
 3830SOL    HW112389   3.029   6.755   0.253  0.5144 -1.6220  0.7242
 3830SOL    HW212390   2.875   6.808   0.271  1.3329  1.9661 -1.6865
 3831SOL     OW12391   4.411   1.163   6.759 -0.5684 -0.2675  0.3747
 3831SOL    HW112392   4.313   1.186   6.757 -0.9032 -1.6055 -0.8905
 3831SOL    HW212393   4.442   1.159   6.854 -1.3903  1.4888  0.7583
 3832SOL     OW12394   2.558   4.611   6.643  0.3191 -0.0689 -0.1119
 3832SOL    HW112395   2.609   4.533   6.606  1.5371  1.8739 -2.9040
 3832SOL    HW212396   2.544   4.679   6.571 -2.3291  1.5318  1.7274
 3833SOL     OW12397   2.093   4.238   0.735 -0.3162 -0.5365 -0.4024
 3833SOL    HW112398   2.181   4.286   0.737 -1.6469  2.0955  1.5576
 3833SOL    HW212399   2.047   4.258   0.648  0.0022  0.1583 -0.4218
 3834SOL     OW12400   1.541   3.055   4.430 -0.0989  0.0615  0.3866
 3834SOL    HW112401   1.586   3.016   4.510 -0.4611 -0.0968  0.5129
 3834SOL    HW212402   1.544   3.155   4.436 -0.4879  0.0478  0.7986
 3835SOL     OW12403   3.998   1.678   4.512  0.1794 -0.2328 -0.3973
 3835SOL    HW112404   4.077   1.630   4.550  0.7341 -0.6826 -2.0050
 3835SOL    HW212405   3.978   1.642   4.421 -1.4449  0.3791 -0.3124
 3836SOL     OW12406   4.940   5.975   6.033 -0.6287  0.5272  0.2984
 3836SOL    HW112407   4.912   5.903   5.970  0.1112  0.4834  0.0115
 3836SOL    HW212408   4.859   6.017   6.073 -1.0753 -0.1977  0.1736
 3837SOL     OW12409   4.853   4.887   3.907  0.0801 -0.2188 -0.3828
 3837SOL    HW112410   4.890   4.799   3.937 -0.3048  0.2179  1.5486
 3837SOL    HW212411   4.869   4.955   3.978 -3.5693  0.2032  0.2295
 3838SOL     OW12412   0.422   2.991   2.545 -0.2116  0.1817 -0.1196
 3838SOL    HW112413   0.348   2.925   2.535  0.3676 -0.2323 -2.2711
 3838SOL    HW212414   0.492   2.953   2.606 -0.5039 -0.6160 -0.2680
 3839SOL     OW12415   0.996   5.785   5.074 -0.7287 -0.4080 -0.2025
 3839SOL    HW112416   1.047   5.701   5.091 -2.5850 -1.3913  0.7467
 3839SOL    HW212417   0.910   5.783   5.125 -0.0949  2.7997  1.2250
 3840SOL     OW12418   1.290   5.401   2.038  0.0979  0.3498 -0.1251
 3840SOL    HW112419   1.363   5.409   1.969 -0.4750  1.7255 -0.5935
 3840SOL    HW212420   1.265   5.491   2.071 -0.3919 -0.2213  1.1310
 3841SOL     OW12421   0.591   0.484   4.368 -0.2463  0.6664 -0.1030
 3841SOL    HW112422   0.632   0.548   4.303  1.9126 -1.0758 -0.5562
 3841SOL    HW212423   0.632   0.394   4.357  0.7010  0.3742  4.0432
 3842SOL     OW12424   3.885   2.462   1.688  0.0783  0.4029 -0.0080
 3842SOL    HW112425   3.812   2.415   1.738 -0.0321  1.4642  0.8869
 3842SOL    HW212426   3.858   2.557   1.672  0.8715  0.5505 -0.5093
 3843SOL     OW12427   0.446   6.500   5.226  0.1807  0.4505  0.0274
 3843SOL    HW112428   0.476   6.459   5.313  2.2878 -1.2786 -1.4081
 3843SOL    HW212429   0.460   6.599   5.229 -0.2646  0.4902  1.8165
 3844SOL     OW12430   0.586   3.629   2.519 -0.2577 -0.1537  0.3101
 3844SOL    HW112431   0.529   3.666   2.446  0.3174 -0.3363 -0.2494
 3844SOL    HW212432   0.666   3.689   2.532 -0.0001 -0.4943  0.3063
 3845SOL     OW12433   1.247   3.279   4.575 -0.5901  0.1400  0.4096
 3845SOL    HW112434   1.190   3.267   4.494 -0.8386 -0.8905  0.7092
 3845SOL    HW212435   1.332   3.325   4.551 -0.4510 -0.5805 -0.5362
 3846SOL     OW12436   5.960   1.065   4.938 -0.5941  0.5187  0.2505
 3846SOL    HW112437   5.940   0.985   4.882 -1.0738  0.5359  0.3914
 3846SOL    HW212438   5.895   1.069   5.014 -0.4309  0.9178  0.3698
 3847SOL     OW12439   6.927   3.986   1.924 -0.3684  0.3220 -0.1305
 3847SOL    HW112440   6.867   4.020   1.996 -0.2475  0.2792 -0.0060
 3847SOL    HW212441   6.896   3.895   1.895 -0.4342  0.3512 -0.1501
 3848SOL     OW12442   3.658   6.102   4.417 -0.0573  0.5834 -0.0612
 3848SOL    HW112443   3.634   6.009   4.387 -0.5937  0.9741 -0.8840
 3848SOL    HW212444   3.576   6.157   4.423  0.3051  1.1161  0.0562
 3849SOL     OW12445   6.147   2.412   5.856 -0.3143  0.0025  0.1213
 3849SOL    HW112446   6.113   2.498   5.817 -0.0104  0.1116  0.1000
 3849SOL    HW212447   6.096   2.335   5.816 -1.4674  0.2408  1.0568
 3850SOL     OW12448   2.531   5.689   6.160  0.3604 -0.9610 -0.5175
 3850SOL    HW112449   2.452   5.737   6.123  0.6770 -0.1238 -0.1297
 3850SOL    HW212450   2.611   5.707   6.103  0.7204 -0.1327  0.2167
 3851SOL     OW12451   3.424   4.166   3.900 -0.1886  0.4082 -0.0192
 3851SOL    HW112452   3.457   4.087   3.849 -0.7239  0.1824 -0.0267
 3851SOL    HW212453   3.437   4.249   3.846  1.9586  0.5877  0.6621
 3852SOL     OW12454   1.652   4.494   6.926  0.3631 -0.3925 -0.0461
 3852SOL    HW112455   1.642   4.396   6.946  1.9141 -0.4969  0.3596
 3852SOL    HW212456   1.663   4.507   6.827 -0.2157 -0.5789 -0.1403
 3853SOL     OW12457   0.368   1.359   0.647  0.2874 -0.1928  0.0854
 3853SOL    HW112458   0.461   1.375   0.680  0.5984  2.0144 -1.6743
 3853SOL    HW212459   0.332   1.275   0.689  1.5904  0.9057  3.8146
 3854SOL     OW12460   6.457   4.831   1.664 -0.1353  0.4115  0.0837
 3854SOL    HW112461   6.395   4.899   1.704  0.5046  1.1240 -0.0980
 3854SOL    HW212462   6.478   4.858   1.569  0.2528  0.0459  0.0652
 3855SOL     OW12463   4.857   3.611   5.826 -0.2685  0.0248 -0.3167
 3855SOL    HW112464   4.904   3.661   5.899 -1.4495 -2.6770  2.5023
 3855SOL    HW212465   4.766   3.650   5.814 -0.3455  0.0353  0.2335
 3856SOL     OW12466   6.192   3.859   1.913 -0.0896  0.1471 -0.2921
 3856SOL    HW112467   6.251   3.788   1.876  0.9842  1.2944 -0.8844
 3856SOL    HW212468   6.099   3.847   1.878  0.5152  0.1781 -1.9913
 3857SOL     OW12469   3.920   5.700   0.100  0.7972  0.4613  0.8901
 3857SOL    HW112470   3.973   5.737   0.024  0.8036 -0.8009  0.2537
 3857SOL    HW212471   3.859   5.771   0.136  0.3145  0.9156 -0.7277
 3858SOL     OW12472   3.112   0.950   6.783  0.2420  0.5117 -0.1569
 3858SOL    HW112473   3.013   0.955   6.774  0.3798  0.5937 -2.2621
 3858SOL    HW212474   3.143   0.858   6.761  0.5572  0.0363  2.0487
 3859SOL     OW12475   3.118   2.588   1.443 -0.1797 -0.2709  0.1116
 3859SOL    HW112476   3.106   2.619   1.537 -0.6756 -1.3721  0.4284
 3859SOL    HW212477   3.209   2.547   1.433  0.9858  2.2772 -0.6271
 3860SOL     OW12478   3.357   3.422   4.326  0.0266 -0.0588  0.2088
 3860SOL    HW112479   3.447   3.411   4.368 -0.0424  1.4272  0.8245
 3860SOL    HW212480   3.360   3.500   4.262 -1.0048  0.5158  0.8317
 3861SOL     OW12481   3.195   4.842   6.683  0.0492 -0.5677 -0.3467
 3861SOL    HW112482   3.134   4.901   6.736  0.4911 -1.9239  1.7800
 3861SOL    HW212483   3.267   4.807   6.742  0.6273 -2.1021 -1.8780
 3862SOL     OW12484   6.310   1.390   0.612  0.2823 -0.4417  0.9261
 3862SOL    HW112485   6.236   1.402   0.545  1.0634 -2.2137 -0.3154
 3862SOL    HW212486   6.360   1.476   0.621 -1.7652  0.7485  1.6503
 3863SOL     OW12487   6.330   6.575   2.783 -0.0256 -0.4505 -0.4399
 3863SOL    HW112488   6.302   6.558   2.878  0.9813 -1.3738 -0.2891
 3863SOL    HW212489   6.261   6.630   2.737 -0.3174  0.4011  0.9625
 3864SOL     OW12490   3.266   6.233   1.097 -0.2608 -0.1627  0.2462
 3864SOL    HW112491   3.242   6.326   1.071 -3.2859 -0.3917  1.8267
 3864SOL    HW212492   3.326   6.193   1.027 -1.0992  2.0310 -1.8536
 3865SOL     OW12493   5.361   2.828   3.683 -0.1064  0.8456 -0.5070
 3865SOL    HW112494   5.278   2.884   3.689 -0.0277  0.9485 -0.3940
 3865SOL    HW212495   5.436   2.874   3.730  0.7868  2.1401 -3.0445
 3866SOL     OW12496   5.353   4.846   1.357  0.6169 -0.1590 -0.2670
 3866SOL    HW112497   5.297   4.788   1.297 -1.7310  0.7385  0.9369
 3866SOL    HW212498   5.394   4.920   1.302  0.6784 -0.8577 -1.1901
 3867SOL     OW12499   2.883   2.518   6.454  0.3533  0.3663 -0.2566
 3867SOL    HW112500   2.797   2.478   6.485 -0.2647 -0.5068 -2.9037
 3867SOL    HW212501   2.883   2.525   6.355  2.9820  1.2559 -0.2678
 3868SOL     OW12502   2.197   3.612   1.099  0.0917  0.4222 -0.2121
 3868SOL    HW112503   2.155   3.645   1.184  0.9279  2.2317 -0.4431
 3868SOL    HW212504   2.170   3.517   1.083 -1.5580  0.6091  1.1208
 3869SOL     OW12505   1.716   2.781   1.831 -0.3788  0.4888 -0.2086
 3869SOL    HW112506   1.660   2.785   1.749  0.8985  0.1346 -1.1267
 3869SOL    HW212507   1.804   2.739   1.809 -0.6937 -1.3597  1.7365
 3870SOL     OW12508   4.947   3.837   6.350 -0.6018 -0.2610  0.9504
 3870SOL    HW112509   4.989   3.749   6.328  0.1005  0.3174 -0.1253
 3870SOL    HW212510   4.910   3.878   6.267 -0.4552  0.6928  1.3404
 3871SOL     OW12511   5.983   5.304   6.040 -0.1148  0.6604 -0.0322
 3871SOL    HW112512   5.918   5.310   6.115 -0.5013  2.4910 -0.4505
 3871SOL    HW212513   6.064   5.359   6.061 -0.2188  1.1845 -0.9248
 3872SOL     OW12514   0.377   1.166   1.664  0.3163 -0.1419 -0.1502
 3872SOL    HW112515   0.352   1.078   1.705  0.3826 -0.8246 -1.5296
 3872SOL    HW212516   0.417   1.225   1.735 -0.2216 -1.0095  0.9141
 3873SOL     OW12517   4.408   6.953   5.556  0.4277  0.2835 -0.1948
 3873SOL    HW112518   4.347   6.913   5.488 -1.5499  2.1155  0.3926
 3873SOL    HW212519   4.445   6.881   5.614 -2.0666 -0.8766  0.1019
 3874SOL     OW12520   3.563   3.396   5.060 -0.1224 -0.1001  0.5357
 3874SOL    HW112521   3.568   3.493   5.082  1.1181 -0.0252 -0.0074
 3874SOL    HW212522   3.655   3.357   5.058 -0.5722 -1.2052  0.3536
 3875SOL     OW12523   0.023   1.962   1.630  0.7061 -0.0247 -0.4442
 3875SOL    HW112524  -0.069   1.954   1.669  0.6507 -3.5680 -0.9681
 3875SOL    HW212525   0.017   2.002   1.539 -0.4695 -0.8842 -0.7732
 3876SOL     OW12526   2.788   3.479   6.417 -0.0782  0.4167 -0.0818
 3876SOL    HW112527   2.758   3.491   6.323  0.0645  0.2052 -0.1540
 3876SOL    HW212528   2.788   3.568   6.464  3.1373  1.1578 -1.2480
 3877SOL     OW12529   5.429   0.764   2.198  0.0995 -0.7067 -0.3914
 3877SOL    HW112530   5.454   0.763   2.295 -0.9408 -0.1933 -0.1134
 3877SOL    HW212531   5.512   0.770   2.143  0.7753 -1.9193  0.4264
 3878SOL     OW12532   2.238   1.983   3.362 -0.5338 -0.1457  0.8716
 3878SOL    HW112533   2.279   1.969   3.452 -0.3431  0.3579  0.8724
 3878SOL    HW212534   2.194   2.073   3.359 -1.1159 -0.4372  0.6729
 3879SOL     OW12535   5.523   6.151   1.408  0.2498  0.3237  0.8902
 3879SOL    HW112536   5.532   6.198   1.320  1.5916 -2.4288 -0.5903
 3879SOL    HW212537   5.603   6.172   1.465 -0.3943  1.7470  1.3076
 3880SOL     OW12538   2.435   4.678   1.336  0.0629  0.0983  0.5244
 3880SOL    HW112539   2.520   4.700   1.288 -0.0110 -0.8494 -0.0633
 3880SOL    HW212540   2.376   4.759   1.337  0.9942  0.7948  1.0138
 3881SOL     OW12541   0.411   0.534   0.446 -0.2957  0.1247  0.1138
 3881SOL    HW112542   0.479   0.490   0.504 -1.4048 -0.5366  0.9491
 3881SOL    HW212543   0.340   0.575   0.503 -0.5784  0.8593 -0.7402
 3882SOL     OW12544   1.551   5.906   1.364  0.4991 -0.0609  0.0948
 3882SOL    HW112545   1.531   5.835   1.297 -2.1994  0.3610  0.3390
 3882SOL    HW212546   1.561   5.866   1.455  1.9216 -0.3892 -0.1828
 3883SOL     OW12547   2.597   5.312   3.293  0.2043  0.1370 -0.0720
 3883SOL    HW112548   2.636   5.230   3.251  0.7010 -0.3603  1.2759
 3883SOL    HW212549   2.576   5.380   3.223  3.1192  0.2632 -0.9700
 3884SOL     OW12550   0.465   1.011   1.461 -0.0005  0.3529 -0.0253
 3884SOL    HW112551   0.379   1.016   1.412 -1.9470  0.4932  3.1090
 3884SOL    HW212552   0.472   1.087   1.525  0.9661 -1.2718  1.9311
 3885SOL     OW12553   0.269   2.303   6.039 -0.0501 -0.5447 -0.2892
 3885SOL    HW112554   0.361   2.314   6.077 -0.0748  0.1655 -0.4114
 3885SOL    HW212555   0.218   2.388   6.052 -0.7619 -0.9999 -0.0420
 3886SOL     OW12556   1.188   3.046   6.273 -0.3638 -0.1040 -0.0102
 3886SOL    HW112557   1.248   3.025   6.350 -1.9123  0.7235  1.5152
 3886SOL    HW212558   1.152   2.960   6.235  1.3385 -0.5804 -0.6437
 3887SOL     OW12559   2.537   1.302   6.454 -0.1141  0.2773  0.3616
 3887SOL    HW112560   2.597   1.368   6.409 -1.2520 -0.2510 -2.1281
 3887SOL    HW212561   2.591   1.242   6.512  1.5830  0.6713 -0.7187
 3888SOL     OW12562   3.735   2.079   4.901  0.5140  0.1441 -0.3597
 3888SOL    HW112563   3.736   1.992   4.950  0.0521  0.2170 -0.2135
 3888SOL    HW212564   3.828   2.113   4.891  0.7099 -0.4579 -0.5809
 3889SOL     OW12565   4.752   5.846   1.236  0.1031  0.2208 -0.1453
 3889SOL    HW112566   4.728   5.892   1.321 -0.8101 -3.0077  1.5235
 3889SOL    HW212567   4.674   5.792   1.204  1.5513 -1.5454 -0.9221
 3890SOL     OW12568   6.168   4.377   1.649 -0.3333 -0.3831  0.5689
 3890SOL    HW112569   6.223   4.460   1.654 -1.4292  0.3347  1.0583
 3890SOL    HW212570   6.165   4.344   1.555  1.4178 -0.7885  0.6303
 3891SOL     OW12571   4.840   6.540   5.202  0.4209 -0.1154  0.1630
 3891SOL    HW112572   4.836   6.591   5.116  1.2496 -0.5560 -0.1458
 3891SOL    HW212573   4.833   6.442   5.183  0.4676 -0.2102  0.6138
 3892SOL     OW12574   5.878   6.285   3.608 -0.3404  0.0014  0.6628
 3892SOL    HW112575   5.849   6.195   3.641 -0.2809 -0.1268  0.3701
 3892SOL    HW212576   5.836   6.303   3.519  0.8823 -0.4260 -0.0347
 3893SOL     OW12577   2.552   2.843   6.231 -0.5811 -0.4257  0.2185
 3893SOL    HW112578   2.553   2.761   6.288 -3.6495 -0.2812  0.6382
 3893SOL    HW212579   2.625   2.905   6.261  0.8688 -2.3224  0.8316
 3894SOL     OW12580   2.394   4.640   0.072  0.1072  0.6062 -0.4270
 3894SOL    HW112581   2.300   4.605   0.063  0.6231 -1.9972  2.5479
 3894SOL    HW212582   2.440   4.634  -0.016 -1.8713 -0.0433 -1.4938
 3895SOL     OW12583   0.757   2.867   5.208  0.1542 -0.0472  0.0495
 3895SOL    HW112584   0.695   2.902   5.137 -0.5795  0.1244  0.7583
 3895SOL    HW212585   0.823   2.804   5.167 -0.6684 -0.4502 -0.6769
 3896SOL     OW12586   1.642   1.613   6.018  0.2615  0.5429 -0.3491
 3896SOL    HW112587   1.604   1.583   6.105 -0.7369 -0.0012 -0.9628
 3896SOL    HW212588   1.740   1.633   6.030  0.0802  0.7473  0.9482
 3897SOL     OW12589   3.572   0.968   4.005 -0.2145 -0.5884  1.0117
 3897SOL    HW112590   3.532   1.059   3.999 -0.7003 -0.8638 -0.0908
 3897SOL    HW212591   3.539   0.923   4.089 -1.8142 -0.6063  0.4112
 3898SOL     OW12592   2.911   5.712   5.212 -0.4906  0.3029  0.0936
 3898SOL    HW112593   2.884   5.763   5.131  0.7423  1.9722  0.6676
 3898SOL    HW212594   2.978   5.642   5.187  0.2367  1.1153 -0.2875
 3899SOL     OW12595   3.528   3.659   0.553 -0.5583  0.3525  0.0411
 3899SOL    HW112596   3.491   3.619   0.636  0.9222 -1.0115  0.0976
 3899SOL    HW212597   3.628   3.663   0.559 -0.5237  2.1828 -0.8396
 3900SOL     OW12598   3.524   0.109   5.933 -0.5003 -0.4686  0.4443
 3900SOL    HW112599   3.464   0.067   5.864 -1.1280 -0.2084  0.8302
 3900SOL    HW212600   3.534   0.047   6.011 -1.4993  0.1263  1.0542
 3901SOL     OW12601   1.481   0.495   6.514 -0.1255 -0.1809  0.1505
 3901SOL    HW112602   1.398   0.536   6.553  0.5781  1.9716 -0.5138
 3901SOL    HW212603   1.524   0.437   6.584 -0.0786  1.8242  1.8776
 3902SOL     OW12604   3.042   6.785   0.571  0.3603 -0.0551 -0.2830
 3902SOL    HW112605   3.115   6.852   0.556 -0.6678  0.7856 -1.7293
 3902SOL    HW212606   2.988   6.775   0.488 -0.7029 -1.2517  0.5199
 3903SOL     OW12607   1.187   3.340   0.337  0.6399 -0.1341 -0.8038
 3903SOL    HW112608   1.264   3.397   0.307  0.4871 -0.0647 -1.0560
 3903SOL    HW212609   1.186   3.255   0.285  0.8548 -0.3639 -0.4432
 3904SOL     OW12610   0.843   3.200   0.826 -0.0088  0.1551  0.0656
 3904SOL    HW112611   0.895   3.242   0.752 -0.8874 -0.0353 -0.6834
 3904SOL    HW212612   0.754   3.246   0.834  0.3586  0.6541  1.4969
 3905SOL     OW12613   6.458   6.952   6.852  0.6155  0.5529 -0.1692
 3905SOL    HW112614   6.542   7.003   6.869  0.2651  0.6589  1.3629
 3905SOL    HW212615   6.414   6.986   6.769  1.5995  1.1163 -0.4738
 3906SOL     OW12616   4.714   2.730   2.149  0.0517  0.0708 -0.0523
 3906SOL    HW112617   4.706   2.818   2.103 -0.9750  0.4758  0.8664
 3906SOL    HW212618   4.688   2.657   2.086 -2.3171  0.6847  0.1054
 3907SOL     OW12619   1.669   4.398   0.755 -0.2089  0.0129 -0.2707
 3907SOL    HW112620   1.737   4.377   0.826 -0.7022 -1.4798 -0.2078
 3907SOL    HW212621   1.712   4.454   0.684  0.7342  0.1665  0.3997
 3908SOL     OW12622   2.895   5.652   2.826  0.6250 -0.0267 -0.4377
 3908SOL    HW112623   2.900   5.752   2.830  0.5184 -0.0324 -0.1032
 3908SOL    HW212624   2.870   5.624   2.734  0.5664  0.2616 -0.5110
 3909SOL     OW12625   2.385   6.945   2.087 -0.1218  0.5088  0.7100
 3909SOL    HW112626   2.348   6.857   2.116  1.3412  0.3874  2.4352
 3909SOL    HW212627   2.339   7.019   2.136 -2.2430  0.8801 -1.6741
 3910SOL     OW12628   0.348   6.700   0.290  0.0239  0.1621  0.1245
 3910SOL    HW112629   0.332   6.638   0.214 -1.1234 -1.1212  1.3416
 3910SOL    HW212630   0.380   6.788   0.256  2.5116 -1.3114 -1.6314
 3911SOL     OW12631   6.358   1.964   5.501 -0.1655 -0.4703  0.2959
 3911SOL    HW112632   6.365   1.911   5.416 -0.9457  0.4984 -0.3877
 3911SOL    HW212633   6.390   1.908   5.577  1.6936 -0.9636 -0.7822
 3912SOL     OW12634   0.523   2.131   4.337 -0.1862 -0.2647  0.3696
 3912SOL    HW112635   0.584   2.107   4.261  0.4918  1.1465  0.4259
 3912SOL    HW212636   0.574   2.124   4.423  0.1695  1.6676  0.3518
 3913SOL     OW12637   5.072   1.525   2.022  0.2588  0.2734  0.1071
 3913SOL    HW112638   5.036   1.534   2.114  1.8300 -1.1865  0.9253
 3913SOL    HW212639   5.134   1.602   2.003 -1.1435  1.3355 -0.3005
 3914SOL     OW12640   5.130   2.385   3.547  0.2060 -0.0353  0.1910
 3914SOL    HW112641   5.086   2.470   3.575 -1.4145 -0.2477 -1.5558
 3914SOL    HW212642   5.193   2.402   3.471  0.1105 -0.3460  0.0384
 3915SOL     OW12643   2.441   0.150   3.660 -0.0084 -0.3969  0.2006
 3915SOL    HW112644   2.387   0.203   3.725 -1.4575 -1.5488 -0.0116
 3915SOL    HW212645   2.500   0.212   3.607 -1.1633  0.9223  0.3899
 3916SOL     OW12646   6.054   0.169   4.818  0.1119  0.2845  0.7034
 3916SOL    HW112647   6.094   0.127   4.899  1.0617  1.5316  0.9090
 3916SOL    HW212648   6.098   0.133   4.736  1.7884  1.6951  0.9301
 3917SOL     OW12649   2.741   6.067   5.361 -0.0442  0.0719  0.3403
 3917SOL    HW112650   2.786   5.981   5.385  0.5974 -0.1237 -1.4460
 3917SOL    HW212651   2.669   6.050   5.293 -1.2245  0.7124  1.3770
 3918SOL     OW12652   0.019   6.922   6.356 -0.2105 -0.2464 -0.9154
 3918SOL    HW112653   0.013   6.983   6.277  0.3675  1.2060  0.1360
 3918SOL    HW212654  -0.066   6.870   6.364 -1.7591  2.2140 -0.4180
 3919SOL     OW12655   2.451   4.820   0.800  0.5456 -0.2870 -0.0144
 3919SOL    HW112656   2.542   4.798   0.765  0.1333 -0.9872 -0.6675
 3919SOL    HW212657   2.437   4.774   0.887  1.8902  2.1084  1.6108
 3920SOL     OW12658   2.571   3.208   6.144  0.2296 -0.0534  0.1531
 3920SOL    HW112659   2.556   3.307   6.145  0.4913  0.0151  2.6262
 3920SOL    HW212660   2.483   3.161   6.140  0.0509  0.2734  0.1929
 3921SOL     OW12661   6.884   5.761   1.220  0.3123  0.1694 -0.7352
 3921SOL    HW112662   6.899   5.745   1.318 -0.0784 -0.0382 -0.7083
 3921SOL    HW212663   6.792   5.733   1.196  0.4790  0.0283 -1.2096
 3922SOL     OW12664   1.485   4.542   6.031  0.0983  0.4230  0.2015
 3922SOL    HW112665   1.419   4.549   5.956 -0.8214  0.3726  0.9856
 3922SOL    HW212666   1.559   4.607   6.016  0.2147  0.0280 -1.0278
 3923SOL     OW12667   5.626   3.838   4.522 -0.0869 -0.2944  0.5008
 3923SOL    HW112668   5.687   3.827   4.600 -0.7782  0.7133  1.2149
 3923SOL    HW212669   5.676   3.877   4.445  0.3426 -0.1979  0.8261
 3924SOL     OW12670   3.722   4.032   2.385 -0.5807  0.2735  0.2732
 3924SOL    HW112671   3.639   4.048   2.331 -0.3526 -0.0665 -0.1886
 3924SOL    HW212672   3.802   4.044   2.327 -0.3153  0.3303  0.6500
 3925SOL     OW12673   1.751   3.358   1.803 -0.0195 -0.4459 -0.0404
 3925SOL    HW112674   1.744   3.260   1.822 -0.0767 -0.5099 -0.3931
 3925SOL    HW212675   1.719   3.377   1.710  3.3482 -0.6058 -1.3787
 3926SOL     OW12676   6.279   5.694   4.130 -0.2840 -0.0750 -0.3391
 3926SOL    HW112677   6.225   5.762   4.080  0.3257  0.5767 -0.1471
 3926SOL    HW212678   6.333   5.640   4.065  0.7398  0.9745 -0.3930
 3927SOL     OW12679   1.366   1.735   5.989  0.6114 -0.2224  0.4563
 3927SOL    HW112680   1.458   1.702   5.967  0.8138  0.4941  0.1955
 3927SOL    HW212681   1.347   1.719   6.086  0.4607 -1.6570  0.2025
 3928SOL     OW12682   1.690   5.161   0.312  0.0518  0.0635  0.3118
 3928SOL    HW112683   1.657   5.102   0.386 -0.4809 -0.6153 -0.4433
 3928SOL    HW212684   1.756   5.227   0.348  1.0849 -1.3489  1.0966
 3929SOL     OW12685   5.029   3.238   6.001  0.5100 -0.2944 -0.5865
 3929SOL    HW112686   4.978   3.186   6.069 -0.4178  2.2763  0.7981
 3929SOL    HW212687   5.120   3.197   5.988 -0.4599 -2.6983 -0.2616
 3930SOL     OW12688   1.198   1.925   6.386 -0.0158  0.9799  0.5556
 3930SOL    HW112689   1.276   1.974   6.425  0.9323  0.4210 -0.5757
 3930SOL    HW212690   1.158   1.980   6.312  1.1129  0.0736 -0.7849
 3931SOL     OW12691   3.926   2.185   2.825  0.1414 -0.5635 -0.3362
 3931SOL    HW112692   3.898   2.189   2.922  0.1271 -0.2008 -0.3543
 3931SOL    HW212693   3.847   2.161   2.769  0.1464 -0.7610 -0.2617
 3932SOL     OW12694   0.130   2.366   2.247 -0.0223 -0.3880 -0.3922
 3932SOL    HW112695   0.188   2.435   2.289  1.9194 -1.3189 -1.4316
 3932SOL    HW212696   0.151   2.276   2.286 -1.9669 -0.5696  0.3862
 3933SOL     OW12697   0.151   6.973   6.032 -0.4357 -0.0918  0.1860
 3933SOL    HW112698   0.129   7.039   6.104  0.4849  0.5171 -0.0798
 3933SOL    HW212699   0.085   6.983   5.957 -0.3808  0.4385  0.2045
 3934SOL     OW12700   5.418   2.728   4.920  0.2429  0.2177  0.2763
 3934SOL    HW112701   5.401   2.630   4.907 -0.5538  0.3891  0.0031
 3934SOL    HW212702   5.407   2.750   5.017  0.8411 -0.0378  0.4077
 3935SOL     OW12703   4.208   5.983   0.684 -0.6871  0.4423  0.2356
 3935SOL    HW112704   4.193   5.886   0.665  1.0967  0.0146  0.8160
 3935SOL    HW212705   4.131   6.018   0.738 -1.4655 -0.5716 -0.1729
 3936SOL     OW12706   3.988   3.259   4.650  0.2026 -0.0574 -0.2064
 3936SOL    HW112707   4.059   3.306   4.598  0.7441 -0.1484  0.4339
 3936SOL    HW212708   4.014   3.256   4.746  0.8497 -2.8297 -0.3818
 3937SOL     OW12709   0.558   0.764   6.719 -0.3691  0.1634 -0.1630
 3937SOL    HW112710   0.588   0.711   6.798 -2.1242  1.2020  1.2591
 3937SOL    HW212711   0.600   0.727   6.636  1.7447 -0.7599  1.2640
 3938SOL     OW12712   0.654   2.736   5.443 -0.1820  0.1543 -0.5142
 3938SOL    HW112713   0.723   2.727   5.515 -1.6035  0.5756  0.9757
 3938SOL    HW212714   0.686   2.801   5.374  0.7573  0.6411  0.3511
 3939SOL     OW12715   1.809   4.102   5.385 -0.3786 -0.5135  0.0837
 3939SOL    HW112716   1.784   4.112   5.481 -0.3586 -1.4529  0.1882
 3939SOL    HW212717   1.874   4.175   5.360 -1.7402  0.8212  0.2941
 3940SOL     OW12718   6.268   6.928   1.634 -0.0866 -0.0585  0.4016
 3940SOL    HW112719   6.313   7.016   1.651 -0.0445 -0.1923  1.0193
 3940SOL    HW212720   6.169   6.938   1.645  0.0036 -0.3253  1.5811
 3941SOL     OW12721   2.790   1.069   1.576 -0.9620 -0.1952 -0.5414
 3941SOL    HW112722   2.779   1.136   1.503  1.1805 -0.6123 -1.3032
 3941SOL    HW212723   2.702   1.026   1.595 -1.9043  1.1465 -1.6507
 3942SOL     OW12724   6.939   0.830   6.851  0.0776  0.3208  0.2320
 3942SOL    HW112725   6.947   0.877   6.939 -2.7650  0.1411  0.6660
 3942SOL    HW212726   6.981   0.740   6.857  0.5906  0.6071  1.1462
 3943SOL     OW12727   3.019   5.535   0.470  0.6381  0.5722  0.2943
 3943SOL    HW112728   3.001   5.457   0.531  2.5227 -0.0137  0.1813
 3943SOL    HW212729   3.109   5.573   0.492  0.6417  1.3888 -1.0575
 3944SOL     OW12730   4.327   2.888   6.284 -0.1490 -0.3721 -0.2385
 3944SOL    HW112731   4.338   2.919   6.190  0.5219  1.4414  0.3900
 3944SOL    HW212732   4.382   2.805   6.299  0.3313 -0.2435 -1.2294
 3945SOL     OW12733   2.181   5.108   3.644  0.1012  0.8141 -0.0223
 3945SOL    HW112734   2.117   5.184   3.650 -0.4651  0.3079  0.4779
 3945SOL    HW212735   2.225   5.108   3.554 -0.3369  1.3754 -0.2359
 3946SOL     OW12736   5.096   4.544   6.924  0.6190 -0.1670 -0.1757
 3946SOL    HW112737   5.167   4.475   6.911  0.4269 -0.0129 -2.4149
 3946SOL    HW212738   5.075   4.552   7.021  4.7660  0.9068  0.8565
 3947SOL     OW12739   6.423   0.068   6.341 -0.1996  0.0906 -0.4700
 3947SOL    HW112740   6.325   0.084   6.344 -0.5112 -0.9471 -2.9286
 3947SOL    HW212741   6.441  -0.029   6.328  1.2072  0.1387  0.8551
 3948SOL     OW12742   6.674   1.552   2.488 -0.0559  0.5726  0.2329
 3948SOL    HW112743   6.685   1.479   2.555  0.5313  0.9296  0.5295
 3948SOL    HW212744   6.651   1.512   2.399  0.4410  0.0069  0.3489
 3949SOL     OW12745   5.038   5.405   0.938  0.4234 -0.2378 -0.2928
 3949SOL    HW112746   5.110   5.340   0.916 -0.5882 -1.2136 -0.8425
 3949SOL    HW212747   5.054   5.445   1.028  0.8014 -1.6198  0.2608
 3950SOL     OW12748   2.866   1.693   4.954 -0.4883  0.9614 -0.7172
 3950SOL    HW112749   2.836   1.620   4.894  1.1790  1.0296 -1.7148
 3950SOL    HW212750   2.947   1.737   4.915 -0.4439  2.2307  0.6910
 3951SOL     OW12751   6.218   0.816   3.193  0.2779 -0.6186 -0.6052
 3951SOL    HW112752   6.133   0.804   3.244  0.5473 -0.3716 -0.0906
 3951SOL    HW212753   6.236   0.735   3.138 -0.5306 -0.4841 -1.0815
 3952SOL     OW12754   0.889   0.805   2.113 -0.4732  0.1916  0.2471
 3952SOL    HW112755   0.840   0.728   2.154  0.0687 -0.1035  0.3409
 3952SOL    HW212756   0.971   0.772   2.066 -0.3944  0.6763  0.0355
 3953SOL     OW12757   0.122   6.428   1.536 -0.4022  0.8594  0.0610
 3953SOL    HW112758   0.191   6.423   1.607 -0.9398  3.2230  0.8350
 3953SOL    HW212759   0.166   6.435   1.446  0.3754  2.0183  0.5215
 3954SOL     OW12760   2.539   1.951   6.657  0.2038  0.4103 -0.1350
 3954SOL    HW112761   2.588   1.991   6.735  0.3284  0.9936 -0.5041
 3954SOL    HW212762   2.548   1.851   6.659  2.0202  0.5236 -0.5802
 3955SOL     OW12763   4.618   0.993   4.407 -0.2588  0.1932 -0.2037
 3955SOL    HW112764   4.669   0.907   4.411 -1.2354 -0.3576  1.5837
 3955SOL    HW212765   4.588   1.018   4.499 -1.0448  1.8196 -0.8643
 3956SOL     OW12766   3.107   5.240   5.755 -0.2394 -0.5308 -0.1312
 3956SOL    HW112767   3.042   5.308   5.789 -0.4929  0.2431 -2.0292
 3956SOL    HW212768   3.192   5.246   5.807 -0.0684  1.6356 -0.5574
 3957SOL     OW12769   6.275   3.508   2.510  0.1131 -0.9065  0.1383
 3957SOL    HW112770   6.298   3.603   2.490  1.4174 -1.4532 -1.1619
 3957SOL    HW212771   6.305   3.450   2.435 -0.1532 -2.4275  1.1546
 3958SOL     OW12772   3.081   3.870   3.161 -0.1281 -0.1108  0.1143
 3958SOL    HW112773   3.127   3.862   3.249  0.1597 -0.1844 -0.0429
 3958SOL    HW212774   3.026   3.954   3.160 -0.2403 -0.1787  0.4122
 3959SOL     OW12775   1.055   3.393   5.467  0.1950 -0.1485  0.5657
 3959SOL    HW112776   0.967   3.346   5.467 -0.4149  0.7984 -2.2380
 3959SOL    HW212777   1.041   3.490   5.488 -0.0354  0.7267 -3.0610
 3960SOL     OW12778   1.925   1.963   4.419  0.3665  0.1668 -0.1392
 3960SOL    HW112779   2.005   1.983   4.476  0.2776  0.4957 -0.1268
 3960SOL    HW212780   1.930   2.016   4.335 -0.6319  1.4143  0.5621
 3961SOL     OW12781   1.001   6.982   6.787 -0.4119 -0.0713 -0.1916
 3961SOL    HW112782   1.093   6.942   6.785  0.2197  1.2620  0.8338
 3961SOL    HW212783   1.002   7.072   6.744 -0.5255  1.2606  2.3991
 3962SOL     OW12784   1.853   6.303   4.226 -0.4586  0.3477 -0.0091
 3962SOL    HW112785   1.802   6.246   4.290  0.2928 -0.2508  0.0795
 3962SOL    HW212786   1.934   6.340   4.272 -0.4390  0.7155 -0.3370
 3963SOL     OW12787   1.013   4.931   2.740 -0.6043  0.5964 -0.1768
 3963SOL    HW112788   1.099   4.932   2.688 -0.6126  0.7250 -0.1886
 3963SOL    HW212789   0.937   4.953   2.678 -0.6838  0.1888 -0.2327
 3964SOL     OW12790   2.180   3.353   0.447  0.3152  0.1106  0.2721
 3964SOL    HW112791   2.183   3.257   0.475  1.7171  0.5144  1.5675
 3964SOL    HW212792   2.240   3.367   0.368  2.0090  0.3736  1.5775
 3965SOL     OW12793   4.312   0.489   0.925 -0.1541 -0.8769  0.0367
 3965SOL    HW112794   4.269   0.400   0.929 -1.0439 -0.4066  1.6460
 3965SOL    HW212795   4.256   0.556   0.973  0.5069  0.5606 -1.1078
 3966SOL     OW12796   5.514   1.310   4.879 -0.8153 -0.1184 -0.2568
 3966SOL    HW112797   5.425   1.352   4.858 -0.8831 -0.2710 -0.2830
 3966SOL    HW212798   5.521   1.292   4.977 -0.5631  0.4527 -0.1675
 3967SOL     OW12799   1.724   3.066   1.764 -0.3827 -0.3240  0.5732
 3967SOL    HW112800   1.669   2.991   1.727  0.8783 -1.4658  0.9585
 3967SOL    HW212801   1.805   3.079   1.707  1.2062 -1.6186  2.4374
 3968SOL     OW12802   0.829   2.677   0.645  0.1577 -0.0644 -0.4959
 3968SOL    HW112803   0.732   2.660   0.627  0.0684  0.9240 -0.9969
 3968SOL    HW212804   0.843   2.775   0.663  1.1541 -0.0927 -1.0498
 3969SOL     OW12805   5.633   1.362   3.040  0.2500 -0.2246  0.4407
 3969SOL    HW112806   5.541   1.380   3.003 -0.1861 -1.2175  1.0256
 3969SOL    HW212807   5.660   1.269   3.017  0.9305 -0.0850  0.6735
 3970SOL     OW12808   0.028   6.522   4.925  0.1211  0.2757 -0.2628
 3970SOL    HW112809   0.095   6.507   4.853 -0.2504 -0.6249 -0.4282
 3970SOL    HW212810  -0.063   6.529   4.885  0.1031  1.6773 -0.0596
 3971SOL     OW12811   2.670   6.719   5.685  0.5666 -0.1851 -0.2756
 3971SOL    HW112812   2.632   6.801   5.643 -0.8711 -0.8818 -0.3855
 3971SOL    HW212813   2.751   6.690   5.634 -0.4554 -0.3334 -1.8881
 3972SOL     OW12814   6.818   6.480   0.054 -0.4551 -0.1783  0.0320
 3972SOL    HW112815   6.766   6.495   0.138 -0.8098 -1.0067 -0.0226
 3972SOL    HW212816   6.907   6.440   0.077  0.1035  1.0975  0.1152
 3973SOL     OW12817   5.795   1.503   4.491 -0.0717 -0.0630 -0.4520
 3973SOL    HW112818   5.781   1.451   4.575  0.0067 -1.5828 -1.3360
 3973SOL    HW212819   5.718   1.487   4.428 -0.7626  2.0443 -0.2266
 3974SOL     OW12820   4.135   6.093   6.391  0.0422  0.7007  0.0125
 3974SOL    HW112821   4.180   6.173   6.431 -0.1054  0.6024  0.3828
 3974SOL    HW212822   4.043   6.117   6.362  0.3413  0.9148 -0.7938
 3975SOL     OW12823   4.443   3.212   0.926 -0.1976  0.1559  0.1676
 3975SOL    HW112824   4.423   3.125   0.971 -0.8190 -0.3870 -1.1117
 3975SOL    HW212825   4.528   3.203   0.874 -1.2209 -0.3107 -1.4888
 3976SOL     OW12826   2.461   6.019   4.925 -0.2470 -0.0538  0.3344
 3976SOL    HW112827   2.365   5.992   4.937 -0.8639  1.2990 -1.1798
 3976SOL    HW212828   2.467   6.093   4.858  1.5966  1.6671  2.2232
 3977SOL     OW12829   2.455   6.789   6.575  0.0024  0.2311  0.2944
 3977SOL    HW112830   2.449   6.847   6.656 -0.3646  0.2923  0.2251
 3977SOL    HW212831   2.369   6.741   6.562 -0.0627  0.4973 -0.2673
 3978SOL     OW12832   4.720   0.815   1.332 -0.1985 -0.5108  0.1215
 3978SOL    HW112833   4.645   0.876   1.306  1.5155  1.5434 -0.2211
 3978SOL    HW212834   4.722   0.805   1.431  0.0656  0.7910  0.2636
 3979SOL     OW12835   6.118   1.097   2.407 -0.7198 -0.1249 -0.4162
 3979SOL    HW112836   6.136   0.999   2.412  1.5184  0.2109 -0.8218
 3979SOL    HW212837   6.190   1.141   2.355 -1.7582  1.7424 -0.3475
 3980SOL     OW12838   2.908   5.151   1.308  0.0497  0.0129  0.6467
 3980SOL    HW112839   2.930   5.245   1.333 -0.4533 -0.2373  2.1080
 3980SOL    HW212840   2.839   5.115   1.370  1.7108 -1.9977  1.4485
 3981SOL     OW12841   2.708   4.206   6.291 -0.6061 -0.1102 -0.0136
 3981SOL    HW112842   2.781   4.268   6.320 -0.4783 -0.1786 -0.1892
 3981SOL    HW212843   2.623   4.231   6.338  0.2762 -2.2924  3.1016
 3982SOL     OW12844   3.439   5.127   3.953  0.3980 -0.1248  0.7622
 3982SOL    HW112845   3.453   5.068   4.033  0.0013 -1.1029  0.1323
 3982SOL    HW212846   3.401   5.072   3.878  0.4900  0.8395 -0.0022
 3983SOL     OW12847   3.163   4.025   2.402  0.0107 -0.1417 -0.1934
 3983SOL    HW112848   3.116   3.978   2.476 -0.4838 -0.5763 -0.7683
 3983SOL    HW212849   3.152   3.972   2.317  0.4161  0.4317 -0.6092
 3984SOL     OW12850   5.007   4.040   3.641  0.2146 -0.0944  0.0836
 3984SOL    HW112851   4.995   3.993   3.728 -0.2968 -0.3846 -0.1386
 3984SOL    HW212852   5.070   3.987   3.583 -0.6277 -0.7034 -0.2984
 3985SOL     OW12853   2.011   0.387   6.410  0.3364 -0.5937 -0.2597
 3985SOL    HW112854   2.103   0.380   6.372  0.2858  1.0220 -0.7667
 3985SOL    HW212855   1.945   0.399   6.336 -0.3881 -2.3799  0.0579
 3986SOL     OW12856   2.798   1.478   2.351  0.5702 -0.6416 -0.3086
 3986SOL    HW112857   2.811   1.549   2.282  1.3589 -0.3123  0.1597
 3986SOL    HW212858   2.773   1.392   2.306  0.8103 -0.3665 -0.9876
 3987SOL     OW12859   6.679   2.173   0.354 -0.0338  0.0152  0.1608
 3987SOL    HW112860   6.659   2.266   0.323  1.6855 -0.0409 -1.3267
 3987SOL    HW212861   6.595   2.120   0.360 -0.8204  1.0947 -0.9541
 3988SOL     OW12862   6.371   1.387   0.197  0.0478  0.0537  0.1731
 3988SOL    HW112863   6.283   1.432   0.211  0.8048  1.7012 -0.1527
 3988SOL    HW212864   6.355   1.293   0.166 -1.6025  0.6533 -0.9551
 3989SOL     OW12865   2.667   1.460   2.879 -0.0929  0.5378  0.0437
 3989SOL    HW112866   2.751   1.450   2.932 -0.0010  0.6638 -0.0755
 3989SOL    HW212867   2.690   1.467   2.782 -0.3935 -2.3355 -0.3290
 3990SOL     OW12868   4.062   0.118   4.627  0.0581 -0.1483 -0.1807
 3990SOL    HW112869   4.078   0.206   4.672 -0.8111  0.3826 -0.8680
 3990SOL    HW212870   4.129   0.105   4.554  0.9358 -0.6208  0.6873
 3991SOL     OW12871   4.365   2.098   3.084  0.0184  0.2587 -0.3599
 3991SOL    HW112872   4.344   2.187   3.124 -1.1671  0.3880 -1.1959
 3991SOL    HW212873   4.444   2.106   3.023 -0.6417  0.9751 -1.1573
 3992SOL     OW12874   1.945   4.229   1.189 -0.2348 -0.5474 -0.5136
 3992SOL    HW112875   1.977   4.141   1.224  0.4300 -0.6256 -1.2826
 3992SOL    HW212876   2.002   4.302   1.227 -0.0240 -0.5593 -0.8060
 3993SOL     OW12877   0.605   2.437   4.365  0.1297  0.4817  0.0724
 3993SOL    HW112878   0.618   2.422   4.463  1.2068  0.2197 -0.0977
 3993SOL    HW212879   0.533   2.377   4.331  0.9190 -0.6611  0.3781
 3994SOL     OW12880   0.309   0.764   1.521 -0.3955 -0.1814  0.1106
 3994SOL    HW112881   0.325   0.703   1.444 -2.3406  0.7437 -1.0818
 3994SOL    HW212882   0.378   0.836   1.522 -0.1631 -0.3918 -0.5556
 3995SOL     OW12883   1.180   0.015   2.613  0.3755  0.2066  0.1614
 3995SOL    HW112884   1.216   0.010   2.706  1.9564  1.0750 -0.3704
 3995SOL    HW212885   1.245   0.063   2.554 -0.5416 -0.4137 -1.4290
 3996SOL     OW12886   2.336   0.143   6.402 -0.8371 -0.7787 -0.4734
 3996SOL    HW112887   2.429   0.108   6.413 -0.8675 -0.6512  0.2138
 3996SOL    HW212888   2.276   0.069   6.371 -1.0762 -1.6120  1.7521
 3997SOL     OW12889   5.916   5.684   1.227  0.4272 -0.0840  0.2187
 3997SOL    HW112890   5.892   5.599   1.180 -0.6846  0.9572 -1.1727
 3997SOL    HW212891   5.868   5.689   1.315 -2.1933  0.5748 -1.1620
 3998SOL     OW12892   4.111   1.376   5.991  0.2935 -0.3136  0.2434
 3998SOL    HW112893   4.062   1.397   6.075 -0.8788 -2.9739  0.3147
 3998SOL    HW212894   4.199   1.333   6.013  1.6336  2.1520  0.0722
 3999SOL     OW12895   1.869   2.942   6.453 -0.6158 -0.6762 -0.0232
 3999SOL    HW112896   1.954   2.973   6.411 -1.1907  1.8141  0.5176
 3999SOL    HW212897   1.890   2.880   6.529  0.7043 -0.3414 -0.0901
 4000SOL     OW12898   4.669   1.688   0.240 -0.0009  0.2602 -0.1206
 4000SOL    HW112899   4.681   1.787   0.247 -2.2101  0.7760 -2.0696
 4000SOL    HW212900   4.710   1.644   0.319 -0.9233  2.9218  2.0157
 4001SOL     OW12901   4.887   0.489   4.553 -0.0230  0.5841 -0.0153
 4001SOL    HW112902   4.900   0.450   4.462  0.8771  0.9513 -0.0563
 4001SOL    HW212903   4.859   0.417   4.617  1.1466 -0.0666 -0.1920
 4002SOL     OW12904   4.374   3.926   5.419 -0.1111  0.6492  0.1795
 4002SOL    HW112905   4.415   3.840   5.390 -0.2870  1.3509 -2.4964
 4002SOL    HW212906   4.276   3.913   5.434 -0.3991  0.5708 -1.5011
 4003SOL     OW12907   6.251   5.078   3.630  0.3010  0.1239  0.0014
 4003SOL    HW112908   6.326   5.111   3.687 -0.4210  0.9669  0.4989
 4003SOL    HW212909   6.286   5.047   3.542  1.3381 -0.4088  0.5848
 4004SOL     OW12910   3.358   3.034   3.242  0.2236  0.4153 -0.4013
 4004SOL    HW112911   3.323   3.035   3.149 -1.1721  1.2722  0.1132
 4004SOL    HW212912   3.296   2.981   3.301  0.1028  1.4155  0.3989
 4005SOL     OW12913   2.035   2.017   4.775 -0.6381  0.0377  0.4212
 4005SOL    HW112914   1.986   1.966   4.846 -1.0100  1.8265  1.4983
 4005SOL    HW212915   1.981   2.095   4.746  0.1590  0.1584 -0.7996
 4006SOL     OW12916   5.310   1.518   3.282  0.2281  0.9530 -0.0624
 4006SOL    HW112917   5.297   1.535   3.185 -1.3898 -0.4273 -0.1300
 4006SOL    HW212918   5.342   1.424   3.296 -0.7296  0.7339  0.7917
 4007SOL     OW12919   5.550   5.576   2.479 -0.5276 -0.1326 -0.2492
 4007SOL    HW112920   5.637   5.533   2.502 -0.6565 -1.3189 -1.8259
 4007SOL    HW212921   5.478   5.540   2.539 -0.2460 -0.4920 -0.1236
 4008SOL     OW12922   1.183   4.338   1.438  0.4040  0.0469 -0.4235
 4008SOL    HW112923   1.275   4.345   1.399  0.0346 -0.7030 -1.4590
 4008SOL    HW212924   1.143   4.250   1.414 -0.4878  0.2470  0.2622
 4009SOL     OW12925   0.186   0.867   0.846 -0.0760 -0.8658 -0.1680
 4009SOL    HW112926   0.224   0.883   0.937  1.0417  2.3476 -1.0671
 4009SOL    HW212927   0.089   0.892   0.845 -0.0235 -0.6488  0.0847
 4010SOL     OW12928   0.779   6.531   4.032 -0.3934 -0.4725  0.2124
 4010SOL    HW112929   0.753   6.460   3.966 -2.4497 -1.3211  1.8196
 4010SOL    HW212930   0.700   6.555   4.088  0.5734  2.2230  0.5940
 4011SOL     OW12931   5.039   0.612   5.178  0.1267  0.3608  0.2381
 4011SOL    HW112932   4.986   0.641   5.098 -1.3373 -1.1452  0.5891
 4011SOL    HW212933   5.015   0.670   5.256  0.1865  0.6854  0.0175
 4012SOL     OW12934   0.059   4.020   5.845  0.4825 -0.0553  0.3014
 4012SOL    HW112935   0.095   4.082   5.776 -1.0226  0.4288 -0.0887
 4012SOL    HW212936   0.134   3.967   5.885  1.6311  1.1112 -0.2419
 4013SOL     OW12937   6.523   2.327   0.779 -0.2637  0.2444 -0.2712
 4013SOL    HW112938   6.490   2.273   0.857  0.2953  0.1917 -0.0657
 4013SOL    HW212939   6.454   2.395   0.754 -1.3534 -1.1287 -1.0916
 4014SOL     OW12940   2.348   5.841   6.041  0.0402  0.0388  0.1362
 4014SOL    HW112941   2.328   5.819   5.945  1.5988 -0.1119 -0.1760
 4014SOL    HW212942   2.315   5.933   6.062 -0.5937 -0.0485 -0.4462
 4015SOL     OW12943   1.963   0.586   0.211  0.1909 -0.3263 -0.1608
 4015SOL    HW112944   1.984   0.665   0.269 -0.8121 -0.5430  0.5269
 4015SOL    HW212945   1.960   0.615   0.115 -0.6028  0.5794  0.1208
 4016SOL     OW12946   1.241   4.303   3.196  0.5765  0.2490 -0.6259
 4016SOL    HW112947   1.335   4.324   3.223 -0.3158  2.1275  1.3686
 4016SOL    HW212948   1.180   4.313   3.275 -1.4747  0.3615 -2.1147
 4017SOL     OW12949   4.273   3.650   5.901  0.6352  0.0438 -0.5625
 4017SOL    HW112950   4.362   3.663   5.857  0.0742 -1.3335 -2.2500
 4017SOL    HW212951   4.252   3.552   5.906 -0.0305  0.2529  1.4348
 4018SOL     OW12952   4.640   0.537   4.052 -0.1321 -0.5579 -0.3947
 4018SOL    HW112953   4.627   0.591   4.135 -1.8448  0.2012 -1.1104
 4018SOL    HW212954   4.566   0.556   3.988  0.3409 -2.2360 -1.5119
 4019SOL     OW12955   0.376   2.419   5.792  0.3664  1.1865  0.0652
 4019SOL    HW112956   0.401   2.508   5.832 -1.2485  1.3907  0.7154
 4019SOL    HW212957   0.329   2.364   5.862  0.8677  0.0336 -0.4925
 4020SOL     OW12958   1.004   6.818   2.564 -0.2119 -0.3841 -0.1607
 4020SOL    HW112959   1.064   6.897   2.575  2.0102 -2.1730  1.4638
 4020SOL    HW212960   1.036   6.762   2.487 -0.3249 -0.9025  0.1666
 4021SOL     OW12961   2.166   2.581   5.694  0.3490 -0.4353 -0.2637
 4021SOL    HW112962   2.207   2.605   5.607  2.5918  0.7385  1.0340
 4021SOL    HW212963   2.085   2.638   5.710  0.6368  0.2037 -1.0461
 4022SOL     OW12964   5.405   5.107   1.622  0.0218  0.7153 -0.7174
 4022SOL    HW112965   5.492   5.113   1.672  0.7595  3.0388 -2.1436
 4022SOL    HW212966   5.406   5.025   1.564  0.8132  0.1786  0.0261
 4023SOL     OW12967   3.054   6.495   0.585 -0.6637  0.1340  0.1037
 4023SOL    HW112968   2.962   6.465   0.559 -0.7970  0.9127 -0.3517
 4023SOL    HW212969   3.053   6.593   0.602  0.1530  0.2058 -0.2165
 4024SOL     OW12970   4.052   3.600   0.266 -0.7734  0.3783  0.0313
 4024SOL    HW112971   4.029   3.504   0.278  0.8060 -0.1481 -0.8306
 4024SOL    HW212972   4.072   3.641   0.355  0.8481 -0.7458  0.2282
 4025SOL     OW12973   0.837   5.964   5.875  0.3802  0.4613 -0.4652
 4025SOL    HW112974   0.744   5.950   5.840  0.1326 -1.5014  0.8233
 4025SOL    HW212975   0.901   5.904   5.827  0.4028 -0.5902  0.8104
 4026SOL     OW12976   1.659   5.016   1.774 -0.4639 -0.3769 -0.2186
 4026SOL    HW112977   1.678   5.075   1.853  1.0268  1.4976 -1.8369
 4026SOL    HW212978   1.710   4.931   1.783 -0.4380 -0.2589  0.9040
 4027SOL     OW12979   3.620   4.018   0.623 -0.4853 -0.8039  0.2855
 4027SOL    HW112980   3.534   4.063   0.645 -0.4226 -1.8273  2.8967
 4027SOL    HW212981   3.649   3.960   0.699  1.1075 -2.7090 -1.6233
 4028SOL     OW12982   1.577   0.916   1.110 -0.1782  0.0100 -0.4360
 4028SOL    HW112983   1.513   0.848   1.146 -2.2082  2.3826  0.7330
 4028SOL    HW212984   1.553   0.938   1.016  0.3328 -0.6648 -0.7350
 4029SOL     OW12985   5.021   0.247   0.295 -0.1173  0.0921 -0.1005
 4029SOL    HW112986   5.060   0.322   0.241  1.5512 -0.5787  0.0945
 4029SOL    HW212987   5.059   0.249   0.388 -0.8780 -0.3662  0.2331
 4030SOL     OW12988   1.368   0.315   6.335 -0.0982 -0.2133  0.0918
 4030SOL    HW112989   1.379   0.360   6.246 -1.4637  0.0183  0.0284
 4030SOL    HW212990   1.403   0.376   6.407  0.0513  0.0345 -0.1860
 4031SOL     OW12991   1.515   4.220   6.950 -0.2939  0.2084 -0.2825
 4031SOL    HW112992   1.552   4.164   7.023  0.8972 -0.3018 -1.2420
 4031SOL    HW212993   1.500   4.164   6.868  0.1603  1.1112 -1.0053
 4032SOL     OW12994   1.257   3.123   0.168  0.3348 -0.2371  0.1472
 4032SOL    HW112995   1.221   3.030   0.182 -1.1153  0.4199  0.9571
 4032SOL    HW212996   1.357   3.121   0.173  0.3312 -1.7583  0.0885
 4033SOL     OW12997   6.832   2.813   0.418 -0.6035  0.8143 -0.5904
 4033SOL    HW112998   6.751   2.854   0.460 -0.5671 -0.4858  0.8249
 4033SOL    HW212999   6.830   2.714   0.432  1.1644  0.7449 -0.6740
 4034SOL     OW13000   2.613   3.864   1.268 -0.4954  0.1571 -0.2648
 4034SOL    HW113001   2.670   3.830   1.193 -0.5840  0.0329 -0.2761
 4034SOL    HW213002   2.672   3.892   1.344 -0.4140  0.1373 -0.3198
 4035SOL     OW13003   0.982   4.318   6.714  0.1005 -0.1583  0.0170
 4035SOL    HW113004   0.980   4.325   6.814 -1.0156  1.4015 -0.0842
 4035SOL    HW213005   1.054   4.254   6.687 -0.1871 -1.3198  1.8393
 4036SOL     OW13006   3.518   5.592   3.392  0.1026  0.3440  0.0418
 4036SOL    HW113007   3.442   5.647   3.357  0.0895  0.0837 -0.3339
 4036SOL    HW213008   3.498   5.495   3.380  0.0006  0.2386  0.9634
 4037SOL     OW13009   0.630   2.411   3.361  0.0426  0.5238  0.0021
 4037SOL    HW113010   0.590   2.498   3.331 -0.2198  0.7168  0.8754
 4037SOL    HW213011   0.617   2.401   3.460  0.4721 -0.3031 -0.0177
 4038SOL     OW13012   5.069   2.649   1.964 -0.0664 -0.0768  0.0609
 4038SOL    HW113013   4.990   2.588   1.957 -1.3124  1.5010 -0.3713
 4038SOL    HW213014   5.110   2.661   1.874 -0.3487  0.3587 -0.0145
 4039SOL     OW13015   0.631   6.091   6.270 -0.4334 -0.2329  0.3495
 4039SOL    HW113016   0.722   6.063   6.301 -1.0461 -0.2322  2.2360
 4039SOL    HW213017   0.597   6.025   6.203  1.1798  0.0955 -0.8665
 4040SOL     OW13018   2.719   3.170   0.597 -0.0317  0.3785  0.3963
 4040SOL    HW113019   2.775   3.217   0.529 -2.0759  0.2969 -1.4669
 4040SOL    HW213020   2.774   3.100   0.643  1.6233  0.9495 -0.6298
 4041SOL     OW13021   2.902   6.105   1.343 -0.3569  0.0926 -0.0740
 4041SOL    HW113022   2.838   6.096   1.420 -0.0498 -0.2997  0.1427
 4041SOL    HW213023   2.928   6.014   1.311 -2.2885  0.1999 -2.1801
 4042SOL     OW13024   2.094   4.587   5.820 -0.3648 -0.4763  0.3230
 4042SOL    HW113025   2.064   4.578   5.725 -2.2852  1.7771  0.6389
 4042SOL    HW213026   2.132   4.678   5.835  0.2682 -0.9364  1.6433
 4043SOL     OW13027   2.538   1.452   6.948  0.5236  0.4265 -0.1162
 4043SOL    HW113028   2.513   1.367   6.995  2.4110  0.1024  0.4102
 4043SOL    HW213029   2.459   1.512   6.943 -0.7097 -1.1206  0.0257
 4044SOL     OW13030   4.753   5.515   3.286 -0.4420 -0.1104 -0.0724
 4044SOL    HW113031   4.767   5.508   3.385  0.4623 -0.0563 -0.1934
 4044SOL    HW213032   4.822   5.460   3.238 -0.3101  0.5890 -0.6953
 4045SOL     OW13033   1.897   3.719   0.881 -0.7475 -0.4005  0.0193
 4045SOL    HW113034   1.823   3.785   0.869 -1.6046 -1.1425  1.0537
 4045SOL    HW213035   1.979   3.765   0.914 -1.3844  0.1364  0.8756
 4046SOL     OW13036   3.403   0.331   1.129 -0.6573  0.1917 -0.1660
 4046SOL    HW113037   3.397   0.341   1.030 -0.1742  1.2394 -0.1061
 4046SOL    HW213038   3.449   0.245   1.152  1.9217  1.2871 -0.9353
 4047SOL     OW13039   4.107   3.680   0.516  0.1581  0.7553  0.0038
 4047SOL    HW113040   4.126   3.626   0.598 -2.2287 -2.2233 -1.2314
 4047SOL    HW213041   4.098   3.776   0.541  0.4773  0.1010  3.0490
 4048SOL     OW13042   4.005   4.486   0.028  0.4291 -0.3682  0.3520
 4048SOL    HW113043   3.928   4.427   0.003 -0.2071  0.7794 -0.5052
 4048SOL    HW213044   4.079   4.430   0.066 -0.8879 -1.4693  1.3817
 4049SOL     OW13045   2.858   3.216   1.729  0.4897 -0.0107  0.2643
 4049SOL    HW113046   2.883   3.245   1.636  0.3999 -2.1469 -0.4802
 4049SOL    HW213047   2.919   3.144   1.759  0.3050  0.4307  1.7624
 4050SOL     OW13048   2.471   0.880   0.067  0.1791 -0.3815 -0.5889
 4050SOL    HW113049   2.419   0.898  -0.016 -1.4272 -1.0780  0.2143
 4050SOL    HW213050   2.487   0.781   0.075  0.1073 -0.3439  0.0412
 4051SOL     OW13051   2.226   0.273   6.641 -0.8442 -0.4749 -0.1247
 4051SOL    HW113052   2.157   0.203   6.625 -1.4489 -0.0099  0.4239
 4051SOL    HW213053   2.288   0.277   6.562 -0.5966 -1.8373 -0.0238
 4052SOL     OW13054   4.684   4.388   2.425 -0.3424  0.2773 -0.2756
 4052SOL    HW113055   4.670   4.340   2.338 -0.9858 -0.9179  0.4584
 4052SOL    HW213056   4.649   4.332   2.500  0.2583  1.2587  0.7721
 4053SOL     OW13057   5.957   1.611   2.081 -0.2986  0.5114  0.6556
 4053SOL    HW113058   5.876   1.572   2.126  0.2854 -1.3743  0.1575
 4053SOL    HW213059   6.028   1.628   2.150 -0.0322 -0.7364  0.7202
 4054SOL     OW13060   3.230   4.141   0.034 -0.4591  0.8119  0.0711
 4054SOL    HW113061   3.222   4.131   0.134 -0.4175 -2.0727 -0.1236
 4054SOL    HW213062   3.141   4.161  -0.005 -0.7756  0.4259  0.5758
 4055SOL     OW13063   0.568   5.705   3.096  0.2106  0.1720 -0.1313
 4055SOL    HW113064   0.665   5.726   3.106  0.5044 -1.9270  2.7182
 4055SOL    HW213065   0.552   5.667   3.004  2.4758 -1.0543 -0.1065
 4056SOL     OW13066   3.265   1.063   5.330  0.6951  0.3204 -0.4091
 4056SOL    HW113067   3.181   1.012   5.315  1.1206 -0.4294 -0.2907
 4056SOL    HW213068   3.244   1.150   5.375 -0.1092  0.5807 -1.2631
 4057SOL     OW13069   6.751   5.629   4.483 -0.1059 -0.3545 -0.0068
 4057SOL    HW113070   6.671   5.628   4.544 -3.5826 -0.7100 -4.0734
 4057SOL    HW213071   6.788   5.721   4.478 -0.9938  0.0848  1.1314
 4058SOL     OW13072   6.573   3.848   4.182 -0.2843  0.2865  0.2074
 4058SOL    HW113073   6.640   3.779   4.210 -0.4001 -0.1177 -0.4748
 4058SOL    HW213074   6.620   3.931   4.153  0.1005 -0.7183 -2.3231
 4059SOL     OW13075   4.969   5.002   6.065  0.0209 -0.3514 -0.1532
 4059SOL    HW113076   4.929   5.026   6.153  0.4262 -0.0888 -0.0375
 4059SOL    HW213077   5.064   4.973   6.079 -0.1993 -1.2143 -0.3897
 4060SOL     OW13078   0.349   1.782   4.452  0.4520 -0.5167  0.5566
 4060SOL    HW113079   0.261   1.744   4.424  0.4069 -0.3788  0.5085
 4060SOL    HW213080   0.421   1.749   4.390  0.3881 -0.3963  0.4171
 4061SOL     OW13081   0.255   1.382   3.561 -0.3450 -0.2492  0.1247
 4061SOL    HW113082   0.200   1.325   3.500  2.5622 -0.6339 -2.3982
 4061SOL    HW213083   0.276   1.469   3.516  0.4334  0.2092  1.3255
 4062SOL     OW13084   1.572   0.354   4.042 -0.5922  0.4583  0.2782
 4062SOL    HW113085   1.631   0.397   4.110 -0.3913  0.9360 -0.1846
 4062SOL    HW213086   1.507   0.292   4.087  0.5101 -0.3765  0.7612
 4063SOL     OW13087   6.349   3.663   2.896 -1.2048 -0.0791 -0.2248
 4063SOL    HW113088   6.443   3.641   2.868 -1.0709 -1.4788  1.1852
 4063SOL    HW213089   6.287   3.590   2.867 -1.8021  0.6363 -0.7830
 4064SOL     OW13090   3.770   1.617   1.627 -0.0294 -0.0590 -0.2386
 4064SOL    HW113091   3.754   1.568   1.541  4.0101 -2.1442 -0.0506
 4064SOL    HW213092   3.774   1.716   1.608 -0.9118 -0.3150 -2.0717
 4065SOL     OW13093   3.891   0.660   3.088  0.0742  0.4225 -0.2991
 4065SOL    HW113094   3.810   0.625   3.135  1.8170 -0.6570  2.0495
 4065SOL    HW213095   3.937   0.727   3.146  1.3284  0.4160 -1.2568
 4066SOL     OW13096   6.802   5.905   0.806  0.1928  0.4777  0.1703
 4066SOL    HW113097   6.719   5.868   0.766 -0.4096  1.8222  0.1289
 4066SOL    HW213098   6.784   5.996   0.843  1.6026  0.7217  0.3224
 4067SOL     OW13099   1.897   2.799   2.400 -0.6220 -0.1538  0.6643
 4067SOL    HW113100   1.887   2.715   2.348 -0.7807  0.1051  0.2691
 4067SOL    HW213101   1.991   2.833   2.392 -0.7091  0.0174  0.3352
 4068SOL     OW13102   3.060   4.937   4.962 -0.3743 -0.7402  0.2857
 4068SOL    HW113103   3.045   5.030   4.994  2.7513 -1.3411  4.3881
 4068SOL    HW213104   3.036   4.873   5.035  2.0663 -2.7413 -0.5177
 4069SOL     OW13105   4.276   1.170   3.817  0.0221 -0.3576  0.1914
 4069SOL    HW113106   4.248   1.187   3.722 -0.1780 -1.6761  0.0001
 4069SOL    HW213107   4.236   1.084   3.848 -0.6209  0.4770  1.7705
 4070SOL     OW13108   5.660   1.517   5.382 -0.0809 -0.2136  0.2616
 4070SOL    HW113109   5.759   1.523   5.395 -0.2871  1.1316  1.5878
 4070SOL    HW213110   5.638   1.524   5.285  1.0908  0.1144  0.0010
 4071SOL     OW13111   5.229   4.331   6.504 -0.0162 -0.0777 -0.1120
 4071SOL    HW113112   5.314   4.357   6.549  0.3033 -1.8992  0.4284
 4071SOL    HW213113   5.171   4.281   6.569 -0.6042 -0.6258 -1.0328
 4072SOL     OW13114   0.655   0.826   1.412 -0.5259 -0.3078  0.2565
 4072SOL    HW113115   0.593   0.892   1.453 -0.0061 -0.3087  1.0758
 4072SOL    HW213116   0.746   0.837   1.451 -0.0493 -0.4368 -0.7754
 4073SOL     OW13117   3.124   2.682   0.685  0.5877 -0.2446 -0.7797
 4073SOL    HW113118   3.061   2.668   0.761  0.6605 -1.2708 -0.8981
 4073SOL    HW213119   3.150   2.779   0.680 -1.3655  0.3084 -1.0392
 4074SOL     OW13120   1.156   4.586   1.845 -0.0580 -0.3430  0.2606
 4074SOL    HW113121   1.087   4.630   1.788  0.2818  0.3283  0.3541
 4074SOL    HW213122   1.217   4.531   1.788 -1.1071 -1.5629  0.2615
 4075SOL     OW13123   0.969   1.658   6.445 -0.4052  0.3482 -0.5049
 4075SOL    HW113124   1.009   1.716   6.515  0.7397 -1.5297  0.4839
 4075SOL    HW213125   1.010   1.679   6.356  0.0305  1.0062 -0.1523
 4076SOL     OW13126   3.953   6.622   2.528  0.3021  0.4778  0.2964
 4076SOL    HW113127   3.890   6.598   2.454 -0.4191  0.4268  0.9144
 4076SOL    HW213128   3.902   6.631   2.613  0.8884  2.0169  0.5168
 4077SOL     OW13129   3.074   3.079   1.884 -0.0764  0.3467 -0.3190
 4077SOL    HW113130   3.155   3.028   1.914  2.0326  2.0538 -2.6198
 4077SOL    HW213131   3.055   3.152   1.950  0.9161  0.5418 -0.2265
 4078SOL     OW13132   1.356   2.559   1.277  0.2469 -0.2444 -0.6447
 4078SOL    HW113133   1.341   2.657   1.292 -0.5787 -0.3335 -0.8809
 4078SOL    HW213134   1.307   2.507   1.347 -1.1879 -0.5611 -1.8662
 4079SOL     OW13135   4.342   0.105   6.143  0.1696  0.4516  0.0736
 4079SOL    HW113136   4.397   0.145   6.216 -0.2493  2.0417 -0.4399
 4079SOL    HW213137   4.252   0.080   6.179  0.1466  0.7487  0.2271
 4080SOL     OW13138   0.136   0.586   4.792  0.0831  0.1878  0.0026
 4080SOL    HW113139   0.219   0.572   4.738 -0.3392  0.0008 -0.6018
 4080SOL    HW213140   0.056   0.581   4.733 -0.5309 -1.9039  0.9111
 4081SOL     OW13141   1.975   0.861   1.761 -0.2772  0.8492 -0.0744
 4081SOL    HW113142   1.994   0.846   1.664 -1.4107 -0.8103 -0.0796
 4081SOL    HW213143   1.886   0.905   1.772 -1.9657 -2.3556  0.2299
 4082SOL     OW13144   3.929   1.157   5.379 -0.0453 -0.4299  0.1748
 4082SOL    HW113145   3.891   1.205   5.459  0.2431 -3.2124  2.1244
 4082SOL    HW213146   3.858   1.101   5.337  0.0459  0.3189 -1.0524
 4083SOL     OW13147   0.420   5.747   4.143  0.1900  0.3116 -0.0332
 4083SOL    HW113148   0.453   5.786   4.057  0.7742 -1.5503 -0.6998
 4083SOL    HW213149   0.324   5.721   4.133 -0.0181  0.9494  0.2116
 4084SOL     OW13150   0.297   5.735   5.094 -0.5997 -0.0712 -0.8275
 4084SOL    HW113151   0.199   5.752   5.084 -0.4610  0.9819 -0.4799
 4084SOL    HW213152   0.340   5.727   5.004 -0.5736  2.1086 -1.0550
 4085SOL     OW13153   1.509   0.265   2.058 -0.0382  0.4947 -0.3483
 4085SOL    HW113154   1.443   0.201   2.019 -1.5428  1.7624  0.0018
 4085SOL    HW213155   1.578   0.215   2.110 -1.2489 -0.8488  0.0325
 4086SOL     OW13156   5.582   6.855   2.698  0.5446 -0.4298  0.5952
 4086SOL    HW113157   5.527   6.788   2.748  0.3999 -0.9469 -0.2462
 4086SOL    HW213158   5.525   6.934   2.675 -0.0371 -1.2220 -0.7951
 4087SOL     OW13159   2.712   1.083   6.104 -0.0869  0.0024  0.1438
 4087SOL    HW113160   2.786   1.046   6.047 -0.6437  0.5885 -1.0009
 4087SOL    HW213161   2.675   1.010   6.162  0.0729 -0.7936 -0.7257
 4088SOL     OW13162   1.193   2.337   2.612  0.2981 -1.3183 -0.0970
 4088SOL    HW113163   1.102   2.322   2.650 -0.0174 -0.3459 -0.4586
 4088SOL    HW213164   1.262   2.322   2.683 -0.2943  0.7964  0.9839
 4089SOL     OW13165   3.001   2.115   6.429  0.6939  0.0403 -0.2136
 4089SOL    HW113166   2.965   2.031   6.470 -0.9389  0.9414  0.3109
 4089SOL    HW213167   2.932   2.154   6.367  0.3799  2.2296  1.3850
 4090SOL     OW13168   2.822   4.592   1.234 -0.6686 -0.1285  0.0050
 4090SOL    HW113169   2.802   4.576   1.137  0.5848  1.0428 -0.4822
 4090SOL    HW213170   2.804   4.688   1.256  0.5047 -0.0201  0.5415
 4091SOL     OW13171   4.036   3.807   3.678 -0.0162  0.0903 -0.4311
 4091SOL    HW113172   4.097   3.751   3.622  1.9129  1.2172  0.4738
 4091SOL    HW213173   4.034   3.770   3.771 -0.1242  0.4925 -0.2724
 4092SOL     OW13174   6.033   4.277   3.107  0.2103 -0.3244  0.6704
 4092SOL    HW113175   5.981   4.360   3.128  0.3864 -0.2367  0.7627
 4092SOL    HW213176   6.093   4.256   3.184  1.0664  0.1513  0.1404
 4093SOL     OW13177   5.492   5.847   0.023  0.6334 -0.0133  0.1132
 4093SOL    HW113178   5.402   5.867   0.061  0.7277 -0.0965  0.3906
 4093SOL    HW213179   5.493   5.864  -0.075  0.1551 -0.5435  0.0154
 4094SOL     OW13180   0.352   5.414   6.418 -0.6004 -0.3491 -0.4254
 4094SOL    HW113181   0.408   5.386   6.341 -0.4116  0.3780 -0.5509
 4094SOL    HW213182   0.348   5.514   6.424 -0.3548 -0.3846  0.6826
 4095SOL     OW13183   5.955   6.597   6.012 -0.1796 -0.2103 -0.1787
 4095SOL    HW113184   6.006   6.611   5.927  0.2666 -0.6480  0.0074
 4095SOL    HW213185   5.879   6.534   5.995 -1.5732  1.5704 -0.7851
 4096SOL     OW13186   3.949   3.233   4.118 -0.1187  0.0057  0.0637
 4096SOL    HW113187   3.866   3.268   4.161 -0.4869  0.5199 -1.0201
 4096SOL    HW213188   3.935   3.137   4.094  0.5715 -0.6982  2.2316
 4097SOL     OW13189   4.645   5.110   1.593 -0.1268 -0.2395  0.4684
 4097SOL    HW113190   4.710   5.186   1.591  3.5699 -3.1146 -1.0040
 4097SOL    HW213191   4.591   5.109   1.509  2.1718 -0.9145 -1.1068
 4098SOL     OW13192   2.399   4.633   5.981 -0.3924 -0.3499  0.5495
 4098SOL    HW113193   2.463   4.557   5.968 -0.5987 -0.2086 -1.6810
 4098SOL    HW213194   2.314   4.613   5.933 -0.3695  1.3721 -0.2538
 4099SOL     OW13195   2.798   5.904   5.039  0.3379 -0.4366 -0.9141
 4099SOL    HW113196   2.712   5.924   5.086  1.9058  1.9993  1.2153
 4099SOL    HW213197   2.802   5.954   4.953 -0.7115 -1.3086 -1.4916
 4100SOL     OW13198   4.425   1.495   1.286 -0.1349 -1.2089  0.2816
 4100SOL    HW113199   4.375   1.472   1.203 -0.5088 -1.7088  0.6424
 4100SOL    HW213200   4.447   1.593   1.285 -2.3677 -0.6348  0.7579
 4101SOL     OW13201   3.771   3.800   2.182  0.2282 -0.1703  0.4638
 4101SOL    HW113202   3.692   3.858   2.161 -0.4281 -0.3389  2.2635
 4101SOL    HW213203   3.847   3.858   2.210  0.4985 -0.0505 -0.4883
 4102SOL     OW13204   5.715   6.561   1.544  0.3746  0.2906  0.6513
 4102SOL    HW113205   5.811   6.590   1.544  0.5983 -0.3822  1.7706
 4102SOL    HW213206   5.709   6.462   1.530 -0.1296  0.2646  1.0074
 4103SOL     OW13207   0.463   4.197   5.838  0.3946  0.0344  0.3231
 4103SOL    HW113208   0.516   4.203   5.923  0.6618 -1.6717  0.2997
 4103SOL    HW213209   0.524   4.179   5.762 -0.1772 -2.0180  0.3042
 4104SOL     OW13210   3.540   3.022   2.587  0.3145  0.7279 -0.4875
 4104SOL    HW113211   3.504   3.115   2.587  0.8463  0.9546 -1.9462
 4104SOL    HW213212   3.469   2.958   2.558  0.5277  0.9407 -1.5000
 4105SOL     OW13213   3.339   6.811   4.241 -0.1890 -0.0968 -0.2392
 4105SOL    HW113214   3.285   6.802   4.325  0.7551 -1.0337  0.3046
 4105SOL    HW213215   3.422   6.863   4.260  0.8741 -1.7386 -0.1179
 4106SOL     OW13216   4.475   1.200   5.461 -0.5446  0.1180  0.2394
 4106SOL    HW113217   4.468   1.132   5.388 -0.0782 -0.1825  0.4783
 4106SOL    HW213218   4.456   1.157   5.549  0.0149  0.2364  0.4210
 4107SOL     OW13219   4.999   2.968   4.856  0.2168  1.0111 -0.4895
 4107SOL    HW113220   5.062   3.042   4.879 -0.4134  1.2945  0.4183
 4107SOL    HW213221   4.907   3.006   4.843 -0.4491  0.2608  1.5531
 4108SOL     OW13222   0.378   5.411   4.401  0.1743  0.1870 -0.5123
 4108SOL    HW113223   0.279   5.412   4.385 -0.0541  1.9988  0.6134
 4108SOL    HW213224   0.425   5.455   4.324 -0.0338  0.4427 -0.4969
 4109SOL     OW13225   5.790   3.284   1.448 -0.3110  0.2207 -0.1879
 4109SOL    HW113226   5.698   3.322   1.436 -0.3496  0.1359 -0.1633
 4109SOL    HW213227   5.814   3.230   1.368 -0.0042  0.8151 -0.5008
 4110SOL     OW13228   3.181   3.225   0.070 -0.5025 -0.4541 -0.0761
 4110SOL    HW113229   3.129   3.274   0.001 -1.0579  0.5284  1.0165
 4110SOL    HW213230   3.134   3.140   0.094 -0.0783 -1.0246 -1.2016
 4111SOL     OW13231   3.324   1.395   5.828  0.1366 -0.2901 -0.2730
 4111SOL    HW113232   3.248   1.452   5.861  0.7984 -0.6354  1.9645
 4111SOL    HW213233   3.289   1.305   5.801 -0.3331 -0.2653  0.2389
 4112SOL     OW13234   1.908   0.224   4.156  0.7594  0.4726  0.1724
 4112SOL    HW113235   1.894   0.260   4.064 -0.1355  0.3459  0.2560
 4112SOL    HW213236   1.863   0.136   4.166  2.7453 -0.6102  0.0473
 4113SOL     OW13237   5.456   1.923   6.243  0.0366  0.2135 -0.3063
 4113SOL    HW113238   5.517   1.923   6.164 -0.8259  2.4339 -1.0589
 4113SOL    HW213239   5.510   1.928   6.327  0.9538 -1.8296 -0.7318
 4114SOL     OW13240   3.577   2.087   6.098 -0.4936  0.2867  1.2658
 4114SOL    HW113241   3.569   2.061   6.194  1.5713  2.4677  2.1386
 4114SOL    HW213242   3.673   2.102   6.076 -0.9450  0.0943 -1.1170
 4115SOL     OW13243   6.888   6.520   4.418  0.1171 -0.2113  0.0092
 4115SOL    HW113244   6.894   6.447   4.487  0.7396 -0.7979 -0.6500
 4115SOL    HW213245   6.928   6.604   4.455 -1.8663  0.2502  1.3035
 4116SOL     OW13246   2.540   3.149   0.355 -0.1420 -0.3339  0.1798
 4116SOL    HW113247   2.613   3.083   0.365  0.0176 -0.7907 -3.1242
 4116SOL    HW213248   2.570   3.238   0.390  0.7311 -1.2285  1.8283
 4117SOL     OW13249   0.098   1.442   3.827  0.1832  0.5191  0.7796
 4117SOL    HW113250   0.106   1.467   3.731  0.2516  0.3970  0.7539
 4117SOL    HW213251   0.013   1.480   3.864 -1.2560 -1.6854 -0.0358
 4118SOL     OW13252   3.098   3.273   5.937  0.1592 -0.0317  0.4029
 4118SOL    HW113253   3.067   3.205   5.870  0.7103 -0.0790  0.1873
 4118SOL    HW213254   3.020   3.306   5.990 -0.6080  1.4413 -1.5480
 4119SOL     OW13255   6.646   4.047   2.010  0.3950 -0.1190  0.5990
 4119SOL    HW113256   6.570   4.102   2.044  1.1830  0.7594  1.0178
 4119SOL    HW213257   6.636   3.953   2.040 -1.4143 -0.4271 -0.8081
 4120SOL     OW13258   6.103   2.884   4.321 -0.1901 -0.0861 -0.7271
 4120SOL    HW113259   6.184   2.924   4.363 -0.1158 -1.5370  0.5800
 4120SOL    HW213260   6.046   2.843   4.391 -1.0935 -0.7908 -1.8449
 4121SOL     OW13261   0.475   4.002   0.561 -0.0154 -0.4488 -0.1207
 4121SOL    HW113262   0.421   4.075   0.518  0.0119 -0.2004  0.2534
 4121SOL    HW213263   0.541   4.043   0.625 -0.7694 -0.8548  0.9451
 4122SOL     OW13264   4.920   1.166   2.909 -0.0849  0.3467 -0.3713
 4122SOL    HW113265   4.990   1.137   2.843  0.7964 -0.4192  0.8579
 4122SOL    HW213266   4.903   1.264   2.899  1.0940  0.5249 -0.7590
 4123SOL     OW13267   1.068   4.904   6.500  0.3901  0.0271 -0.1337
 4123SOL    HW113268   1.106   4.958   6.576  0.0210 -1.2597  1.0108
 4123SOL    HW213269   0.968   4.901   6.508  0.3576 -0.2243 -0.5972
 4124SOL     OW13270   1.913   5.667   5.323 -0.7146  0.2218  0.3331
 4124SOL    HW113271   1.824   5.708   5.346 -1.1859 -2.2715  3.7392
 4124SOL    HW213272   1.899   5.588   5.263 -0.4921  1.1820 -1.0169
 4125SOL     OW13273   0.072   4.355   6.998 -0.5587 -0.1365 -0.7270
 4125SOL    HW113274   0.121   4.410   7.065 -1.2590  1.7583 -1.6999
 4125SOL    HW213275   0.127   4.346   6.915 -0.2651 -1.3314 -0.4304
 4126SOL     OW13276   5.719   2.412   1.890  0.0424  0.4105  0.1665
 4126SOL    HW113277   5.756   2.330   1.934 -0.7838 -0.3341 -0.4943
 4126SOL    HW213278   5.793   2.463   1.845  0.6642  0.4019  1.1489
 4127SOL     OW13279   3.726   4.838   6.939  0.2471  0.2219 -0.1238
 4127SOL    HW113280   3.657   4.868   7.005  0.1318  0.2579 -0.2619
 4127SOL    HW213281   3.813   4.883   6.960  0.4425 -0.4607  0.5584
 4128SOL     OW13282   5.103   1.884   2.928  0.0315 -0.2066  1.0712
 4128SOL    HW113283   5.006   1.900   2.913 -0.0643 -1.3122  0.4364
 4128SOL    HW213284   5.156   1.939   2.863 -0.1565  0.5159  1.5215
 4129SOL     OW13285   4.757   4.185   1.814 -0.1336 -0.4083 -0.0984
 4129SOL    HW113286   4.677   4.233   1.849  1.0322  2.2627 -0.8973
 4129SOL    HW213287   4.820   4.165   1.890 -0.2161  0.1610  0.1220
 4130SOL     OW13288   5.387   3.949   1.412 -0.5339 -0.3095  0.4866
 4130SOL    HW113289   5.289   3.970   1.420 -0.2739  0.5834  1.4728
 4130SOL    HW213290   5.414   3.954   1.316 -1.7639 -2.0791 -0.0063
 4131SOL     OW13291   3.640   6.070   3.544  0.2752 -0.0600 -0.1130
 4131SOL    HW113292   3.552   6.023   3.553 -0.1565  0.5212 -1.1340
 4131SOL    HW213293   3.627   6.158   3.499  1.1199  0.9597  1.5405
 4132SOL     OW13294   0.703   4.018   5.271  0.4553  0.3839  0.7827
 4132SOL    HW113295   0.688   3.949   5.341 -1.8363 -0.0214 -0.0186
 4132SOL    HW213296   0.641   4.095   5.286  0.7099  0.7891 -0.1672
 4133SOL     OW13297   6.984   4.780   5.811 -0.2568 -0.1481 -0.3886
 4133SOL    HW113298   7.026   4.711   5.751 -1.3641  0.4959 -1.9654
 4133SOL    HW213299   7.004   4.871   5.776 -0.3370  0.2832  0.6506
 4134SOL     OW13300   1.186   0.483   3.567  0.1648  0.5207  0.0710
 4134SOL    HW113301   1.164   0.530   3.482  0.2832 -0.0727 -0.2999
 4134SOL    HW213302   1.151   0.389   3.563  1.4560  0.0051  0.0437
 4135SOL     OW13303   3.320   4.000   5.788 -0.2770  0.8108 -0.3834
 4135SOL    HW113304   3.286   3.925   5.732 -2.4055  0.7779  0.8375
 4135SOL    HW213305   3.317   4.085   5.736 -1.6718  0.6863 -0.5399
 4136SOL     OW13306   2.526   2.550   3.987  0.2596 -0.2264 -0.6550
 4136SOL    HW113307   2.584   2.525   3.909 -1.1794 -2.2735 -1.1424
 4136SOL    HW213308   2.433   2.518   3.970 -0.8697  2.2675  0.4678
 4137SOL     OW13309   3.134   3.565   3.441 -0.4595  0.7385 -0.3480
 4137SOL    HW113310   3.185   3.633   3.389  2.0210 -1.9085 -1.6353
 4137SOL    HW213311   3.071   3.517   3.380  0.7684 -0.8158 -0.4305
 4138SOL     OW13312   4.448   3.858   6.334 -0.2117  0.2369  0.2372
 4138SOL    HW113313   4.543   3.850   6.365  0.4918  1.7385 -1.3922
 4138SOL    HW213314   4.413   3.767   6.311  1.5201 -0.1739 -1.0230
 4139SOL     OW13315   3.966   2.146   4.818 -0.1069 -0.0043  0.9248
 4139SOL    HW113316   4.015   2.102   4.743 -1.7689 -1.7685  0.8155
 4139SOL    HW213317   3.930   2.234   4.786 -0.0945 -0.3534 -0.0950
 4140SOL     OW13318   4.034   5.226   4.379  0.1417 -0.2111  0.1092
 4140SOL    HW113319   4.119   5.277   4.367  0.6333 -0.7291  1.1732
 4140SOL    HW213320   4.014   5.173   4.296  1.0615 -0.3655 -0.0240
 4141SOL     OW13321   5.630   2.995   3.665 -0.4993 -0.2859 -0.6529
 4141SOL    HW113322   5.574   3.014   3.583 -1.2667 -2.9652 -0.8360
 4141SOL    HW213323   5.711   2.944   3.638 -0.3253 -0.4404  0.1669
 4142SOL     OW13324   0.615   4.564   2.612 -0.6415  0.1188 -0.7768
 4142SOL    HW113325   0.598   4.580   2.515 -1.6169  0.6603 -0.5259
 4142SOL    HW213326   0.713   4.567   2.630 -0.2918 -1.8806 -2.0666
 4143SOL     OW13327   1.324   1.773   2.552 -0.1189 -0.1532 -0.4623
 4143SOL    HW113328   1.279   1.710   2.488 -0.5190 -0.5933  0.2270
 4143SOL    HW213329   1.255   1.824   2.603  0.1463  3.2808 -3.2295
 4144SOL     OW13330   3.663   1.553   6.613  0.3076  0.6636 -0.1450
 4144SOL    HW113331   3.654   1.642   6.658 -0.3671  1.3473 -1.5529
 4144SOL    HW213332   3.714   1.565   6.527 -2.0940  0.2495 -1.7270
 4145SOL     OW13333   4.111   0.127   1.213 -0.0273 -0.1431  0.5707
 4145SOL    HW113334   4.106   0.210   1.268 -1.2359 -0.8032  1.5119
 4145SOL    HW213335   4.194   0.128   1.157  0.1587  1.5038  0.8498
 4146SOL     OW13336   4.126   2.368   1.629  0.0796  0.1446 -0.0381
 4146SOL    HW113337   4.039   2.415   1.643 -0.2729 -0.9994  1.7770
 4146SOL    HW213338   4.112   2.289   1.569 -0.0322  0.2401 -0.1390
 4147SOL     OW13339   2.630   2.161   2.835  0.3470 -0.6096 -0.1327
 4147SOL    HW113340   2.586   2.086   2.786 -0.1073 -0.4469  0.0163
 4147SOL    HW213341   2.729   2.149   2.833  0.4899  0.3471 -2.6497
 4148SOL     OW13342   6.019   6.012   6.374  0.0524  0.2695 -0.3507
 4148SOL    HW113343   6.035   5.939   6.307 -4.1767  0.1898 -1.5783
 4148SOL    HW213344   6.072   6.092   6.348  1.0618 -0.8304 -1.8782
 4149SOL     OW13345   6.240   4.998   5.976 -0.1813  0.0175 -0.9732
 4149SOL    HW113346   6.273   5.090   5.994  0.4682 -0.6814  2.0801
 4149SOL    HW213347   6.140   4.996   5.985 -0.3114  0.6157 -2.1929
 4150SOL     OW13348   2.216   3.966   4.109 -0.0645  0.2740 -0.3323
 4150SOL    HW113349   2.186   3.932   4.198  1.8669 -0.2597  0.1520
 4150SOL    HW213350   2.256   4.057   4.120  1.8809 -0.5372 -0.2798
 4151SOL     OW13351   3.176   5.018   5.321  0.7017 -0.5438  0.0659
 4151SOL    HW113352   3.116   4.966   5.382 -0.0179 -0.8617 -0.8901
 4151SOL    HW213353   3.271   4.990   5.337  0.6727  0.2203  1.8466
 4152SOL     OW13354   1.823   4.415   2.739 -0.1460 -0.0557 -0.1005
 4152SOL    HW113355   1.770   4.441   2.658 -2.4513 -1.0910  0.9687
 4152SOL    HW213356   1.793   4.470   2.817  0.2569 -0.7887  0.5854
 4153SOL     OW13357   0.183   1.863   1.216 -0.2293 -0.1945  0.0696
 4153SOL    HW113358   0.146   1.876   1.308 -0.8781  0.5355 -0.2825
 4153SOL    HW213359   0.191   1.765   1.197 -2.5313 -0.4226 -0.0404
 4154SOL     OW13360   0.148   4.018   2.223  0.3843 -0.0912 -0.1330
 4154SOL    HW113361   0.157   3.984   2.129  2.4469 -0.2274  0.0726
 4154SOL    HW213362   0.104   3.948   2.279  0.9335 -0.8019 -0.5726
 4155SOL     OW13363   3.045   3.834   3.693 -0.0166 -0.1403  0.2370
 4155SOL    HW113364   3.040   3.934   3.700 -1.6066 -0.2616  1.6145
 4155SOL    HW213365   3.105   3.809   3.618  1.2457  1.8360  0.5110
 4156SOL     OW13366   3.796   2.151   4.240 -0.1365  0.0852  0.1432
 4156SOL    HW113367   3.828   2.180   4.150 -0.7092  0.1561 -0.0382
 4156SOL    HW213368   3.838   2.062   4.263 -0.0803  0.0115 -0.2411
 4157SOL     OW13369   3.231   4.467   0.030  0.1595 -0.2912 -0.2842
 4157SOL    HW113370   3.289   4.461  -0.052  1.0928  2.1642  0.1047
 4157SOL    HW213371   3.187   4.379   0.046  2.2824 -1.7126 -1.7050
 4158SOL     OW13372   2.476   6.570   5.447  0.6637 -0.2270 -0.1231
 4158SOL    HW113373   2.514   6.513   5.375  0.2208 -1.6141  0.7200
 4158SOL    HW213374   2.526   6.554   5.532 -0.3097 -0.3329  0.4356
 4159SOL     OW13375   1.717   2.933   6.931  0.5091  0.4663 -0.5372
 4159SOL    HW113376   1.688   2.848   6.887  0.7421  0.7954 -1.3517
 4159SOL    HW213377   1.716   3.007   6.864 -0.0241  1.1896  0.2378
 4160SOL     OW13378   6.257   0.776   0.930  0.1518 -0.0527 -0.0239
 4160SOL    HW113379   6.169   0.821   0.948  0.1413 -0.2682  0.4682
 4160SOL    HW213380   6.254   0.735   0.839 -0.2006  0.0746 -0.0748
 4161SOL     OW13381   1.455   0.635   4.432  0.6192  0.6949 -0.3241
 4161SOL    HW113382   1.400   0.561   4.470 -2.2008  3.2068  0.8993
 4161SOL    HW213383   1.545   0.600   4.407 -1.8671 -4.2671 -4.3173
 4162SOL     OW13384   6.168   1.895   5.965 -0.1100  0.3856  0.5965
 4162SOL    HW113385   6.193   1.836   5.888 -0.5713  0.3822  0.4483
 4162SOL    HW213386   6.145   1.986   5.931 -0.6487  0.2885  0.6903
 4163SOL     OW13387   4.139   4.375   0.271 -0.2151  0.2689  0.1029
 4163SOL    HW113388   4.228   4.420   0.285 -0.0200 -0.1224  0.1525
 4163SOL    HW213389   4.071   4.416   0.332 -0.1829  0.8954 -0.2814
 4164SOL     OW13390   0.965   4.056   2.857 -0.1780  0.3227 -0.1273
 4164SOL    HW113391   1.036   4.062   2.928 -2.5096  0.1222  2.3928
 4164SOL    HW213392   0.975   3.970   2.808  0.2448 -0.5764  1.4421
 4165SOL     OW13393   4.167   3.434   4.536  0.0178 -0.6589 -0.0674
 4165SOL    HW113394   4.258   3.402   4.560 -0.2178 -2.2726 -1.1705
 4165SOL    HW213395   4.149   3.521   4.581  1.5212 -1.0415  1.3591
 4166SOL     OW13396   3.024   3.671   2.013 -0.0125  0.4195 -0.2866
 4166SOL    HW113397   2.966   3.714   1.944 -1.0684  1.9192  1.4228
 4166SOL    HW213398   3.102   3.627   1.969 -0.2398  1.9473 -2.3633
 4167SOL     OW13399   3.199   3.394   1.629 -0.8368 -0.2381 -0.2226
 4167SOL    HW113400   3.187   3.441   1.716 -0.0155 -1.5137  0.5962
 4167SOL    HW213401   3.126   3.326   1.617 -1.0008 -0.0038 -0.5775
 4168SOL     OW13402   3.081   1.175   5.052 -0.8291 -0.2452 -0.0991
 4168SOL    HW113403   3.101   1.077   5.052  0.3768 -0.0138 -0.2320
 4168SOL    HW213404   3.145   1.222   4.992 -0.8291  0.7360  0.6390
 4169SOL     OW13405   0.334   3.238   2.487  0.3544  0.0808 -0.1252
 4169SOL    HW113406   0.345   3.140   2.507  3.6517  0.2863 -0.4421
 4169SOL    HW213407   0.392   3.263   2.410  0.5915  2.5454  0.7704
 4170SOL     OW13408   3.958   2.126   6.121 -0.1764 -0.5500  0.2514
 4170SOL    HW113409   3.899   2.111   6.042 -1.1468  0.7978  0.6787
 4170SOL    HW213410   3.910   2.097   6.204 -1.2584  2.5439  0.8637
 4171SOL     OW13411   4.945   1.450   1.750 -0.0408 -0.5504 -0.7962
 4171SOL    HW113412   5.042   1.441   1.775 -0.0787  1.3887  0.2750
 4171SOL    HW213413   4.892   1.381   1.800  0.5211 -0.0080  0.6242
 4172SOL     OW13414   5.188   3.990   2.929 -0.0950  0.0713  0.1555
 4172SOL    HW113415   5.197   4.045   3.012  0.6702  0.1770  0.0068
 4172SOL    HW213416   5.100   3.943   2.930  0.2775 -0.6519  1.4778
 4173SOL     OW13417   6.819   0.720   3.511 -0.4405  0.5746 -0.1805
 4173SOL    HW113418   6.754   0.730   3.586 -1.5241 -0.3102 -0.9696
 4173SOL    HW213419   6.882   0.797   3.511 -0.4091  0.5886  1.6346
 4174SOL     OW13420   0.219   6.374   0.677  0.8088  0.3459 -0.3235
 4174SOL    HW113421   0.215   6.470   0.650  2.3619  0.4542 -0.2520
 4174SOL    HW213422   0.289   6.327   0.623 -2.0339 -1.5741 -2.7004
 4175SOL     OW13423   0.158   3.025   4.579  0.3346  0.1930  0.0535
 4175SOL    HW113424   0.146   2.941   4.526 -0.2177 -0.4383  1.1459
 4175SOL    HW213425   0.100   3.097   4.541  3.1111  1.1516 -2.9251
 4176SOL     OW13426   0.431   0.968   5.877  0.0161  0.5211  0.0240
 4176SOL    HW113427   0.392   1.030   5.946  0.5680 -0.3716  1.1693
 4176SOL    HW213428   0.518   1.005   5.844  0.2662  0.4369  0.5860
 4177SOL     OW13429   5.163   4.684   5.083 -0.0479 -0.0365 -0.3401
 4177SOL    HW113430   5.257   4.711   5.066  0.9375 -2.9341 -0.0167
 4177SOL    HW213431   5.147   4.681   5.182  0.5027 -2.2635 -0.2550
 4178SOL     OW13432   3.939   5.674   5.265 -0.4366  0.2256 -0.3612
 4178SOL    HW113433   4.017   5.735   5.263 -0.0528 -0.2465 -2.8927
 4178SOL    HW213434   3.953   5.604   5.335  1.4531  0.1048 -0.8218
 4179SOL     OW13435   3.662   0.850   2.958  0.5780 -0.4251  0.1369
 4179SOL    HW113436   3.675   0.948   2.951  1.5714 -0.4718  1.0396
 4179SOL    HW213437   3.748   0.807   2.987 -0.6833 -1.1512  3.1851
 4180SOL     OW13438   4.189   3.258   6.739  0.0386  0.0240  0.1994
 4180SOL    HW113439   4.188   3.301   6.829  2.0507 -1.3710  0.9786
 4180SOL    HW213440   4.175   3.159   6.749  0.8589 -0.2283 -0.9272
 4181SOL     OW13441   4.880   6.767   3.656 -0.0976 -0.0834  0.2107
 4181SOL    HW113442   4.919   6.700   3.592 -1.2983 -0.9807  0.3728
 4181SOL    HW213443   4.943   6.843   3.667  0.0328  0.2413 -2.2496
 4182SOL     OW13444   3.865   3.889   5.687 -0.0697  0.2488  0.0915
 4182SOL    HW113445   3.965   3.879   5.691 -0.1798 -0.8618  0.5237
 4182SOL    HW213446   3.841   3.955   5.616  0.9471 -0.1285 -0.6258
 4183SOL     OW13447   3.165   4.674   6.485 -0.3564 -0.1483  0.4393
 4183SOL    HW113448   3.167   4.733   6.566 -0.4393  0.1004  0.2623
 4183SOL    HW213449   3.253   4.680   6.437 -0.6470  0.5020 -0.0472
 4184SOL     OW13450   4.172   6.096   3.515 -0.6663  0.2709  0.2870
 4184SOL    HW113451   4.181   6.012   3.462 -1.1772  1.0458 -1.0766
 4184SOL    HW213452   4.254   6.151   3.505 -0.4951  0.1259  0.8556
 4185SOL     OW13453   0.807   5.539   4.271 -0.2331 -0.2596 -0.6541
 4185SOL    HW113454   0.858   5.538   4.185 -0.0869  0.7834 -0.5903
 4185SOL    HW213455   0.742   5.463   4.271  0.8112 -1.1918 -1.0319
 4186SOL     OW13456   3.723   6.052   1.225  0.1543  0.6626  0.3992
 4186SOL    HW113457   3.678   5.987   1.163  2.3207 -1.8241  1.2413
 4186SOL    HW213458   3.658   6.083   1.294 -1.3803  0.7692 -1.0292
 4187SOL     OW13459   0.782   1.046   2.854  0.5799  0.0038 -0.7371
 4187SOL    HW113460   0.765   1.129   2.800  0.9568 -0.8588 -2.2407
 4187SOL    HW213461   0.873   1.011   2.831  0.0776 -1.3067 -0.7964
 4188SOL     OW13462   1.703   1.297   1.368 -0.1955  0.0618 -0.0599
 4188SOL    HW113463   1.675   1.202   1.381 -1.0474  0.2266 -0.6079
 4188SOL    HW213464   1.749   1.330   1.451 -0.0013 -0.7824  0.1747
 4189SOL     OW13465   5.123   0.487   6.552  0.1438  0.5140  0.0432
 4189SOL    HW113466   5.118   0.557   6.624 -1.4272 -0.1198  0.6064
 4189SOL    HW213467   5.095   0.527   6.465  0.6321  0.9209  0.0646
 4190SOL     OW13468   4.661   1.059   2.786 -0.2292 -0.2603  0.5500
 4190SOL    HW113469   4.739   1.111   2.820 -0.6635  1.1261 -0.5068
 4190SOL    HW213470   4.691   0.967   2.759  0.7493 -0.2119  1.4364
 4191SOL     OW13471   2.545   2.768   0.762 -0.2320 -0.2162  0.1774
 4191SOL    HW113472   2.473   2.717   0.809 -0.4470  0.2003  0.3105
 4191SOL    HW213473   2.612   2.705   0.725 -1.4619 -0.7179 -1.2919
 4192SOL     OW13474   0.009   0.720   2.280  0.0692 -0.0372 -0.8759
 4192SOL    HW113475  -0.025   0.786   2.213 -1.3215  0.3210  0.1430
 4192SOL    HW213476  -0.067   0.683   2.332  0.9018 -1.8650 -0.8622
 4193SOL     OW13477   3.443   2.063   4.864 -0.3966  0.3035 -0.6124
 4193SOL    HW113478   3.538   2.090   4.876 -0.5471  0.4727  0.2061
 4193SOL    HW213479   3.419   2.070   4.767  0.8358 -1.1351 -1.0562
 4194SOL     OW13480   1.357   1.569   1.422 -0.0259 -0.7981 -0.2811
 4194SOL    HW113481   1.394   1.512   1.348  0.8551 -1.3606  0.5635
 4194SOL    HW213482   1.314   1.650   1.383 -0.3566 -1.5086 -1.4575
 4195SOL     OW13483   5.249   0.395   0.909  0.0244  0.3870  0.4903
 4195SOL    HW113484   5.157   0.434   0.915  1.0248  3.6082 -2.1808
 4195SOL    HW213485   5.300   0.419   0.991 -1.0073 -0.1022  1.3048
 4196SOL     OW13486   3.241   1.174   5.689  0.1117 -0.1009  0.3475
 4196SOL    HW113487   3.208   1.229   5.612  2.3587 -1.4034 -1.7014
 4196SOL    HW213488   3.223   1.077   5.671  0.4934 -0.4275  1.5796
 4197SOL     OW13489   2.647   1.804   3.678 -0.6280  0.5802 -0.0513
 4197SOL    HW113490   2.624   1.719   3.630  2.8117 -0.6333  0.1863
 4197SOL    HW213491   2.619   1.796   3.774  0.5688 -0.7905  0.2236
 4198SOL     OW13492   1.896   3.903   3.742  0.7985 -0.8828  0.1114
 4198SOL    HW113493   1.832   3.951   3.682 -2.4343 -2.1285  2.3301
 4198SOL    HW213494   1.920   3.815   3.702  1.2830 -0.3579 -0.7877
 4199SOL     OW13495   4.047   3.291   3.119  0.1112 -0.5540  0.2256
 4199SOL    HW113496   4.105   3.323   3.044 -1.2766  0.7301 -0.3643
 4199SOL    HW213497   4.025   3.194   3.106 -0.5511 -0.2288 -1.3739
 4200SOL     OW13498   3.986   1.279   2.561  0.3775 -0.5911 -0.1948
 4200SOL    HW113499   3.976   1.222   2.642 -0.3744  0.6389  0.6092
 4200SOL    HW213500   3.896   1.294   2.520  0.5262  0.2166 -0.2411
 4201SOL     OW13501   1.641   1.498   0.265  0.5069  0.3310  0.2925
 4201SOL    HW113502   1.641   1.460   0.357  0.6294 -0.0826  0.1249
 4201SOL    HW213503   1.565   1.562   0.255 -0.3512 -0.6799  0.2474
 4202SOL     OW13504   2.083   5.293   3.311  0.3510 -0.4697  0.0958
 4202SOL    HW113505   2.016   5.367   3.319 -0.0926 -0.9668  1.4000
 4202SOL    HW213506   2.159   5.322   3.253 -0.6059  0.3932 -0.7705
 4203SOL     OW13507   0.704   2.541   0.371 -0.1859 -0.3409  0.7508
 4203SOL    HW113508   0.619   2.568   0.326  0.8746 -0.8749 -1.7499
 4203SOL    HW213509   0.740   2.619   0.424 -1.8489  0.0948  1.2902
 4204SOL     OW13510   1.419   2.484   1.007  0.2282 -0.3278  0.0209
 4204SOL    HW113511   1.433   2.489   1.106  1.0407 -2.0246  0.0201
 4204SOL    HW213512   1.321   2.488   0.987  0.0486 -0.1125  0.8858
 4205SOL     OW13513   2.612   2.047   2.188 -0.2653  0.3425  0.8890
 4205SOL    HW113514   2.614   1.960   2.235 -2.0239  0.6464  1.5779
 4205SOL    HW213515   2.601   2.032   2.089  0.1095 -0.2097  0.9299
 4206SOL     OW13516   2.404   6.219   2.061  0.3030 -0.2493  0.1216
 4206SOL    HW113517   2.428   6.141   2.119  1.8546  1.3103  1.7128
 4206SOL    HW213518   2.403   6.190   1.965  0.7649 -2.2235  0.6589
 4207SOL     OW13519   1.541   2.987   1.350  0.2385 -0.1881  0.0108
 4207SOL    HW113520   1.487   3.072   1.352 -0.1666 -0.4465  1.2585
 4207SOL    HW213521   1.587   2.979   1.262  1.7792  2.2540  0.4818
 4208SOL     OW13522   6.226   4.382   6.018 -0.2631  0.2368  0.4403
 4208SOL    HW113523   6.171   4.440   6.077  0.1819  0.0411  1.0614
 4208SOL    HW213524   6.298   4.437   5.975 -0.1348  0.2385  0.6563
 4209SOL     OW13525   3.766   4.069   2.699 -0.1152  0.1676  0.0853
 4209SOL    HW113526   3.781   4.091   2.602  0.3501  0.1493  0.1493
 4209SOL    HW213527   3.672   4.039   2.712 -0.5642  1.3939 -0.1419
 4210SOL     OW13528   2.915   3.787   1.777  0.2786 -0.0839  0.0639
 4210SOL    HW113529   2.940   3.883   1.762  0.4756  0.1408  1.6592
 4210SOL    HW213530   2.939   3.733   1.696  0.6163  1.1199 -0.6619
 4211SOL     OW13531   0.522   5.110   1.360  0.5312  1.2178 -0.2646
 4211SOL    HW113532   0.596   5.045   1.375  0.1365  0.8626  0.1839
 4211SOL    HW213533   0.558   5.192   1.315  1.2980  1.2578  0.3965
 4212SOL     OW13534   4.389   0.371   5.945 -0.6320 -0.4023 -0.2208
 4212SOL    HW113535   4.388   0.466   5.916  0.8364 -0.4076 -0.3353
 4212SOL    HW213536   4.376   0.366   6.044  1.8235  0.1298  0.1927
 4213SOL     OW13537   2.690   3.596   1.453  0.4348  0.0682 -0.1064
 4213SOL    HW113538   2.679   3.622   1.549  0.6040 -0.3808  0.0350
 4213SOL    HW213539   2.631   3.654   1.397 -1.4034 -1.1496  0.4708
 4214SOL     OW13540   1.118   2.723   4.117 -0.0057  0.0637 -0.5344
 4214SOL    HW113541   1.202   2.774   4.098 -0.4447  0.7459 -0.6813
 4214SOL    HW213542   1.121   2.688   4.211  0.7400 -0.5238 -0.7646
 4215SOL     OW13543   3.881   3.403   5.269 -0.5256 -0.1695  0.0367
 4215SOL    HW113544   3.879   3.342   5.349 -0.4064  1.2228  1.1386
 4215SOL    HW213545   3.905   3.350   5.187  1.1282 -1.3291  1.2031
 4216SOL     OW13546   1.546   3.083   3.327 -0.1680  0.9414 -0.1177
 4216SOL    HW113547   1.531   3.023   3.249 -0.5925 -0.7859  1.2148
 4216SOL    HW213548   1.518   3.176   3.304 -1.5576  0.2123 -1.5910
 4217SOL     OW13549   4.768   0.266   1.361 -0.3270 -0.2018 -0.1177
 4217SOL    HW113550   4.856   0.225   1.383  0.1922  0.5052 -0.7951
 4217SOL    HW213551   4.697   0.195   1.359 -0.6860 -0.2888  4.5445
 4218SOL     OW13552   3.925   0.803   2.837  0.4500  0.1379 -0.0052
 4218SOL    HW113553   3.922   0.738   2.913  1.4776 -0.8605 -0.7834
 4218SOL    HW213554   4.020   0.814   2.807  0.0649  0.5590 -1.1141
 4219SOL     OW13555   6.495   5.030   6.632  0.2042 -0.7469 -0.3040
 4219SOL    HW113556   6.460   5.103   6.690 -0.8910 -1.5356  0.0725
 4219SOL    HW213557   6.594   5.022   6.644  0.6772  1.9145 -1.8134
 4220SOL     OW13558   1.672   4.850   1.488 -0.4042 -0.1467  0.5423
 4220SOL    HW113559   1.639   4.785   1.419  2.0338 -0.4637 -0.4291
 4220SOL    HW213560   1.623   4.936   1.480 -0.0186 -0.0804 -1.8235
 4221SOL     OW13561   3.438   5.336   3.065 -0.2856  0.1619  0.6775
 4221SOL    HW113562   3.466   5.253   3.017 -0.9230  0.8639 -0.9876
 4221SOL    HW213563   3.454   5.324   3.163  1.1433 -1.2997  0.3254
 4222SOL     OW13564   3.032   1.982   3.861 -0.1202 -0.6150 -1.0474
 4222SOL    HW113565   3.116   2.023   3.825  1.1640 -1.9694  0.2806
 4222SOL    HW213566   2.986   2.047   3.922 -0.3890  0.3390 -2.2200
 4223SOL     OW13567   4.110   3.668   2.479 -0.7286  0.2347  0.0806
 4223SOL    HW113568   4.099   3.569   2.465 -0.5395  0.1842  0.2841
 4223SOL    HW213569   4.203   3.687   2.512 -1.0610  0.3763  0.9797
 4224SOL     OW13570   4.501   0.914   0.642  0.2624  0.4655 -0.3646
 4224SOL    HW113571   4.571   0.885   0.577  0.7000  0.1070  0.2557
 4224SOL    HW213572   4.427   0.960   0.593  0.4244 -0.0876 -1.1585
 4225SOL     OW13573   6.489   2.106   4.270 -0.0077  0.2755 -0.4331
 4225SOL    HW113574   6.434   2.051   4.207  1.2189 -1.1361 -0.3287
 4225SOL    HW213575   6.518   2.190   4.225 -1.9430  0.9063 -0.5883
 4226SOL     OW13576   5.597   5.974   4.699  0.4643 -0.2718 -0.5486
 4226SOL    HW113577   5.527   5.914   4.659 -0.4372  1.9461 -2.5375
 4226SOL    HW213578   5.558   6.024   4.776  1.4473 -2.6383  1.6433
 4227SOL     OW13579   0.721   0.423   1.118  0.1516  0.0452  0.1816
 4227SOL    HW113580   0.679   0.453   1.033 -2.0140 -0.5546  0.9682
 4227SOL    HW213581   0.804   0.371   1.098 -0.5856 -0.5285 -1.6020
 4228SOL     OW13582   0.008   0.176   3.490 -0.3137 -0.4309 -0.8687
 4228SOL    HW113583   0.107   0.189   3.489 -0.3277 -0.3168 -0.7250
 4228SOL    HW213584  -0.026   0.172   3.396 -0.1761 -0.4535 -0.9181
 4229SOL     OW13585   3.701   5.663   1.224  0.4610  0.3012  0.3809
 4229SOL    HW113586   3.621   5.723   1.226 -0.0873 -0.4164  0.2236
 4229SOL    HW213587   3.757   5.681   1.305 -0.2431  0.2929  0.8801
 4230SOL     OW13588   2.804   6.485   3.774  0.3515 -0.5362  0.0200
 4230SOL    HW113589   2.747   6.507   3.853  1.1031  0.4665  0.3105
 4230SOL    HW213590   2.884   6.546   3.773  1.4234 -1.8998 -0.3660
 4231SOL     OW13591   0.200   6.886   3.060 -0.6248 -0.0291 -0.2764
 4231SOL    HW113592   0.172   6.801   3.105  0.3906  0.2922  1.0561
 4231SOL    HW213593   0.300   6.894   3.065 -0.7105  1.2730 -0.3044
 4232SOL     OW13594   0.422   1.590   1.230 -0.0972 -0.0344 -0.4239
 4232SOL    HW113595   0.496   1.592   1.163  1.1237  0.6395  0.8797
 4232SOL    HW213596   0.454   1.546   1.314 -0.8065  1.2438  0.5548
 4233SOL     OW13597   1.219   1.518   5.801 -0.1276  0.2972  0.7144
 4233SOL    HW113598   1.304   1.552   5.843  1.1245 -0.3202 -1.1878
 4233SOL    HW213599   1.225   1.419   5.789 -0.0709  0.5189 -1.5426
 4234SOL     OW13600   0.527   6.514   6.705 -0.2049  0.0641 -0.0028
 4234SOL    HW113601   0.489   6.433   6.750  1.2149 -2.0436 -2.3143
 4234SOL    HW213602   0.524   6.592   6.767 -1.3238 -1.8327  2.4678
 4235SOL     OW13603   6.158   1.672   3.774 -0.2180 -0.2096 -0.1549
 4235SOL    HW113604   6.254   1.648   3.787 -0.1814 -0.4521 -0.8106
 4235SOL    HW213605   6.101   1.615   3.833  0.1392  1.2991  1.7260
 4236SOL     OW13606   2.406   1.451   1.766  0.1558  0.5714  0.2401
 4236SOL    HW113607   2.399   1.389   1.688 -3.0342 -0.4871  1.2057
 4236SOL    HW213608   2.415   1.545   1.734 -1.2235  0.1711 -1.4713
 4237SOL     OW13609   6.023   3.705   2.782 -0.1106 -1.1349 -0.2815
 4237SOL    HW113610   6.094   3.634   2.781 -0.1707 -1.2167  0.5513
 4237SOL    HW213611   6.063   3.792   2.753  0.6567 -0.8994  1.3484
 4238SOL     OW13612   5.979   3.400   6.734 -0.5505  0.7087  0.2389
 4238SOL    HW113613   5.981   3.301   6.746  1.4792  0.5064 -1.1386
 4238SOL    HW213614   5.900   3.426   6.679 -1.0621 -0.1289  0.5560
 4239SOL     OW13615   2.569   2.306   3.503 -1.0080  0.0914 -0.2460
 4239SOL    HW113616   2.588   2.310   3.405 -1.3942  1.7386 -0.2961
 4239SOL    HW213617   2.589   2.215   3.538 -0.7871 -0.4976 -1.8372
 4240SOL     OW13618   5.850   1.839   5.787  0.2831  0.0653  0.4939
 4240SOL    HW113619   5.934   1.841   5.733  1.5832 -0.4138  2.4098
 4240SOL    HW213620   5.824   1.744   5.806 -1.7683  0.1152 -1.5632
 4241SOL     OW13621   2.852   0.660   0.062 -0.8419  0.1824  0.0368
 4241SOL    HW113622   2.775   0.598   0.072 -2.0400  1.7822  1.2755
 4241SOL    HW213623   2.860   0.718   0.144  1.8539 -0.0954  0.0777
 4242SOL     OW13624   5.934   3.786   3.761  0.4342 -0.5553 -0.1408
 4242SOL    HW113625   5.960   3.712   3.699 -0.0360 -0.4995 -0.4135
 4242SOL    HW213626   5.887   3.748   3.840 -0.2743 -0.5134 -0.5336
 4243SOL     OW13627   3.121   3.576   0.569  0.5080  0.0687  0.3022
 4243SOL    HW113628   3.157   3.484   0.584 -1.1808 -0.1286  4.0126
 4243SOL    HW213629   3.031   3.570   0.525 -0.0775 -0.1846  1.4909
 4244SOL     OW13630   0.633   3.686   1.154  0.1818 -0.3358  0.3899
 4244SOL    HW113631   0.700   3.733   1.096 -2.2753  0.7839 -1.7418
 4244SOL    HW213632   0.595   3.751   1.220  0.4062 -0.6997  0.8882
 4245SOL     OW13633   1.898   0.259   6.618  0.1106  0.3772 -0.4692
 4245SOL    HW113634   1.958   0.295   6.547  0.8368 -0.4726 -0.3048
 4245SOL    HW213635   1.917   0.162   6.631 -0.6429  0.3181  0.2597
 4246SOL     OW13636   5.827   5.460   0.938 -0.0517  0.1914 -0.1549
 4246SOL    HW113637   5.896   5.531   0.931 -0.5966  0.8412  0.8713
 4246SOL    HW213638   5.834   5.414   1.027 -1.0437  0.3870  0.0322
 4247SOL     OW13639   4.978   0.479   0.901  0.0658  0.4280  0.1624
 4247SOL    HW113640   4.953   0.388   0.932 -0.5138  0.3660 -0.4547
 4247SOL    HW213641   4.920   0.547   0.946 -0.3887  0.3831 -0.3472
 4248SOL     OW13642   5.331   0.497   1.483  0.3988  0.4891 -0.3077
 4248SOL    HW113643   5.282   0.584   1.474  1.1284  0.8039 -1.4231
 4248SOL    HW213644   5.428   0.512   1.465  0.2917 -0.8270 -2.2081
 4249SOL     OW13645   0.904   2.968   3.034  0.0082 -0.2228  0.4364
 4249SOL    HW113646   0.981   3.032   3.040  0.0788  0.0832 -2.4324
 4249SOL    HW213647   0.940   2.875   3.021 -0.1103 -0.9391  4.0363
 4250SOL     OW13648   5.251   6.332   6.963  0.0658  0.1004 -0.3281
 4250SOL    HW113649   5.289   6.275   7.035 -1.1002 -2.2167 -1.4469
 4250SOL    HW213650   5.251   6.282   6.876  1.1848  2.7038 -1.9399
 4251SOL     OW13651   6.376   4.935   5.742  0.0133  0.3978 -0.0218
 4251SOL    HW113652   6.435   5.011   5.716  1.0873  0.7669  3.0305
 4251SOL    HW213653   6.345   4.947   5.837 -0.7803 -2.3698  0.1820
 4252SOL     OW13654   6.085   6.953   1.164  0.1969 -0.4239 -0.7246
 4252SOL    HW113655   6.168   6.966   1.218 -0.8531 -0.6702  1.0150
 4252SOL    HW213656   6.072   7.031   1.103  1.5881 -0.2928 -0.8718
 4253SOL     OW13657   2.548   3.226   1.366  0.2321 -0.9017  0.2141
 4253SOL    HW113658   2.481   3.231   1.440  0.3738 -0.4395  0.3151
 4253SOL    HW213659   2.504   3.250   1.280  0.3143 -0.3666  0.3150
 4254SOL     OW13660   1.340   1.293   1.508 -0.2735 -0.3020 -0.2621
 4254SOL    HW113661   1.335   1.393   1.495  1.2167 -0.0022  1.1836
 4254SOL    HW213662   1.380   1.251   1.427  2.8339  0.7788  0.5969
 4255SOL     OW13663   1.050   6.663   1.687  0.2239  0.1090 -0.4628
 4255SOL    HW113664   1.041   6.665   1.787  0.4039 -3.8114 -0.2223
 4255SOL    HW213665   1.140   6.626   1.662 -1.0119 -2.1352 -1.9287
 4256SOL     OW13666   3.832   3.447   3.230  0.9462 -0.4206 -0.4375
 4256SOL    HW113667   3.790   3.503   3.158  0.7824 -0.8513 -0.6791
 4256SOL    HW213668   3.909   3.397   3.192 -0.2127 -2.0285 -0.7771
 4257SOL     OW13669   0.537   0.710   5.855 -0.1909 -0.1010  0.5224
 4257SOL    HW113670   0.449   0.717   5.809  0.7242 -1.6156 -1.6564
 4257SOL    HW213671   0.566   0.800   5.886 -1.9655  0.5876  0.2718
 4258SOL     OW13672   0.797   4.548   1.422 -0.2151 -0.1920 -0.3630
 4258SOL    HW113673   0.891   4.571   1.450 -1.1582  0.9732  2.1600
 4258SOL    HW213674   0.782   4.579   1.328  1.3677  1.2922 -0.1824
 4259SOL     OW13675   4.321   2.505   6.358 -0.0486 -0.4709 -0.1774
 4259SOL    HW113676   4.328   2.449   6.275 -0.5800  0.3973 -0.8261
 4259SOL    HW213677   4.275   2.452   6.429  1.4123 -1.6277 -0.0390
 4260SOL     OW13678   0.060   6.078   2.970  0.1523  0.0888  0.0903
 4260SOL    HW113679   0.117   6.119   2.899  1.2294 -1.6495 -0.1053
 4260SOL    HW213680   0.020   5.993   2.935  0.3046 -0.5412  1.4030
 4261SOL     OW13681   3.846   4.554   6.025  0.4275 -0.0222  0.1924
 4261SOL    HW113682   3.921   4.510   5.975  1.1645  1.3280  0.0522
 4261SOL    HW213683   3.778   4.588   5.961  0.0934 -0.5117  0.2764
 4262SOL     OW13684   6.409   4.800   6.493  0.2627  0.3066 -0.1504
 4262SOL    HW113685   6.440   4.720   6.544  0.9105  0.3034 -0.5362
 4262SOL    HW213686   6.430   4.883   6.545  1.4838  0.3435 -0.6567
 4263SOL     OW13687   6.790   4.713   6.266  0.0631 -0.0735  0.0043
 4263SOL    HW113688   6.699   4.705   6.224 -0.2277 -1.0669  0.7824
 4263SOL    HW213689   6.859   4.685   6.200 -0.1348  1.2077 -0.7780
 4264SOL     OW13690   0.598   6.364   3.507  0.0471  0.2571  0.0099
 4264SOL    HW113691   0.518   6.326   3.554 -0.4007 -0.2797 -1.1665
 4264SOL    HW213692   0.589   6.351   3.409  0.9944  1.3347 -0.2449
 4265SOL     OW13693   2.395   3.090   5.788  0.2048 -0.5440  0.1662
 4265SOL    HW113694   2.399   3.001   5.743  1.6828 -0.7626  0.6564
 4265SOL    HW213695   2.479   3.104   5.841 -0.8818  0.2819  1.7446
 4266SOL     OW13696   2.901   4.999   1.886 -0.1312  0.3576  0.2498
 4266SOL    HW113697   2.935   5.046   1.805  0.2195  1.7089  1.1419
 4266SOL    HW213698   2.936   4.905   1.888  2.6156  1.2910  0.4834
 4267SOL     OW13699   6.283   0.204   0.504  0.1400  0.0472 -0.5622
 4267SOL    HW113700   6.304   0.129   0.441  2.4204 -0.6487  0.8940
 4267SOL    HW213701   6.254   0.166   0.592 -1.3326  0.9730 -0.6147
 4268SOL     OW13702   0.957   1.119   3.409 -0.5295  0.0229 -0.1031
 4268SOL    HW113703   0.908   1.190   3.459 -0.2694 -0.4963  0.9191
 4268SOL    HW213704   1.008   1.160   3.333 -1.1350  0.7878 -0.0992
 4269SOL     OW13705   3.569   3.664   2.356  0.0158  0.9955  0.8474
 4269SOL    HW113706   3.526   3.750   2.384 -0.4457  1.9787 -2.4682
 4269SOL    HW213707   3.661   3.682   2.322 -0.0170  0.1640  0.2903
 4270SOL     OW13708   1.559   3.793   6.546  0.1632  0.3615  0.4296
 4270SOL    HW113709   1.588   3.713   6.599 -0.1491  0.5135  0.8294
 4270SOL    HW213710   1.484   3.766   6.485  0.1269  0.3271  0.4895
 4271SOL     OW13711   6.674   0.619   1.299 -0.4159  0.0882  0.5946
 4271SOL    HW113712   6.651   0.712   1.271 -0.0493 -0.2152 -0.7813
 4271SOL    HW213713   6.772   0.612   1.314 -0.2710 -0.3235 -0.4093
 4272SOL     OW13714   5.491   1.534   4.011  0.6747  0.5208  0.7004
 4272SOL    HW113715   5.507   1.437   4.033 -1.2714 -0.0039 -0.0008
 4272SOL    HW213716   5.436   1.575   4.084 -0.6024  0.4129 -0.1782
 4273SOL     OW13717   5.824   3.284   3.705  0.4969 -0.3871 -0.0149
 4273SOL    HW113718   5.764   3.296   3.625  0.9574  0.2486 -0.2771
 4273SOL    HW213719   5.873   3.197   3.697 -1.2635 -1.4944  0.8004
 4274SOL     OW13720   0.255   6.313   4.252  0.0401 -0.2993 -0.1564
 4274SOL    HW113721   0.215   6.255   4.323 -0.6736  0.6791  0.2663
 4274SOL    HW213722   0.352   6.327   4.272  0.5304 -2.2550 -0.8983
 4275SOL     OW13723   6.901   4.524   3.623  0.0003 -0.5002  0.4923
 4275SOL    HW113724   6.951   4.584   3.685  0.8685 -0.3881 -0.2956
 4275SOL    HW213725   6.868   4.577   3.545  2.4555 -1.3139 -1.2173
 4276SOL     OW13726   5.075   6.633   4.738  0.8677  0.0943 -0.1868
 4276SOL    HW113727   4.988   6.589   4.714  1.5159 -0.0940 -2.3784
 4276SOL    HW213728   5.072   6.730   4.711  0.7645  0.5067  1.2530
 4277SOL     OW13729   1.368   6.031   6.217  0.1719 -0.2258  0.6161
 4277SOL    HW113730   1.322   6.091   6.281  2.0152  1.8116  0.1533
 4277SOL    HW213731   1.343   5.936   6.236 -2.2273  0.5897  1.8766
 4278SOL     OW13732   0.037   1.946   3.114  0.5725 -0.6609 -0.0353
 4278SOL    HW113733   0.071   1.855   3.090 -0.1497 -0.9595  0.0700
 4278SOL    HW213734  -0.061   1.951   3.098  0.5398 -0.0151  0.3157
 4279SOL     OW13735   2.463   2.862   5.629  0.3766 -0.3034 -0.5494
 4279SOL    HW113736   2.464   2.829   5.723 -1.5841  1.7190  0.2615
 4279SOL    HW213737   2.480   2.785   5.567 -1.2759 -2.2951  1.3001
 4280SOL     OW13738   3.100   0.815   6.472  0.2315  0.1405  0.4335
 4280SOL    HW113739   3.029   0.807   6.541  1.3728  0.5542  1.6886
 4280SOL    HW213740   3.125   0.911   6.460  0.1697  0.0588 -0.4395
 4281SOL     OW13741   1.665   5.167   6.961  0.1072  0.1690 -0.5544
 4281SOL    HW113742   1.657   5.072   6.930 -0.6079 -0.4659  1.3910
 4281SOL    HW213743   1.744   5.175   7.022 -0.5114  0.5151  0.2229
 4282SOL     OW13744   3.556   5.151   2.758 -0.2574  0.3926 -0.6807
 4282SOL    HW113745   3.541   5.062   2.714 -3.9674 -0.5406  1.9786
 4282SOL    HW213746   3.500   5.220   2.713 -1.2792  0.2100  0.2607
 4283SOL     OW13747   0.826   6.736   0.594 -0.1950  0.7487  0.2767
 4283SOL    HW113748   0.915   6.728   0.641 -0.0254 -2.5546 -0.3243
 4283SOL    HW213749   0.753   6.733   0.662  0.1222  1.3759  0.6533
 4284SOL     OW13750   0.054   3.277   0.065 -0.2071  0.8468 -0.2690
 4284SOL    HW113751  -0.036   3.251   0.099  0.7847 -1.2854  0.9299
 4284SOL    HW213752   0.070   3.233  -0.023 -0.2339  1.0089 -0.3548
 4285SOL     OW13753   0.372   6.947   4.952  0.8079 -0.0804 -0.1392
 4285SOL    HW113754   0.462   6.983   4.979  0.6376  1.1449 -1.1279
 4285SOL    HW213755   0.301   6.996   5.002  0.6090  0.3960 -0.8760
 4286SOL     OW13756   1.736   4.421   3.804 -0.1333 -0.1497 -0.1339
 4286SOL    HW113757   1.831   4.443   3.784 -0.1001 -1.0775 -1.0896
 4286SOL    HW213758   1.677   4.462   3.733 -0.5591  1.2636  0.9935
 4287SOL     OW13759   3.251   6.572   3.307 -0.1916  0.1664 -0.1650
 4287SOL    HW113760   3.273   6.543   3.214  0.3316 -1.3057  0.3795
 4287SOL    HW213761   3.292   6.661   3.325 -0.8387  0.7552 -1.5362
 4288SOL     OW13762   0.485   4.059   4.976 -0.8712 -0.1316  0.3535
 4288SOL    HW113763   0.537   4.144   4.973  1.7237 -1.6573 -1.4149
 4288SOL    HW213764   0.440   4.043   4.888 -1.4941 -0.5408  0.7276
 4289SOL     OW13765   4.220   6.154   2.351 -0.2915  0.0777 -0.0400
 4289SOL    HW113766   4.137   6.141   2.296  0.3356 -0.2382 -0.9162
 4289SOL    HW213767   4.234   6.074   2.409 -1.2418  0.6301  1.0002
 4290SOL     OW13768   0.532   4.785   1.016 -0.1374  0.1704 -0.4074
 4290SOL    HW113769   0.465   4.717   0.984  1.0858 -0.6809 -1.2556
 4290SOL    HW213770   0.489   4.876   1.017 -0.5629  0.1365 -3.7414
 4291SOL     OW13771   6.004   6.749   1.004 -0.3102  0.7267  0.3464
 4291SOL    HW113772   6.033   6.826   1.060 -1.0998  0.9768  0.4288
 4291SOL    HW213773   6.078   6.682   0.997  0.2747  1.3503  0.5202
 4292SOL     OW13774   1.809   5.877   4.008  0.3483  0.1953 -0.2094
 4292SOL    HW113775   1.829   5.809   3.938 -1.5915  1.3537 -2.0264
 4292SOL    HW213776   1.850   5.965   3.983  1.4608  0.1344  1.2722
 4293SOL     OW13777   5.722   4.311   6.828 -0.3038 -0.1805  0.3063
 4293SOL    HW113778   5.748   4.249   6.902 -1.0243 -1.3428 -0.3674
 4293SOL    HW213779   5.736   4.265   6.740  0.1933  1.0346 -0.2768
 4294SOL     OW13780   6.687   1.309   5.160 -0.1371  0.6004  0.2103
 4294SOL    HW113781   6.721   1.400   5.185  2.5041 -0.0290 -0.7908
 4294SOL    HW213782   6.592   1.317   5.130 -0.4086  2.7897  1.4297
 4295SOL     OW13783   5.854   5.699   3.690 -0.4063 -0.1874  0.8670
 4295SOL    HW113784   5.763   5.660   3.679  0.0086 -0.6214 -1.6326
 4295SOL    HW213785   5.902   5.650   3.763 -0.7314 -2.9079 -0.5856
 4296SOL     OW13786   0.409   3.234   0.413 -0.5912 -0.3174 -0.1557
 4296SOL    HW113787   0.462   3.311   0.379 -0.6653 -0.1713  0.0573
 4296SOL    HW213788   0.471   3.158   0.435 -0.5368 -0.3829 -0.5322
 4297SOL     OW13789   4.628   0.544   0.885 -0.3394  0.2537 -0.1031
 4297SOL    HW113790   4.608   0.600   0.805 -0.9099  3.0134  1.8405
 4297SOL    HW213791   4.543   0.518   0.930 -0.1347 -2.7631 -1.1880
 4298SOL     OW13792   0.759   4.480   3.456  0.2341 -0.1795  0.0458
 4298SOL    HW113793   0.845   4.443   3.492 -0.9876 -1.6293  1.6534
 4298SOL    HW213794   0.717   4.413   3.395 -0.2984  0.0433  0.1625
 4299SOL     OW13795   6.802   1.750   3.462 -0.4036 -0.2240  0.6330
 4299SOL    HW113796   6.866   1.826   3.465  1.5321 -1.7815  1.1335
 4299SOL    HW213797   6.817   1.691   3.542 -1.7690 -1.1908  0.2179
 4300SOL     OW13798   6.206   5.912   0.694 -0.0245  0.6784  0.1751
 4300SOL    HW113799   6.274   5.892   0.623 -0.0602 -0.7091  0.4981
 4300SOL    HW213800   6.114   5.901   0.657 -0.1372  3.2724 -0.4643
 4301SOL     OW13801   0.938   5.099   5.612 -0.1417 -0.7421  0.3434
 4301SOL    HW113802   0.966   5.195   5.613  0.5849 -0.9554  1.4748
 4301SOL    HW213803   0.894   5.079   5.524  0.7223  0.3264 -0.3618
 4302SOL     OW13804   1.468   0.458   6.132 -0.3358  0.1890  0.3438
 4302SOL    HW113805   1.545   0.491   6.077  1.7893 -0.6917  2.6098
 4302SOL    HW213806   1.408   0.535   6.156  1.5241  1.4848  1.0225
 4303SOL     OW13807   0.814   1.476   5.239  0.0236  0.3724 -0.1243
 4303SOL    HW113808   0.818   1.472   5.140 -1.3007 -0.3941 -0.1598
 4303SOL    HW213809   0.720   1.489   5.269  0.2702 -0.3536  1.0651
 4304SOL     OW13810   0.276   1.766   1.923 -0.2711 -0.5693  0.2673
 4304SOL    HW113811   0.190   1.723   1.897  0.5787 -1.2554 -1.5677
 4304SOL    HW213812   0.281   1.858   1.883  0.9551 -1.5528 -2.0186
 4305SOL     OW13813   0.586   5.290   1.694  0.2842  0.3723  0.2644
 4305SOL    HW113814   0.527   5.371   1.698 -1.8385 -1.1409  3.0407
 4305SOL    HW213815   0.530   5.208   1.694  2.2570 -1.1942  3.8395
 4306SOL     OW13816   1.365   4.516   6.847 -0.7615 -0.2742  1.2312
 4306SOL    HW113817   1.388   4.449   6.777 -2.1569 -0.5275  0.9900
 4306SOL    HW213818   1.425   4.504   6.926  1.8591  0.9584 -0.4081
 4307SOL     OW13819   4.192   3.959   6.079 -0.1855 -0.4817 -0.0785
 4307SOL    HW113820   4.261   3.959   6.006 -0.2194 -0.7355 -0.1134
 4307SOL    HW213821   4.130   3.882   6.065  0.0273 -0.7490  0.4266
 4308SOL     OW13822   3.217   0.904   4.127 -0.0196 -0.3352 -0.0123
 4308SOL    HW113823   3.250   0.893   4.033 -0.1807  2.3724 -0.4778
 4308SOL    HW213824   3.192   0.815   4.164 -1.5081 -1.3810 -3.1302
 4309SOL     OW13825   1.985   0.109   3.149  0.0356 -0.0551 -0.1014
 4309SOL    HW113826   1.889   0.133   3.163 -0.3949 -1.1372 -1.0830
 4309SOL    HW213827   2.029   0.095   3.238 -0.5324  1.0481  0.3776
 4310SOL     OW13828   4.974   4.383   0.903 -0.0692 -0.5666 -0.1029
 4310SOL    HW113829   4.968   4.321   0.825 -1.5497  0.3318 -0.7552
 4310SOL    HW213830   4.915   4.351   0.977 -1.1802  0.2277 -0.6056
 4311SOL     OW13831   3.313   4.807   1.781 -1.1431 -0.4921 -0.0340
 4311SOL    HW113832   3.269   4.845   1.863 -1.0080  1.1395 -0.6694
 4311SOL    HW213833   3.411   4.798   1.797 -1.0156  0.4438 -0.1999
 4312SOL     OW13834   4.979   1.899   1.004  0.7456 -0.4123 -0.2558
 4312SOL    HW113835   4.888   1.930   1.031  0.5460 -1.0278 -0.2148
 4312SOL    HW213836   4.994   1.921   0.907  0.0908 -1.3568 -0.5805
 4313SOL     OW13837   3.989   1.931   2.774 -0.5415 -0.4333  0.2305
 4313SOL    HW113838   4.052   1.915   2.698 -0.6813 -2.0533  0.4166
 4313SOL    HW213839   3.988   2.028   2.797  1.4857 -0.3013 -0.1002
 4314SOL     OW13840   2.517   6.167   5.568 -0.5196 -0.1875 -0.4389
 4314SOL    HW113841   2.425   6.135   5.592 -0.1523 -1.7561 -0.9934
 4314SOL    HW213842   2.574   6.089   5.544 -0.4114  0.9480 -4.8549
 4315SOL     OW13843   2.922   1.732   6.804  0.5603  0.1231  0.3676
 4315SOL    HW113844   3.003   1.681   6.778 -0.2924 -0.2604 -1.7667
 4315SOL    HW213845   2.840   1.678   6.785 -0.3194  1.7922 -0.8650
 4316SOL     OW13846   3.191   3.333   2.479  0.4170  0.1002 -0.0305
 4316SOL    HW113847   3.182   3.353   2.381  0.3540  0.6920  0.0938
 4316SOL    HW213848   3.106   3.291   2.512  0.4769 -0.1961 -0.2528
 4317SOL     OW13849   4.338   1.482   4.276 -0.7232  0.2772  0.1213
 4317SOL    HW113850   4.390   1.411   4.229 -0.6740  0.0366  0.5346
 4317SOL    HW213851   4.299   1.545   4.208  1.1213  1.1952 -0.1498
 4318SOL     OW13852   6.811   5.130   2.567 -0.6034 -0.4952 -0.0814
 4318SOL    HW113853   6.748   5.153   2.641  0.0084 -2.0490  0.9970
 4318SOL    HW213854   6.759   5.107   2.484 -1.7525 -3.9292  1.3809
 4319SOL     OW13855   6.461   5.988   1.082 -0.9364  0.1855  0.1781
 4319SOL    HW113856   6.516   5.996   1.165 -1.1008 -0.0158  0.3084
 4319SOL    HW213857   6.368   5.959   1.106 -0.5446 -1.5187 -0.1921
 4320SOL     OW13858   0.686   3.580   5.912  0.0045 -0.1672 -0.5047
 4320SOL    HW113859   0.776   3.586   5.955  0.0312 -1.9328 -0.2224
 4320SOL    HW213860   0.631   3.510   5.958  0.3441 -2.8397 -3.7057
 4321SOL     OW13861   6.351   3.034   2.165 -0.2349 -0.4428 -0.3712
 4321SOL    HW113862   6.357   3.106   2.095 -0.1451 -0.4068 -0.3263
 4321SOL    HW213863   6.405   2.955   2.136 -0.6245 -0.6317 -0.5883
 4322SOL     OW13864   2.389   2.029   2.522  0.2625 -0.0791  0.1644
 4322SOL    HW113865   2.339   2.115   2.518  0.7636  0.2735  1.2141
 4322SOL    HW213866   2.458   2.033   2.595  0.9109 -1.0373 -0.3692
 4323SOL     OW13867   1.197   1.937   4.569  0.7844 -0.0625  0.7147
 4323SOL    HW113868   1.241   1.974   4.651  2.9420  1.9501 -1.1870
 4323SOL    HW213869   1.123   1.998   4.541 -0.0325 -0.8141  1.2058
 4324SOL     OW13870   2.087   3.956   3.209  0.0132 -0.0531  0.1397
 4324SOL    HW113871   2.162   4.013   3.176 -0.9827  1.5685  0.5106
 4324SOL    HW213872   2.004   3.975   3.156 -0.8904  0.5098  1.6555
 4325SOL     OW13873   5.578   2.783   4.159 -0.4572 -0.1312  0.1291
 4325SOL    HW113874   5.583   2.831   4.246 -1.9253 -0.6297  0.5119
 4325SOL    HW213875   5.669   2.747   4.135  0.4063  1.7492  0.4113
 4326SOL     OW13876   5.803   4.257   1.351  0.2393 -0.4087 -0.0790
 4326SOL    HW113877   5.869   4.261   1.425 -0.2240 -0.5744  0.3451
 4326SOL    HW213878   5.750   4.172   1.356 -2.9204  1.4653  2.1590
 4327SOL     OW13879   4.651   1.134   1.066 -0.5358  0.4811 -0.5203
 4327SOL    HW113880   4.668   1.226   1.101  1.8330 -0.3861  0.8617
 4327SOL    HW213881   4.722   1.111   0.999 -1.6156 -0.0494 -1.5115
 4328SOL     OW13882   1.293   1.933   4.093  0.1868 -0.3353  0.2194
 4328SOL    HW113883   1.206   1.904   4.132 -0.0484  0.0924  0.0261
 4328SOL    HW213884   1.365   1.869   4.120 -0.4951 -1.7283 -1.0551
 4329SOL     OW13885   2.101   2.404   3.590 -0.3619  0.0074 -0.2009
 4329SOL    HW113886   2.104   2.332   3.660  1.9654  0.3327  0.1139
 4329SOL    HW213887   2.115   2.493   3.634 -2.9703  0.7261 -0.6168
 4330SOL     OW13888   6.544   1.685   4.092 -0.2214 -0.1434  0.1661
 4330SOL    HW113889   6.569   1.756   4.158 -0.9660  0.4688 -0.1923
 4330SOL    HW213890   6.537   1.597   4.139 -0.1364  0.1738  0.7899
 4331SOL     OW13891   3.068   2.182   4.763  0.3857 -0.0590  0.2435
 4331SOL    HW113892   3.115   2.215   4.845  0.4150  0.3887  0.0444
 4331SOL    HW213893   3.133   2.177   4.687  0.5470 -1.1968  0.4240
 4332SOL     OW13894   2.022   6.862   1.205  0.0211 -0.1831  0.1989
 4332SOL    HW113895   1.955   6.788   1.212 -0.0127 -0.3272 -1.3229
 4332SOL    HW213896   1.984   6.944   1.249 -1.0077 -0.3796 -0.2725
 4333SOL     OW13897   4.802   4.204   3.769 -0.1612 -0.6922 -1.3535
 4333SOL    HW113898   4.767   4.142   3.839  0.2846 -0.4288 -0.8904
 4333SOL    HW213899   4.849   4.152   3.698 -1.0472 -1.0057 -1.7211
 4334SOL     OW13900   2.710   5.843   1.395  0.2298 -0.0560  0.0016
 4334SOL    HW113901   2.624   5.892   1.382  0.2189 -0.0111  0.2329
 4334SOL    HW213902   2.722   5.823   1.493 -0.7357 -2.2963 -0.2802
 4335SOL     OW13903   6.309   2.139   3.901  0.7218  0.0466 -0.4544
 4335SOL    HW113904   6.347   2.122   3.992 -0.4743  0.2435  0.1063
 4335SOL    HW213905   6.247   2.065   3.876 -0.2597  0.8084 -0.3624
 4336SOL     OW13906   3.132   2.981   4.451 -0.2759  0.3454 -0.6134
 4336SOL    HW113907   3.142   2.920   4.530  2.4101 -1.0215 -1.8572
 4336SOL    HW213908   3.158   3.074   4.477  2.1859 -0.3989 -0.1834
 4337SOL     OW13909   2.338   2.972   0.151 -0.2527  0.0930  0.6901
 4337SOL    HW113910   2.412   3.029   0.187  0.1970 -0.6994  1.0626
 4337SOL    HW213911   2.263   3.030   0.119  0.4481  0.9051  0.4819
 4338SOL     OW13912   5.512   3.328   1.468 -0.2889  0.0326 -0.4197
 4338SOL    HW113913   5.429   3.370   1.433 -0.1255  0.6920 -0.0233
 4338SOL    HW213914   5.492   3.282   1.555 -0.1970  0.3761 -0.2148
 4339SOL     OW13915   6.086   2.343   3.966 -0.0412  0.3678 -0.7928
 4339SOL    HW113916   6.144   2.403   4.022 -1.2081 -1.5375  2.7368
 4339SOL    HW213917   6.144   2.288   3.906  1.6994 -0.0653  1.1677
 4340SOL     OW13918   2.183   4.847   5.675  0.0755 -0.6063  0.7870
 4340SOL    HW113919   2.218   4.838   5.582 -1.4638 -0.0781  0.1192
 4340SOL    HW213920   2.223   4.928   5.718  0.6586 -0.7509  0.5198
 4341SOL     OW13921   4.772   6.559   4.602  0.3248  0.1464 -0.3023
 4341SOL    HW113922   4.693   6.512   4.562  1.3941 -0.0270 -2.3675
 4341SOL    HW213923   4.785   6.528   4.696  0.2091 -2.7751 -1.1467
 4342SOL     OW13924   6.432   2.626   3.796 -0.4071 -0.5899 -0.2952
 4342SOL    HW113925   6.366   2.628   3.721 -1.5267 -2.1362  0.5814
 4342SOL    HW213926   6.516   2.582   3.765 -0.3660 -0.0407 -0.9838
 4343SOL     OW13927   0.225   3.725   4.059 -0.3898  0.0963 -0.0681
 4343SOL    HW113928   0.316   3.757   4.036  0.1366 -2.0769 -1.3557
 4343SOL    HW213929   0.161   3.801   4.057  1.0300  1.3089 -1.2901
 4344SOL     OW13930   0.976   3.744   5.331 -0.1020 -0.3775 -0.0170
 4344SOL    HW113931   1.015   3.747   5.423 -0.2177 -1.4067  0.0755
 4344SOL    HW213932   0.935   3.833   5.310  2.1972  0.7533 -0.0926
 4345SOL     OW13933   5.581   1.952   6.519 -0.1370 -0.4163 -0.3612
 4345SOL    HW113934   5.600   1.918   6.611  1.1907 -0.4006 -0.6100
 4345SOL    HW213935   5.540   2.044   6.525  0.3033 -0.2546  0.1992
 4346SOL     OW13936   4.941   3.369   5.773  0.0668  0.5557  0.5019
 4346SOL    HW113937   4.971   3.332   5.860 -1.7253  0.4706  1.1369
 4346SOL    HW213938   4.895   3.456   5.788  2.0149  1.8611 -0.6893
 4347SOL     OW13939   2.844   2.777   6.601  0.1746 -0.0763  0.1368
 4347SOL    HW113940   2.862   2.842   6.527 -0.5654 -1.2371 -1.1285
 4347SOL    HW213941   2.883   2.688   6.577 -2.3093 -1.1869 -0.1484
 4348SOL     OW13942   6.573   2.187   4.513  0.0628 -0.0481  0.2753
 4348SOL    HW113943   6.626   2.113   4.553  0.4303  0.1916  0.2452
 4348SOL    HW213944   6.565   2.173   4.414 -0.2221 -0.2619  0.3290
 4349SOL     OW13945   5.796   6.128   0.237 -0.1979  0.0730  0.1437
 4349SOL    HW113946   5.873   6.085   0.284 -0.5099  0.0075  0.6094
 4349SOL    HW213947   5.770   6.073   0.157  0.5446  0.3585 -0.2992
 4350SOL     OW13948   3.370   0.739   0.564  0.0611  1.3131  0.4213
 4350SOL    HW113949   3.341   0.742   0.468  0.2366 -1.3475  0.2251
 4350SOL    HW213950   3.469   0.752   0.569  0.4317 -0.9222 -0.0642
 4351SOL     OW13951   2.461   2.071   4.896  0.4766 -0.5953  0.4208
 4351SOL    HW113952   2.557   2.051   4.915  0.5655 -0.8007 -0.1974
 4351SOL    HW213953   2.403   1.998   4.930  0.6752 -1.2101 -0.5194
 4352SOL     OW13954   5.445   6.574   2.371  0.0425  0.4435 -0.3480
 4352SOL    HW113955   5.443   6.556   2.272 -1.8543 -0.2057 -0.2402
 4352SOL    HW213956   5.472   6.491   2.419  2.3195  1.1233 -0.3266
 4353SOL     OW13957   6.418   0.689   0.496 -0.0228  0.0510 -0.4225
 4353SOL    HW113958   6.440   0.787   0.500  0.4001 -0.0646  0.1885
 4353SOL    HW213959   6.371   0.669   0.410  1.2713  0.5151 -1.2701
 4354SOL     OW13960   2.386   0.425   1.944  0.8321 -0.1420  0.5242
 4354SOL    HW113961   2.299   0.389   1.976  1.2954 -1.4132  0.3799
 4354SOL    HW213962   2.400   0.516   1.984  0.1736 -0.5830  1.8292
 4355SOL     OW13963   6.200   6.212   0.485  0.5539 -0.5552  0.0771
 4355SOL    HW113964   6.274   6.149   0.507  0.9401  0.0702  0.6262
 4355SOL    HW213965   6.239   6.299   0.454  0.1219  0.2775  1.7216
 4356SOL     OW13966   4.764   2.514   3.950  0.3650  1.1923  0.7263
 4356SOL    HW113967   4.719   2.485   3.865 -0.1119 -1.0483  1.6927
 4356SOL    HW213968   4.694   2.536   4.018  0.6684 -0.8437  1.7551
 4357SOL     OW13969   6.629   2.685   4.968 -0.5406 -0.0476  0.0430
 4357SOL    HW113970   6.573   2.728   4.897 -1.8472 -0.9768  0.4614
 4357SOL    HW213971   6.644   2.589   4.944 -0.3588 -0.1756  0.6517
 4358SOL     OW13972   6.166   6.700   2.261  0.2454 -0.6082 -0.0644
 4358SOL    HW113973   6.175   6.800   2.259 -0.6752 -0.4557 -3.6099
 4358SOL    HW213974   6.245   6.661   2.308  1.3680  1.7234  0.1721
 4359SOL     OW13975   4.453   6.755   2.409  0.1389  0.5122 -0.4733
 4359SOL    HW113976   4.399   6.758   2.494  0.8534  1.7978 -0.0283
 4359SOL    HW213977   4.392   6.767   2.331 -0.3631  0.8303 -0.0434
 4360SOL     OW13978   5.725   1.402   3.503 -0.1319 -0.3999 -0.3215
 4360SOL    HW113979   5.796   1.448   3.449  0.9935 -1.7749 -0.1011
 4360SOL    HW213980   5.744   1.416   3.600 -0.3519 -0.4968 -0.2662
 4361SOL     OW13981   1.177   4.666   0.140  0.0217 -0.0227 -0.1935
 4361SOL    HW113982   1.193   4.621   0.052 -2.9166 -1.1749 -0.2268
 4361SOL    HW213983   1.160   4.763   0.124 -2.7833 -0.5880 -1.3008
 4362SOL     OW13984   1.536   4.432   5.346 -0.5435  0.2414 -0.8681
 4362SOL    HW113985   1.477   4.354   5.365 -0.5152  0.4794  0.2589
 4362SOL    HW213986   1.604   4.406   5.277 -0.1615 -0.9169 -0.0840
 4363SOL     OW13987   3.394   2.720   0.220 -0.2308 -0.1503 -0.2028
 4363SOL    HW113988   3.315   2.665   0.249  1.3567 -2.6072 -0.2931
 4363SOL    HW213989   3.467   2.711   0.287  0.3547  1.3021 -0.6173
 4364SOL     OW13990   3.309   3.860   1.348  0.2240  0.0917  0.2656
 4364SOL    HW113991   3.368   3.821   1.420  0.2573 -1.9060 -0.7831
 4364SOL    HW213992   3.214   3.858   1.378  0.5408  3.1627  1.8938
 4365SOL     OW13993   1.898   6.306   1.848 -0.3146 -0.9200 -0.3797
 4365SOL    HW113994   1.909   6.381   1.913  0.5950 -0.3910 -1.1088
 4365SOL    HW213995   1.827   6.329   1.782 -1.1162 -1.3818  0.3037
 4366SOL     OW13996   4.804   0.728   3.919 -0.4260 -0.0544 -0.3700
 4366SOL    HW113997   4.766   0.663   3.984  1.1566  0.3433  1.0229
 4366SOL    HW213998   4.763   0.819   3.934  0.5798  0.2352  0.7008
 4367SOL     OW13999   4.553   1.198   3.863  0.2642 -0.2993  0.1052
 4367SOL    HW114000   4.456   1.188   3.842  0.3609  0.6318 -0.8427
 4367SOL    HW214001   4.607   1.158   3.790  0.5979 -0.3574  0.3811
 4368SOL     OW14002   4.362   4.218   6.969  0.3570  0.1769 -0.0578
 4368SOL    HW114003   4.428   4.147   6.947  1.0291 -0.7792  4.2274
 4368SOL    HW214004   4.292   4.182   7.031  1.1882  3.2423  3.0042
 4369SOL     OW14005   2.864   0.856   0.273  0.6624 -0.0762  0.1644
 4369SOL    HW114006   2.797   0.927   0.252 -0.2054 -0.7043  0.7285
 4369SOL    HW214007   2.942   0.897   0.321 -0.7450  0.2332  2.3268
 4370SOL     OW14008   0.715   4.204   2.516  0.3974 -0.1919  0.3355
 4370SOL    HW114009   0.671   4.141   2.580  1.3156  0.9312  2.1322
 4370SOL    HW214010   0.804   4.232   2.552  0.2246  1.7697 -0.6291
 4371SOL     OW14011   6.186   2.886   6.240  0.2430  0.4623 -0.6266
 4371SOL    HW114012   6.185   2.806   6.300 -0.7478  0.5295 -0.5324
 4371SOL    HW214013   6.205   2.857   6.146  3.6291  0.5468 -0.0848
 4372SOL     OW14014   5.486   2.476   2.598  0.6871 -0.0343 -0.2142
 4372SOL    HW114015   5.400   2.526   2.613  1.2699  1.3061 -1.1924
 4372SOL    HW214016   5.547   2.492   2.676  0.2848 -0.5398  0.2196
 4373SOL     OW14017   4.694   6.728   6.928  0.7090 -0.5050 -0.6914
 4373SOL    HW114018   4.651   6.641   6.906 -0.4206 -0.5955  1.5318
 4373SOL    HW214019   4.627   6.802   6.922  1.2339 -0.0448 -0.9712
 4374SOL     OW14020   0.030   2.241   2.693 -0.2362 -0.1164 -0.1384
 4374SOL    HW114021  -0.019   2.327   2.705  0.1767  0.0275  0.5825
 4374SOL    HW214022  -0.030   2.165   2.717 -0.4802 -0.0111 -0.4095
 4375SOL     OW14023   5.369   1.256   6.000 -0.0564  0.5725  0.3804
 4375SOL    HW114024   5.288   1.270   6.057 -0.5075  1.4071 -0.4373
 4375SOL    HW214025   5.410   1.344   5.978  1.4532  0.1259  1.2887
 4376SOL     OW14026   6.795   3.074   6.434  0.1301 -0.4926 -0.5972
 4376SOL    HW114027   6.706   3.027   6.438 -0.5382  0.8052  0.8155
 4376SOL    HW214028   6.812   3.120   6.521  1.3133  0.8794 -1.5150
 4377SOL     OW14029   5.832   4.478   3.149  0.5833 -0.0300 -0.0958
 4377SOL    HW114030   5.828   4.531   3.234  0.0847  0.3304 -0.3344
 4377SOL    HW214031   5.813   4.539   3.071 -1.0984 -0.7453 -0.2893
 4378SOL     OW14032   3.025   2.179   1.787 -0.5522 -0.2050 -0.1940
 4378SOL    HW114033   3.092   2.143   1.852  0.4199  1.0602 -0.4612
 4378SOL    HW214034   2.989   2.266   1.821 -1.8980 -0.7369 -0.1815
 4379SOL     OW14035   4.345   6.416   5.704  0.2937 -0.5634  0.4635
 4379SOL    HW114036   4.321   6.503   5.662  0.7690  0.0925  1.5298
 4379SOL    HW214037   4.375   6.431   5.798  0.6777 -1.8443  0.5624
 4380SOL     OW14038   0.356   0.884   6.283 -0.5261  0.1334 -1.0865
 4380SOL    HW114039   0.324   0.908   6.375 -0.1363 -1.9082 -0.3463
 4380SOL    HW214040   0.297   0.812   6.245 -0.8790  1.1752 -2.6037
 4381SOL     OW14041   1.405   1.157   1.273 -0.2191 -0.1404  0.3235
 4381SOL    HW114042   1.491   1.108   1.283  0.2971  0.6381 -0.2190
 4381SOL    HW214043   1.339   1.099   1.226 -0.2654 -1.0357  1.4477
 4382SOL     OW14044   6.730   2.571   0.484  0.1220 -0.1642  0.1960
 4382SOL    HW114045   6.749   2.557   0.581 -0.9980 -2.5959  0.1325
 4382SOL    HW214046   6.639   2.535   0.462  0.0986  0.8810 -1.6611
 4383SOL     OW14047   4.266   0.838   0.508 -0.4652  0.4293 -0.1816
 4383SOL    HW114048   4.341   0.784   0.469  1.1702  1.0866  1.8575
 4383SOL    HW214049   4.193   0.777   0.538  1.2748 -0.7709  1.9510
 4384SOL     OW14050   0.635   0.203   6.590 -0.1753 -0.0731  0.0661
 4384SOL    HW114051   0.666   0.110   6.609  1.0634  0.4140  0.5132
 4384SOL    HW214052   0.595   0.242   6.672 -1.3187 -0.4252 -0.3023
 4385SOL     OW14053   0.138   4.339   3.959  0.1669  0.0118 -0.7555
 4385SOL    HW114054   0.098   4.431   3.968 -0.3026 -0.0517 -1.9547
 4385SOL    HW214055   0.228   4.346   3.918  0.3605 -0.0329 -0.3450
 4386SOL     OW14056   4.927   5.857   2.724  0.4860 -0.5299  0.1772
 4386SOL    HW114057   4.900   5.906   2.641  2.2701 -0.9064 -0.6828
 4386SOL    HW214058   4.858   5.787   2.745 -1.6083  1.6324  0.8949
 4387SOL     OW14059   4.563   4.504   3.963 -0.1867 -0.3953 -0.3116
 4387SOL    HW114060   4.566   4.461   3.872  0.5516  1.8957 -1.4336
 4387SOL    HW214061   4.540   4.600   3.953  3.3046  0.7913  1.5676
 4388SOL     OW14062   0.629   4.595   4.024 -0.8220  0.0017  0.4003
 4388SOL    HW114063   0.530   4.585   4.036 -0.6641 -0.3290  1.4938
 4388SOL    HW214064   0.654   4.691   4.034 -1.1465  0.2566 -0.9317
 4389SOL     OW14065   1.158   5.654   4.622 -0.1954  0.2543  0.3238
 4389SOL    HW114066   1.210   5.725   4.668 -0.0704  0.9900 -0.9042
 4389SOL    HW214067   1.093   5.696   4.558 -0.1355 -0.7269 -0.4101
 4390SOL     OW14068   3.239   5.902   0.754  0.2260  0.4914 -0.0462
 4390SOL    HW114069   3.253   5.855   0.666 -0.3281  1.5389 -0.7158
 4390SOL    HW214070   3.326   5.939   0.786  0.4539 -0.0018 -0.0768
 4391SOL     OW14071   6.582   3.637   5.625  0.2878 -0.1110  1.1127
 4391SOL    HW114072   6.618   3.731   5.623  2.5507 -0.8341  3.0024
 4391SOL    HW214073   6.600   3.593   5.537  0.1234  0.9047  0.5554
 4392SOL     OW14074   5.873   1.896   2.245 -0.0142 -0.0804  0.4071
 4392SOL    HW114075   5.909   1.863   2.332 -0.5382  2.0538  1.5149
 4392SOL    HW214076   5.799   1.836   2.214  1.6356 -2.1234  0.2260
 4393SOL     OW14077   0.844   1.520   1.105  0.0901  0.2190  0.0851
 4393SOL    HW114078   0.794   1.434   1.117 -0.7671  0.8713  1.2903
 4393SOL    HW214079   0.901   1.537   1.185 -0.9378  1.5258  0.5795
 4394SOL     OW14080   0.719   1.022   5.347 -0.4511 -0.1198 -0.1235
 4394SOL    HW114081   0.625   1.044   5.371 -0.4842 -0.8690  0.4703
 4394SOL    HW214082   0.720   0.969   5.262 -0.5193  0.3693 -0.4319
 4395SOL     OW14083   0.034   6.786   3.532 -0.5142  0.1545 -0.2816
 4395SOL    HW114084   0.004   6.819   3.442  1.2791 -1.3068 -1.4922
 4395SOL    HW214085   0.112   6.724   3.520 -1.2164 -1.3151  2.1744
 4396SOL     OW14086   4.155   6.437   1.226 -0.1674  0.2042 -0.4205
 4396SOL    HW114087   4.192   6.395   1.143  0.6397 -2.0646  0.9916
 4396SOL    HW214088   4.055   6.430   1.226 -0.2727  1.3047 -1.6944
 4397SOL     OW14089   3.698   1.698   0.802 -0.0412  0.0250 -0.2548
 4397SOL    HW114090   3.718   1.762   0.728 -0.7479 -0.1408 -0.5942
 4397SOL    HW214091   3.775   1.695   0.865 -0.4731  2.1877  0.4748
 4398SOL     OW14092   1.819   3.006   0.904 -1.0594  0.0407 -0.1442
 4398SOL    HW114093   1.834   2.911   0.932 -1.1724  0.2146  0.5196
 4398SOL    HW214094   1.824   3.013   0.804 -1.5836 -0.7519 -0.2256
 4399SOL     OW14095   0.437   3.866   2.336 -0.6688 -0.1956  0.4232
 4399SOL    HW114096   0.437   3.965   2.322 -0.3944 -0.2682 -0.1151
 4399SOL    HW214097   0.356   3.825   2.295 -0.0883 -0.3546 -0.5940
 4400SOL     OW14098   6.751   2.467   2.499  0.1923 -0.3427 -0.1882
 4400SOL    HW114099   6.687   2.400   2.462 -0.1986 -0.8833  1.3983
 4400SOL    HW214100   6.791   2.431   2.583  2.0849  0.2756 -0.7781
 4401SOL     OW14101   4.497   1.220   5.023  0.0713 -1.0107  0.5932
 4401SOL    HW114102   4.488   1.319   5.014  0.3330 -0.8758  1.7356
 4401SOL    HW214103   4.419   1.175   4.978  0.8853 -0.3846 -1.5493
 4402SOL     OW14104   3.837   0.201   6.828  0.2429 -0.0857 -0.0186
 4402SOL    HW114105   3.862   0.273   6.893 -1.4731  1.1448 -0.6534
 4402SOL    HW214106   3.837   0.238   6.735  0.7391 -1.3096 -0.5314
 4403SOL     OW14107   2.920   2.601   0.864 -0.0487  0.4753  0.2830
 4403SOL    HW114108   2.886   2.663   0.936 -0.5113 -0.6754  1.1001
 4403SOL    HW214109   2.918   2.507   0.899  3.2670  0.2341  0.0808
 4404SOL     OW14110   5.995   3.223   6.401  0.7565  0.5762  0.2898
 4404SOL    HW114111   5.987   3.157   6.327 -0.9420  1.2427 -0.1758
 4404SOL    HW214112   6.050   3.301   6.371  0.4421  0.6373 -0.1473
 4405SOL     OW14113   0.750   1.845   5.651 -0.1199  0.0306  0.6713
 4405SOL    HW114114   0.785   1.915   5.589  0.8320 -1.6677 -0.7991
 4405SOL    HW214115   0.827   1.803   5.699 -0.8599  1.5059  3.3233
 4406SOL     OW14116   6.968   6.360   6.390 -0.3094 -0.7946 -0.3224
 4406SOL    HW114117   6.986   6.291   6.459  1.0203 -0.7237 -0.5644
 4406SOL    HW214118   6.944   6.446   6.434  0.4614 -0.7666  0.0607
 4407SOL     OW14119   1.491   1.815   5.710  0.0750 -0.0230 -0.5751
 4407SOL    HW114120   1.403   1.799   5.754 -0.5279  1.4563 -1.1624
 4407SOL    HW214121   1.475   1.855   5.619  1.3504  0.4947 -0.5868
 4408SOL     OW14122   5.923   3.950   2.246  0.4672  0.0760  0.5822
 4408SOL    HW114123   5.939   3.988   2.337 -0.0734  1.1386  0.2494
 4408SOL    HW214124   5.831   3.975   2.215  1.1210  0.8559 -0.7919
 4409SOL     OW14125   2.012   0.934   5.953  0.6889 -0.3658 -0.3580
 4409SOL    HW114126   1.959   0.863   5.906  0.9586 -0.2810 -0.7990
 4409SOL    HW214127   1.954   1.014   5.968  0.1210 -0.9987  0.9474
 4410SOL     OW14128   6.602   6.784   3.239 -0.7653  0.5653 -0.3717
 4410SOL    HW114129   6.631   6.770   3.333  0.6598 -0.2641 -0.9108
 4410SOL    HW214130   6.573   6.697   3.200  0.0393  0.6227 -1.1296
 4411SOL     OW14131   1.141   6.567   3.614  0.7915 -0.5332  0.1130
 4411SOL    HW114132   1.210   6.526   3.555  2.8347 -0.8454  2.5679
 4411SOL    HW214133   1.106   6.650   3.572  1.7107 -1.0539 -1.7627
 4412SOL     OW14134   2.588   6.528   1.121  0.2104  0.2812  0.0758
 4412SOL    HW114135   2.671   6.575   1.150 -0.4793  1.2120  0.6052
 4412SOL    HW214136   2.526   6.594   1.079  0.0517 -0.5430 -1.0378
 4413SOL     OW14137   1.511   4.684   6.587  0.0878 -0.3432  0.0155
 4413SOL    HW114138   1.567   4.611   6.626  2.7495  1.9096  0.8159
 4413SOL    HW214139   1.472   4.654   6.500  2.2449 -2.2551 -0.3993
 4414SOL     OW14140   5.299   0.036   4.426 -0.5598  0.3251  0.3332
 4414SOL    HW114141   5.268   0.018   4.332  1.8463 -1.7541 -0.1962
 4414SOL    HW214142   5.340   0.127   4.431  0.7747 -0.1397 -1.1510
 4415SOL     OW14143   1.580   6.939   4.375  0.0558 -0.1440  0.6079
 4415SOL    HW114144   1.487   6.976   4.370  0.9403  2.4363  1.7018
 4415SOL    HW214145   1.611   6.939   4.470  0.8883 -1.8465  0.3805
 4416SOL     OW14146   6.466   6.989   4.733  0.7207 -0.0412 -0.4060
 4416SOL    HW114147   6.460   6.971   4.831 -0.0408 -2.3190 -0.7975
 4416SOL    HW214148   6.374   6.997   4.695  0.9898  0.1410 -1.0283
 4417SOL     OW14149   3.842   6.930   6.965  0.0373 -0.0679 -0.3717
 4417SOL    HW114150   3.855   6.941   7.064  0.0338 -2.8509  0.0297
 4417SOL    HW214151   3.869   7.014   6.918 -0.5485  1.5571  2.0157
 4418SOL     OW14152   6.261   3.551   1.901 -0.2037 -0.0871 -0.8296
 4418SOL    HW114153   6.209   3.500   1.832 -2.0617  1.2822 -0.5211
 4418SOL    HW214154   6.214   3.544   1.990  0.3347  0.9051 -0.4540
 4419SOL     OW14155   1.685   4.154   1.237  0.2116 -0.3287 -0.2989
 4419SOL    HW114156   1.773   4.199   1.224  0.4720 -0.6154  0.4479
 4419SOL    HW214157   1.669   4.090   1.161  0.5422 -0.1157 -0.5511
 4420SOL     OW14158   3.742   1.828   3.865 -0.1345  0.1281  0.2864
 4420SOL    HW114159   3.737   1.764   3.789 -1.0917 -0.9811  1.2475
 4420SOL    HW214160   3.651   1.864   3.884 -0.5556 -2.0678  2.9124
 4421SOL     OW14161   0.304   2.716   5.354 -0.0554  1.1207  0.6559
 4421SOL    HW114162   0.304   2.762   5.443 -0.0826  4.5272 -0.9430
 4421SOL    HW214163   0.379   2.649   5.351 -1.8926 -1.4526  4.1767
 4422SOL     OW14164   1.222   0.026   0.454  0.9313  0.1706 -0.2256
 4422SOL    HW114165   1.243   0.046   0.550  0.0663 -1.6369  0.3754
 4422SOL    HW214166   1.304  -0.006   0.407  0.6675 -2.2382  0.8459
 4423SOL     OW14167   3.476   3.207   1.380 -0.4832 -0.1704 -0.0645
 4423SOL    HW114168   3.549   3.173   1.321 -1.3201  1.4379 -2.1698
 4423SOL    HW214169   3.516   3.258   1.456  0.6085 -0.4847 -0.4092
 4424SOL     OW14170   5.117   5.369   2.176  1.1271 -0.2521 -0.4328
 4424SOL    HW114171   5.022   5.369   2.205  1.1991 -0.6229 -0.1806
 4424SOL    HW214172   5.153   5.275   2.180  1.7410 -0.0009  0.2792
 4425SOL     OW14173   6.999   5.541   0.342 -0.6623 -0.2534  0.1885
 4425SOL    HW114174   6.935   5.530   0.266  0.1318 -0.3215 -0.4888
 4425SOL    HW214175   7.075   5.477   0.331 -0.6757 -0.4537  1.1920
 4426SOL     OW14176   0.450   0.923   3.977  0.4749 -0.4025 -0.1655
 4426SOL    HW114177   0.434   0.834   4.020  0.6302 -0.7456 -0.7960
 4426SOL    HW214178   0.364   0.972   3.968  0.1888 -1.0307 -0.9583
 4427SOL     OW14179   1.880   4.402   2.326 -0.1172  0.2107  0.0934
 4427SOL    HW114180   1.966   4.368   2.364  1.7034  1.9367 -2.2434
 4427SOL    HW214181   1.841   4.333   2.265  1.0315  0.4334 -0.9102
 4428SOL     OW14182   4.114   6.011   6.068  0.1080  0.2589  0.5236
 4428SOL    HW114183   4.184   5.950   6.106 -0.3562 -3.3406 -3.5510
 4428SOL    HW214184   4.026   5.989   6.110  0.7285  2.4844  3.2759
 4429SOL     OW14185   2.219   4.083   3.804  0.5341 -0.2319  0.0771
 4429SOL    HW114186   2.239   4.036   3.890 -0.5726  0.1380  0.5574
 4429SOL    HW214187   2.199   4.015   3.733  0.4813 -0.5148  0.3608
 4430SOL     OW14188   3.355   4.145   0.655  0.1910 -0.3047 -0.0433
 4430SOL    HW114189   3.373   4.231   0.608 -1.5404 -1.2708 -2.6847
 4430SOL    HW214190   3.276   4.100   0.614  0.4924 -2.7734  1.8289
 4431SOL     OW14191   2.575   5.584   6.877 -0.4761 -0.4527  0.2536
 4431SOL    HW114192   2.490   5.613   6.834  0.9142  0.9975 -1.6889
 4431SOL    HW214193   2.651   5.595   6.813  0.9265 -3.8823  1.0655
 4432SOL     OW14194   3.153   6.423   0.348 -0.4614  0.1264  0.5737
 4432SOL    HW114195   3.137   6.333   0.305  1.4481  0.1234 -0.2273
 4432SOL    HW214196   3.129   6.418   0.445  0.1041 -1.4325  0.6748
 4433SOL     OW14197   5.545   1.095   0.358 -0.1165  0.2918 -0.0290
 4433SOL    HW114198   5.527   1.083   0.260 -0.4060 -0.1041  0.0692
 4433SOL    HW214199   5.641   1.072   0.377  0.2203  1.3361 -0.3745
 4434SOL     OW14200   3.103   3.740   1.123 -0.6300 -0.3981 -0.1930
 4434SOL    HW114201   3.070   3.673   1.190  1.2256 -1.6294 -0.4363
 4434SOL    HW214202   3.154   3.812   1.171 -1.2112 -0.0478 -0.0907
 4435SOL     OW14203   3.800   2.917   3.606 -0.0904  0.0593  0.6886
 4435SOL    HW114204   3.776   2.894   3.512 -1.0097  2.1540  0.3678
 4435SOL    HW214205   3.739   2.867   3.669  1.0020 -1.9181  0.2786
 4436SOL     OW14206   2.496   6.998   5.466 -0.4340  0.5721 -0.3015
 4436SOL    HW114207   2.396   7.001   5.463 -0.4131  0.5747 -2.2636
 4436SOL    HW214208   2.529   6.944   5.389  0.9987 -2.4646  2.2154
 4437SOL     OW14209   0.862   5.285   1.614 -0.1136  0.0923  0.2870
 4437SOL    HW114210   0.911   5.199   1.596 -0.8956 -0.0375 -1.3933
 4437SOL    HW214211   0.776   5.264   1.661 -0.7711 -0.1651 -1.0016
 4438SOL     OW14212   6.224   3.224   3.499  0.2720 -0.5477  0.5753
 4438SOL    HW114213   6.317   3.251   3.526  0.4100 -0.9425  0.4919
 4438SOL    HW214214   6.176   3.303   3.460  0.6570 -0.4074  0.3864
 4439SOL     OW14215   6.971   0.948   0.085 -0.2777  0.8397 -0.2146
 4439SOL    HW114216   7.031   1.024   0.061  2.0320 -0.5712  0.7438
 4439SOL    HW214217   6.976   0.931   0.183 -1.2542 -0.1511 -0.3169
 4440SOL     OW14218   1.017   1.445   5.982 -0.0082 -0.3344 -0.0085
 4440SOL    HW114219   1.106   1.468   5.942 -0.5879 -0.6396 -1.5282
 4440SOL    HW214220   1.005   1.496   6.068  1.3942  0.1131 -0.0486
 4441SOL     OW14221   3.596   5.184   0.465  0.1840 -0.3332 -0.5600
 4441SOL    HW114222   3.615   5.265   0.409 -0.8873  1.6696  1.7445
 4441SOL    HW214223   3.683   5.149   0.502  0.9446 -1.8855 -3.5062
 4442SOL     OW14224   1.937   3.584   6.018  0.0724 -0.0977  0.1013
 4442SOL    HW114225   1.990   3.646   5.960 -1.7104  0.4935 -0.9852
 4442SOL    HW214226   1.983   3.572   6.105  2.4550 -0.3783 -1.1260
 4443SOL     OW14227   4.576   4.832   1.310  0.0589 -0.1594  0.8352
 4443SOL    HW114228   4.608   4.788   1.226  1.4695  1.6565  0.3452
 4443SOL    HW214229   4.641   4.814   1.384  0.5382  0.8542  0.6817
 4444SOL     OW14230   3.664   5.055   4.693  0.0265 -0.0217  0.0186
 4444SOL    HW114231   3.681   5.149   4.663 -0.7842  0.4815  1.0295
 4444SOL    HW214232   3.723   4.992   4.643 -0.4851  0.8558 -1.7743
 4445SOL     OW14233   1.719   0.635   0.680  0.3285  0.1610 -0.1206
 4445SOL    HW114234   1.641   0.694   0.701 -0.2061 -0.0756 -1.3702
 4445SOL    HW214235   1.748   0.651   0.585 -1.2557 -3.1377 -1.3142
 4446SOL     OW14236   2.747   4.256   0.034  0.0958 -0.1771  0.3063
 4446SOL    HW114237   2.692   4.296   0.107  2.3295  2.9013  0.4938
 4446SOL    HW214238   2.702   4.270  -0.054 -1.6335 -2.0963  0.8105
 4447SOL     OW14239   4.229   2.073   1.233 -0.4051  0.0259  0.4066
 4447SOL    HW114240   4.283   2.140   1.182  3.4101 -1.3542  2.2438
 4447SOL    HW214241   4.205   1.996   1.173  0.9469  0.0377 -0.1681
 4448SOL     OW14242   2.138   2.153   1.794 -0.3616 -0.1605 -0.4083
 4448SOL    HW114243   2.125   2.251   1.780  0.6940  0.1493  0.6071
 4448SOL    HW214244   2.233   2.136   1.821 -0.3389 -1.5540 -1.2733
 4449SOL     OW14245   3.525   6.287   0.390 -0.0944  0.0899  0.0908
 4449SOL    HW114246   3.466   6.353   0.342  0.3629 -0.8073 -1.7678
 4449SOL    HW214247   3.474   6.203   0.405  1.3295 -1.7634 -4.0341
 4450SOL     OW14248   5.574   4.801   1.815 -0.2703 -0.0374  0.3076
 4450SOL    HW114249   5.631   4.820   1.736  0.0657  1.5133  0.8853
 4450SOL    HW214250   5.606   4.718   1.861 -0.2815 -0.7756 -0.9666
 4451SOL     OW14251   3.562   4.876   0.191 -0.2864  0.5614  0.1463
 4451SOL    HW114252   3.490   4.888   0.260 -0.7245  2.0954 -0.5457
 4451SOL    HW214253   3.566   4.780   0.163 -1.0334  0.1785  1.2882
 4452SOL     OW14254   4.073   5.473   6.833  0.4130  0.2600 -0.1960
 4452SOL    HW114255   4.071   5.438   6.927  1.0375  0.2388 -0.1852
 4452SOL    HW214256   4.057   5.398   6.769 -1.4522  0.5047 -0.0750
 4453SOL     OW14257   4.785   4.253   1.054 -0.1328  0.0587 -0.4434
 4453SOL    HW114258   4.696   4.259   1.009 -0.6920 -0.3623  0.5810
 4453SOL    HW214259   4.773   4.220   1.147  1.2490 -1.7489 -0.8494
 4454SOL     OW14260   6.694   2.780   1.312  0.8090  0.1042  0.2951
 4454SOL    HW114261   6.649   2.856   1.266 -1.8232 -0.3977  1.8433
 4454SOL    HW214262   6.765   2.742   1.252 -0.2576  1.4648 -1.9789
 4455SOL     OW14263   0.008   4.629   6.691 -0.0791 -0.0784  0.1300
 4455SOL    HW114264  -0.077   4.584   6.662  0.9011 -1.5713 -0.5269
 4455SOL    HW214265   0.065   4.648   6.611 -0.0402  1.5104  0.4969
 4456SOL     OW14266   6.104   0.235   5.172 -0.3441 -0.5888  0.2689
 4456SOL    HW114267   6.133   0.201   5.261 -0.1665 -1.6707 -0.1930
 4456SOL    HW214268   6.124   0.167   5.102 -1.5543 -0.2505 -0.4347
 4457SOL     OW14269   2.370   6.214   3.271 -0.0168  0.9501  0.0903
 4457SOL    HW114270   2.469   6.214   3.259  0.1861 -0.9461  1.2471
 4457SOL    HW214271   2.343   6.134   3.325 -2.0081  2.3750  1.3577
 4458SOL     OW14272   2.795   3.766   5.403 -0.4913  0.3061 -0.2771
 4458SOL    HW114273   2.801   3.667   5.386  0.3473  0.3441 -0.2482
 4458SOL    HW214274   2.699   3.794   5.402 -1.0994 -1.1300  3.2296
 4459SOL     OW14275   1.680   0.453   1.929 -0.4219  0.2118 -0.1308
 4459SOL    HW114276   1.767   0.477   1.972 -0.0635  0.0832 -0.7751
 4459SOL    HW214277   1.631   0.389   1.988  0.0038  0.1354  0.1482
 4460SOL     OW14278   3.723   5.435   2.916 -0.0690 -0.1886 -0.2609
 4460SOL    HW114279   3.646   5.404   2.861 -0.3157 -0.7045  0.3632
 4460SOL    HW214280   3.717   5.534   2.929 -0.6628 -0.2363 -0.1588
 4461SOL     OW14281   6.826   1.489   5.528 -0.2044 -0.3704  0.1009
 4461SOL    HW114282   6.812   1.397   5.491  0.3219 -0.9026  1.1654
 4461SOL    HW214283   6.920   1.498   5.560 -0.5081  0.2215  0.8614
 4462SOL     OW14284   2.908   1.368   5.418 -0.1369  0.3710  0.6291
 4462SOL    HW114285   2.918   1.338   5.323  0.1735  0.6437  0.5720
 4462SOL    HW214286   2.815   1.353   5.449 -0.3316  0.6081  0.1638
 4463SOL     OW14287   1.894   5.322   3.551  0.4977  0.1257  0.1357
 4463SOL    HW114288   1.949   5.293   3.472 -0.1410  1.5303 -0.8891
 4463SOL    HW214289   1.802   5.346   3.519 -0.7129 -1.9786  1.7754
 4464SOL     OW14290   5.099   0.046   3.024 -0.1187  0.0068  0.1980
 4464SOL    HW114291   5.058  -0.046   3.026  1.9663 -1.0037  2.4492
 4464SOL    HW214292   5.048   0.106   3.086 -1.0647  0.2336 -0.7533
 4465SOL     OW14293   2.462   6.949   3.424 -0.0162  0.4589  0.2010
 4465SOL    HW114294   2.460   7.025   3.358 -2.2443 -0.6886 -1.1798
 4465SOL    HW214295   2.462   6.985   3.517 -0.4339  2.1572 -0.4260
 4466SOL     OW14296   3.713   0.688   2.387 -0.0133 -0.5641 -0.4629
 4466SOL    HW114297   3.769   0.740   2.452 -0.0696 -2.4697  1.2313
 4466SOL    HW214298   3.770   0.660   2.309  0.1459  1.4865 -1.1258
 4467SOL     OW14299   1.731   5.130   4.127  0.4178 -0.0813 -0.4247
 4467SOL    HW114300   1.718   5.128   4.028  1.0831  0.1599 -0.5241
 4467SOL    HW214301   1.829   5.132   4.148  0.2901 -0.5199  0.2473
 4468SOL     OW14302   1.013   2.726   4.997  0.0148  0.4763 -0.2009
 4468SOL    HW114303   1.068   2.736   4.915 -0.7616  0.0704 -0.7919
 4468SOL    HW214304   1.054   2.657   5.057 -0.0368 -0.0852 -0.8006
 4469SOL     OW14305   2.315   3.438   6.056 -0.5845 -0.1613  0.0166
 4469SOL    HW114306   2.301   3.409   6.150 -1.3598 -2.7337 -0.7858
 4469SOL    HW214307   2.284   3.365   5.994  1.3822  0.7563 -2.2088
 4470SOL     OW14308   2.548   1.969   6.950 -0.1644  0.6232  0.3960
 4470SOL    HW114309   2.521   2.059   6.984 -1.2260 -0.0930  1.5286
 4470SOL    HW214310   2.509   1.898   7.008 -1.5940 -0.6786 -1.9725
 4471SOL     OW14311   0.448   3.400   5.276  0.6697 -0.1432 -0.1252
 4471SOL    HW114312   0.378   3.457   5.233  1.4994  1.0080 -0.0041
 4471SOL    HW214313   0.428   3.304   5.259 -0.8973  0.1583 -0.1532
 4472SOL     OW14314   2.206   1.492   0.256  0.1234  0.5775 -0.2137
 4472SOL    HW114315   2.145   1.551   0.308 -0.3422  0.6133 -0.7888
 4472SOL    HW214316   2.283   1.546   0.221  0.8330  0.4044  1.0412
 4473SOL     OW14317   1.679   2.721   4.323 -0.2663 -0.4391  0.0975
 4473SOL    HW114318   1.592   2.680   4.296 -0.6442 -0.1673  0.8820
 4473SOL    HW214319   1.665   2.819   4.341  0.4364 -0.1475 -0.8583
 4474SOL     OW14320   6.108   5.966   3.389  0.2351 -0.3629 -0.1562
 4474SOL    HW114321   6.097   5.954   3.488  1.3216  0.0690  0.0308
 4474SOL    HW214322   6.020   5.990   3.348 -0.1758 -0.3100  0.7358
 4475SOL     OW14323   0.928   3.469   1.118  0.3588 -0.1285  0.3124
 4475SOL    HW114324   0.833   3.471   1.149  0.6181 -0.8858  1.1892
 4475SOL    HW214325   0.944   3.388   1.062  0.3375  0.3433 -0.4042
 4476SOL     OW14326   0.072   5.706   4.797  0.0513  0.5297 -0.1485
 4476SOL    HW114327   0.026   5.763   4.865 -0.6844  0.8064 -0.8522
 4476SOL    HW214328   0.164   5.743   4.779  0.0650  0.7376  0.3346
 4477SOL     OW14329   6.295   1.797   0.357 -0.2221 -0.0732  0.1981
 4477SOL    HW114330   6.282   1.780   0.260 -2.6157  1.2585  0.2055
 4477SOL    HW214331   6.354   1.877   0.369 -1.5100  0.9955 -0.2808
 4478SOL     OW14332   4.750   1.550   6.452 -0.6681  0.4896  0.0735
 4478SOL    HW114333   4.694   1.468   6.457  2.2346 -1.5958  3.4196
 4478SOL    HW214334   4.725   1.612   6.527  0.3253  0.2704  0.6121
 4479SOL     OW14335   1.512   6.389   2.919  0.0000  0.4773  0.3899
 4479SOL    HW114336   1.457   6.472   2.928  0.2062  0.4655  1.9761
 4479SOL    HW214337   1.604   6.406   2.954  0.1024 -0.3677  0.5491
 4480SOL     OW14338   0.696   3.219   3.092 -0.0213 -0.3182  0.5162
 4480SOL    HW114339   0.711   3.159   3.014 -1.2548  0.7005 -0.5609
 4480SOL    HW214340   0.603   3.256   3.088  0.8988  2.2396  0.6643
 4481SOL     OW14341   1.358   0.604   3.292 -0.0740  0.7143  0.0087
 4481SOL    HW114342   1.386   0.667   3.364 -0.0588  0.7021  0.0137
 4481SOL    HW214343   1.258   0.602   3.285 -0.0942  0.2387  0.4505
 4482SOL     OW14344   6.042   2.818   2.283  0.2918  0.3078 -0.4494
 4482SOL    HW114345   6.060   2.916   2.285  0.8628  0.2023  0.9059
 4482SOL    HW214346   6.125   2.769   2.259  1.0235  0.0089  2.3520
 4483SOL     OW14347   2.515   0.509   0.590 -0.2012  0.0989 -0.5216
 4483SOL    HW114348   2.562   0.481   0.506  0.4612 -2.3901  0.5581
 4483SOL    HW214349   2.417   0.491   0.580  0.0053 -1.1763 -0.4431
 4484SOL     OW14350   2.812   6.962   1.705  0.0824  0.2751 -0.4387
 4484SOL    HW114351   2.723   6.990   1.669  0.4545  0.0667 -1.5623
 4484SOL    HW214352   2.806   6.868   1.739 -0.8851  1.2419  2.3263
 4485SOL     OW14353   5.609   5.317   0.711 -0.0064 -0.2388  0.4116
 4485SOL    HW114354   5.609   5.271   0.623  0.0083 -0.3979  0.4934
 4485SOL    HW214355   5.687   5.380   0.716 -1.0829  1.2069 -0.4166
 4486SOL     OW14356   6.953   0.630   4.172  0.4104  0.2104  0.1075
 4486SOL    HW114357   6.973   0.532   4.170 -0.1912  0.0726  0.6440
 4486SOL    HW214358   6.999   0.675   4.095 -0.3358 -0.6933 -0.9073
 4487SOL     OW14359   5.124   3.992   1.506 -0.0617  0.5144 -0.1600
 4487SOL    HW114360   5.150   3.945   1.590  0.0639  1.4049  0.3071
 4487SOL    HW214361   5.041   4.046   1.522  0.9628  2.1250 -0.0865
 4488SOL     OW14362   5.501   2.478   3.599  0.0677 -0.3025  0.4645
 4488SOL    HW114363   5.570   2.444   3.535 -0.1813 -0.4116  0.2509
 4488SOL    HW214364   5.451   2.553   3.557  0.1408 -0.1384  0.6686
 4489SOL     OW14365   1.034   3.523   3.695  0.1716 -0.2885  0.6397
 4489SOL    HW114366   1.039   3.595   3.626  2.5851 -0.0533  0.9889
 4489SOL    HW214367   1.033   3.434   3.650  1.6592 -0.1345  0.2730
 4490SOL     OW14368   4.261   1.765   0.456 -0.4862  0.4221 -0.1621
 4490SOL    HW114369   4.198   1.695   0.421  0.1525 -1.2335  1.8121
 4490SOL    HW214370   4.210   1.848   0.476 -1.2902  0.5629 -2.4769
 4491SOL     OW14371   0.985   3.673   4.068 -0.1329  0.5245 -0.2351
 4491SOL    HW114372   1.001   3.680   4.166  1.5612  1.1329 -0.5269
 4491SOL    HW214373   0.888   3.656   4.051 -0.8473  2.6001  1.4355
 4492SOL     OW14374   2.672   2.461   6.940 -0.4318 -0.0206 -0.3373
 4492SOL    HW114375   2.627   2.528   6.881  0.6321  0.9574 -0.0689
 4492SOL    HW214376   2.680   2.374   6.891 -2.6004 -0.2410 -0.3719
 4493SOL     OW14377   6.202   5.608   0.223  0.1204  0.5012 -0.3480
 4493SOL    HW114378   6.131   5.669   0.186 -1.8602 -2.5979 -2.0649
 4493SOL    HW214379   6.160   5.535   0.276  2.3409  0.1024  1.0016
 4494SOL     OW14380   2.234   6.300   0.346 -0.2023  0.0389  0.2368
 4494SOL    HW114381   2.143   6.334   0.324 -0.0107 -0.5415 -1.6571
 4494SOL    HW214382   2.226   6.212   0.394 -0.6287  0.9306  1.8704
 4495SOL     OW14383   4.904   6.563   6.476 -0.2070  0.9254 -0.5088
 4495SOL    HW114384   4.925   6.557   6.574 -1.2628  0.6810 -0.2866
 4495SOL    HW214385   4.897   6.659   6.449  2.8501  1.0971 -0.9871
 4496SOL     OW14386   0.100   0.394   3.959 -0.0128 -0.4372  0.1925
 4496SOL    HW114387   0.049   0.352   4.034  1.4122 -2.7595 -0.0192
 4496SOL    HW214388   0.187   0.345   3.947  0.8009  1.3017 -1.5378
 4497SOL     OW14389   6.887   4.153   4.327 -0.7192  0.1875  0.5516
 4497SOL    HW114390   6.913   4.194   4.415 -1.5249 -0.0895  0.9323
 4497SOL    HW214391   6.966   4.151   4.266 -0.8100  2.9183  0.2545
 4498SOL     OW14392   5.434   4.931   2.744 -0.4180 -0.8517 -0.0885
 4498SOL    HW114393   5.369   4.908   2.671  0.1429  0.4897 -1.0524
 4498SOL    HW214394   5.389   4.987   2.813 -0.1121  0.8225 -1.1986
 4499SOL     OW14395   0.828   3.788   0.098 -0.5791 -0.2152  0.2322
 4499SOL    HW114396   0.821   3.696   0.136  1.2972 -0.4849  0.0525
 4499SOL    HW214397   0.802   3.855   0.167  0.1678 -0.8015  1.1064
 4500SOL     OW14398   2.942   0.076   3.059 -0.6477  0.8428 -0.1609
 4500SOL    HW114399   3.037   0.090   3.086 -1.1334  0.7543  1.6722
 4500SOL    HW214400   2.927  -0.022   3.044 -0.8826  0.6469  1.2936
 4501SOL     OW14401   0.585   5.880   6.067  0.4534  0.1789 -0.3432
 4501SOL    HW114402   0.619   5.897   5.975  1.3034 -1.1901 -0.3169
 4501SOL    HW214403   0.620   5.792   6.100  2.3186  1.7422  2.2839
 4502SOL     OW14404   2.473   2.560   2.107  0.2198 -0.0834  0.2185
 4502SOL    HW114405   2.482   2.627   2.034 -2.7539 -0.8486 -1.0031
 4502SOL    HW214406   2.541   2.488   2.095  0.3925  0.2911 -1.2517
 4503SOL     OW14407   6.863   5.400   1.273 -0.0895 -1.2184  0.1248
 4503SOL    HW114408   6.918   5.465   1.326 -0.1659 -1.1303  0.0965
 4503SOL    HW214409   6.776   5.443   1.247  1.4984  0.2227 -3.4666
 4504SOL     OW14410   2.871   4.876   5.432  0.3140  0.0653  0.0775
 4504SOL    HW114411   2.944   4.895   5.498 -0.6895  0.1451  1.2034
 4504SOL    HW214412   2.784   4.911   5.467  0.0081  1.6222 -2.0761
 4505SOL     OW14413   4.879   4.383   5.349  0.3996 -0.2193  0.6695
 4505SOL    HW114414   4.785   4.408   5.372  0.1761 -0.3786 -0.0553
 4505SOL    HW214415   4.880   4.294   5.304  0.7367  0.3722 -0.5445
 4506SOL     OW14416   3.722   0.709   3.359 -0.4857  0.0386 -0.0876
 4506SOL    HW114417   3.783   0.669   3.428 -0.8381 -0.1918  0.0934
 4506SOL    HW214418   3.685   0.637   3.301  0.4350  0.3095 -1.0414
 4507SOL     OW14419   5.038   5.490   3.279  0.1845 -0.1053 -1.0428
 4507SOL    HW114420   5.006   5.569   3.331 -0.5127  0.2015 -1.9063
 4507SOL    HW214421   5.018   5.406   3.329 -1.9568  0.0783 -1.5066
 4508SOL     OW14422   0.275   6.983   4.450 -0.3629  0.6419 -0.2592
 4508SOL    HW114423   0.202   7.048   4.472 -0.6136  0.2825 -0.0201
 4508SOL    HW214424   0.362   7.032   4.442 -0.3252  0.8467  1.1401
 4509SOL     OW14425   3.879   1.574   0.526  0.8552 -0.2728 -0.3093
 4509SOL    HW114426   3.824   1.501   0.565  0.1330  1.2230  1.6452
 4509SOL    HW214427   3.945   1.607   0.594  0.6291  1.3923 -0.8429
 4510SOL     OW14428   1.119   1.629   6.921 -0.5836  0.0183  0.0076
 4510SOL    HW114429   1.191   1.602   6.984  0.3855  1.7355 -0.2939
 4510SOL    HW214430   1.068   1.548   6.891  0.8637 -1.1711  0.6417
 4511SOL     OW14431   0.194   3.704   2.689  0.3822 -0.4796 -0.0075
 4511SOL    HW114432   0.258   3.640   2.646  1.8606  0.2029  1.0904
 4511SOL    HW214433   0.199   3.792   2.641 -0.1477 -0.5786 -0.2513
 4512SOL     OW14434   5.012   6.724   0.188  0.5295  0.2641  0.1856
 4512SOL    HW114435   5.066   6.800   0.152  0.4031  0.0068 -0.5595
 4512SOL    HW214436   4.927   6.759   0.226  0.4138  0.4842 -0.2673
 4513SOL     OW14437   2.953   4.028   1.673 -0.2364 -0.1621 -0.0263
 4513SOL    HW114438   2.871   4.049   1.618 -0.6046 -1.6484 -0.0856
 4513SOL    HW214439   3.002   4.113   1.692 -1.6109  0.7331 -0.2694
 4514SOL     OW14440   3.055   4.444   1.233 -0.5048  0.9592  0.3198
 4514SOL    HW114441   2.974   4.496   1.260 -0.6445 -0.5918  3.3953
 4514SOL    HW214442   3.137   4.492   1.264 -0.3848  1.3164 -0.5406
 4515SOL     OW14443   5.663   3.062   6.736 -0.3351  0.7439  0.4424
 4515SOL    HW114444   5.602   2.987   6.709  2.4260 -1.7176  0.5840
 4515SOL    HW214445   5.715   3.093   6.657 -1.0742  2.2338  0.4979
 4516SOL     OW14446   3.123   6.058   5.691 -0.1825 -0.9212  0.6034
 4516SOL    HW114447   3.098   6.148   5.728 -0.6227 -1.1920  0.9784
 4516SOL    HW214448   3.206   6.066   5.637 -0.1152 -0.3195  0.7907
 4517SOL     OW14449   4.909   0.374   5.104 -0.8565 -0.0224  0.1101
 4517SOL    HW114450   4.863   0.339   5.185  0.2577  1.7456  1.5926
 4517SOL    HW214451   4.957   0.459   5.127  1.4379 -0.6831 -1.8372
 4518SOL     OW14452   0.089   6.345   3.534  0.4036 -0.6029 -0.5355
 4518SOL    HW114453   0.162   6.414   3.535  1.4578 -1.6869 -0.0671
 4518SOL    HW214454   0.000   6.391   3.541  1.1277  0.6309  1.4374
 4519SOL     OW14455   1.352   5.387   5.097 -0.0201 -0.3323 -0.3651
 4519SOL    HW114456   1.265   5.348   5.125  0.6154 -1.3445  0.2630
 4519SOL    HW214457   1.378   5.349   5.008  0.2204 -0.7654 -0.1160
 4520SOL     OW14458   3.526   4.932   4.144 -0.0423 -0.4866 -0.5389
 4520SOL    HW114459   3.436   4.934   4.190  0.5331 -0.2082  0.6213
 4520SOL    HW214460   3.597   4.957   4.210  0.7905  0.2836 -1.7079
 4521SOL     OW14461   6.832   4.298   2.049  0.1846 -0.0029  0.6485
 4521SOL    HW114462   6.766   4.371   2.065 -0.0807  0.0996 -0.7993
 4521SOL    HW214463   6.811   4.220   2.108 -0.6194  0.3959  0.8978
 4522SOL     OW14464   5.238   1.091   6.526  0.4313  0.0463  0.0990
 4522SOL    HW114465   5.293   1.119   6.447 -0.5602 -0.6605 -0.8766
 4522SOL    HW214466   5.219   0.993   6.521  1.3161 -0.2503  1.8568
 4523SOL     OW14467   0.085   6.401   1.841  0.7649 -0.1768  0.2645
 4523SOL    HW114468   0.178   6.421   1.810  0.6587 -1.4237 -0.9030
 4523SOL    HW214469   0.087   6.380   1.939  1.8776 -1.2349  0.0336
 4524SOL     OW14470   1.955   5.271   5.660 -0.0290  0.4313 -0.5310
 4524SOL    HW114471   1.934   5.245   5.755  1.0257  0.4349 -0.2895
 4524SOL    HW214472   1.987   5.366   5.658 -1.8185  1.0802 -1.1476
 4525SOL     OW14473   4.820   1.077   4.673 -0.1594 -0.6193 -0.5765
 4525SOL    HW114474   4.820   1.150   4.604  0.9446  0.1674  0.2163
 4525SOL    HW214475   4.730   1.033   4.675 -0.6649  0.3192 -1.4843
 4526SOL     OW14476   2.631   5.879   1.685 -0.0835  0.9757 -0.2804
 4526SOL    HW114477   2.628   5.892   1.785  0.1196 -0.1666 -0.1136
 4526SOL    HW214478   2.584   5.955   1.640  0.1176  1.6865  0.6705
 4527SOL     OW14479   2.295   0.915   2.053 -0.0654  0.1490 -0.4778
 4527SOL    HW114480   2.240   0.882   2.130  1.4832 -2.3432 -0.3327
 4527SOL    HW214481   2.363   0.980   2.086  0.3422 -0.6175  0.2319
 4528SOL     OW14482   3.868   0.594   3.547 -0.1955 -0.3812 -0.3162
 4528SOL    HW114483   3.839   0.500   3.562 -1.5245 -0.2287 -1.7505
 4528SOL    HW214484   3.820   0.655   3.611 -0.5115 -0.4926 -0.4521
 4529SOL     OW14485   1.428   1.883   2.162  0.1105  0.3081  0.4402
 4529SOL    HW114486   1.483   1.904   2.081 -1.3017  0.6481 -0.4673
 4529SOL    HW214487   1.341   1.930   2.156 -0.5824 -0.7825  1.4895
 4530SOL     OW14488   5.179   4.947   3.459 -0.5112 -0.0515 -0.5317
 4530SOL    HW114489   5.140   5.030   3.497 -1.7060 -0.6381 -0.4477
 4530SOL    HW214490   5.188   4.878   3.531 -3.4290 -1.4134 -1.3162
 4531SOL     OW14491   6.664   2.959   0.551 -0.2714  0.3531 -0.1626
 4531SOL    HW114492   6.654   2.950   0.650  0.6440 -0.2052 -0.1083
 4531SOL    HW214493   6.664   3.055   0.526  0.4637  0.5368  0.4962
 4532SOL     OW14494   2.097   1.182   6.715 -0.0155  0.1480 -0.4225
 4532SOL    HW114495   2.027   1.238   6.670 -0.7718  0.9559  1.6621
 4532SOL    HW214496   2.187   1.222   6.699 -0.2402  0.3078 -1.3492
 4533SOL     OW14497   4.969   2.794   0.677 -0.0272 -0.0759  0.1675
 4533SOL    HW114498   4.875   2.810   0.708  0.0837 -1.2515  1.2183
 4533SOL    HW214499   4.987   2.696   0.676  0.0628 -0.1449 -3.5921
 4534SOL     OW14500   3.492   0.167   6.549 -0.2100  0.2085 -0.5152
 4534SOL    HW114501   3.524   0.246   6.498 -0.6130  0.6162 -0.1367
 4534SOL    HW214502   3.487   0.190   6.646 -3.2712  0.7164 -0.6937
 4535SOL     OW14503   0.903   6.660   4.222 -0.5651 -0.2794  0.1329
 4535SOL    HW114504   0.965   6.610   4.282  1.7180  0.8772 -1.1148
 4535SOL    HW214505   0.867   6.598   4.152 -1.4306 -1.1201  1.2886
 4536SOL     OW14506   4.261   4.601   1.629 -0.5014  0.5582 -0.2176
 4536SOL    HW114507   4.236   4.507   1.649 -0.9318  0.7751  0.3021
 4536SOL    HW214508   4.306   4.641   1.709 -2.2340  1.4395  0.3550
 4537SOL     OW14509   0.472   3.185   6.830  0.4905  0.0737  0.0770
 4537SOL    HW114510   0.498   3.165   6.925 -0.0312 -1.4987 -0.0849
 4537SOL    HW214511   0.457   3.099   6.781 -0.7766  0.8765 -1.0038
 4538SOL     OW14512   3.731   2.141   1.607  0.1134 -0.1304  0.4376
 4538SOL    HW114513   3.689   2.191   1.531 -0.1688 -1.2632 -0.1600
 4538SOL    HW214514   3.723   2.196   1.691 -1.0738  0.3987 -0.0033
 4539SOL     OW14515   3.630   0.838   0.800 -0.0293 -0.0364  0.2294
 4539SOL    HW114516   3.594   0.752   0.836 -3.1382  0.7519 -0.6753
 4539SOL    HW214517   3.623   0.839   0.701  0.6713  0.9973  0.1663
 4540SOL     OW14518   0.922   2.804   0.073 -0.0383  0.3138  0.9970
 4540SOL    HW114519   1.007   2.844   0.109  0.3354  0.1265  0.3373
 4540SOL    HW214520   0.921   2.706   0.091  0.0916  0.2411  0.6170
 4541SOL     OW14521   6.191   2.221   6.776 -0.1870  0.0767 -0.4233
 4541SOL    HW114522   6.237   2.310   6.775  0.9622 -0.4745  0.4274
 4541SOL    HW214523   6.092   2.235   6.774 -0.3022  1.6738  4.2658
 4542SOL     OW14524   1.221   6.196   4.059  0.0232  0.3524 -0.6087
 4542SOL    HW114525   1.320   6.211   4.062 -0.0875  0.9482  0.9975
 4542SOL    HW214526   1.202   6.107   4.018  1.3032 -0.3898  0.3432
 4543SOL     OW14527   2.397   3.697   1.713 -0.0451 -0.3561  0.1726
 4543SOL    HW114528   2.379   3.609   1.755  0.1274 -0.9973 -1.0529
 4543SOL    HW214529   2.495   3.716   1.714 -0.0841 -0.1633  0.4571
 4544SOL     OW14530   0.676   2.736   3.024 -0.1660  0.1013 -0.2602
 4544SOL    HW114531   0.627   2.821   3.003 -0.4557  0.0579  0.2122
 4544SOL    HW214532   0.767   2.757   3.060  0.5325  0.1677 -1.9786
 4545SOL     OW14533   0.247   0.983   6.830 -0.1361 -0.5530 -0.0091
 4545SOL    HW114534   0.150   0.994   6.854  0.1136  2.2298  0.0443
 4545SOL    HW214535   0.298   0.956   6.911 -0.6544 -0.4307  0.3691
 4546SOL     OW14536   3.677   0.402   3.836  0.5933  0.0708 -0.0803
 4546SOL    HW114537   3.723   0.394   3.747  0.9071 -0.5142  0.1339
 4546SOL    HW214538   3.662   0.499   3.857 -1.8758  0.2258 -1.9999
 4547SOL     OW14539   2.316   3.666   6.203  0.2335 -0.3846  0.6652
 4547SOL    HW114540   2.321   3.600   6.128  0.9027 -0.7686  1.0355
 4547SOL    HW214541   2.224   3.705   6.207  0.1442 -0.4766 -0.2491
 4548SOL     OW14542   1.635   5.937   1.811  0.5658 -0.4345  0.2094
 4548SOL    HW114543   1.579   6.018   1.831  1.8808  0.5165  0.1555
 4548SOL    HW214544   1.711   5.932   1.875  0.8085 -1.3407 -0.1318
 4549SOL     OW14545   5.238   1.852   5.572 -0.9021 -0.3926 -0.0562
 4549SOL    HW114546   5.212   1.771   5.625 -1.0820 -0.1876  0.1723
 4549SOL    HW214547   5.312   1.829   5.509 -1.5980 -0.9860 -0.6868
 4550SOL     OW14548   1.159   3.206   5.674  0.3627  0.8013  0.0555
 4550SOL    HW114549   1.233   3.148   5.642  0.4893  0.3266  1.1864
 4550SOL    HW214550   1.137   3.274   5.603  0.8622  0.0095 -0.8816
 4551SOL     OW14551   6.174   6.921   3.777 -0.0359 -0.2978  0.6220
 4551SOL    HW114552   6.092   6.868   3.800 -0.0823 -0.8428 -0.7238
 4551SOL    HW214553   6.200   6.976   3.856 -1.8386  0.0835  1.0061
 4552SOL     OW14554   5.196   3.769   0.022  0.3401  0.2975  0.3769
 4552SOL    HW114555   5.229   3.716  -0.056  2.1861  1.8411  0.0259
 4552SOL    HW214556   5.215   3.719   0.107 -2.0363 -1.5678 -0.1147
 4553SOL     OW14557   1.579   3.705   1.061  0.1981  0.1436 -0.0529
 4553SOL    HW114558   1.556   3.639   1.131 -1.7813  3.7678  3.0869
 4553SOL    HW214559   1.496   3.747   1.024  1.2257 -0.7425 -3.9004
 4554SOL     OW14560   0.370   4.966   0.633  0.3826  0.2467 -0.2123
 4554SOL    HW114561   0.309   5.042   0.608  0.1046  0.6136  1.4176
 4554SOL    HW214562   0.418   4.990   0.717  0.5732 -1.2423  0.1239
 4555SOL     OW14563   3.673   1.590   4.030 -0.4487 -0.1007 -0.4860
 4555SOL    HW114564   3.640   1.533   3.955 -0.8513  0.3342 -0.6477
 4555SOL    HW214565   3.733   1.661   3.995 -0.3589 -0.1093 -0.3518
 4556SOL     OW14566   1.807   6.707   4.173  0.4403  0.0781 -0.4010
 4556SOL    HW114567   1.874   6.700   4.248  1.0229 -0.3303 -0.9508
 4556SOL    HW214568   1.718   6.676   4.206  0.6266  0.1611  0.2019
 4557SOL     OW14569   2.241   5.970   4.524 -0.5249 -0.0824  0.1388
 4557SOL    HW114570   2.282   5.933   4.440 -0.2966  0.2422  0.1090
 4557SOL    HW214571   2.179   5.901   4.563  1.3532 -1.2760  1.1458
 4558SOL     OW14572   2.457   5.146   0.502  0.1838  0.3781  0.2088
 4558SOL    HW114573   2.386   5.124   0.569 -0.4814  1.3177 -0.1522
 4558SOL    HW214574   2.509   5.225   0.533  1.0319 -0.2472  0.4219
 4559SOL     OW14575   3.075   2.747   1.212 -0.2413  0.5985  0.3785
 4559SOL    HW114576   3.097   2.696   1.295 -1.1007 -1.7851 -0.7647
 4559SOL    HW214577   3.002   2.813   1.232 -1.6011 -1.0741  1.2491
 4560SOL     OW14578   0.586   4.740   5.717  0.3750 -0.2417 -0.7144
 4560SOL    HW114579   0.620   4.834   5.716 -1.0009  0.2797 -2.5337
 4560SOL    HW214580   0.509   4.733   5.780  0.5202 -0.1905 -0.5266
 4561SOL     OW14581   2.939   5.518   6.112 -0.0419  0.5741  0.2533
 4561SOL    HW114582   2.937   5.596   6.174  1.3984 -0.1121  1.2535
 4561SOL    HW214583   3.019   5.524   6.053  0.2981 -0.2929  0.5959
 4562SOL     OW14584   6.023   4.715   3.320 -0.4650  0.8975  0.0977
 4562SOL    HW114585   6.046   4.780   3.393 -1.6374 -0.0662  1.4009
 4562SOL    HW214586   5.927   4.688   3.330 -1.5388  2.7802 -3.4933
 4563SOL     OW14587   2.946   6.832   4.219 -0.2121 -0.5864 -0.0089
 4563SOL    HW114588   2.940   6.924   4.182  0.0015 -0.1878  0.9219
 4563SOL    HW214589   2.865   6.812   4.274  0.5895 -0.2286  1.3575
 4564SOL     OW14590   6.516   6.509   3.201 -0.2059  0.1955  0.2060
 4564SOL    HW114591   6.554   6.470   3.285  0.2643  0.5282  0.1500
 4564SOL    HW214592   6.574   6.485   3.123 -0.5442  0.0366 -0.0020
 4565SOL     OW14593   6.744   4.044   4.085 -0.4042  0.0860 -0.0324
 4565SOL    HW114594   6.786   4.122   4.133 -0.6940 -0.4261  1.0866
 4565SOL    HW214595   6.728   4.069   3.990  0.1968  1.1377  0.1209
 4566SOL     OW14596   1.146   0.482   2.663 -0.2029 -0.1764 -0.0441
 4566SOL    HW114597   1.105   0.524   2.582 -0.0941 -0.3883 -0.2102
 4566SOL    HW214598   1.244   0.472   2.649 -0.2087 -0.3719  0.0431
 4567SOL     OW14599   3.413   1.624   6.236  0.0786  0.4462  0.4236
 4567SOL    HW114600   3.404   1.530   6.205 -0.6195  0.4878  0.4914
 4567SOL    HW214601   3.352   1.683   6.183  1.2071  1.0232 -0.2794
 4568SOL     OW14602   5.621   4.069   3.576  0.0562  0.1908  0.0830
 4568SOL    HW114603   5.608   4.140   3.645  0.4757 -0.1625  0.5246
 4568SOL    HW214604   5.719   4.050   3.566 -0.1053 -0.9170  0.5520
 4569SOL     OW14605   6.311   5.636   4.765  0.3366  0.2826 -0.5204
 4569SOL    HW114606   6.294   5.546   4.803  0.3967  0.6140  0.3017
 4569SOL    HW214607   6.407   5.644   4.739  0.5975  0.4946  0.4695
 4570SOL     OW14608   6.279   6.154   5.724 -0.6220 -0.0370 -0.0381
 4570SOL    HW114609   6.206   6.172   5.789  1.5281  3.3678  1.7014
 4570SOL    HW214610   6.311   6.060   5.736 -0.7717  0.2230  3.4119
 4571SOL     OW14611   3.902   3.024   2.301  0.1324 -0.0832 -0.5187
 4571SOL    HW114612   3.913   3.007   2.204  1.3767 -3.3624  0.0845
 4571SOL    HW214613   3.828   2.968   2.337  0.2607  0.4286  0.5969
 4572SOL     OW14614   5.934   5.018   5.499 -0.3245  0.3915  0.5966
 4572SOL    HW114615   6.023   4.983   5.530 -0.0475  0.4779 -0.0771
 4572SOL    HW214616   5.908   4.973   5.414 -2.1849 -1.5402  2.0931
 4573SOL     OW14617   6.119   3.206   4.289  0.3795  0.0488  0.2083
 4573SOL    HW114618   6.179   3.144   4.239  2.1074  0.7646  1.2857
 4573SOL    HW214619   6.123   3.297   4.247 -0.4813 -0.0449 -0.0960
 4574SOL     OW14620   5.403   1.776   1.423 -0.1024 -0.1722  0.1753
 4574SOL    HW114621   5.500   1.787   1.444  0.0877 -2.3041  0.6434
 4574SOL    HW214622   5.366   1.863   1.391  1.8437  0.7991  0.4007
 4575SOL     OW14623   4.081   6.065   3.160 -0.0310  0.2555  0.0645
 4575SOL    HW114624   4.163   6.121   3.150  0.3846 -0.1283  1.2257
 4575SOL    HW214625   4.062   6.049   3.257 -0.1316 -1.6189 -0.2165
 4576SOL     OW14626   3.424   6.254   6.153 -0.1290  0.3705 -0.0806
 4576SOL    HW114627   3.418   6.244   6.253  1.0661  0.5953  0.0228
 4576SOL    HW214628   3.355   6.196   6.110 -0.0472 -0.4388  0.8450
 4577SOL     OW14629   1.392   0.159   4.150  0.0312 -0.2727  0.6011
 4577SOL    HW114630   1.382   0.104   4.067  1.6542  0.7888 -0.3504
 4577SOL    HW214631   1.349   0.111   4.227 -1.9151 -1.0709 -0.9032
 4578SOL     OW14632   2.981   5.171   6.750  0.4282  0.2303  0.2601
 4578SOL    HW114633   2.984   5.115   6.667  2.0112  0.0928  0.3741
 4578SOL    HW214634   2.984   5.111   6.830  0.5607  0.4223  0.3983
 4579SOL     OW14635   3.637   0.725   5.275 -0.2708  0.3097  0.1986
 4579SOL    HW114636   3.590   0.770   5.350 -0.6906  0.3050 -0.0625
 4579SOL    HW214637   3.583   0.647   5.243  0.1080  0.0548  0.1720
 4580SOL     OW14638   3.038   4.960   2.234  0.3825 -0.0512  0.1459
 4580SOL    HW114639   3.077   5.051   2.227 -1.6174  0.8257 -0.3258
 4580SOL    HW214640   3.043   4.929   2.329 -2.0074  2.0685  1.0722
 4581SOL     OW14641   2.687   1.120   6.907 -0.5335  0.1025  0.4425
 4581SOL    HW114642   2.752   1.162   6.970  0.6583 -2.6402  1.1926
 4581SOL    HW214643   2.594   1.138   6.939  0.0046  0.1498  2.0585
 4582SOL     OW14644   2.304   4.233   1.673  0.6796  0.3093  0.4341
 4582SOL    HW114645   2.333   4.322   1.709  0.4144 -0.1516  1.8307
 4582SOL    HW214646   2.205   4.232   1.662  0.8537  0.9509 -1.7932
 4583SOL     OW14647   3.758   5.225   1.137 -0.0832 -0.4574  0.9253
 4583SOL    HW114648   3.751   5.297   1.068 -0.6778 -0.3826  1.0575
 4583SOL    HW214649   3.802   5.145   1.097  1.8246  0.4338  1.1484
 4584SOL     OW14650   2.833   0.100   5.581 -0.0987  0.0018  0.5469
 4584SOL    HW114651   2.855   0.082   5.677 -0.1870  0.4086  0.6439
 4584SOL    HW214652   2.820   0.013   5.533 -0.2474 -0.1979  0.9485
 4585SOL     OW14653   5.921   4.307   2.862 -0.2606  0.3093 -0.0892
 4585SOL    HW114654   5.953   4.293   2.956  1.1578 -0.3274 -0.6205
 4585SOL    HW214655   5.894   4.218   2.823  0.4652  0.3342 -0.6934
 4586SOL     OW14656   3.676   1.052   4.437  0.1530  0.1679 -0.5756
 4586SOL    HW114657   3.669   1.139   4.486 -1.2552 -0.5462  0.5676
 4586SOL    HW214658   3.602   1.045   4.371  0.2693 -0.1612 -0.6705
 4587SOL     OW14659   1.670   5.323   6.305  0.6678 -0.1318 -0.3198
 4587SOL    HW114660   1.615   5.356   6.229 -0.9884  1.0144  1.2960
 4587SOL    HW214661   1.676   5.223   6.300  1.1605 -0.0472 -2.2685
 4588SOL     OW14662   4.116   3.504   3.997 -0.1893 -0.1247 -0.3599
 4588SOL    HW114663   4.087   3.483   4.090  2.5908 -1.2237  0.3809
 4588SOL    HW214664   4.124   3.603   3.986  0.4416  0.0031  0.9707
 4589SOL     OW14665   1.625   6.936   0.574  0.5247 -0.2808 -0.3828
 4589SOL    HW114666   1.719   6.911   0.596  0.0318 -1.1723  0.8047
 4589SOL    HW214667   1.562   6.868   0.611 -0.5959  0.2795 -1.1890
 4590SOL     OW14668   0.911   0.963   2.333 -0.0983  0.4440 -0.9198
 4590SOL    HW114669   0.992   1.023   2.334  1.5148 -1.6099 -0.5216
 4590SOL    HW214670   0.926   0.890   2.266  1.1538 -3.3920  3.0668
 4591SOL     OW14671   0.084   5.031   6.549 -0.2539 -0.2447 -0.1693
 4591SOL    HW114672   0.180   5.002   6.553  0.0308  0.2245 -2.2528
 4591SOL    HW214673   0.044   4.999   6.463 -2.0203 -0.5073  0.7164
 4592SOL     OW14674   2.376   3.511   1.350 -0.2838 -0.3620  0.2625
 4592SOL    HW114675   2.368   3.453   1.431  1.6701  0.4260  1.0937
 4592SOL    HW214676   2.327   3.596   1.365  0.5020 -0.0005  0.8677
 4593SOL     OW14677   3.353   5.779   4.299 -0.0042 -0.6356  0.0166
 4593SOL    HW114678   3.282   5.843   4.329 -2.2069 -1.9724 -1.9869
 4593SOL    HW214679   3.333   5.688   4.335  0.4949 -1.0949 -0.8385
 4594SOL     OW14680   4.836   3.516   0.094 -0.5612  0.0884  0.2569
 4594SOL    HW114681   4.827   3.536  -0.003 -0.1335  2.1781  0.6128
 4594SOL    HW214682   4.817   3.419   0.110  2.7954 -1.1730 -2.3725
 4595SOL     OW14683   1.178   1.237   6.167 -0.0451  0.0140  0.3045
 4595SOL    HW114684   1.276   1.223   6.174 -0.0960 -0.3162  0.3785
 4595SOL    HW214685   1.139   1.170   6.103 -0.4036 -0.6953  1.2456
 4596SOL     OW14686   4.309   6.545   2.730 -0.4685 -0.3558  0.0081
 4596SOL    HW114687   4.253   6.576   2.807  0.2548 -3.6938  2.0644
 4596SOL    HW214688   4.249   6.506   2.659 -0.9391 -0.2718  0.3524
 4597SOL     OW14689   5.741   4.452   5.645  0.3529 -0.2100  0.6347
 4597SOL    HW114690   5.815   4.387   5.628 -0.1318 -0.5420 -0.2838
 4597SOL    HW214691   5.768   4.514   5.718  1.6053 -0.2303  0.2234
 4598SOL     OW14692   5.830   3.995   5.237 -0.4547 -0.7872 -0.4529
 4598SOL    HW114693   5.925   4.008   5.265 -0.3625 -0.1531 -1.0448
 4598SOL    HW214694   5.780   4.081   5.245 -1.1698 -1.2565  0.5008
 4599SOL     OW14695   4.174   5.103   0.542 -0.0632 -0.1376 -0.1472
 4599SOL    HW114696   4.211   5.196   0.547  0.1451 -0.2695  1.1872
 4599SOL    HW214697   4.230   5.048   0.480 -0.7843  0.8694 -1.7560
 4600SOL     OW14698   4.024   2.969   6.817 -0.2035 -0.3486  0.4088
 4600SOL    HW114699   4.044   2.942   6.910  0.2579  0.1157  0.4487
 4600SOL    HW214700   4.086   2.923   6.754 -0.0099 -0.0769  0.3992
 4601SOL     OW14701   5.473   3.558   3.544 -0.0058 -0.9135 -0.7496
 4601SOL    HW114702   5.524   3.607   3.474 -1.9918  1.0890 -0.9034
 4601SOL    HW214703   5.486   3.602   3.632 -0.7740 -0.9000 -0.6362
 4602SOL     OW14704   4.078   0.261   2.115  0.4401 -0.3830 -0.3050
 4602SOL    HW114705   4.045   0.219   2.200 -3.7818  1.6105 -0.6841
 4602SOL    HW214706   4.141   0.335   2.136 -1.2721  0.7014  1.2445
 4603SOL     OW14707   4.158   6.129   4.724  0.1300 -0.1498 -0.4783
 4603SOL    HW114708   4.085   6.141   4.657  0.3193  1.4236 -0.4375
 4603SOL    HW214709   4.132   6.172   4.810  2.0164  2.5768 -1.1692
 4604SOL     OW14710   5.926   0.677   2.067  0.2813  0.1509 -0.2297
 4604SOL    HW114711   5.979   0.753   2.106 -1.7918  0.6901  1.7871
 4604SOL    HW214712   5.965   0.590   2.098 -1.2520  0.5578  3.3177
 4605SOL     OW14713   6.915   1.202   3.802  0.3136  0.1885  0.0594
 4605SOL    HW114714   6.966   1.249   3.875 -0.4272 -1.1562  1.5020
 4605SOL    HW214715   6.973   1.132   3.762  0.2380 -0.0580  0.3783
 4606SOL     OW14716   2.352   6.699   1.781 -0.2865  0.9421 -0.0546
 4606SOL    HW114717   2.399   6.722   1.867 -0.8208 -3.4443  1.6525
 4606SOL    HW214718   2.419   6.672   1.713 -0.0067  1.6656 -0.0739
 4607SOL     OW14719   0.819   5.170   1.026  0.3842 -0.4190  0.7530
 4607SOL    HW114720   0.756   5.222   1.083  0.0392  1.9666 -1.5930
 4607SOL    HW214721   0.791   5.074   1.023 -2.2342  0.2646  0.9916
 4608SOL     OW14722   0.623   0.384   1.594 -0.3019  0.1327  0.3529
 4608SOL    HW114723   0.539   0.423   1.631 -1.4874 -0.5635 -1.4803
 4608SOL    HW214724   0.647   0.431   1.509  0.1422 -0.8330 -0.0771
 4609SOL     OW14725   4.534   4.814   0.170  0.5507  0.6127 -0.4307
 4609SOL    HW114726   4.471   4.777   0.101 -1.9940  0.3396  1.8406
 4609SOL    HW214727   4.588   4.887   0.129 -0.2081 -0.0914 -2.9134
 4610SOL     OW14728   5.299   1.687   3.853 -0.3208 -0.3094 -0.6465
 4610SOL    HW114729   5.301   1.768   3.912 -2.2956 -1.3044  0.8931
 4610SOL    HW214730   5.385   1.636   3.864 -0.0001  0.3633  0.1156
 4611SOL     OW14731   4.532   0.085   4.423 -0.8169 -0.2854  0.1368
 4611SOL    HW114732   4.544   0.038   4.511 -0.9257  0.8343  0.7698
 4611SOL    HW214733   4.621   0.102   4.381 -0.7082 -0.0168  0.4726
 4612SOL     OW14734   6.893   2.558   3.255  0.0679 -0.7144  0.3776
 4612SOL    HW114735   6.872   2.502   3.335  0.7296  0.4695  1.4154
 4612SOL    HW214736   6.937   2.644   3.285 -0.3246  0.0682 -1.2011
 4613SOL     OW14737   6.065   5.596   1.503  0.5171 -0.4699 -0.5382
 4613SOL    HW114738   6.078   5.506   1.544 -1.0558 -0.3630  0.2538
 4613SOL    HW214739   6.129   5.607   1.427  2.1811 -1.4174  0.6601
 4614SOL     OW14740   4.376   6.173   3.794  0.4032 -0.2587 -0.2381
 4614SOL    HW114741   4.411   6.260   3.761 -1.0149  1.2431  1.9074
 4614SOL    HW214742   4.277   6.181   3.808  0.5717 -1.4529  2.0847
 4615SOL     OW14743   1.531   2.670   0.093  0.5095  0.6003 -0.1088
 4615SOL    HW114744   1.593   2.731   0.143  0.7159  1.5070 -1.4053
 4615SOL    HW214745   1.570   2.650   0.003 -0.4072 -0.0042 -0.3892
 4616SOL     OW14746   3.125   1.669   4.405  0.2966  0.1780 -0.3236
 4616SOL    HW114747   3.139   1.686   4.307 -0.2288 -1.0708 -0.6369
 4616SOL    HW214748   3.177   1.736   4.458  1.9601 -0.1475 -1.4411
 4617SOL     OW14749   4.455   2.258   6.894  0.0925  0.1243  0.3104
 4617SOL    HW114750   4.404   2.344   6.886  1.6605  1.1652  1.1061
 4617SOL    HW214751   4.512   2.246   6.813 -2.0526 -1.5495 -1.0676
 4618SOL     OW14752   5.962   5.606   6.301 -0.5646 -0.1166 -0.2735
 4618SOL    HW114753   6.027   5.671   6.340  0.0311 -1.9630  2.0732
 4618SOL    HW214754   5.911   5.649   6.227 -0.9121  3.3315  1.7792
 4619SOL     OW14755   1.370   5.823   4.669  0.8936  0.3001  0.4715
 4619SOL    HW114756   1.377   5.759   4.746  2.2486  0.8223  0.7969
 4619SOL    HW214757   1.374   5.917   4.702 -0.1801  0.5719 -0.0968
 4620SOL     OW14758   1.062   4.373   5.160 -0.3305  0.6634 -0.2010
 4620SOL    HW114759   1.045   4.313   5.238 -0.5335  2.3506  1.1095
 4620SOL    HW214760   1.160   4.387   5.148 -0.3127  0.6680 -0.0434
 4621SOL     OW14761   4.902   5.733   1.636  0.0735  0.8234 -0.1341
 4621SOL    HW114762   4.837   5.803   1.665  0.6477  1.0336  0.6920
 4621SOL    HW214763   4.994   5.772   1.633  0.5114 -0.0474  1.0303
 4622SOL     OW14764   2.139   4.367   6.411 -0.0485  0.4312 -0.1031
 4622SOL    HW114765   2.142   4.448   6.353 -0.4050  0.2392 -0.3876
 4622SOL    HW214766   2.089   4.388   6.495 -2.8082 -0.3193 -1.4737
 4623SOL     OW14767   3.397   3.863   0.421  0.3361  0.2536 -0.1655
 4623SOL    HW114768   3.469   3.811   0.467  0.6545  0.6214 -0.2487
 4623SOL    HW214769   3.321   3.878   0.484  0.3132 -0.1676 -0.0898
 4624SOL     OW14770   4.198   3.722   5.189  0.2140  0.4190 -0.1891
 4624SOL    HW114771   4.125   3.704   5.255 -0.2382  0.5706 -0.6369
 4624SOL    HW214772   4.285   3.688   5.225 -0.1892 -0.3680  0.0737
 4625SOL     OW14773   5.441   0.987   5.058 -0.0193 -0.3531  0.5605
 4625SOL    HW114774   5.477   0.937   4.979 -0.6919 -0.3265  0.2286
 4625SOL    HW214775   5.484   1.077   5.062 -2.2899  0.9815 -1.7419
 4626SOL     OW14776   2.285   5.420   3.180 -0.2077 -0.4298  0.6411
 4626SOL    HW114777   2.323   5.496   3.127 -2.1768  0.8336  0.9559
 4626SOL    HW214778   2.299   5.334   3.130 -1.7050  0.6533 -1.8266
 4627SOL     OW14779   6.673   0.425   1.116 -0.1239 -0.6065  0.1395
 4627SOL    HW114780   6.651   0.474   1.201 -0.2691 -0.2691 -0.0919
 4627SOL    HW214781   6.634   0.333   1.120 -0.6135 -0.4009  0.2064
 4628SOL     OW14782   5.182   0.861   5.881 -0.0277 -0.4627 -0.1601
 4628SOL    HW114783   5.202   0.768   5.911 -1.4413 -1.3565 -1.7582
 4628SOL    HW214784   5.097   0.893   5.924  0.8244  0.4077  0.9377
 4629SOL     OW14785   4.722   1.248   1.875 -0.2438  0.1286 -0.3109
 4629SOL    HW114786   4.747   1.189   1.951  1.4954  1.1387 -0.0544
 4629SOL    HW214787   4.638   1.298   1.897  1.0701  1.5994  1.6584
 4630SOL     OW14788   0.866   2.158   1.453 -0.3242 -0.2210  0.7692
 4630SOL    HW114789   0.791   2.220   1.478 -0.8458 -0.1771 -0.8399
 4630SOL    HW214790   0.935   2.208   1.400  1.3250 -0.0459  2.9126
 4631SOL     OW14791   3.436   5.967   1.559  0.4839 -0.1090 -0.2031
 4631SOL    HW114792   3.479   6.041   1.507  0.3485 -0.6072 -1.0314
 4631SOL    HW214793   3.485   5.956   1.646 -1.1017  2.7354  1.2228
 4632SOL     OW14794   1.533   3.832   5.020  0.2124  0.1506  0.2712
 4632SOL    HW114795   1.434   3.843   5.026  0.4608  2.8887  0.9067
 4632SOL    HW214796   1.557   3.736   5.028 -2.4106 -0.6423 -0.4622
 4633SOL     OW14797   2.842   3.463   2.350  0.4308  0.1175  0.4441
 4633SOL    HW114798   2.784   3.538   2.319 -0.1825  0.3919  2.1616
 4633SOL    HW214799   2.932   3.470   2.307  0.5063  2.0503  0.8211
 4634SOL     OW14800   6.765   1.406   6.255 -0.4851 -0.3925  0.1341
 4634SOL    HW114801   6.721   1.319   6.277 -2.0123  0.2369 -0.3114
 4634SOL    HW214802   6.853   1.388   6.209 -1.1725 -1.7130 -0.7376
 4635SOL     OW14803   3.379   5.611   6.920  0.3414  0.0234 -0.7193
 4635SOL    HW114804   3.296   5.602   6.975  0.9848 -0.6052  0.1669
 4635SOL    HW214805   3.459   5.592   6.976  1.4623  4.6258 -0.3580
 4636SOL     OW14806   5.822   3.595   3.418  0.0709 -0.4133  0.4652
 4636SOL    HW114807   5.872   3.563   3.498 -2.2082 -0.5994  1.8935
 4636SOL    HW214808   5.884   3.649   3.361  1.8852 -0.6220  2.1003
 4637SOL     OW14809   0.870   6.232   0.093 -0.1058 -0.4108 -0.4372
 4637SOL    HW114810   0.829   6.154   0.045 -1.1767 -1.3224  1.8305
 4637SOL    HW214811   0.811   6.260   0.168  1.3328  1.1705  0.1587
 4638SOL     OW14812   2.932   5.770   1.969 -0.1978  0.2465  0.1497
 4638SOL    HW114813   2.890   5.820   1.892 -0.4705  0.3269  0.3490
 4638SOL    HW214814   2.881   5.790   2.053 -0.3241 -0.3906  0.2274
 4639SOL     OW14815   3.530   3.676   3.627 -0.6118 -0.0621 -0.4654
 4639SOL    HW114816   3.450   3.696   3.570 -1.2883 -0.2646  0.3947
 4639SOL    HW214817   3.510   3.596   3.685  1.1797 -1.8609 -2.1565
 4640SOL     OW14818   3.922   4.016   4.395 -0.3223  0.6565  0.0165
 4640SOL    HW114819   3.937   3.918   4.381  1.0810  0.6265  1.4223
 4640SOL    HW214820   3.905   4.060   4.307 -0.3218 -0.7335 -0.7165
 4641SOL     OW14821   3.813   5.194   2.720 -0.0613 -0.0634 -0.8439
 4641SOL    HW114822   3.718   5.166   2.728 -0.4982  0.9897 -2.0312
 4641SOL    HW214823   3.817   5.293   2.705  1.2434 -0.0349 -0.4340
 4642SOL     OW14824   2.296   5.928   1.992  0.0980  0.2243  0.5967
 4642SOL    HW114825   2.274   5.862   2.064 -1.4608  1.4400  1.2923
 4642SOL    HW214826   2.212   5.974   1.962  0.4419 -1.1921 -3.0132
 4643SOL     OW14827   6.868   3.808   0.846 -0.3128  0.3715  0.4638
 4643SOL    HW114828   6.926   3.855   0.911 -0.1465  0.4315  0.2706
 4643SOL    HW214829   6.785   3.862   0.829  0.7765  1.5771 -1.2781
 4644SOL     OW14830   4.041   5.355   0.082  0.1531 -0.1414 -0.1610
 4644SOL    HW114831   4.015   5.426   0.147 -0.3581 -0.1796 -0.3165
 4644SOL    HW214832   4.026   5.265   0.123 -0.7904 -0.1716 -0.5594
 4645SOL     OW14833   5.767   2.714   0.587  0.2162 -0.4501  0.3829
 4645SOL    HW114834   5.793   2.690   0.493 -0.6010 -0.0812  0.0447
 4645SOL    HW214835   5.744   2.811   0.591  0.2876 -0.4551  0.9760
 4646SOL     OW14836   4.518   4.318   0.988 -0.4881 -0.4092  0.2749
 4646SOL    HW114837   4.435   4.263   0.987  0.5375 -2.0385 -2.0956
 4646SOL    HW214838   4.531   4.357   1.080 -2.4884 -2.1836  1.3917
 4647SOL     OW14839   2.972   0.869   1.617  0.3488 -0.0258 -0.2327
 4647SOL    HW114840   2.890   0.919   1.587  1.0417  1.1946 -0.1357
 4647SOL    HW214841   3.047   0.933   1.631  0.7454 -0.8456  1.7391
 4648SOL     OW14842   6.177   3.919   2.175  0.3734  0.0068  0.1122
 4648SOL    HW114843   6.083   3.901   2.204  0.2551  3.5762  2.6588
 4648SOL    HW214844   6.188   3.898   2.078 -2.5767 -1.8719  0.0780
 4649SOL     OW14845   4.790   5.406   1.821 -0.1240 -0.1198 -0.3154
 4649SOL    HW114846   4.708   5.414   1.879 -1.4784  0.5676 -2.2271
 4649SOL    HW214847   4.851   5.337   1.860 -1.7530 -0.8924  1.0249
 4650SOL     OW14848   5.097   4.530   3.378 -0.1443 -0.0849 -0.2269
 4650SOL    HW114849   5.053   4.440   3.370 -0.1065 -0.1789  0.5776
 4650SOL    HW214850   5.175   4.523   3.441  0.9252  0.1223 -1.4852
 4651SOL     OW14851   1.056   2.330   4.277  0.4724 -0.9131  0.5874
 4651SOL    HW114852   1.120   2.287   4.214  0.8683 -1.1171  1.1262
 4651SOL    HW214853   1.102   2.351   4.363  0.8333  2.2913 -0.2525
 4652SOL     OW14854   4.843   5.186   3.352 -0.1511  0.4420 -0.0467
 4652SOL    HW114855   4.820   5.098   3.394 -0.1658 -0.0956 -1.1349
 4652SOL    HW214856   4.942   5.198   3.354  0.0130 -0.4234 -1.4119
 4653SOL     OW14857   3.662   1.197   1.612  0.4386 -0.0632 -1.7299
 4653SOL    HW114858   3.738   1.256   1.638 -0.2329 -0.0677  0.4994
 4653SOL    HW214859   3.669   1.173   1.516  1.8829  1.9362 -2.1903
 4654SOL     OW14860   0.712   4.876   4.038  0.2472  0.3447 -0.1628
 4654SOL    HW114861   0.631   4.910   4.085 -0.1358 -1.6777  0.7413
 4654SOL    HW214862   0.792   4.886   4.098  0.6570  2.0331 -0.9284
 4655SOL     OW14863   3.657   3.524   4.083 -0.1720  0.1751 -0.5978
 4655SOL    HW114864   3.686   3.441   4.130 -0.0480  0.5833  0.0675
 4655SOL    HW214865   3.563   3.513   4.050 -0.1601 -0.2241 -0.5021
 4656SOL     OW14866   6.805   3.556   1.510  0.4627 -0.2745 -0.0423
 4656SOL    HW114867   6.785   3.637   1.455  0.4129 -0.4718 -0.3185
 4656SOL    HW214868   6.866   3.581   1.586 -3.1409  1.0320  2.7041
 4657SOL     OW14869   0.099   1.825   6.832  0.5482 -0.1055 -0.3541
 4657SOL    HW114870   0.074   1.888   6.759  0.7237  0.7670  0.3212
 4657SOL    HW214871   0.074   1.865   6.921  0.3909 -1.1143  0.0750
 4658SOL     OW14872   3.313   6.636   4.881 -0.1016 -0.6463 -0.6662
 4658SOL    HW114873   3.368   6.609   4.802  0.1956 -2.1604  0.0147
 4658SOL    HW214874   3.342   6.584   4.961 -1.4813 -0.3467  0.0715
 4659SOL     OW14875   6.975   3.624   2.567  0.1114  0.6891  0.5442
 4659SOL    HW114876   7.062   3.636   2.614  1.4474 -1.4258 -1.1716
 4659SOL    HW214877   6.950   3.527   2.570 -0.8253  0.8423 -1.2267
 4660SOL     OW14878   6.299   0.479   4.507  0.1940 -0.4674  0.7847
 4660SOL    HW114879   6.307   0.561   4.450  0.5417 -0.2165  1.1928
 4660SOL    HW214880   6.203   0.452   4.513  0.0391  0.0972  0.9063
 4661SOL     OW14881   4.081   3.639   2.871  0.2496 -0.3808  1.1170
 4661SOL    HW114882   4.041   3.650   2.962 -0.8955  0.2884  0.5497
 4661SOL    HW214883   4.075   3.726   2.821  1.6444 -0.5015  0.6966
 4662SOL     OW14884   4.305   5.386   5.792 -0.2432 -0.5151 -0.4144
 4662SOL    HW114885   4.328   5.325   5.716 -1.1328 -0.3550 -0.8278
 4662SOL    HW214886   4.371   5.461   5.795 -0.4245 -0.3025 -1.2909
 4663SOL     OW14887   0.023   2.517   0.735  0.9869  0.0532  0.3520
 4663SOL    HW114888  -0.075   2.517   0.754  0.5841 -0.5199 -1.5702
 4663SOL    HW214889   0.040   2.489   0.641  2.9861  0.5968  0.4871
 4664SOL     OW14890   2.207   5.925   4.974 -0.3741 -0.4300 -0.1974
 4664SOL    HW114891   2.146   5.981   4.917 -2.4914 -4.0553 -1.8011
 4664SOL    HW214892   2.165   5.909   5.063 -1.1504 -1.7639 -0.7872
 4665SOL     OW14893   2.704   2.807   0.018  0.0829  0.3574  0.3658
 4665SOL    HW114894   2.768   2.883   0.005  0.6791 -0.6481 -3.9140
 4665SOL    HW214895   2.754   2.725   0.046 -0.1082  0.6906  1.7639
 4666SOL     OW14896   1.861   1.154   5.497  0.0350 -0.1743 -0.0463
 4666SOL    HW114897   1.959   1.151   5.520 -0.1430  0.1744  0.7886
 4666SOL    HW214898   1.827   1.248   5.509  0.3313  0.5136 -3.5292
 4667SOL     OW14899   1.057   0.047   0.090 -0.0484 -0.4472  0.2992
 4667SOL    HW114900   1.064   0.029  -0.008 -0.4201 -0.4209  0.2677
 4667SOL    HW214901   1.108  -0.023   0.140  1.6160  0.5108  0.0176
 4668SOL     OW14902   3.841   0.458   6.624  0.0275  0.3941 -0.5512
 4668SOL    HW114903   3.823   0.367   6.587  1.0179 -0.7660  1.5844
 4668SOL    HW214904   3.938   0.480   6.615  0.0835  0.5509  0.2699
 4669SOL     OW14905   5.605   2.920   4.401 -0.1758  0.2437  0.3285
 4669SOL    HW114906   5.633   2.905   4.496  1.1347  0.2860 -0.0266
 4669SOL    HW214907   5.677   2.970   4.353 -1.4927  1.6003 -0.3049
 4670SOL     OW14908   4.103   3.988   5.462  0.5460 -0.3652 -0.2217
 4670SOL    HW114909   4.156   4.043   5.525 -1.0274  0.5768  0.3410
 4670SOL    HW214910   4.082   4.041   5.380  0.3394 -0.6661 -0.3658
 4671SOL     OW14911   1.656   2.072   4.049 -0.2009  0.5693  0.6285
 4671SOL    HW114912   1.664   1.977   4.080 -2.0608 -0.5527 -1.8770
 4671SOL    HW214913   1.606   2.126   4.117  0.2349 -0.4403  1.7687
 4672SOL     OW14914   2.731   4.004   0.287 -0.1059 -0.4811  0.2147
 4672SOL    HW114915   2.687   4.006   0.197  0.1808 -0.7218  0.0694
 4672SOL    HW214916   2.695   4.078   0.343  0.3942  0.2519 -0.4136
 4673SOL     OW14917   4.728   2.753   4.532 -0.3109 -0.3669 -0.0210
 4673SOL    HW114918   4.821   2.725   4.554 -0.8859 -2.1788  0.2572
 4673SOL    HW214919   4.723   2.853   4.530  1.7758 -0.2333 -0.7142
 4674SOL     OW14920   0.516   1.014   1.985 -0.0631 -0.3140 -0.0056
 4674SOL    HW114921   0.455   0.969   1.920  1.0357 -0.1938 -1.1458
 4674SOL    HW214922   0.512   1.113   1.972  2.2300 -0.3747 -1.8950
 4675SOL     OW14923   1.272   6.987   2.891  1.1378 -0.0621 -0.4287
 4675SOL    HW114924   1.352   6.941   2.853  0.2902 -2.2674  0.2829
 4675SOL    HW214925   1.278   6.989   2.990 -0.5166 -2.0349 -0.2248
 4676SOL     OW14926   2.551   4.791   5.759 -0.6535 -0.4683 -0.3577
 4676SOL    HW114927   2.584   4.697   5.752  0.2166 -0.1556 -0.5324
 4676SOL    HW214928   2.527   4.811   5.854 -1.1015 -0.9473 -0.3646
 4677SOL     OW14929   2.568   6.527   1.977 -0.8718 -0.7160  0.1946
 4677SOL    HW114930   2.532   6.460   1.912  0.3911 -1.1384 -0.0955
 4677SOL    HW214931   2.643   6.486   2.029  0.3941  0.6828 -0.4767
 4678SOL     OW14932   2.407   4.786   4.826 -0.0617  0.0158 -0.7804
 4678SOL    HW114933   2.449   4.705   4.785 -0.5408 -0.5035 -0.2704
 4678SOL    HW214934   2.387   4.768   4.922 -0.5427  0.6003 -0.7627
 4679SOL     OW14935   6.639   3.699   0.552 -0.4624  0.6213 -0.4368
 4679SOL    HW114936   6.723   3.669   0.507  0.1600  1.6225  0.0168
 4679SOL    HW214937   6.561   3.649   0.515  0.5280 -1.7170  0.4410
 4680SOL     OW14938   3.308   3.566   4.079  0.2563 -0.3886 -0.6036
 4680SOL    HW114939   3.329   3.663   4.065 -1.3058 -0.0542 -0.8571
 4680SOL    HW214940   3.236   3.538   4.015  0.2058 -1.5337 -0.0722
 4681SOL     OW14941   1.348   5.982   4.419  0.1596 -0.5467 -0.1691
 4681SOL    HW114942   1.383   5.931   4.341  0.0948 -1.4151  0.3564
 4681SOL    HW214943   1.355   5.926   4.501 -0.4909  0.0683  0.3169
 4682SOL     OW14944   2.628   4.597   6.901  0.4597  0.0583 -0.1760
 4682SOL    HW114945   2.595   4.578   6.809 -1.9051 -1.8944  0.9559
 4682SOL    HW214946   2.715   4.645   6.896  1.6771 -2.1306 -3.4232
 4683SOL     OW14947   2.625   1.516   0.422  0.5538  0.0468 -0.5324
 4683SOL    HW114948   2.648   1.548   0.330  1.9325  0.7711  0.0331
 4683SOL    HW214949   2.707   1.518   0.480  0.1063 -1.9969  0.2747
 4684SOL     OW14950   6.585   5.843   3.332  0.1119  0.0572  0.1494
 4684SOL    HW114951   6.660   5.829   3.267 -0.9396 -0.3702 -1.0265
 4684SOL    HW214952   6.498   5.842   3.282 -0.7267 -0.1392  1.5672
 4685SOL     OW14953   3.985   3.702   3.136  0.4962  0.3186 -0.1953
 4685SOL    HW114954   3.960   3.610   3.165  0.6979 -0.0287 -1.0810
 4685SOL    HW214955   3.928   3.769   3.184 -1.2790 -0.3782 -1.2079
 4686SOL     OW14956   0.072   4.939   2.344 -0.6289  0.7366 -0.2180
 4686SOL    HW114957  -0.009   4.885   2.324 -0.6365  0.8632 -0.5243
 4686SOL    HW214958   0.045   5.030   2.377 -0.6453  0.0973  1.6580
 4687SOL     OW14959   0.891   0.032   3.857 -0.3707  0.7437  0.3426
 4687SOL    HW114960   0.876  -0.041   3.924  1.7416 -0.2671 -0.2021
 4687SOL    HW214961   0.882  -0.006   3.765 -0.3271  1.4313  0.0524
 4688SOL     OW14962   0.276   0.699   5.622  0.3544  0.0512 -0.2873
 4688SOL    HW114963   0.322   0.742   5.544  0.7300  0.7045  0.2954
 4688SOL    HW214964   0.214   0.628   5.588  1.2488 -0.3484 -1.1258
 4689SOL     OW14965   3.318   1.634   3.348 -0.4510 -0.1075 -0.1035
 4689SOL    HW114966   3.336   1.633   3.249 -1.5196  2.1175 -0.3892
 4689SOL    HW214967   3.263   1.554   3.373 -1.7093  0.2062 -1.6776
 4690SOL     OW14968   0.421   5.343   3.849 -0.6192 -0.3057 -0.3640
 4690SOL    HW114969   0.397   5.422   3.794  0.3773  1.0913  1.1086
 4690SOL    HW214970   0.348   5.325   3.915  0.5675  1.6136  1.6087
 4691SOL     OW14971   4.452   1.855   2.378  0.1449 -0.7197  0.3968
 4691SOL    HW114972   4.379   1.796   2.414 -0.7031  0.4003  0.5727
 4691SOL    HW214973   4.440   1.866   2.280  0.4843 -1.0699  0.3127
 4692SOL     OW14974   5.940   6.554   2.308 -0.5850 -0.1203 -0.6600
 4692SOL    HW114975   6.015   6.614   2.281 -0.4004 -0.1128 -0.1435
 4692SOL    HW214976   5.949   6.466   2.262 -0.0707 -0.2358 -0.3350
 4693SOL     OW14977   4.559   0.261   2.834  0.2847 -0.6427  0.2945
 4693SOL    HW114978   4.505   0.322   2.893 -0.4537 -1.4623  0.4872
 4693SOL    HW214979   4.655   0.266   2.860  0.0940 -0.3107  0.9635
 4694SOL     OW14980   3.063   2.655   1.702 -0.1208 -0.6548 -0.9128
 4694SOL    HW114981   3.023   2.575   1.747 -0.1228 -0.4658 -0.5801
 4694SOL    HW214982   3.123   2.703   1.766 -1.1700  0.3866 -0.6616
 4695SOL     OW14983   5.130   0.683   3.278 -0.4587 -0.3186  0.8561
 4695SOL    HW114984   5.037   0.683   3.239  0.4319  0.1223 -1.4456
 4695SOL    HW214985   5.171   0.773   3.266  0.8710 -0.9855  0.2275
 4696SOL     OW14986   0.176   6.746   1.244  0.5264  0.6078 -0.1106
 4696SOL    HW114987   0.097   6.727   1.186  0.5688 -0.5821  0.1986
 4696SOL    HW214988   0.176   6.843   1.269 -0.4961  0.7531 -0.6008
 4697SOL     OW14989   1.410   3.820   2.057 -0.0459  0.1108  0.4108
 4697SOL    HW114990   1.461   3.860   1.980  0.0307  2.0270  1.3829
 4697SOL    HW214991   1.323   3.868   2.067 -0.9702 -1.4771  0.3108
 4698SOL     OW14992   2.529   1.047   0.834 -0.8127 -0.5347  0.0748
 4698SOL    HW114993   2.519   1.049   0.934 -0.4976  0.9764  0.0994
 4698SOL    HW214994   2.604   1.106   0.807  0.4734 -2.5150 -0.9494
 4699SOL     OW14995   4.716   5.459   5.694 -0.6008 -0.0617 -0.3008
 4699SOL    HW114996   4.676   5.416   5.613 -1.6398 -0.1055  0.2168
 4699SOL    HW214997   4.767   5.392   5.746  0.5115  0.0797 -1.1747
 4700SOL     OW14998   6.267   4.725   2.014 -0.3703 -0.1402 -0.4591
 4700SOL    HW114999   6.200   4.745   2.086  1.6020 -0.3283  1.5278
 4700SOL    HW215000   6.294   4.810   1.969 -0.6807  0.1417 -0.1238
 4701SOL     OW15001   0.912   0.016   5.179  0.1400  0.0856 -0.4790
 4701SOL    HW115002   0.972   0.096   5.174  1.5724 -0.9083  0.0751
 4701SOL    HW215003   0.826   0.040   5.224  0.8692  1.1215  0.3919
 4702SOL     OW15004   3.367   4.560   5.758 -0.6095  0.2261  0.4815
 4702SOL    HW115005   3.279   4.571   5.712 -1.2200  0.6688  1.7146
 4702SOL    HW215006   3.360   4.487   5.825  0.5323 -1.0169 -0.6933
 4703SOL     OW15007   5.746   6.273   1.510 -0.3762  0.1098  0.1824
 4703SOL    HW115008   5.782   6.309   1.597 -0.0619  1.0177 -0.3064
 4703SOL    HW215009   5.791   6.186   1.489 -0.1301  0.1024  0.7086
 4704SOL     OW15010   6.224   5.445   1.175 -0.4112  0.5599  0.3155
 4704SOL    HW115011   6.237   5.455   1.076 -1.0532  1.2778  0.2877
 4704SOL    HW215012   6.156   5.512   1.206 -0.4201  0.1539  1.2000
 4705SOL     OW15013   6.699   5.637   2.662 -0.1549  0.4358  0.0040
 4705SOL    HW115014   6.759   5.709   2.697 -0.0860  0.1553  0.4658
 4705SOL    HW215015   6.670   5.661   2.569  0.2728  0.8102 -0.0390
 4706SOL     OW15016   1.472   0.077   1.247  0.1801 -0.1298 -0.3440
 4706SOL    HW115017   1.492   0.053   1.342  0.2488 -0.8544 -0.5375
 4706SOL    HW215018   1.555   0.110   1.203  0.3294 -0.5285 -0.3677
 4707SOL     OW15019   4.615   4.976   3.814 -0.0684  0.0817 -0.5039
 4707SOL    HW115020   4.619   5.071   3.845  0.6725  0.1002 -0.6327
 4707SOL    HW215021   4.704   4.933   3.827 -0.6112 -0.8393  0.3016
 4708SOL     OW15022   0.737   1.450   5.786 -0.4585  0.5299  0.2414
 4708SOL    HW115023   0.788   1.439   5.701 -0.1524 -0.0575  0.4948
 4708SOL    HW215024   0.801   1.463   5.861 -0.7470  2.1639  0.2472
 4709SOL     OW15025   4.956   4.068   0.223 -0.0587 -0.4802 -0.2908
 4709SOL    HW115026   4.928   3.974   0.245 -1.0767 -0.2206 -0.4084
 4709SOL    HW215027   4.893   4.105   0.155  0.7140  0.0780 -0.7062
 4710SOL     OW15028   1.321   6.089   3.528  0.4919  0.6212 -0.6058
 4710SOL    HW115029   1.229   6.094   3.568  0.6132  1.6767 -0.4254
 4710SOL    HW215030   1.390   6.104   3.599  0.7453  1.3496 -0.9909
 4711SOL     OW15031   2.404   4.078   0.215 -0.2954 -0.6380  0.9164
 4711SOL    HW115032   2.431   4.011   0.147  0.8263 -0.3054  1.0222
 4711SOL    HW215033   2.470   4.153   0.216 -0.3994 -0.5472  2.2279
 4712SOL     OW15034   6.278   2.867   5.952  0.6184  0.0170 -0.1965
 4712SOL    HW115035   6.331   2.790   5.918  0.0433 -1.1271  1.3697
 4712SOL    HW215036   6.331   2.951   5.942  2.0919 -0.8666 -0.1100
 4713SOL     OW15037   4.536   6.711   3.090  0.0031  0.1820  0.1595
 4713SOL    HW115038   4.604   6.785   3.099  0.4094 -0.2912  1.1532
 4713SOL    HW215039   4.547   6.647   3.166 -1.1103 -0.2813 -0.0552
 4714SOL     OW15040   4.747   5.023   6.696  0.1206  0.9245  0.2687
 4714SOL    HW115041   4.723   5.065   6.609  1.0967 -0.6459 -0.8092
 4714SOL    HW215042   4.749   4.923   6.686  1.2557  0.7431  1.8036
 4715SOL     OW15043   2.134   3.152   2.106 -0.8671 -0.1880  0.0105
 4715SOL    HW115044   2.141   3.212   2.027  0.4548  0.2602  0.4467
 4715SOL    HW215045   2.181   3.066   2.088  1.3917  0.7681  1.0605
 4716SOL     OW15046   3.277   3.280   4.074 -0.4202 -0.0247  0.0408
 4716SOL    HW115047   3.289   3.348   4.147  1.0534 -0.3612  0.1517
 4716SOL    HW215048   3.180   3.266   4.057 -0.8044  2.6924 -0.5274
 4717SOL     OW15049   5.466   0.244   0.124  0.0598  0.0256 -0.2570
 4717SOL    HW115050   5.503   0.165   0.173 -0.7832 -0.4128 -0.3095
 4717SOL    HW215051   5.529   0.271   0.051 -0.6577 -2.0106 -1.7056
 4718SOL     OW15052   6.121   3.232   4.568 -0.0449  0.2815 -0.4875
 4718SOL    HW115053   6.107   3.218   4.470 -1.1100  0.0399 -0.3124
 4718SOL    HW215054   6.113   3.144   4.615  0.1263  0.4468 -0.1476
 4719SOL     OW15055   0.542   0.113   4.727  0.0654  0.0544 -0.4842
 4719SOL    HW115056   0.525   0.128   4.825 -0.5252  2.1257 -0.8577
 4719SOL    HW215057   0.606   0.037   4.716 -1.1022 -1.3044  1.4286
 4720SOL     OW15058   1.425   5.386   5.693 -0.1130 -0.1444 -0.4541
 4720SOL    HW115059   1.501   5.442   5.659 -0.6457  1.8907  1.4642
 4720SOL    HW215060   1.355   5.445   5.731 -2.7925 -1.9499 -2.1993
 4721SOL     OW15061   5.855   2.356   1.410  0.2249 -0.0150  0.0346
 4721SOL    HW115062   5.790   2.406   1.467  0.1423  0.8224 -0.7769
 4721SOL    HW215063   5.864   2.401   1.321  2.2467  0.1606  0.2738
 4722SOL     OW15064   5.862   3.612   6.378  0.7366  0.1469  0.3607
 4722SOL    HW115065   5.853   3.703   6.339 -0.3120  0.0896  0.4452
 4722SOL    HW215066   5.912   3.553   6.314  0.6738  0.5542 -0.0675
 4723SOL     OW15067   1.029   2.987   1.553  0.1607 -0.3919  0.6050
 4723SOL    HW115068   0.955   3.050   1.578  0.6191 -0.1190  1.2906
 4723SOL    HW215069   0.992   2.894   1.547 -0.6566 -0.0079 -1.0224
 4724SOL     OW15070   2.133   1.617   2.564  0.1523  0.0940 -0.2098
 4724SOL    HW115071   2.128   1.524   2.598 -1.9496  0.1441 -0.2344
 4724SOL    HW215072   2.065   1.630   2.491  0.9819  1.4174 -0.7948
 4725SOL     OW15073   0.113   3.394   0.481  0.2197 -0.0179 -0.2149
 4725SOL    HW115074   0.183   3.433   0.421  0.6768 -0.4380  0.0396
 4725SOL    HW215075   0.078   3.309   0.440  0.7109 -0.4365  0.2324
 4726SOL     OW15076   4.447   1.086   2.428  0.0835  0.0428 -0.2573
 4726SOL    HW115077   4.352   1.111   2.447  0.4144  0.8954  0.3099
 4726SOL    HW215078   4.490   1.156   2.371 -0.0623 -1.0961 -1.8501
 4727SOL     OW15079   0.977   5.734   0.273  0.2093 -0.3872  0.8711
 4727SOL    HW115080   0.973   5.755   0.371  0.3732 -1.1317  1.0410
 4727SOL    HW215081   1.028   5.805   0.226 -0.0443  0.0840  1.2949
 4728SOL     OW15082   2.721   5.781   4.344 -0.8914 -0.4765 -0.0278
 4728SOL    HW115083   2.711   5.855   4.412 -3.0403  1.3014 -2.0903
 4728SOL    HW215084   2.817   5.773   4.318 -0.1803 -0.4319  2.3035
 4729SOL     OW15085   3.259   3.375   1.361 -0.5829 -0.5131 -0.2538
 4729SOL    HW115086   3.232   3.387   1.457 -1.6599 -0.7033 -0.5229
 4729SOL    HW215087   3.336   3.311   1.355 -0.1917 -0.1261  0.5170
 4730SOL     OW15088   3.340   5.811   2.479  0.3271 -0.3643 -0.1746
 4730SOL    HW115089   3.316   5.864   2.397 -0.8799  1.6278  1.3945
 4730SOL    HW215090   3.324   5.714   2.461 -3.9497  0.3245 -1.0771
 4731SOL     OW15091   2.715   5.618   2.587  0.2603 -0.6913  0.8411
 4731SOL    HW115092   2.666   5.703   2.608  0.4000 -0.0171 -1.3993
 4731SOL    HW215093   2.680   5.546   2.647  0.3437  0.9477  3.0277
 4732SOL     OW15094   3.258   0.256   3.954 -0.5647 -0.0791  0.2617
 4732SOL    HW115095   3.240   0.299   3.866 -0.8054  1.3027  0.9655
 4732SOL    HW215096   3.356   0.237   3.962 -0.7387 -1.7654 -0.9597
 4733SOL     OW15097   3.746   4.233   0.436 -0.1514  0.1450  0.1992
 4733SOL    HW115098   3.729   4.267   0.344  1.5772  0.8972  0.1091
 4733SOL    HW215099   3.686   4.156   0.456 -2.5000  1.6994 -0.5070
 4734SOL     OW15100   3.459   0.250   1.863  0.9218  0.4841 -0.2561
 4734SOL    HW115101   3.535   0.315   1.860  0.5646  0.8943 -0.9957
 4734SOL    HW215102   3.410   0.253   1.775  0.2541 -0.0115  0.0908
 4735SOL     OW15103   0.008   3.924   3.169  0.3511 -0.3338 -0.3151
 4735SOL    HW115104   0.032   3.890   3.078 -0.7234 -1.3196 -0.2512
 4735SOL    HW215105   0.073   3.995   3.196  1.3495 -0.8066 -1.3810
 4736SOL     OW15106   4.342   3.192   6.509  0.3649 -0.4263  0.1646
 4736SOL    HW115107   4.272   3.224   6.572  0.2862  2.3375 -1.1583
 4736SOL    HW215108   4.299   3.162   6.424  0.6764  0.5833 -0.3740
 4737SOL     OW15109   3.887   3.564   5.012 -0.1339  0.3167 -0.7526
 4737SOL    HW115110   3.962   3.627   4.992  0.2561 -0.2908 -1.2258
 4737SOL    HW215111   3.843   3.591   5.098  0.5860  0.7130 -0.4986
 4738SOL     OW15112   6.021   0.863   2.803 -0.0606  0.1464  0.0240
 4738SOL    HW115113   5.973   0.812   2.732  0.2471 -1.6768  1.0637
 4738SOL    HW215114   6.047   0.953   2.768 -1.7920  0.1198 -1.4355
 4739SOL     OW15115   5.864   6.749   2.716  0.0634 -0.0298 -0.1279
 4739SOL    HW115116   5.831   6.831   2.670 -0.6135 -0.7082 -0.8604
 4739SOL    HW215117   5.805   6.672   2.695  1.0189 -0.8432  0.0869
 4740SOL     OW15118   6.595   6.541   2.842  0.4901 -0.1723 -0.3700
 4740SOL    HW115119   6.608   6.525   2.744 -0.0193  0.9798 -0.6418
 4740SOL    HW215120   6.502   6.572   2.859 -0.4158 -3.2513  0.8909
 4741SOL     OW15121   0.863   2.050   2.013 -0.8225 -0.2721 -0.0362
 4741SOL    HW115122   0.920   1.980   1.970 -0.8481 -0.1472 -0.2761
 4741SOL    HW215123   0.912   2.136   2.016 -0.7365 -0.3347  0.3937
 4742SOL     OW15124   2.274   0.386   6.287 -0.3059 -0.2617 -0.5358
 4742SOL    HW115125   2.274   0.293   6.323 -2.9640 -1.0167 -2.1769
 4742SOL    HW215126   2.301   0.384   6.190  1.1099  0.9255 -0.1998
 4743SOL     OW15127   5.544   2.122   4.628  0.7094  0.4622 -0.4236
 4743SOL    HW115128   5.599   2.100   4.709 -0.7274  0.2967  0.5512
 4743SOL    HW215129   5.559   2.054   4.557  1.5624  0.2875 -0.0834
 4744SOL     OW15130   2.863   1.869   6.034  0.1016  0.0818 -0.5306
 4744SOL    HW115131   2.791   1.882   5.965  2.4179 -0.4028 -3.2346
 4744SOL    HW215132   2.922   1.950   6.036  1.0524 -0.5930 -0.4069
 4745SOL     OW15133   4.806   4.607   3.852 -0.1698 -0.2210 -0.0689
 4745SOL    HW115134   4.743   4.563   3.917 -0.6353  0.4297 -0.0611
 4745SOL    HW215135   4.771   4.595   3.759 -0.4855  0.4048 -0.0398
 4746SOL     OW15136   0.633   4.960   6.226 -0.7311 -0.1924  0.6862
 4746SOL    HW115137   0.701   4.889   6.248 -1.2160 -0.3533  1.7286
 4746SOL    HW215138   0.542   4.918   6.222 -0.6382 -0.2876 -2.2967
 4747SOL     OW15139   1.246   5.159   1.908  0.9800 -0.8328  0.0077
 4747SOL    HW115140   1.331   5.124   1.949  1.4439 -0.0468 -0.2627
 4747SOL    HW215141   1.239   5.257   1.924 -1.7703 -1.3985  3.3716
 4748SOL     OW15142   2.749   3.057   6.281  0.4434  0.0179 -0.5905
 4748SOL    HW115143   2.685   3.114   6.230  1.1991  0.1836 -1.3696
 4748SOL    HW215144   2.830   3.040   6.226  0.8320 -0.6645  0.1678
 4749SOL     OW15145   3.710   3.127   0.557 -0.4800  0.0669 -0.4649
 4749SOL    HW115146   3.679   3.219   0.532  0.9343  0.7795  0.2376
 4749SOL    HW215147   3.655   3.092   0.633  0.7757  1.6196  1.2764
 4750SOL     OW15148   2.281   3.836   5.331 -0.0678  0.7010 -0.6616
 4750SOL    HW115149   2.223   3.882   5.398  0.2462  0.5025 -0.2545
 4750SOL    HW215150   2.308   3.902   5.261  0.9038  1.3112  0.2642
 4751SOL     OW15151   1.920   1.830   0.603 -0.6006  0.0341  0.5049
 4751SOL    HW115152   1.920   1.770   0.683  0.8834 -2.1739 -1.0219
 4751SOL    HW215153   1.850   1.800   0.539  1.0412 -1.0412 -0.8756
 4752SOL     OW15154   4.727   1.545   5.088  0.1747  0.1992  0.1127
 4752SOL    HW115155   4.729   1.641   5.062 -1.2626  0.3407  0.4868
 4752SOL    HW215156   4.751   1.537   5.185  0.4757  0.1560  0.0365
 4753SOL     OW15157   1.252   0.799   1.981  1.3022  0.3208  0.1577
 4753SOL    HW115158   1.219   0.714   1.939  1.0116  0.4451  0.1331
 4753SOL    HW215159   1.258   0.787   2.081  0.1590  0.6337  0.2750
 4754SOL     OW15160   4.179   1.118   1.186  0.6702  0.5247  0.2740
 4754SOL    HW115161   4.184   1.049   1.115  0.9683  0.2850  0.5266
 4754SOL    HW215162   4.207   1.079   1.274 -1.0925  0.4052  0.8299
 4755SOL     OW15163   6.080   0.042   2.776  1.2231  0.1488  0.2286
 4755SOL    HW115164   6.126   0.118   2.823 -0.0162  1.0561  0.0474
 4755SOL    HW215165   6.046  -0.024   2.843  0.0499  1.0988  0.6154
 4756SOL     OW15166   5.942   6.058   1.489  0.0219  0.2403  0.1735
 4756SOL    HW115167   5.910   5.974   1.534  1.2948 -0.2344  0.2147
 4756SOL    HW215168   6.016   6.099   1.542  0.5853  0.4405 -0.7413
 4757SOL     OW15169   6.043   3.513   0.254  0.2054  0.9631 -0.1722
 4757SOL    HW115170   6.067   3.424   0.215 -0.3931  0.4364  0.6461
 4757SOL    HW215171   6.106   3.535   0.328 -1.4136 -0.1868  1.6369
 4758SOL     OW15172   2.759   4.828   3.071 -0.2383 -0.1907  0.2939
 4758SOL    HW115173   2.766   4.875   2.983  0.8775  0.3048  0.6171
 4758SOL    HW215174   2.845   4.840   3.121 -0.2858 -1.7726  0.7986
 4759SOL     OW15175   3.641   6.011   2.322 -0.1195 -0.0244  0.2994
 4759SOL    HW115176   3.598   5.946   2.259 -0.4720 -1.9580  2.3979
 4759SOL    HW215177   3.740   6.011   2.307 -0.3415  0.8405 -1.3542
 4760SOL     OW15178   0.347   3.727   0.889 -0.3206  0.5321  0.3650
 4760SOL    HW115179   0.386   3.670   0.961  0.9088 -0.8978 -1.3441
 4760SOL    HW215180   0.309   3.669   0.817 -0.1671  1.8596 -0.8448
 4761SOL     OW15181   0.525   5.126   0.839 -0.3539 -0.1333  0.1282
 4761SOL    HW115182   0.464   5.205   0.831 -0.8345 -0.3146  1.7310
 4761SOL    HW215183   0.589   5.126   0.762 -0.2509  1.8937  0.1630
 4762SOL     OW15184   0.142   0.045   0.451  0.3736 -0.2681 -0.2973
 4762SOL    HW115185   0.103   0.010   0.536 -4.0326  0.6180 -1.6887
 4762SOL    HW215186   0.173   0.139   0.465 -1.2865  0.2512  0.2139
 4763SOL     OW15187   2.922   0.973   5.971  0.2361 -0.2663 -0.0942
 4763SOL    HW115188   2.896   0.878   5.988 -1.3123  0.6195  3.3079
 4763SOL    HW215189   3.007   0.993   6.020 -1.9461  1.1803  3.5187
 4764SOL     OW15190   3.386   4.122   2.796 -0.2566 -0.2908  0.3219
 4764SOL    HW115191   3.426   4.179   2.724  1.4951 -0.8632  0.7905
 4764SOL    HW215192   3.407   4.026   2.778  0.1496 -0.4474  1.5445
 4765SOL     OW15193   1.379   0.556   2.358 -0.1346 -0.2843  0.3007
 4765SOL    HW115194   1.334   0.645   2.353 -1.1170 -0.7657  0.3611
 4765SOL    HW215195   1.405   0.527   2.266  0.1623  0.0480  0.2768
 4766SOL     OW15196   2.947   2.146   3.511 -0.2574 -0.1250 -0.1183
 4766SOL    HW115197   2.930   2.053   3.544  2.2652 -0.2294  1.1416
 4766SOL    HW215198   2.907   2.212   3.574 -2.1205 -0.3012 -1.0551
 4767SOL     OW15199   1.475   0.143   6.701 -0.0270 -0.6181 -0.4025
 4767SOL    HW115200   1.435   0.164   6.612 -0.3874 -1.8693 -0.5647
 4767SOL    HW215201   1.483   0.044   6.711 -0.1269 -0.5107  1.0159
 4768SOL     OW15202   2.702   5.029   1.504 -0.0900 -0.9667 -0.0538
 4768SOL    HW115203   2.747   5.097   1.562 -0.0958 -0.0709 -1.0896
 4768SOL    HW215204   2.603   5.034   1.518 -0.0409 -1.3706  0.5078
 4769SOL     OW15205   2.121   1.417   3.222  0.4432  0.0227  0.0698
 4769SOL    HW115206   2.051   1.360   3.266  0.8030  0.8772  1.8455
 4769SOL    HW215207   2.077   1.488   3.167 -0.0147 -1.4314 -1.5158
 4770SOL     OW15208   2.322   4.897   5.381 -0.4796  0.1926 -0.3437
 4770SOL    HW115209   2.320   4.985   5.333  0.1081  1.7608  2.3414
 4770SOL    HW215210   2.416   4.874   5.407 -1.0040  0.9662  2.6154
 4771SOL     OW15211   5.923   0.246   0.524 -0.1103  0.2442  0.1772
 4771SOL    HW115212   5.856   0.313   0.490 -0.7852 -0.1514  0.7030
 4771SOL    HW215213   6.007   0.293   0.548  0.6131  0.4990 -2.4824
 4772SOL     OW15214   5.343   1.696   2.742  0.1397  0.5441 -0.3858
 4772SOL    HW115215   5.250   1.729   2.727  0.2658  1.9489  1.6019
 4772SOL    HW215216   5.409   1.761   2.706  0.3700  0.1281 -0.7281
 4773SOL     OW15217   2.891   3.484   5.640 -0.7010 -0.6195  0.0045
 4773SOL    HW115218   2.946   3.430   5.577 -0.4812 -0.8777  0.4082
 4773SOL    HW215219   2.940   3.568   5.665  0.5777 -1.8923  2.1238
 4774SOL     OW15220   1.794   2.296   4.423  0.6391 -0.0552  0.1672
 4774SOL    HW115221   1.783   2.201   4.451 -2.1460  0.1827  0.0856
 4774SOL    HW215222   1.837   2.300   4.333  3.6698 -1.0370  1.4237
 4775SOL     OW15223   1.441   3.876   5.605 -0.7660  0.3673  0.3841
 4775SOL    HW115224   1.394   3.798   5.645 -0.1919  0.1445  0.6240
 4775SOL    HW215225   1.494   3.846   5.525 -2.0248  0.8274 -0.6775
 4776SOL     OW15226   2.135   2.062   6.749 -0.2646 -0.2461 -0.0465
 4776SOL    HW115227   2.073   2.122   6.699 -0.7267 -0.2289  0.5361
 4776SOL    HW215228   2.212   2.036   6.690 -1.1716 -0.8233 -1.0185
 4777SOL     OW15229   0.964   1.809   2.360  0.3423 -0.2344  0.0733
 4777SOL    HW115230   1.034   1.861   2.408 -0.1775  1.0918 -0.5333
 4777SOL    HW215231   0.895   1.778   2.425 -0.8143  2.2814  0.1878
 4778SOL     OW15232   6.767   2.586   0.038 -0.5296 -0.5686  0.6655
 4778SOL    HW115233   6.768   2.554  -0.057 -0.3348 -0.9418  0.7895
 4778SOL    HW215234   6.839   2.539   0.090 -0.7314 -0.4810  1.0319
 4779SOL     OW15235   2.786   3.778   1.088 -0.3422 -0.0367  0.4086
 4779SOL    HW115236   2.869   3.735   1.052 -0.7609 -0.7847  0.3170
 4779SOL    HW215237   2.713   3.771   1.020 -0.8269 -0.4925  0.9675
 4780SOL     OW15238   5.219   5.190   4.100 -0.6070  0.2004  0.1376
 4780SOL    HW115239   5.212   5.155   4.194  3.2243 -2.2641 -0.3005
 4780SOL    HW215240   5.293   5.257   4.095 -1.4667  1.1149 -1.0040
 4781SOL     OW15241   3.537   3.919   3.746 -0.3672 -0.2293 -0.4966
 4781SOL    HW115242   3.534   3.827   3.707 -0.3659  0.1425 -1.4137
 4781SOL    HW215243   3.625   3.962   3.723  1.6516 -1.5466  3.6943
 4782SOL     OW15244   1.326   1.413   5.492 -0.0484  0.1871 -0.1485
 4782SOL    HW115245   1.298   1.344   5.558 -0.8954 -0.5004 -1.1959
 4782SOL    HW215246   1.272   1.496   5.504  0.7331  0.5670  0.8846
 4783SOL     OW15247   5.244   3.400   3.557 -0.1703  1.0015 -0.2686
 4783SOL    HW115248   5.244   3.308   3.517  0.3391 -0.0765  2.0435
 4783SOL    HW215249   5.335   3.441   3.544  0.5217 -0.0144  1.1683
 4784SOL     OW15250   1.637   2.594   0.891 -0.2135 -0.0679  0.0306
 4784SOL    HW115251   1.715   2.536   0.914 -1.3237 -1.9091 -0.6204
 4784SOL    HW215252   1.552   2.547   0.916 -1.1338  2.0150  1.0145
 4785SOL     OW15253   5.332   6.558   5.666 -0.6373  0.3178 -0.0704
 4785SOL    HW115254   5.261   6.511   5.719 -0.7124  0.5538  0.0401
 4785SOL    HW215255   5.420   6.515   5.682 -0.5453  0.7965  0.7649
 4786SOL     OW15256   6.275   5.547   2.464 -0.0251  0.0582 -0.2116
 4786SOL    HW115257   6.244   5.476   2.526  2.2984  0.3859  1.4532
 4786SOL    HW215258   6.272   5.513   2.370 -1.1226 -1.3943  0.3153
 4787SOL     OW15259   2.142   3.835   2.914  0.2192 -0.1136  0.5462
 4787SOL    HW115260   2.234   3.864   2.942  0.3993 -0.7709  0.6544
 4787SOL    HW215261   2.085   3.915   2.899  0.0746  0.3147  2.9322
 4788SOL     OW15262   3.406   6.078   4.774  0.1275  0.9715  0.4351
 4788SOL    HW115263   3.439   6.173   4.773  0.3514  0.8963 -0.4539
 4788SOL    HW215264   3.438   6.032   4.856  1.1979  1.2721  0.2009
 4789SOL     OW15265   1.292   1.158   0.891  0.1729  0.0635 -0.2089
 4789SOL    HW115266   1.381   1.114   0.880  0.6150  1.0812 -0.8459
 4789SOL    HW215267   1.302   1.257   0.882 -0.9095  0.2620  0.4765
 4790SOL     OW15268   4.283   0.738   4.643 -0.5249 -0.4493  0.2963
 4790SOL    HW115269   4.320   0.663   4.699  0.5135  0.3980  0.7777
 4790SOL    HW215270   4.188   0.718   4.620 -0.1220 -2.1679 -0.0229
 4791SOL     OW15271   1.848   5.465   6.934 -0.0076 -0.2494 -0.3064
 4791SOL    HW115272   1.802   5.547   6.967 -1.0976  0.5016 -3.3641
 4791SOL    HW215273   1.796   5.384   6.960 -0.9890  0.3280 -0.4570
 4792SOL     OW15274   5.398   3.167   2.803 -0.1888 -0.3857 -0.1297
 4792SOL    HW115275   5.445   3.082   2.781 -0.3859 -0.5349  0.0116
 4792SOL    HW215276   5.418   3.236   2.734  2.0988  0.2911  1.1018
 4793SOL     OW15277   1.615   1.703   0.686  0.3191  0.6420 -0.0051
 4793SOL    HW115278   1.601   1.699   0.785 -0.1910 -0.5602 -0.1157
 4793SOL    HW215279   1.644   1.796   0.661 -1.8007  1.6328  0.9606
 4794SOL     OW15280   1.896   4.893   0.386 -0.6295  0.1618  0.1455
 4794SOL    HW115281   1.883   4.871   0.289  0.0832  0.3493  0.0006
 4794SOL    HW215282   1.808   4.916   0.427 -1.0161 -0.4876 -0.3138
 4795SOL     OW15283   3.345   2.870   2.462 -0.1324  0.4377 -0.7229
 4795SOL    HW115284   3.302   2.855   2.551  0.5727 -0.5315 -0.5261
 4795SOL    HW215285   3.285   2.927   2.405 -1.3873 -0.3487 -0.2425
 4796SOL     OW15286   3.602   4.601   0.420  0.0079  0.0160  0.4996
 4796SOL    HW115287   3.679   4.587   0.358  1.4927  0.1174  2.2379
 4796SOL    HW215288   3.592   4.699   0.439 -0.5013 -0.0066  0.3699
 4797SOL     OW15289   5.701   1.553   2.199 -0.1391  0.1712 -0.0376
 4797SOL    HW115290   5.628   1.589   2.257  0.8230  0.5531  0.9671
 4797SOL    HW215291   5.689   1.455   2.186 -2.6977  0.6900 -2.6441
 4798SOL     OW15292   0.770   4.308   4.652  0.0113  0.3038  0.1448
 4798SOL    HW115293   0.815   4.227   4.613  0.5259  0.6013  0.1178
 4798SOL    HW215294   0.833   4.353   4.715 -0.3175  0.6256  0.2415
 4799SOL     OW15295   5.602   6.004   1.670  0.9140  0.7188  0.0023
 4799SOL    HW115296   5.613   5.972   1.576 -0.0923  0.9031 -0.1991
 4799SOL    HW215297   5.670   5.961   1.729  0.5592 -0.6107 -0.5279
 4800SOL     OW15298   6.990   1.384   6.807  0.4292  1.1291 -0.3180
 4800SOL    HW115299   7.026   1.399   6.715  3.0025  1.9518  0.7226
 4800SOL    HW215300   6.959   1.471   6.846 -1.5169  0.6430 -0.6785
 4801SOL     OW15301   6.772   5.721   1.949 -0.4911 -0.0887 -0.3172
 4801SOL    HW115302   6.764   5.820   1.933 -2.4557 -0.4399 -1.8487
 4801SOL    HW215303   6.864   5.700   1.980 -0.4691  2.4256  1.7018
 4802SOL     OW15304   1.714   4.365   6.084  0.3468  0.4742  0.0429
 4802SOL    HW115305   1.706   4.397   5.990  2.2629  2.4987  0.4974
 4802SOL    HW215306   1.716   4.443   6.146  1.6372 -0.6941  1.5584
 4803SOL     OW15307   3.723   6.641   3.685  0.0714 -0.1482  0.1136
 4803SOL    HW115308   3.741   6.710   3.615 -0.0398  0.5236  0.7354
 4803SOL    HW215309   3.696   6.555   3.641  2.6831 -0.6031 -0.7893
 4804SOL     OW15310   6.937   2.565   2.256  0.2201 -0.8625  0.1427
 4804SOL    HW115311   6.865   2.545   2.323  0.5426 -1.2251  0.3852
 4804SOL    HW215312   6.995   2.485   2.245  0.6523 -0.5351  0.0237
 4805SOL     OW15313   2.630   1.181   3.201 -0.1666 -0.7592 -0.4869
 4805SOL    HW115314   2.535   1.211   3.205 -0.0849 -0.5461 -0.0996
 4805SOL    HW215315   2.690   1.257   3.228  0.0997 -0.9544 -0.5271
 4806SOL     OW15316   4.429   3.665   5.310  0.0174 -0.1358  0.8018
 4806SOL    HW115317   4.457   3.651   5.405  3.0193  0.4444  0.1201
 4806SOL    HW215318   4.496   3.624   5.249 -1.4744  0.1067 -1.1007
 4807SOL     OW15319   5.368   3.034   3.075 -0.3026  0.0616  0.2435
 4807SOL    HW115320   5.322   2.956   3.032  0.4539  0.3904 -1.2371
 4807SOL    HW215321   5.455   3.003   3.114 -0.2643  0.0636  0.1593
 4808SOL     OW15322   2.797   0.716   0.914  0.1290 -0.3254  0.1223
 4808SOL    HW115323   2.802   0.813   0.936  4.2529 -0.4063  0.1865
 4808SOL    HW215324   2.836   0.663   0.988 -0.9275 -1.9975 -0.4573
 4809SOL     OW15325   0.527   3.843   6.705 -0.0831  0.3065  0.1577
 4809SOL    HW115326   0.456   3.829   6.774  0.0591  1.8722  0.6667
 4809SOL    HW215327   0.617   3.834   6.747  0.0065  1.6902  0.3126
 4810SOL     OW15328   1.718   0.959   3.982 -0.3207 -0.0366  0.8864
 4810SOL    HW115329   1.755   0.867   3.973 -0.9826 -0.4364  2.0750
 4810SOL    HW215330   1.779   1.014   4.040  0.8523  0.7639 -0.9832
 4811SOL     OW15331   4.341   5.966   6.265 -0.2031  0.3623 -0.1038
 4811SOL    HW115332   4.262   6.014   6.302 -0.9266 -0.9526  0.1392
 4811SOL    HW215333   4.334   5.868   6.287  1.2947  0.1549 -0.4189
 4812SOL     OW15334   3.870   1.378   1.704 -0.1558 -0.5194  0.0237
 4812SOL    HW115335   3.959   1.355   1.664  0.7461 -0.2515  1.8057
 4812SOL    HW215336   3.850   1.474   1.689 -0.3499 -0.6677 -0.7222
 4813SOL     OW15337   0.991   1.785   0.199  0.0049  0.7447  0.3536
 4813SOL    HW115338   1.071   1.833   0.235  1.2910 -1.7687  1.1751
 4813SOL    HW215339   0.939   1.745   0.275 -0.4753  0.0737 -0.3055
 4814SOL     OW15340   5.686   1.288   2.173 -0.3234 -0.7428  0.5065
 4814SOL    HW115341   5.684   1.273   2.074  1.5705  0.3990  0.2580
 4814SOL    HW215342   5.684   1.199   2.219 -1.7783 -1.2818 -0.4960
 4815SOL     OW15343   0.838   3.477   4.465  0.0802 -0.2400  0.1118
 4815SOL    HW115344   0.872   3.440   4.551  0.5944  2.0944  0.9770
 4815SOL    HW215345   0.783   3.558   4.482  1.3518  1.1265 -1.8115
 4816SOL     OW15346   1.724   5.626   4.578 -0.2196 -0.1485 -0.8313
 4816SOL    HW115347   1.649   5.580   4.626  0.6362 -0.6616  0.0634
 4816SOL    HW215348   1.777   5.680   4.643  0.7659 -0.5834 -1.2519
 4817SOL     OW15349   4.598   5.278   2.732  0.8380 -0.4333 -0.2636
 4817SOL    HW115350   4.501   5.282   2.757  1.2096 -1.0228  1.4485
 4817SOL    HW215351   4.621   5.185   2.702  1.2332 -0.8184  1.1361
 4818SOL     OW15352   3.974   0.400   5.956  0.6896 -0.3978  0.1521
 4818SOL    HW115353   3.993   0.375   5.861 -0.9551 -1.6229  0.1055
 4818SOL    HW215354   4.018   0.333   6.017  0.9742 -0.1447  0.2261
 4819SOL     OW15355   0.616   0.923   4.180  0.3125 -0.7883 -0.3340
 4819SOL    HW115356   0.558   0.953   4.105 -1.1848 -0.7602  0.7747
 4819SOL    HW215357   0.675   0.998   4.209 -1.8509  0.5104  0.9895
 4820SOL     OW15358   1.375   5.672   4.890 -0.4327 -0.0878 -0.1016
 4820SOL    HW115359   1.383   5.683   4.989 -0.0602  1.6450 -0.2840
 4820SOL    HW215360   1.440   5.603   4.858 -0.3095 -0.4088  0.8113
 4821SOL     OW15361   0.295   5.157   2.424  0.2855  0.7089  0.3392
 4821SOL    HW115362   0.208   5.205   2.413  1.1391  2.1036 -0.6754
 4821SOL    HW215363   0.306   5.089   2.352  1.6342  3.1912 -2.0293
 4822SOL     OW15364   4.554   6.446   2.685 -1.1136 -0.3844 -0.0258
 4822SOL    HW115365   4.462   6.484   2.691  0.1952  3.0935  0.6089
 4822SOL    HW215366   4.589   6.457   2.592 -1.2320 -1.5100 -0.2149
 4823SOL     OW15367   6.315   5.876   6.694 -0.1763 -0.0457 -0.4350
 4823SOL    HW115368   6.311   5.871   6.794 -1.0697 -0.3560 -0.4805
 4823SOL    HW215369   6.404   5.844   6.663 -0.3986 -1.3418  0.1833
 4824SOL     OW15370   3.807   5.756   2.010  0.0994 -0.1025 -0.4304
 4824SOL    HW115371   3.743   5.691   2.050 -0.3525 -0.5290 -1.7991
 4824SOL    HW215372   3.859   5.801   2.083 -0.2672 -1.2728  0.5800
 4825SOL     OW15373   6.625   5.161   1.763 -0.0902 -0.0561  0.5727
 4825SOL    HW115374   6.676   5.109   1.695  0.2735  0.3715  0.5154
 4825SOL    HW215375   6.528   5.136   1.757  0.0557 -0.6107  0.4467
 4826SOL     OW15376   6.561   6.542   6.396  0.3658 -0.1844 -0.8210
 4826SOL    HW115377   6.607   6.488   6.325 -0.9489 -0.1405 -1.7484
 4826SOL    HW215378   6.529   6.480   6.468 -2.6433 -1.0299 -2.6944
 4827SOL     OW15379   5.240   0.572   5.889 -0.3335 -0.1998  0.3578
 4827SOL    HW115380   5.143   0.594   5.879  0.0416  0.5405 -2.5811
 4827SOL    HW215381   5.264   0.498   5.826  1.5117  1.5330 -1.1201
 4828SOL     OW15382   6.281   6.077   0.154 -0.0511  0.0571 -0.8967
 4828SOL    HW115383   6.373   6.114   0.139  0.1116  0.3154  0.6131
 4828SOL    HW215384   6.217   6.122   0.092  0.5140  1.3052 -0.6073
 4829SOL     OW15385   1.475   0.359   5.807  0.2600 -0.3287 -0.2002
 4829SOL    HW115386   1.542   0.343   5.880 -0.0043 -3.0245 -0.4569
 4829SOL    HW215387   1.497   0.300   5.729 -0.8225  0.8035 -1.3987
 4830SOL     OW15388   2.891   3.841   0.706 -0.6570  0.6771  0.6973
 4830SOL    HW115389   2.963   3.810   0.767 -1.1775  0.7970  1.3858
 4830SOL    HW215390   2.885   3.941   0.709  2.5594  1.2228 -3.2466
 4831SOL     OW15391   5.055   3.874   1.264 -0.0622 -0.0218  0.0976
 4831SOL    HW115392   4.985   3.928   1.218  1.1063  1.5289  0.0464
 4831SOL    HW215393   5.085   3.922   1.346  2.4786  0.4972 -1.0392
 4832SOL     OW15394   4.971   2.002   1.412 -0.6587  0.1788  0.1880
 4832SOL    HW115395   4.927   2.087   1.440 -0.7466  0.8149 -1.7924
 4832SOL    HW215396   5.069   2.017   1.400 -0.3577 -0.4782  1.5738
 4833SOL     OW15397   3.561   3.980   2.151 -0.2866 -0.1310  0.0841
 4833SOL    HW115398   3.519   4.046   2.089  0.4151 -0.3254 -0.6150
 4833SOL    HW215399   3.494   3.909   2.173 -0.6221  0.0720 -0.2622
 4834SOL     OW15400   2.263   2.798   6.261  0.1209 -0.2997 -0.2880
 4834SOL    HW115401   2.262   2.837   6.353 -1.6249  1.9562 -1.1548
 4834SOL    HW215402   2.356   2.771   6.236  1.3083  2.5263  0.7649
 4835SOL     OW15403   2.989   3.194   4.263  0.0976  0.3552 -0.1431
 4835SOL    HW115404   2.980   3.186   4.163  0.9445  0.1815 -0.2172
 4835SOL    HW215405   2.997   3.103   4.303 -0.9278  0.3948  0.1626
 4836SOL     OW15406   5.256   1.132   4.587  0.1309 -0.2819  0.5525
 4836SOL    HW115407   5.356   1.143   4.589 -0.0343  2.4281 -1.0679
 4836SOL    HW215408   5.228   1.097   4.498 -0.4036 -0.1954  0.6846
 4837SOL     OW15409   6.309   4.943   1.051 -0.6937 -0.6561  0.3690
 4837SOL    HW115410   6.302   4.971   0.955 -1.5788 -1.0599  0.3080
 4837SOL    HW215411   6.251   4.863   1.067 -0.9957 -0.2489  1.3775
 4838SOL     OW15412   3.144   5.760   0.977 -0.2950  0.3863  0.3740
 4838SOL    HW115413   3.168   5.796   0.887  1.5193 -0.0239  0.6512
 4838SOL    HW215414   3.086   5.678   0.966  0.8987 -0.3698 -0.4881
 4839SOL     OW15415   4.242   6.534   6.712 -0.1568  0.5380 -0.1224
 4839SOL    HW115416   4.237   6.633   6.726 -0.8054  0.3095  1.5168
 4839SOL    HW215417   4.165   6.490   6.759  0.3000 -0.7728 -0.5682
 4840SOL     OW15418   1.625   5.372   3.491  0.4472  0.0011  0.2395
 4840SOL    HW115419   1.556   5.424   3.441  0.4442 -1.1520 -1.0343
 4840SOL    HW215420   1.590   5.280   3.511  1.7442 -0.7776 -0.8842
 4841SOL     OW15421   5.562   2.177   2.705  0.2167 -0.9995 -0.7498
 4841SOL    HW115422   5.645   2.221   2.741 -1.0918  0.9637  0.0419
 4841SOL    HW215423   5.532   2.226   2.623 -1.2489 -0.3898  0.1161
 4842SOL     OW15424   0.957   3.315   2.800 -0.3839  0.5901  0.3735
 4842SOL    HW115425   0.926   3.221   2.819  1.1846  0.0781  0.4783
 4842SOL    HW215426   0.900   3.379   2.853  0.2250 -0.4736  2.4291
 4843SOL     OW15427   4.321   6.774   2.163  0.1542  0.0760  0.3407
 4843SOL    HW115428   4.268   6.842   2.113  0.9391 -0.2615 -1.0220
 4843SOL    HW215429   4.263   6.695   2.185 -0.3820  0.5419  0.6208
 4844SOL     OW15430   6.826   1.966   0.288 -0.7722 -0.0833  0.3837
 4844SOL    HW115431   6.777   2.044   0.327 -0.6622 -0.0390  0.4345
 4844SOL    HW215432   6.914   1.956   0.333 -0.8045 -0.2649  0.4069
 4845SOL     OW15433   3.212   6.936   4.921  0.2264  0.8524 -0.1843
 4845SOL    HW115434   3.253   6.864   4.864  0.8956  1.0238  0.0712
 4845SOL    HW215435   3.279   6.966   4.988 -1.1209 -0.6378  1.9400
 4846SOL     OW15436   3.160   2.021   1.969  0.4819  0.2434 -0.3860
 4846SOL    HW115437   3.142   1.923   1.956  0.2903 -0.1441  2.1881
 4846SOL    HW215438   3.250   2.032   2.011  0.0077  1.0695  0.4490
 4847SOL     OW15439   6.947   0.488   2.061  0.6610  0.0864 -0.0006
 4847SOL    HW115440   6.958   0.477   2.160  0.3309 -0.8628 -0.0599
 4847SOL    HW215441   6.923   0.583   2.041  1.5943  0.5034  0.7466
 4848SOL     OW15442   3.330   0.793   5.162  0.0112 -0.3522 -0.2997
 4848SOL    HW115443   3.380   0.840   5.235  1.8983  0.5216 -2.0664
 4848SOL    HW215444   3.243   0.758   5.198 -0.4693  2.5337  1.6695
 4849SOL     OW15445   3.041   5.338   3.527 -0.4397  0.0502 -0.6600
 4849SOL    HW115446   2.956   5.341   3.581  0.7577  1.3264  1.2658
 4849SOL    HW215447   3.108   5.280   3.573  0.0169 -0.3368 -1.7727
 4850SOL     OW15448   5.540   6.966   0.139  0.5799  0.1002 -0.5520
 4850SOL    HW115449   5.577   6.887   0.187 -3.1630  0.7660  4.2017
 4850SOL    HW215450   5.481   6.936   0.064  3.4781 -1.1420 -2.5393
 4851SOL     OW15451   2.121   5.407   5.342  0.0122  0.3555  0.3193
 4851SOL    HW115452   2.044   5.349   5.369 -0.1335 -0.1480 -1.0821
 4851SOL    HW215453   2.174   5.433   5.423 -0.4453 -0.9840  1.0718
 4852SOL     OW15454   4.752   6.873   5.183  0.0939  0.2619  0.3182
 4852SOL    HW115455   4.761   6.959   5.134 -1.6529  0.9722  1.1773
 4852SOL    HW215456   4.722   6.890   5.277 -1.8818 -1.3214  0.0460
 4853SOL     OW15457   0.594   0.305   0.712  0.0792 -0.2652  0.2254
 4853SOL    HW115458   0.633   0.250   0.638 -0.1843 -0.4409  0.2130
 4853SOL    HW215459   0.499   0.278   0.726 -0.0633  0.2129  0.2003
 4854SOL     OW15460   5.951   2.555   0.702 -0.1722 -0.3748  0.0835
 4854SOL    HW115461   5.995   2.586   0.786  0.6457 -1.0245 -0.0960
 4854SOL    HW215462   5.891   2.627   0.667 -0.4963 -0.0837  1.1996
 4855SOL     OW15463   2.262   5.779   6.337  1.0045  0.3825 -0.6820
 4855SOL    HW115464   2.265   5.824   6.248 -1.8321 -0.8234 -1.5178
 4855SOL    HW215465   2.263   5.680   6.324  0.2987  0.1827  0.5990
 4856SOL     OW15466   3.946   2.492   0.984 -0.1349  0.1040  0.0220
 4856SOL    HW115467   3.981   2.450   1.067  0.0692  2.3711  1.1753
 4856SOL    HW215468   3.997   2.576   0.966 -2.3568  1.4157 -0.4944
 4857SOL     OW15469   2.433   1.303   2.250  0.2746  0.1508  0.1927
 4857SOL    HW115470   2.413   1.287   2.153 -3.0918 -1.5617  1.0236
 4857SOL    HW215471   2.425   1.401   2.269  0.3048  0.4372 -1.1155
 4858SOL     OW15472   5.250   2.834   2.907  0.6649 -0.1782 -0.2320
 4858SOL    HW115473   5.337   2.832   2.857 -0.4909  0.2549 -2.4096
 4858SOL    HW215474   5.195   2.754   2.881  0.1902 -0.1747  0.7189
 4859SOL     OW15475   4.736   6.272   3.180  0.0217  0.1410  0.1410
 4859SOL    HW115476   4.698   6.285   3.088  0.0745  0.4742  0.1659
 4859SOL    HW215477   4.662   6.249   3.243 -0.5269  2.9279  0.6317
 4860SOL     OW15478   0.064   3.743   5.132 -0.1680  0.3527  0.6428
 4860SOL    HW115479  -0.024   3.712   5.168 -0.0161  0.1704  0.8706
 4860SOL    HW215480   0.059   3.753   5.033 -0.4234  0.2714  0.6477
 4861SOL     OW15481   4.285   5.335   4.914  0.4913 -0.0735  0.0276
 4861SOL    HW115482   4.200   5.373   4.875 -0.4032 -0.9558  1.0404
 4861SOL    HW215483   4.300   5.243   4.878 -0.3770 -0.9220  1.7326
 4862SOL     OW15484   6.755   2.160   6.934 -0.2329 -0.0511  0.0355
 4862SOL    HW115485   6.745   2.066   6.966  1.6584  0.1926  1.4646
 4862SOL    HW215486   6.671   2.211   6.954 -1.2972 -1.3994 -0.7921
 4863SOL     OW15487   1.617   0.390   3.681 -0.1141 -0.4888 -0.2048
 4863SOL    HW115488   1.546   0.456   3.657 -0.6192 -0.9154  0.1204
 4863SOL    HW215489   1.597   0.351   3.770  1.3500  0.5405  0.6237
 4864SOL     OW15490   2.227   6.988   1.792  0.0111 -0.1106 -0.1243
 4864SOL    HW115491   2.184   7.044   1.721  0.4819 -0.3401 -0.5884
 4864SOL    HW215492   2.270   7.049   1.859  0.2552  0.0922 -0.4609
 4865SOL     OW15493   2.099   6.225   1.180  0.0758  0.3513 -0.1785
 4865SOL    HW115494   2.010   6.192   1.148  0.0883  1.3576 -1.3129
 4865SOL    HW215495   2.095   6.242   1.278 -1.0496  0.5971 -0.2539
 4866SOL     OW15496   1.699   2.713   1.161  0.3756 -0.2972 -0.0994
 4866SOL    HW115497   1.777   2.737   1.102  0.7517  0.4609  0.6745
 4866SOL    HW215498   1.618   2.762   1.130  0.3124 -0.7244 -0.6247
 4867SOL     OW15499   2.985   3.516   4.021 -0.2480 -0.6561 -0.3432
 4867SOL    HW115500   2.991   3.615   4.029 -0.7081 -0.7529  1.5148
 4867SOL    HW215501   2.902   3.492   3.969 -0.5094 -0.0862 -0.2010
 4868SOL     OW15502   3.509   5.291   3.355  0.8268 -0.4118 -0.7258
 4868SOL    HW115503   3.494   5.209   3.299 -0.3032 -0.7895  0.0984
 4868SOL    HW215504   3.497   5.268   3.451  1.6631  0.4806 -0.3913
 4869SOL     OW15505   3.839   1.456   5.056 -0.1743  0.0922  0.1900
 4869SOL    HW115506   3.814   1.530   5.119  1.1437  1.3555 -0.6973
 4869SOL    HW215507   3.757   1.419   5.013 -0.9148  0.5650  1.1670
 4870SOL     OW15508   4.356   5.882   3.675 -0.4440  0.2484  0.4932
 4870SOL    HW115509   4.399   5.882   3.766 -2.4085 -0.5770  1.4944
 4870SOL    HW215510   4.300   5.964   3.665  0.6434  0.8844 -0.4335
 4871SOL     OW15511   2.337   4.399   6.792 -1.0664 -0.2037  0.3395
 4871SOL    HW115512   2.299   4.320   6.840 -1.3150 -0.9820 -1.0738
 4871SOL    HW215513   2.264   4.447   6.744 -0.8077  0.4797  0.6214
 4872SOL     OW15514   0.666   5.037   3.833  1.4410  0.0789 -0.0518
 4872SOL    HW115515   0.679   4.995   3.743 -1.2383 -1.6556  0.2631
 4872SOL    HW215516   0.696   4.973   3.904  0.6978  0.1438  0.3358
 4873SOL     OW15517   3.901   6.563   2.096  0.7468  0.0008 -0.1197
 4873SOL    HW115518   3.955   6.564   2.011  0.8107  1.2452 -0.0836
 4873SOL    HW215519   3.805   6.545   2.075  0.9394 -0.8461 -0.3248
 4874SOL     OW15520   3.855   2.024   6.344  0.1519  0.2832  0.0760
 4874SOL    HW115521   3.769   1.988   6.379 -0.8895  3.2567  0.8338
 4874SOL    HW215522   3.917   2.041   6.420  0.3405  0.7685 -0.1846
 4875SOL     OW15523   4.636   0.359   2.137 -0.3389  0.3095 -0.1713
 4875SOL    HW115524   4.582   0.364   2.053 -0.3225 -1.9923 -0.3770
 4875SOL    HW215525   4.732   0.341   2.115  0.2847  2.7842  0.2629
 4876SOL     OW15526   3.871   5.426   4.439 -0.0376 -0.0311 -0.3025
 4876SOL    HW115527   3.868   5.495   4.367  1.2776  0.8133  0.4135
 4876SOL    HW215528   3.939   5.356   4.415  0.0141 -0.0412 -0.1259
 4877SOL     OW15529   2.414   1.328   3.273  0.0396  0.1268  0.0235
 4877SOL    HW115530   2.459   1.415   3.253  1.5892 -0.6587 -0.0884
 4877SOL    HW215531   2.327   1.324   3.224 -0.1174  1.6514  0.1310
 4878SOL     OW15532   3.849   3.823   1.501  0.3394  0.3029  0.4556
 4878SOL    HW115533   3.928   3.824   1.563  0.2687 -0.3331  0.5585
 4878SOL    HW215534   3.777   3.880   1.539  1.0839  1.6606 -0.0941
 4879SOL     OW15535   0.232   3.475   1.946  0.1839 -0.0213  0.3931
 4879SOL    HW115536   0.134   3.473   1.965  0.4201 -0.5163  1.6767
 4879SOL    HW215537   0.282   3.480   2.032  1.2974 -0.0015 -0.2381
 4880SOL     OW15538   1.963   0.678   6.906 -0.1029  0.4111 -0.1426
 4880SOL    HW115539   1.932   0.772   6.891  0.8417  0.8780  0.6408
 4880SOL    HW215540   1.927   0.619   6.835  1.4623  1.8631 -2.3029
 4881SOL     OW15541   3.574   0.935   6.457  0.4120 -0.0326  0.5524
 4881SOL    HW115542   3.510   0.858   6.460  1.2007 -0.7850 -0.7921
 4881SOL    HW215543   3.527   1.018   6.486 -1.0948 -0.6028 -0.1430
 4882SOL     OW15544   2.848   3.951   6.621 -0.8344 -0.0099  0.0625
 4882SOL    HW115545   2.917   3.993   6.562 -0.3289  0.1732  0.7705
 4882SOL    HW215546   2.864   3.978   6.716 -1.7597 -0.1360  0.2648
 4883SOL     OW15547   0.976   0.216   1.804  0.4555  0.1900  0.0357
 4883SOL    HW115548   1.036   0.286   1.842  0.1466 -0.2132  1.3318
 4883SOL    HW215549   1.028   0.131   1.792  1.1217  0.8623 -2.5674
 4884SOL     OW15550   2.912   4.807   2.710 -0.0175  0.0593 -0.0182
 4884SOL    HW115551   2.832   4.820   2.651  0.1268 -0.6288 -0.3807
 4884SOL    HW215552   2.900   4.857   2.796 -1.5508 -1.3488  0.6172
 4885SOL     OW15553   6.395   6.656   0.762  0.0367 -0.3509  0.3494
 4885SOL    HW115554   6.312   6.644   0.707  0.5024 -0.7319 -0.2899
 4885SOL    HW215555   6.385   6.608   0.848  0.2134 -1.7928 -0.4084
 4886SOL     OW15556   0.115   4.683   5.062 -0.2586  0.6164 -0.0738
 4886SOL    HW115557   0.085   4.680   5.157  1.4845  0.2619  0.4977
 4886SOL    HW215558   0.051   4.631   5.005 -0.5064 -0.4798  1.1520
 4887SOL     OW15559   6.521   0.288   3.755 -0.3322  0.0613  0.0098
 4887SOL    HW115560   6.476   0.344   3.824  0.1526  0.7209 -0.1920
 4887SOL    HW215561   6.615   0.269   3.784 -0.5203 -0.7265  0.1164
 4888SOL     OW15562   3.785   2.113   3.085  0.1753  0.3412 -0.0133
 4888SOL    HW115563   3.799   2.021   3.120 -0.8720  0.3788  0.5667
 4888SOL    HW215564   3.687   2.129   3.071  0.4570  0.8293 -1.6298
 4889SOL     OW15565   4.468   2.493   5.088 -0.5267 -0.3780 -0.2452
 4889SOL    HW115566   4.369   2.485   5.098 -0.3742 -0.2349  1.8170
 4889SOL    HW215567   4.509   2.514   5.177  1.2561  0.6886 -1.2474
 4890SOL     OW15568   0.101   3.920   6.517 -0.0837  0.1508  0.2334
 4890SOL    HW115569   0.186   3.924   6.464 -0.4742 -0.8078 -0.5087
 4890SOL    HW215570   0.025   3.948   6.458 -0.4587 -0.4136  0.4446
 4891SOL     OW15571   0.366   2.052   5.742  0.2374 -0.8064 -0.4424
 4891SOL    HW115572   0.313   2.108   5.679  0.7061  0.4543  0.2508
 4891SOL    HW215573   0.323   2.052   5.832 -0.2391 -2.3134 -0.6331
 4892SOL     OW15574   2.219   4.156   2.605 -0.4615 -0.3423  0.1146
 4892SOL    HW115575   2.186   4.062   2.596 -2.3720  0.1415  1.4927
 4892SOL    HW215576   2.255   4.169   2.697 -0.2479  0.2947 -0.0555
 4893SOL     OW15577   6.645   4.122   6.427  0.0891  0.3083 -0.1016
 4893SOL    HW115578   6.703   4.176   6.487 -0.1932 -0.5663  0.9890
 4893SOL    HW215579   6.616   4.178   6.349 -0.7760  1.9522  1.3306
 4894SOL     OW15580   6.199   2.782   2.648  0.1650  0.2071 -0.2421
 4894SOL    HW115581   6.136   2.762   2.573  0.6720  0.0517 -0.6255
 4894SOL    HW215582   6.292   2.758   2.621  0.3209 -0.0606  0.5102
 4895SOL     OW15583   4.111   3.367   2.511  0.1163 -0.0805  0.6883
 4895SOL    HW115584   4.062   3.330   2.590  0.6124 -0.7005  0.7130
 4895SOL    HW215585   4.123   3.295   2.442  1.2473 -0.0352  0.8105
 4896SOL     OW15586   4.196   0.711   3.052 -0.1255  1.0383  0.3018
 4896SOL    HW115587   4.291   0.697   3.079 -0.3112  0.3291  0.6059
 4896SOL    HW215588   4.177   0.810   3.049  0.0127  1.1748  2.4057
 4897SOL     OW15589   2.158   5.809   3.217 -0.8670 -0.2565 -0.3581
 4897SOL    HW115590   2.064   5.842   3.216 -1.4117 -1.7042 -0.0135
 4897SOL    HW215591   2.165   5.726   3.161  0.2488 -0.0462 -0.5512
 4898SOL     OW15592   3.614   5.874   4.296 -0.6021 -0.3608  0.6054
 4898SOL    HW115593   3.647   5.875   4.201 -0.4104 -0.7387  0.6681
 4898SOL    HW215594   3.520   5.839   4.298 -0.8484  0.2627  0.4834
 4899SOL     OW15595   1.461   5.391   6.907 -0.9405 -0.9610 -0.4901
 4899SOL    HW115596   1.405   5.398   6.825 -1.9378 -2.0967  0.0638
 4899SOL    HW215597   1.524   5.314   6.898 -0.1195 -0.2823 -0.7087
 4900SOL     OW15598   3.090   1.049   1.339  0.0235  0.1942 -0.3648
 4900SOL    HW115599   3.152   1.018   1.410  0.5118  1.4036 -0.2428
 4900SOL    HW215600   3.122   1.016   1.250  1.5498  1.7640 -0.4526
 4901SOL     OW15601   4.903   5.285   5.761  0.8274  0.3146  0.5617
 4901SOL    HW115602   4.880   5.188   5.765 -2.2063  0.9183  0.0389
 4901SOL    HW215603   4.971   5.299   5.688 -0.3373 -1.1752 -0.9060
 4902SOL     OW15604   1.014   1.834   3.816  0.2742  0.4845  0.1018
 4902SOL    HW115605   0.961   1.894   3.756 -2.5461 -0.1531  1.7916
 4902SOL    HW215606   1.041   1.752   3.766 -1.8250  0.0553 -0.4012
 4903SOL     OW15607   6.437   5.115   2.220  0.1577 -0.5860 -0.1747
 4903SOL    HW115608   6.390   5.042   2.269 -0.6065 -1.4425 -2.1031
 4903SOL    HW215609   6.379   5.197   2.218  0.7141 -0.1174  1.3616
 4904SOL     OW15610   4.005   6.839   4.319  0.0472 -0.1661 -0.9662
 4904SOL    HW115611   4.018   6.830   4.221 -0.9312  0.9707 -1.2342
 4904SOL    HW215612   4.087   6.878   4.361  0.6047 -0.9980 -1.2539
 4905SOL     OW15613   6.242   2.331   5.226  0.3797  0.3025  0.5182
 4905SOL    HW115614   6.260   2.275   5.307 -1.1042  0.3211  0.8931
 4905SOL    HW215615   6.147   2.318   5.197  0.7022  0.8156 -0.8203
 4906SOL     OW15616   3.522   4.175   4.232  0.3127  0.0506 -0.4345
 4906SOL    HW115617   3.610   4.180   4.184  1.6430  2.4424  1.9292
 4906SOL    HW215618   3.539   4.173   4.331 -2.2948  0.4380  0.0814
 4907SOL     OW15619   5.870   5.827   2.307 -0.1363  0.1464 -0.0479
 4907SOL    HW115620   5.775   5.841   2.334 -0.3947 -0.6115 -0.5487
 4907SOL    HW215621   5.893   5.730   2.311  0.0571  0.0979 -1.7060
 4908SOL     OW15622   5.184   1.659   0.645 -0.1209  0.5462  0.2114
 4908SOL    HW115623   5.256   1.728   0.653 -0.5771  0.9221  1.1282
 4908SOL    HW215624   5.133   1.674   0.560  2.3970 -1.2217 -1.8007
 4909SOL     OW15625   0.358   2.470   1.263 -0.1565  0.3946 -0.3060
 4909SOL    HW115626   0.399   2.561   1.250  1.2325 -0.0904  0.3992
 4909SOL    HW215627   0.422   2.400   1.231  0.0495 -0.4463  1.7695
 4910SOL     OW15628   2.635   0.938   3.020  0.8986 -0.6609  0.2780
 4910SOL    HW115629   2.599   0.981   2.938  0.1960 -1.7269  0.0055
 4910SOL    HW215630   2.649   1.007   3.091  0.8462  0.1597 -0.4982
 4911SOL     OW15631   3.617   4.288   6.771 -0.2391 -0.0242 -0.4588
 4911SOL    HW115632   3.563   4.210   6.802 -2.0068  1.4704  0.3771
 4911SOL    HW215633   3.690   4.255   6.710 -0.5347 -2.3629  0.3361
 4912SOL     OW15634   2.943   1.612   1.856 -0.0830 -0.5991  0.0381
 4912SOL    HW115635   2.915   1.527   1.812  4.2112 -0.4931 -3.7216
 4912SOL    HW215636   2.887   1.688   1.823 -2.2991 -1.5035  1.4840
 4913SOL     OW15637   5.743   1.668   6.751 -0.3565 -0.0968 -0.3963
 4913SOL    HW115638   5.738   1.647   6.654  0.2906 -0.7337 -0.2997
 4913SOL    HW215639   5.660   1.637   6.797 -0.1324 -0.9422 -0.5443
 4914SOL     OW15640   5.036   0.455   1.525 -0.2527  0.4838  0.0128
 4914SOL    HW115641   5.134   0.438   1.527 -0.6129 -3.4286 -2.7017
 4914SOL    HW215642   4.988   0.376   1.565 -2.2570  0.8319 -1.5581
 4915SOL     OW15643   1.021   6.191   4.510 -0.4776  0.0653 -0.1999
 4915SOL    HW115644   1.046   6.135   4.432 -1.2047 -0.4243 -0.0919
 4915SOL    HW215645   1.011   6.287   4.481 -0.3968 -0.0551 -0.6302
 4916SOL     OW15646   2.896   5.318   0.671  0.1861 -0.1966 -0.5961
 4916SOL    HW115647   2.856   5.232   0.638  0.0233 -0.3155 -0.1055
 4916SOL    HW215648   2.905   5.313   0.770 -1.3729  0.9915 -0.3622
 4917SOL     OW15649   4.124   5.858   4.539 -0.6551 -0.9984 -0.6941
 4917SOL    HW115650   4.125   5.939   4.597 -0.4374 -1.1989 -0.4146
 4917SOL    HW215651   4.030   5.842   4.506 -0.4536  0.1952 -1.9525
 4918SOL     OW15652   6.268   2.159   1.930  0.1864 -0.2782  0.3785
 4918SOL    HW115653   6.199   2.088   1.945 -1.6582  1.2134 -0.4788
 4918SOL    HW215654   6.317   2.140   1.845  2.3010 -2.3851  1.9519
 4919SOL     OW15655   1.561   3.207   2.557 -0.2868 -0.5154  0.4767
 4919SOL    HW115656   1.555   3.298   2.516  3.1751 -0.8387 -1.0974
 4919SOL    HW215657   1.541   3.213   2.655 -0.7242  1.8071  0.3019
 4920SOL     OW15658   1.042   0.141   4.407 -0.0394 -0.1744  0.2120
 4920SOL    HW115659   0.958   0.122   4.458  1.3527 -2.6665  1.7960
 4920SOL    HW215660   1.027   0.126   4.309 -2.0443  2.0191  0.0931
 4921SOL     OW15661   0.511   1.828   6.848  0.0176 -0.3201  0.0027
 4921SOL    HW115662   0.605   1.808   6.876  0.1356  2.1813  1.6822
 4921SOL    HW215663   0.448   1.772   6.901  0.4843 -0.8944 -0.0296
 4922SOL     OW15664   3.747   6.440   5.949 -0.6875 -0.5727 -0.1714
 4922SOL    HW115665   3.791   6.428   5.860  0.9082  0.2717  0.4748
 4922SOL    HW215666   3.809   6.413   6.022 -0.8093  1.5579  0.8091
 4923SOL     OW15667   1.612   0.811   6.216  0.4267 -0.1780 -0.7275
 4923SOL    HW115668   1.627   0.763   6.130  2.9250 -2.0478  0.6286
 4923SOL    HW215669   1.675   0.889   6.222  0.4884 -0.2488 -0.4481
 4924SOL     OW15670   5.020   2.622   3.630  0.6047 -0.0469 -0.0142
 4924SOL    HW115671   5.103   2.664   3.666  0.0895  0.5484  0.4959
 4924SOL    HW215672   4.942   2.649   3.686  0.2924 -1.9948  0.5702
 4925SOL     OW15673   5.867   6.531   4.638 -0.4823 -0.0455 -0.4486
 4925SOL    HW115674   5.882   6.519   4.540 -0.8952 -1.7633 -0.3302
 4925SOL    HW215675   5.772   6.557   4.654 -1.0125 -1.8677 -0.4086
 4926SOL     OW15676   1.555   2.212   3.751 -0.5436 -0.1722  0.3426
 4926SOL    HW115677   1.554   2.164   3.838 -0.7286 -1.7183 -0.4776
 4926SOL    HW215678   1.541   2.147   3.677 -2.5894  1.4039 -0.7367
 4927SOL     OW15679   3.262   2.949   6.159  0.3301 -0.2646 -0.3552
 4927SOL    HW115680   3.248   2.855   6.127  1.0433 -0.2290 -0.7940
 4927SOL    HW215681   3.332   2.993   6.103 -0.1686  0.6107 -0.2941
 4928SOL     OW15682   6.826   2.202   5.827  0.1367  0.5196  0.2673
 4928SOL    HW115683   6.812   2.244   5.737 -0.8621  0.5827  0.4369
 4928SOL    HW215684   6.746   2.147   5.851  0.9790 -0.6427  0.5135
 4929SOL     OW15685   1.315   3.973   4.379  0.3696  0.1625 -0.5174
 4929SOL    HW115686   1.300   3.874   4.374  0.6583  0.1093 -0.3890
 4929SOL    HW215687   1.270   4.018   4.302 -2.0003  0.2083  0.7936
 4930SOL     OW15688   4.757   6.968   0.649  0.0648 -0.4959 -0.1096
 4930SOL    HW115689   4.835   6.936   0.702 -0.8727  1.4795  2.6770
 4930SOL    HW215690   4.675   6.919   0.679 -0.3034 -0.2105 -0.6387
 4931SOL     OW15691   0.006   6.579   2.512 -0.0979  0.3310  0.2881
 4931SOL    HW115692   0.083   6.642   2.497  0.8218 -0.4547  1.5701
 4931SOL    HW215693  -0.045   6.607   2.593 -1.9049  1.4997 -1.1454
 4932SOL     OW15694   3.901   3.021   5.255  0.4755  0.2375  0.7741
 4932SOL    HW115695   3.843   2.950   5.295  0.8095  0.2724  1.3270
 4932SOL    HW215696   3.911   3.004   5.157  0.0090 -0.0978  0.7804
 4933SOL     OW15697   4.927   4.383   2.662 -0.0118 -0.4660  0.2799
 4933SOL    HW115698   4.972   4.425   2.583  0.0924 -0.3144  0.4205
 4933SOL    HW215699   4.835   4.354   2.636  0.5246 -1.7466 -0.3254
 4934SOL     OW15700   5.323   4.480   5.830  0.5343 -0.1346 -0.1196
 4934SOL    HW115701   5.382   4.548   5.873 -0.5370  0.4512  0.4734
 4934SOL    HW215702   5.369   4.392   5.829  1.0023  0.0613  1.3249
 4935SOL     OW15703   6.755   4.606   6.544 -0.3400  0.1067  0.2270
 4935SOL    HW115704   6.680   4.660   6.582  0.6804  2.2241 -0.6217
 4935SOL    HW215705   6.763   4.624   6.446  0.9915 -0.4399  0.2137
 4936SOL     OW15706   1.069   0.325   0.587 -0.0754 -0.2989 -0.2254
 4936SOL    HW115707   1.161   0.288   0.581 -0.0839 -0.2675 -0.5562
 4936SOL    HW215708   1.028   0.298   0.674  0.3710 -0.0211  0.0732
 4937SOL     OW15709   1.181   2.877   0.211  0.1382 -0.1885 -0.0856
 4937SOL    HW115710   1.232   2.796   0.181  0.3761 -0.6478  1.4627
 4937SOL    HW215711   1.135   2.858   0.297 -0.3538  1.1211 -0.0306
 4938SOL     OW15712   4.054   5.736   6.872  0.4330 -0.2499 -0.1741
 4938SOL    HW115713   4.065   5.639   6.850  0.8781 -0.0225 -1.0003
 4938SOL    HW215714   4.066   5.791   6.789 -2.9795  0.3398 -0.4107
 4939SOL     OW15715   1.100   2.606   6.120  0.1307  0.4005  0.5165
 4939SOL    HW115716   1.115   2.703   6.099  1.0714  0.0572 -0.4777
 4939SOL    HW215717   1.170   2.575   6.185  2.0332 -0.4411 -1.8015
 4940SOL     OW15718   4.698   6.445   4.003  0.1680  0.6106  0.4712
 4940SOL    HW115719   4.655   6.507   3.936 -0.7325  0.0934  0.5465
 4940SOL    HW215720   4.637   6.436   4.082  1.3124  1.3748  1.4756
 4941SOL     OW15721   2.342   2.305   4.962 -0.1206 -0.0927  0.2134
 4941SOL    HW115722   2.383   2.216   4.942 -0.1759 -0.6990  2.5414
 4941SOL    HW215723   2.413   2.368   4.993 -0.2343  0.3836 -0.4754
 4942SOL     OW15724   2.666   1.034   0.223  0.7436 -0.0369  0.1244
 4942SOL    HW115725   2.610   0.981   0.159 -0.1337 -0.7801  1.4525
 4942SOL    HW215726   2.626   1.124   0.236  0.2297 -0.3259  0.5574
 4943SOL     OW15727   1.155   4.871   5.975 -0.2145  0.6650  0.1760
 4943SOL    HW115728   1.169   4.900   5.881 -0.8937  0.3024 -0.0470
 4943SOL    HW215729   1.058   4.880   5.999  0.0179  1.1732  0.9852
 4944SOL     OW15730   2.895   1.327   1.998 -0.3186  0.0611  0.2795
 4944SOL    HW115731   2.830   1.317   2.073 -1.7811  2.1165 -0.6016
 4944SOL    HW215732   2.983   1.286   2.023 -1.8193 -2.5323  1.6405
 4945SOL     OW15733   6.205   3.429   6.027  0.9381  0.2287  0.0297
 4945SOL    HW115734   6.233   3.485   5.950  0.6776  0.8844  0.3999
 4945SOL    HW215735   6.192   3.334   5.998  2.2999  0.1580 -0.4113
 4946SOL     OW15736   0.951   5.166   4.291 -0.0715  0.3322 -0.1387
 4946SOL    HW115737   0.868   5.217   4.270  0.5102  0.8034 -1.4085
 4946SOL    HW215738   0.927   5.073   4.319 -1.0059  0.2254 -1.2299
 4947SOL     OW15739   1.130   3.889   1.734  0.4162 -0.1934  0.2341
 4947SOL    HW115740   1.084   3.822   1.791 -0.5123  1.1300  1.0866
 4947SOL    HW215741   1.086   3.979   1.744  2.4827  0.8973  0.2602
 4948SOL     OW15742   5.719   5.846   1.032 -0.1042 -0.4763  0.0510
 4948SOL    HW115743   5.712   5.846   1.131 -2.3614 -1.7899 -0.0412
 4948SOL    HW215744   5.728   5.940   0.999  2.1268 -0.1069  1.5096
 4949SOL     OW15745   0.767   0.832   3.637  0.7813 -0.1171  0.3578
 4949SOL    HW115746   0.753   0.772   3.716  1.9784 -0.1149  0.5851
 4949SOL    HW215747   0.727   0.922   3.656 -1.3637 -0.9019 -0.1353
 4950SOL     OW15748   0.621   4.898   6.928  0.8909  0.5925 -0.0445
 4950SOL    HW115749   0.703   4.947   6.897  1.0951  1.3057  1.5384
 4950SOL    HW215750   0.604   4.919   7.024  0.5656 -1.8908  0.5102
 4951SOL     OW15751   6.256   5.140   2.795 -0.8402  0.1538 -0.2576
 4951SOL    HW115752   6.172   5.085   2.795 -0.5860 -0.2415 -0.2842
 4951SOL    HW215753   6.324   5.097   2.735 -0.2591 -0.0971  0.5588
 4952SOL     OW15754   0.264   4.024   6.720  0.1001 -0.0677  0.0630
 4952SOL    HW115755   0.291   3.940   6.767 -0.6150 -0.4834 -0.2646
 4952SOL    HW215756   0.199   4.002   6.648  0.0105  0.7585 -0.1098
 4953SOL     OW15757   1.962   4.398   3.477  0.2487 -0.6819  0.8702
 4953SOL    HW115758   1.950   4.497   3.484 -1.5698 -0.8080  0.1469
 4953SOL    HW215759   2.044   4.370   3.527  0.6490  1.1442  1.2914
 4954SOL     OW15760   6.377   5.806   1.383 -0.4622  0.1332  0.3110
 4954SOL    HW115761   6.315   5.835   1.310  2.1081 -0.2831 -2.2208
 4954SOL    HW215762   6.358   5.710   1.407 -0.4541 -0.1621 -0.8128
 4955SOL     OW15763   3.555   2.221   6.832 -0.0495  0.0036 -0.2227
 4955SOL    HW115764   3.579   2.191   6.740  0.9992  1.4307 -0.4503
 4955SOL    HW215765   3.639   2.241   6.884 -0.6534  1.1989  0.3398
 4956SOL     OW15766   3.034   3.075   3.146 -0.1464 -0.3491 -0.3883
 4956SOL    HW115767   3.096   3.020   3.089 -0.1381 -2.0578  1.1692
 4956SOL    HW215768   2.980   3.014   3.204  0.5169  1.2834  2.1330
 4957SOL     OW15769   1.525   5.138   3.674  0.1080  0.0018 -0.1726
 4957SOL    HW115770   1.457   5.080   3.719  1.5276 -2.2110 -0.7469
 4957SOL    HW215771   1.614   5.127   3.719  0.3409  2.1760  0.0144
 4958SOL     OW15772   1.107   5.938   2.735  0.1702 -0.3311 -0.2733
 4958SOL    HW115773   1.200   5.908   2.757 -0.0069  0.3626  1.5337
 4958SOL    HW215774   1.094   5.935   2.636  1.6519 -1.7690 -0.4742
 4959SOL     OW15775   3.715   3.311   2.450 -0.4591 -0.7882  0.1094
 4959SOL    HW115776   3.745   3.216   2.462 -1.2179 -1.2378 -1.2557
 4959SOL    HW215777   3.647   3.334   2.520  0.5149 -0.8801  1.1089
 4960SOL     OW15778   5.695   3.706   1.633 -0.4221 -0.0259 -0.1063
 4960SOL    HW115779   5.727   3.621   1.675 -1.0873 -0.0694  0.3146
 4960SOL    HW215780   5.603   3.693   1.597 -0.4226  0.4447 -0.2826
 4961SOL     OW15781   6.743   2.602   3.659 -0.3909  0.3287 -0.1884
 4961SOL    HW115782   6.663   2.632   3.608 -1.3925 -0.5280  0.8094
 4961SOL    HW215783   6.790   2.529   3.609  0.3263  1.4592 -1.2081
 4962SOL     OW15784   0.809   3.888   5.710 -0.0225  0.4397  0.4561
 4962SOL    HW115785   0.908   3.900   5.714 -0.1109  1.3033  0.4239
 4962SOL    HW215786   0.784   3.842   5.625  0.4380 -0.9239  1.0357
 4963SOL     OW15787   4.453   4.959   5.436  0.6231 -0.4166 -0.1657
 4963SOL    HW115788   4.436   4.872   5.483 -1.3480 -0.7266 -1.3187
 4963SOL    HW215789   4.469   5.031   5.503 -0.3620 -1.1740  0.9299
 4964SOL     OW15790   0.394   6.682   0.977  0.2676  0.3114 -0.2840
 4964SOL    HW115791   0.440   6.645   1.057  0.8567  1.9095  0.1657
 4964SOL    HW215792   0.295   6.671   0.986  0.2311  1.5482  1.2685
 4965SOL     OW15793   3.191   1.765   1.835 -0.8066 -0.2365 -0.2618
 4965SOL    HW115794   3.231   1.772   1.743 -0.9453 -1.0151 -0.3922
 4965SOL    HW215795   3.126   1.689   1.837 -2.2098  0.9322 -0.0153
 4966SOL     OW15796   6.117   5.339   2.574  0.3000 -0.1868 -0.4759
 4966SOL    HW115797   6.164   5.292   2.648 -1.7249 -2.0283 -0.2730
 4966SOL    HW215798   6.062   5.414   2.611  0.9773  0.2767 -0.3990
 4967SOL     OW15799   3.187   5.104   3.284 -0.3195  0.4810 -0.4896
 4967SOL    HW115800   3.179   5.202   3.264 -1.1321  0.1944 -1.6673
 4967SOL    HW215801   3.282   5.083   3.309  0.0837  1.4049 -1.1816
 4968SOL     OW15802   0.486   6.376   2.530  0.4840 -0.2326 -0.5858
 4968SOL    HW115803   0.497   6.277   2.543  1.1601 -0.1226 -0.2991
 4968SOL    HW215804   0.396   6.394   2.490 -0.3906 -0.8323  1.0351
 4969SOL     OW15805   3.995   1.675   2.513 -0.5920  0.5823  0.1586
 4969SOL    HW115806   3.982   1.601   2.579  0.1861  1.5079  1.4176
 4969SOL    HW215807   4.090   1.673   2.480 -0.2042  1.6719  1.1082
 4970SOL     OW15808   3.028   3.206   4.005  0.1293  0.5365  0.3276
 4970SOL    HW115809   2.989   3.294   3.978 -0.4377  0.3437  0.5003
 4970SOL    HW215810   3.059   3.157   3.923 -1.5632 -0.0378 -0.0170
 4971SOL     OW15811   4.681   1.661   6.759  0.2805 -0.5112  0.0774
 4971SOL    HW115812   4.631   1.575   6.756 -1.1306  0.2812 -0.0262
 4971SOL    HW215813   4.730   1.668   6.846 -1.9157 -0.1929  1.3579
 4972SOL     OW15814   3.591   2.507   1.685  0.3375  0.5369 -0.0663
 4972SOL    HW115815   3.606   2.434   1.751  0.5027 -0.0453 -0.7425
 4972SOL    HW215816   3.607   2.473   1.593  1.6468  1.7379 -0.3177
 4973SOL     OW15817   3.644   6.953   2.737 -0.0208 -0.3513  0.5135
 4973SOL    HW115818   3.689   6.962   2.826 -1.2664  1.3699  1.0147
 4973SOL    HW215819   3.678   7.023   2.675  0.5756 -1.3187 -0.2885
 4974SOL     OW15820   3.388   0.765   1.303  0.0935  0.4482 -0.1455
 4974SOL    HW115821   3.309   0.753   1.363  0.1830 -0.1480 -0.1496
 4974SOL    HW215822   3.365   0.831   1.231 -0.2818  0.5454  0.0612
 4975SOL     OW15823   3.854   0.425   0.933 -0.4862  0.7465 -0.1764
 4975SOL    HW115824   3.924   0.435   1.004 -0.2214  1.2998 -0.5142
 4975SOL    HW215825   3.814   0.333   0.940 -0.2124  0.6651  0.4557
 4976SOL     OW15826   3.749   0.205   1.572 -0.2619  0.4473 -0.0364
 4976SOL    HW115827   3.663   0.169   1.609  0.1491 -0.0414  0.4604
 4976SOL    HW215828   3.737   0.228   1.476 -0.7490 -0.3227 -0.1719
 4977SOL     OW15829   6.078   1.799   5.640 -0.2807  0.1166  0.5601
 4977SOL    HW115830   6.084   1.812   5.541  0.7086  0.8576  0.7066
 4977SOL    HW215831   6.158   1.750   5.673 -1.0463 -0.9629  0.8874
 4978SOL     OW15832   1.443   2.415   0.461 -0.0181 -0.5332  0.1998
 4978SOL    HW115833   1.425   2.331   0.411  1.8516 -0.7507 -0.1613
 4978SOL    HW215834   1.494   2.395   0.545 -1.5437  0.0221  1.3131
 4979SOL     OW15835   4.167   6.360   0.561  0.3758 -0.0758 -0.4050
 4979SOL    HW115836   4.230   6.381   0.636 -0.0589 -0.5576  0.1020
 4979SOL    HW215837   4.117   6.443   0.535 -1.5838 -0.4551  1.8228
 4980SOL     OW15838   3.001   0.310   6.536  0.4813  0.6634 -0.1447
 4980SOL    HW115839   2.957   0.346   6.618 -1.8354  1.3909 -1.5985
 4980SOL    HW215840   3.055   0.382   6.492  0.9996  0.5242  0.2560
 4981SOL     OW15841   0.828   4.077   4.494  0.2934 -0.4987  0.4643
 4981SOL    HW115842   0.848   3.989   4.536  0.9970 -1.0459 -0.9346
 4981SOL    HW215843   0.872   4.081   4.404  0.7316  1.4925  0.7287
 4982SOL     OW15844   3.186   3.305   3.183 -0.1338 -0.2273  0.0780
 4982SOL    HW115845   3.268   3.247   3.180 -0.8449 -1.3606  1.6292
 4982SOL    HW215846   3.105   3.248   3.197 -1.5981  0.5477 -3.8707
 4983SOL     OW15847   3.222   0.625   2.863  0.1024  0.1170  0.1269
 4983SOL    HW115848   3.307   0.661   2.901  1.6209 -1.2734 -1.7560
 4983SOL    HW215849   3.185   0.691   2.797  0.8669 -0.1087 -0.5560
 4984SOL     OW15850   2.084   1.345   2.045  0.3720  0.2066 -0.2092
 4984SOL    HW115851   1.997   1.303   2.071  0.1693 -0.0021 -1.1750
 4984SOL    HW215852   2.105   1.420   2.108  0.2140 -0.6519  0.9017
 4985SOL     OW15853   3.477   4.048   5.511 -0.4523  0.2493  0.1847
 4985SOL    HW115854   3.438   4.114   5.575 -0.8382  1.0565 -0.8538
 4985SOL    HW215855   3.422   4.046   5.427 -0.0321 -0.8788 -0.0847
 4986SOL     OW15856   1.465   0.812   2.490  0.2028  0.2905  0.2054
 4986SOL    HW115857   1.547   0.814   2.433  0.6463  0.6939  0.8452
 4986SOL    HW215858   1.484   0.762   2.575 -0.3971 -0.1439  0.0954
 4987SOL     OW15859   6.563   5.651   4.676 -0.2290  0.0860 -1.0093
 4987SOL    HW115860   6.603   5.572   4.722 -0.7749  0.6894  0.5896
 4987SOL    HW215861   6.598   5.735   4.716  0.5045  0.7027 -2.8262
 4988SOL     OW15862   0.159   0.817   5.852  0.9364 -0.0434 -0.1946
 4988SOL    HW115863   0.099   0.879   5.801  1.1791  1.0717  0.8188
 4988SOL    HW215864   0.194   0.746   5.791  1.4988  1.4393 -1.6655
 4989SOL     OW15865   3.652   2.909   4.502  0.2627 -0.0116  0.4990
 4989SOL    HW115866   3.692   2.996   4.534 -0.0712 -0.4571  2.2459
 4989SOL    HW215867   3.578   2.882   4.564 -0.2265 -1.1094 -0.5366
 4990SOL     OW15868   0.594   4.179   4.349  0.2684 -0.1466  0.9116
 4990SOL    HW115869   0.672   4.122   4.373  1.7259  1.2246 -0.2957
 4990SOL    HW215870   0.621   4.245   4.279 -1.9832  0.4209  0.4810
 4991SOL     OW15871   0.853   6.235   5.823 -0.4855  0.0060  0.3616
 4991SOL    HW115872   0.759   6.259   5.798 -0.3062 -0.9293 -1.3403
 4991SOL    HW215873   0.863   6.135   5.818  0.0478 -0.1091  2.6275
 4992SOL     OW15874   4.310   4.956   5.874  0.6595  0.1278 -0.4122
 4992SOL    HW115875   4.339   4.898   5.798  0.0886 -0.6666 -0.0397
 4992SOL    HW215876   4.216   4.934   5.899 -0.0340  2.0950 -1.0789
 4993SOL     OW15877   0.664   4.585   6.458 -0.0493  0.1540  0.0675
 4993SOL    HW115878   0.576   4.600   6.413  0.9903 -0.9525 -2.6170
 4993SOL    HW215879   0.686   4.487   6.455  2.6101  0.6555 -2.3865
 4994SOL     OW15880   6.601   6.517   3.498  0.3147 -0.3075  0.1168
 4994SOL    HW115881   6.570   6.424   3.516  0.2748  0.1361  2.7466
 4994SOL    HW215882   6.700   6.521   3.508  0.1806  0.1780  1.3360
 4995SOL     OW15883   1.927   1.015   0.217 -0.0152  0.2046 -0.6858
 4995SOL    HW115884   1.964   0.923   0.226  1.1341  0.7736  0.6877
 4995SOL    HW215885   1.832   1.009   0.187 -0.4002 -1.4966  0.6860
 4996SOL     OW15886   6.073   0.028   4.149  0.5500 -0.0762  0.3728
 4996SOL    HW115887   6.140  -0.044   4.130 -1.1014 -2.0600  1.5488
 4996SOL    HW215888   5.985  -0.014   4.172 -0.9787  2.3954 -0.5011
 4997SOL     OW15889   6.701   4.662   6.944  0.3934  0.3447 -0.3180
 4997SOL    HW115890   6.724   4.565   6.947  0.0652  0.2827  1.6749
 4997SOL    HW215891   6.784   4.717   6.946  0.5972  0.1282 -1.8928
 4998SOL     OW15892   6.305   3.894   4.234  0.0698 -0.0353 -0.3905
 4998SOL    HW115893   6.397   3.864   4.210 -0.0255 -0.1652 -0.6024
 4998SOL    HW215894   6.243   3.872   4.159 -0.4119 -1.2892  0.3640
 4999SOL     OW15895   5.696   2.356   6.393 -0.0757  0.2165  0.1895
 4999SOL    HW115896   5.774   2.408   6.360  1.3815 -1.4178  0.8661
 4999SOL    HW215897   5.688   2.366   6.492  0.3552 -0.9204  0.3638
 5000SOL     OW15898   6.241   1.357   3.255  0.2635 -0.1337 -0.2405
 5000SOL    HW115899   6.208   1.274   3.210  1.4207  0.3821 -2.1395
 5000SOL    HW215900   6.262   1.427   3.186  0.8701  1.1750  1.1999
 5001SOL     OW15901   3.829   3.114   6.722  0.5413 -0.0024  0.3068
 5001SOL    HW115902   3.900   3.051   6.752  1.1341  0.5782  0.1518
 5001SOL    HW215903   3.753   3.062   6.682  0.8885 -0.6262  0.4405
 5002SOL     OW15904   5.718   5.098   6.737  0.4850 -0.0233 -0.1899
 5002SOL    HW115905   5.779   5.141   6.671  0.0387 -0.5344 -0.9439
 5002SOL    HW215906   5.772   5.063   6.814  0.8801  1.7109  0.3848
 5003SOL     OW15907   5.162   3.806   4.164 -0.1259  0.5768 -0.5956
 5003SOL    HW115908   5.159   3.708   4.143  0.4086  0.5747 -0.6759
 5003SOL    HW215909   5.230   3.822   4.236  0.9985  1.0823 -1.7284
 5004SOL     OW15910   5.646   6.611   0.792  0.0477  0.6158  0.0106
 5004SOL    HW115911   5.606   6.521   0.776  0.6678  0.4738 -0.8129
 5004SOL    HW215912   5.742   6.600   0.819  1.0068  1.0746 -2.8947
 5005SOL     OW15913   2.755   0.178   6.701  0.7055  0.7729  0.2226
 5005SOL    HW115914   2.777   0.169   6.798  0.9915 -0.6496  0.0419
 5005SOL    HW215915   2.780   0.094   6.653  0.6002  1.4727 -1.0972
 5006SOL     OW15916   1.393   0.298   4.946  0.4446  0.2146 -0.4074
 5006SOL    HW115917   1.421   0.259   4.859  3.0705  0.7538  0.0869
 5006SOL    HW215918   1.311   0.354   4.934 -0.5576 -1.5059 -2.0311
 5007SOL     OW15919   1.559   5.346   1.155 -0.2096 -0.1039 -0.2110
 5007SOL    HW115920   1.527   5.265   1.108 -0.0506 -0.3734  0.1365
 5007SOL    HW215921   1.647   5.375   1.117  0.8539 -1.4139  1.1090
 5008SOL     OW15922   4.576   6.283   1.731  0.7764  0.0547 -0.5504
 5008SOL    HW115923   4.564   6.190   1.765  0.7814 -1.4791 -4.2761
 5008SOL    HW215924   4.589   6.346   1.808  1.3478 -3.0619  2.0826
 5009SOL     OW15925   5.240   4.806   3.008  0.4916  0.2213  0.0882
 5009SOL    HW115926   5.210   4.784   3.101  1.2182  2.1902  0.8443
 5009SOL    HW215927   5.307   4.880   3.011 -0.2566  1.0791 -2.0691
 5010SOL     OW15928   3.906   2.976   4.375  0.4304 -0.1430  0.5083
 5010SOL    HW115929   3.876   3.071   4.389  1.9247  0.6394 -1.1631
 5010SOL    HW215930   3.828   2.915   4.385 -1.3432  1.5780 -1.5750
 5011SOL     OW15931   2.331   1.189   6.342 -0.5344 -0.7929  0.2259
 5011SOL    HW115932   2.414   1.239   6.366 -0.9659  0.1678 -0.2011
 5011SOL    HW215933   2.351   1.092   6.335  0.0839 -0.8609  2.2818
 5012SOL     OW15934   6.657   5.356   3.312 -0.1247 -0.0946  0.5483
 5012SOL    HW115935   6.594   5.433   3.325 -1.1958 -0.9585  0.6189
 5012SOL    HW215936   6.751   5.387   3.327 -0.3567  1.6023 -1.0423
 5013SOL     OW15937   5.227   6.627   4.413  0.3710  0.2506 -0.1243
 5013SOL    HW115938   5.142   6.676   4.389  0.5095  1.1207  1.0567
 5013SOL    HW215939   5.204   6.544   4.463  0.1889  0.0947 -0.4645
 5014SOL     OW15940   4.647   4.582   0.290 -0.8575 -0.1620  0.4728
 5014SOL    HW115941   4.592   4.656   0.251 -2.0373  0.4052  2.9428
 5014SOL    HW215942   4.587   4.504   0.310 -0.1780 -0.6713  0.5337
 5015SOL     OW15943   4.087   6.414   5.414 -0.1203  0.1256  0.2804
 5015SOL    HW115944   4.056   6.322   5.391 -1.2974  0.9518 -1.6660
 5015SOL    HW215945   4.183   6.424   5.387 -0.5190  0.0191 -1.2342
 5016SOL     OW15946   4.944   6.207   4.761 -0.4423  0.7061 -0.0323
 5016SOL    HW115947   4.924   6.153   4.679 -0.6548  0.7420 -0.0040
 5016SOL    HW215948   4.880   6.284   4.767 -1.0595  0.1624  0.6751
 5017SOL     OW15949   6.945   4.294   4.555 -0.1045  0.0681 -0.1393
 5017SOL    HW115950   6.853   4.310   4.592 -0.6446 -1.1547 -0.8839
 5017SOL    HW215951   6.983   4.380   4.520 -0.4069  0.8487  1.3614
 5018SOL     OW15952   3.471   5.807   3.798  0.3073 -0.6449  0.3978
 5018SOL    HW115953   3.429   5.877   3.739  0.4816  0.4290  1.5075
 5018SOL    HW215954   3.537   5.754   3.745 -0.8022 -0.8831 -0.8116
 5019SOL     OW15955   2.605   0.326   3.541  0.0622 -0.2352 -0.3347
 5019SOL    HW115956   2.699   0.307   3.568  0.4985  3.1039  0.9970
 5019SOL    HW215957   2.605   0.389   3.463 -1.1246 -1.1474 -1.1159
 5020SOL     OW15958   5.999   0.247   4.019  0.3189  0.1417  0.3949
 5020SOL    HW115959   6.062   0.262   3.943 -0.3776 -2.2069 -0.7601
 5020SOL    HW215960   6.012   0.155   4.055 -0.4918  0.6391  2.0755
 5021SOL     OW15961   6.219   2.667   2.153 -0.1226  0.1739 -0.1658
 5021SOL    HW115962   6.241   2.569   2.152 -0.4545  0.1000 -1.1601
 5021SOL    HW215963   6.300   2.720   2.129 -0.1003  0.1113 -0.2284
 5022SOL     OW15964   6.306   1.964   4.148  0.4715 -0.3811 -0.0999
 5022SOL    HW115965   6.313   1.872   4.187  0.8859  0.0191  0.7989
 5022SOL    HW215966   6.210   1.986   4.132  0.3192 -0.7166  0.3234
 5023SOL     OW15967   3.035   1.607   2.671 -0.2991  0.3434  0.6444
 5023SOL    HW115968   3.113   1.591   2.732 -0.8713 -0.0103  1.2900
 5023SOL    HW215969   3.056   1.571   2.580  0.0155 -0.3845  0.9984
 5024SOL     OW15970   4.181   2.368   0.383  0.1578 -0.2540 -0.2867
 5024SOL    HW115971   4.197   2.355   0.285  0.1636 -3.1761  0.0184
 5024SOL    HW215972   4.255   2.326   0.435  0.9182  2.4890  1.0565
 5025SOL     OW15973   0.299   0.855   4.957 -0.0548  0.1004  0.0883
 5025SOL    HW115974   0.319   0.784   5.025  0.6463  0.4439  0.2476
 5025SOL    HW215975   0.349   0.835   4.873 -0.7292 -0.1903 -0.2499
 5026SOL     OW15976   0.634   0.614   6.476  0.0619  0.1542 -0.5358
 5026SOL    HW115977   0.659   0.581   6.386 -0.7139  0.2281 -0.7912
 5026SOL    HW215978   0.707   0.595   6.541  1.4847  1.8260 -1.5637
 5027SOL     OW15979   0.955   2.760   6.414 -0.1262  0.4238 -0.3435
 5027SOL    HW115980   0.863   2.721   6.420 -0.4904  1.4441  1.8312
 5027SOL    HW215981   1.008   2.710   6.346 -1.8454 -1.1021 -0.6408
 5028SOL     OW15982   0.527   6.485   1.191 -0.6337 -0.3111 -0.3407
 5028SOL    HW115983   0.526   6.388   1.165  0.0668 -0.0611 -1.3330
 5028SOL    HW215984   0.619   6.522   1.178 -0.9340  0.5348 -0.1015
 5029SOL     OW15985   5.586   6.294   4.008 -0.3616  0.2457 -0.3357
 5029SOL    HW115986   5.597   6.276   4.106 -2.9953  2.8219  0.5950
 5029SOL    HW215987   5.518   6.231   3.970  0.2795 -0.4140 -0.4068
 5030SOL     OW15988   6.770   1.184   0.041 -0.0082 -1.0626  0.1561
 5030SOL    HW115989   6.767   1.238   0.125 -0.1793  0.0797 -0.5618
 5030SOL    HW215990   6.861   1.144   0.030  0.2520 -0.5738  0.5011
 5031SOL     OW15991   1.249   4.913   0.776  0.4887  0.1150  0.2383
 5031SOL    HW115992   1.202   4.998   0.803  2.7537  1.5678 -0.1432
 5031SOL    HW215993   1.218   4.838   0.834 -0.3463  1.5535  1.7325
 5032SOL     OW15994   1.550   5.425   1.868  0.0005  0.0533 -0.0439
 5032SOL    HW115995   1.573   5.413   1.772 -0.9953 -0.7671 -0.2024
 5032SOL    HW215996   1.495   5.508   1.879 -1.9264 -1.0768 -0.5947
 5033SOL     OW15997   3.553   3.301   6.008 -0.4815 -0.3619 -0.1124
 5033SOL    HW115998   3.464   3.347   6.010  0.1086  0.8488 -0.6995
 5033SOL    HW215999   3.623   3.364   6.042 -0.0585 -1.8428  1.9358
 5034SOL     OW16000   3.156   5.244   3.989 -0.2266 -0.0208  0.2596
 5034SOL    HW116001   3.237   5.232   4.047  0.2808 -0.1493 -0.4684
 5034SOL    HW216002   3.091   5.170   4.006 -0.2845  0.1947  0.9965
 5035SOL     OW16003   3.063   5.093   1.664 -0.9374 -0.4536  0.5318
 5035SOL    HW116004   3.082   5.005   1.620 -1.0035  0.2707 -1.0196
 5035SOL    HW216005   2.989   5.139   1.614 -0.9342  0.4636  1.3547
 5036SOL     OW16006   5.204   3.396   0.346 -0.1434  0.9594  0.5663
 5036SOL    HW116007   5.136   3.361   0.282  0.1450  1.2233  0.1089
 5036SOL    HW216008   5.232   3.488   0.318 -0.0536  1.1007  1.1033
 5037SOL     OW16009   3.723   3.506   5.939 -0.0864 -0.3350 -0.3025
 5037SOL    HW116010   3.745   3.454   5.857  1.0685  0.9800 -0.8661
 5037SOL    HW216011   3.771   3.593   5.937 -0.9455  0.2123  1.2359
 5038SOL     OW16012   4.610   4.420   3.712 -0.2176  0.3492 -0.2969
 5038SOL    HW116013   4.584   4.434   3.617 -2.1466 -1.1987 -0.0528
 5038SOL    HW216014   4.677   4.345   3.717 -1.4644 -0.8099 -0.3367
 5039SOL     OW16015   5.773   0.793   2.348  0.2127  0.7375 -0.7409
 5039SOL    HW116016   5.771   0.762   2.252  0.2971 -0.2705 -0.4313
 5039SOL    HW216017   5.697   0.752   2.397  1.0063  0.0681 -0.0368
 5040SOL     OW16018   3.653   6.126   6.451 -0.5779 -0.0047  0.1646
 5040SOL    HW116019   3.570   6.176   6.478 -0.2768 -0.3888  1.9756
 5040SOL    HW216020   3.627   6.045   6.398 -1.3049  0.2866  0.0553
 5041SOL     OW16021   2.131   2.049   6.335 -0.3110  0.3098 -0.3252
 5041SOL    HW116022   2.185   2.106   6.273 -0.9811  0.9639 -0.3257
 5041SOL    HW216023   2.186   2.026   6.415  0.8095 -1.1384 -1.4463
 5042SOL     OW16024   2.631   3.955   1.543  0.1653 -0.1135 -0.6665
 5042SOL    HW116025   2.538   3.984   1.562 -0.4335 -0.9959 -2.0618
 5042SOL    HW216026   2.686   4.033   1.514 -0.1747  0.3723 -0.0206
 5043SOL     OW16027   2.173   2.940   2.996 -0.4456 -0.3786  0.0382
 5043SOL    HW116028   2.267   2.971   2.997 -0.2590 -0.9430  0.7334
 5043SOL    HW216029   2.119   2.992   3.062 -0.7833  0.3959 -0.8248
 5044SOL     OW16030   4.966   6.873   1.913  0.0216  0.2965  0.0059
 5044SOL    HW116031   4.924   6.847   1.999  2.5288 -0.6260  1.0538
 5044SOL    HW216032   4.946   6.969   1.894 -1.9147  0.0774  0.7460
 5045SOL     OW16033   0.022   0.027   1.606 -0.1386 -0.4316  0.7020
 5045SOL    HW116034   0.015  -0.028   1.689  0.6285 -0.6293  0.6426
 5045SOL    HW216035   0.106   0.082   1.609 -0.0680 -0.4922  0.0266
 5046SOL     OW16036   6.307   0.036   0.278  0.1311  0.3359 -0.1392
 5046SOL    HW116037   6.258  -0.020   0.211 -0.9634  1.4802 -0.3403
 5046SOL    HW216038   6.398   0.059   0.243  0.5286 -1.1313 -0.1278
 5047SOL     OW16039   1.189   0.338   5.916  0.0424 -0.4571  0.1569
 5047SOL    HW116040   1.163   0.370   5.825  0.1342  1.6774  0.8410
 5047SOL    HW216041   1.288   0.325   5.919  0.0642 -0.3267  0.0153
 5048SOL     OW16042   6.272   2.324   3.559  0.1102  0.1396  0.1358
 5048SOL    HW116043   6.188   2.289   3.519  0.4738 -1.8661  1.0364
 5048SOL    HW216044   6.346   2.257   3.549  1.4187  1.5247  0.0667
 5049SOL     OW16045   1.083   0.403   6.330 -0.2907  0.2467  0.9109
 5049SOL    HW116046   1.175   0.366   6.312  0.1756  1.3032  1.0745
 5049SOL    HW216047   1.072   0.418   6.428 -0.8246 -0.3197  0.9444
 5050SOL     OW16048   6.739   5.825   5.219  0.5552 -0.0424 -0.0712
 5050SOL    HW116049   6.781   5.916   5.223  1.6342 -0.4119 -1.8647
 5050SOL    HW216050   6.643   5.834   5.190  0.1598  0.6182  1.3716
 5051SOL     OW16051   1.037   4.668   6.369  0.1290  0.9481  0.0407
 5051SOL    HW116052   1.073   4.748   6.417 -0.1078  1.0000  0.1298
 5051SOL    HW216053   1.091   4.587   6.396  1.1594  1.2747 -0.9853
 5052SOL     OW16054   1.931   2.730   0.962 -0.1717  0.6099 -0.2930
 5052SOL    HW116055   2.013   2.781   0.991 -0.5034  1.4946 -0.8598
 5052SOL    HW216056   1.940   2.706   0.866  0.2707 -1.0154  0.1291
 5053SOL     OW16057   5.307   5.130   6.052  0.2031  0.3295 -0.1981
 5053SOL    HW116058   5.225   5.122   5.997 -0.0585 -0.5385  0.2946
 5053SOL    HW216059   5.381   5.169   5.998 -0.2172  0.0479 -0.9811
 5054SOL     OW16060   6.760   2.521   6.787 -0.3156 -0.2942  0.6600
 5054SOL    HW116061   6.708   2.597   6.747 -0.3305 -0.3833  0.5095
 5054SOL    HW216062   6.764   2.446   6.722  1.1607  0.2087  0.1342
 5055SOL     OW16063   0.180   3.793   0.280  0.2257 -0.2426 -0.7648
 5055SOL    HW116064   0.093   3.779   0.231  0.4642  0.5930 -1.4648
 5055SOL    HW216065   0.207   3.708   0.325 -2.0886  0.0553  1.3738
 5056SOL     OW16066   1.892   3.003   0.625 -0.2659 -0.0175  0.1779
 5056SOL    HW116067   1.865   3.088   0.578  1.9813  0.6360 -0.0441
 5056SOL    HW216068   1.863   2.925   0.570 -2.3965  0.5659  0.3943
 5057SOL     OW16069   0.146   4.774   3.501  0.7480  0.3456  0.2958
 5057SOL    HW116070   0.088   4.792   3.421 -0.3926  3.3054  1.6500
 5057SOL    HW216071   0.218   4.843   3.506  1.9061 -0.8550  0.9229
 5058SOL     OW16072   1.491   1.281   0.621 -0.5343  0.3364 -0.3333
 5058SOL    HW116073   1.566   1.341   0.593 -1.0145  0.9804 -0.2689
 5058SOL    HW216074   1.526   1.191   0.642 -0.0776 -0.1451 -2.8101
 5059SOL     OW16075   1.125   5.550   5.162 -0.2104 -0.2514  0.0791
 5059SOL    HW116076   1.097   5.561   5.257  1.1748  1.4946  0.3367
 5059SOL    HW216077   1.221   5.522   5.158 -0.3879 -0.7776 -0.8050
 5060SOL     OW16078   4.116   6.288   3.964  0.6356  1.1254 -0.3100
 5060SOL    HW116079   4.082   6.222   3.897 -0.1570  1.5485 -0.3278
 5060SOL    HW216080   4.194   6.248   4.013  0.5472  0.4094 -0.7370
 5061SOL     OW16081   0.024   4.840   3.252 -0.2079 -0.7985 -0.1724
 5061SOL    HW116082  -0.029   4.925   3.246 -1.2923 -1.5437 -1.6931
 5061SOL    HW216083  -0.010   4.775   3.184  0.1877 -2.6892  1.3757
 5062SOL     OW16084   4.891   5.046   5.036 -0.5673 -0.2403  0.5413
 5062SOL    HW116085   4.966   5.089   5.087 -0.7653 -0.3598  0.9367
 5062SOL    HW216086   4.804   5.083   5.068 -0.6737 -0.0437  0.0244
 5063SOL     OW16087   5.229   5.400   3.087  0.3540 -0.4935  0.1122
 5063SOL    HW116088   5.159   5.453   3.135  0.6462 -0.1038  0.1076
 5063SOL    HW216089   5.184   5.331   3.029 -0.0234 -0.2969  0.1658
 5064SOL     OW16090   2.807   5.281   6.977 -0.1265  0.4038 -0.2012
 5064SOL    HW116091   2.867   5.291   7.057  0.1134  1.1612 -0.4683
 5064SOL    HW216092   2.862   5.275   6.894 -0.4031  0.6939 -0.4100
 5065SOL     OW16093   0.271   0.392   2.708  0.0672  0.4919  0.7542
 5065SOL    HW116094   0.230   0.301   2.706 -0.6208  0.8055  0.1248
 5065SOL    HW216095   0.359   0.388   2.756  0.8040 -0.7995 -0.6326
 5066SOL     OW16096   0.205   6.331   2.079 -0.0682 -0.3607 -0.1792
 5066SOL    HW116097   0.267   6.403   2.110 -1.6320  1.1519 -0.4160
 5066SOL    HW216098   0.173   6.278   2.158 -0.5679  0.6114  0.2891
 5067SOL     OW16099   2.284   5.019   4.753  0.1373  0.3128 -0.2219
 5067SOL    HW116100   2.264   4.981   4.663 -2.0930  0.1069  0.3139
 5067SOL    HW216101   2.336   4.952   4.807 -2.4403 -1.5218  0.1833
 5068SOL     OW16102   1.901   2.755   0.030 -0.0745  0.2308 -0.2023
 5068SOL    HW116103   1.814   2.802   0.017  0.6512  1.6817 -0.0438
 5068SOL    HW216104   1.952   2.754  -0.056 -0.3278 -0.8183 -0.3527
 5069SOL     OW16105   2.827   0.996   0.925  0.2540 -0.0733  0.2447
 5069SOL    HW116106   2.923   0.989   0.954  0.6766 -1.5846 -1.3603
 5069SOL    HW216107   2.822   1.052   0.841 -0.3504  0.4331  0.6117
 5070SOL     OW16108   5.813   1.935   1.137 -0.3247  0.2336 -0.7158
 5070SOL    HW116109   5.775   1.864   1.078 -1.8203  0.9597 -0.6712
 5070SOL    HW216110   5.860   1.893   1.214 -0.4461 -0.7080 -1.1463
 5071SOL     OW16111   3.687   0.453   1.743 -0.3129 -0.2810  0.4481
 5071SOL    HW116112   3.682   0.412   1.652  3.8831  2.2375 -1.2114
 5071SOL    HW216113   3.763   0.414   1.793  1.1361  2.3143  0.4427
 5072SOL     OW16114   1.835   6.992   5.487  0.0145 -0.6255 -0.4878
 5072SOL    HW116115   1.858   6.912   5.542 -0.9966 -0.4932  0.1578
 5072SOL    HW216116   1.736   7.006   5.489  0.0784  0.0359 -1.4463
 5073SOL     OW16117   5.380   6.524   4.204 -0.8846  0.4206  0.0900
 5073SOL    HW116118   5.409   6.428   4.213 -1.1814  0.0531 -2.1413
 5073SOL    HW216119   5.340   6.555   4.290  0.7733 -0.8922  1.4208
 5074SOL     OW16120   1.105   5.797   6.689 -0.2591 -0.4935 -0.4540
 5074SOL    HW116121   1.099   5.891   6.721 -0.8562 -0.3283 -1.0580
 5074SOL    HW216122   1.115   5.795   6.590  1.8636 -1.0003 -0.2815
 5075SOL     OW16123   3.228   2.010   5.511 -0.3230 -0.2001  0.0062
 5075SOL    HW116124   3.301   1.961   5.463 -1.0574 -0.9031 -0.4062
 5075SOL    HW216125   3.225   2.105   5.480  0.3343 -0.1964 -0.0618
 5076SOL     OW16126   1.004   4.479   0.818 -0.2420  0.2628 -1.0981
 5076SOL    HW116127   0.919   4.433   0.791 -1.1001  1.7775 -1.0790
 5076SOL    HW216128   1.082   4.428   0.783 -0.8540 -3.7473  2.5216
 5077SOL     OW16129   0.698   6.488   2.381 -0.7832  0.2035 -0.2176
 5077SOL    HW116130   0.620   6.460   2.436  0.5686 -0.2289  1.5795
 5077SOL    HW216131   0.684   6.459   2.286 -2.5516 -0.3056  0.1626
 5078SOL     OW16132   1.210   1.427   4.552  0.2624  0.8643  0.2083
 5078SOL    HW116133   1.273   1.356   4.586 -1.7078  0.0704  2.4888
 5078SOL    HW216134   1.235   1.515   4.593 -0.6281  0.3686  1.8893
 5079SOL     OW16135   5.266   4.995   1.879  0.2202 -0.0385 -0.0496
 5079SOL    HW116136   5.221   4.911   1.907 -0.5919  0.0075 -1.1716
 5079SOL    HW216137   5.294   4.988   1.784 -2.2101  1.8597 -1.0185
 5080SOL     OW16138   4.772   2.437   6.624  0.6516 -0.4944 -0.2430
 5080SOL    HW116139   4.832   2.468   6.550  1.6808 -1.6139  0.0826
 5080SOL    HW216140   4.761   2.510   6.691  0.6196  0.1455 -0.9288
 5081SOL     OW16141   3.549   3.899   2.729  0.0400 -0.2626  0.2513
 5081SOL    HW116142   3.522   3.870   2.638 -1.7179 -2.2253  1.3156
 5081SOL    HW216143   3.595   3.823   2.776  0.2354  0.4651  1.2759
 5082SOL     OW16144   2.755   1.265   4.630  0.5239 -0.2804  0.3534
 5082SOL    HW116145   2.746   1.336   4.560  0.7897 -2.0896 -1.6266
 5082SOL    HW216146   2.666   1.251   4.674  0.5062  1.3494  0.9094
 5083SOL     OW16147   2.855   1.246   2.938 -0.1792 -0.3761  0.0364
 5083SOL    HW116148   2.953   1.227   2.938  0.1293  0.9151 -1.7646
 5083SOL    HW216149   2.811   1.196   2.863 -0.8903 -0.8710  0.7731
 5084SOL     OW16150   0.209   2.882   6.259 -0.1422 -0.3799  0.1883
 5084SOL    HW116151   0.218   2.912   6.164  1.3373 -3.0158 -0.5897
 5084SOL    HW216152   0.292   2.905   6.309 -0.9031  0.9646  0.8962
 5085SOL     OW16153   5.497   6.146   0.392 -0.3214 -0.6751  0.6503
 5085SOL    HW116154   5.525   6.050   0.394  1.8757 -0.2701 -2.7097
 5085SOL    HW216155   5.578   6.204   0.399 -1.5221  0.9601  1.5737
 5086SOL     OW16156   3.992   0.736   4.494 -0.0111  0.5326  0.6402
 5086SOL    HW116157   3.973   0.684   4.411 -2.0602  0.4682  1.0969
 5086SOL    HW216158   3.982   0.834   4.475  0.0677  0.5475  0.6760
 5087SOL     OW16159   5.227   5.015   0.668 -0.3977 -0.0644 -0.2900
 5087SOL    HW116160   5.259   5.085   0.604  0.5258  0.5928  0.8442
 5087SOL    HW216161   5.175   5.058   0.742  0.8203 -0.4520  0.8287
 5088SOL     OW16162   5.449   0.122   6.302 -0.0832 -0.7029 -0.1240
 5088SOL    HW116163   5.382   0.186   6.263 -0.8161 -1.4563 -0.1293
 5088SOL    HW216164   5.498   0.166   6.377 -1.5174 -0.5403  0.7651
 5089SOL     OW16165   1.237   2.272   3.714  0.8153  0.4067 -0.5218
 5089SOL    HW116166   1.228   2.357   3.767  1.2084 -0.5206  1.0878
 5089SOL    HW216167   1.267   2.198   3.774 -0.7171 -1.1898 -1.6248
 5090SOL     OW16168   1.129   5.920   4.001  0.3142 -0.2047  0.7307
 5090SOL    HW116169   1.072   5.906   3.921  0.5988  1.5714  0.1733
 5090SOL    HW216170   1.119   5.843   4.063 -1.2377 -0.8048 -0.2121
 5091SOL     OW16171   3.738   1.374   0.654  0.3811 -0.2419  0.3155
 5091SOL    HW116172   3.703   1.280   0.647 -0.8831  0.2093  0.3713
 5091SOL    HW216173   3.715   1.412   0.743 -2.3791  1.3532 -0.9629
 5092SOL     OW16174   5.537   1.649   2.391 -0.4127 -0.7079  0.1754
 5092SOL    HW116175   5.453   1.697   2.417 -1.1996 -2.4192  0.9178
 5092SOL    HW216176   5.585   1.618   2.473  0.3805 -0.6844 -0.2720
 5093SOL     OW16177   1.934   4.880   3.550  0.5346 -0.0265  0.2455
 5093SOL    HW116178   1.956   4.946   3.478  1.0806  1.2170  1.5150
 5093SOL    HW216179   2.017   4.857   3.600 -0.1317  0.5793  1.6647
 5094SOL     OW16180   5.840   3.127   2.104  0.1405 -0.0883 -0.6353
 5094SOL    HW116181   5.776   3.082   2.167 -0.0868 -1.2140 -1.6543
 5094SOL    HW216182   5.893   3.058   2.055  2.0672  0.8118  0.0634
 5095SOL     OW16183   6.633   3.059   4.509  0.3850  0.0284 -0.0907
 5095SOL    HW116184   6.582   3.059   4.595  0.2328 -1.3142 -0.1509
 5095SOL    HW216185   6.582   3.110   4.440 -0.0427  0.1542  0.3134
 5096SOL     OW16186   6.282   4.671   0.820  0.0237 -0.3218  0.0648
 5096SOL    HW116187   6.246   4.643   0.909  0.3592 -1.5874 -0.1775
 5096SOL    HW216188   6.370   4.716   0.832  0.1194 -0.5914  0.3554
 5097SOL     OW16189   4.114   1.978   2.289 -0.0203 -0.4048 -0.1290
 5097SOL    HW116190   4.191   2.023   2.246  1.3742 -0.7882  1.8310
 5097SOL    HW216191   4.042   2.045   2.306  0.5474  0.3122 -0.4701
 5098SOL     OW16192   4.194   2.254   4.060  0.6147 -0.3181  0.2684
 5098SOL    HW116193   4.252   2.336   4.050  0.6542 -0.5081 -1.3573
 5098SOL    HW216194   4.196   2.224   4.155  1.9149  0.6159  0.5741
 5099SOL     OW16195   0.097   3.391   5.904 -0.0741  0.4074 -0.2269
 5099SOL    HW116196   0.080   3.309   5.959  0.1028 -0.0349 -0.8247
 5099SOL    HW216197   0.195   3.406   5.894 -0.0462  1.8694  1.5910
 5100SOL     OW16198   6.513   5.259   4.693  0.4913 -0.3350  0.6824
 5100SOL    HW116199   6.605   5.222   4.679  0.2314 -1.2311  1.2267
 5100SOL    HW216200   6.454   5.232   4.617  0.7241  0.4277  0.2218
 5101SOL     OW16201   1.608   3.576   5.043  0.3013  0.4027  0.6105
 5101SOL    HW116202   1.575   3.482   5.036  0.7148  0.3401 -0.6490
 5101SOL    HW216203   1.706   3.576   5.059  0.2225  0.6297  1.1329
 5102SOL     OW16204   2.752   4.419   1.031 -0.1191 -0.0466 -0.4152
 5102SOL    HW116205   2.782   4.394   1.123 -1.2875 -0.4354 -0.1268
 5102SOL    HW216206   2.779   4.347   0.967  0.9241  0.3454 -0.4375
 5103SOL     OW16207   0.630   0.152   6.342 -0.6610 -0.1856 -0.0503
 5103SOL    HW116208   0.565   0.076   6.332  1.0247 -1.6598 -0.1478
 5103SOL    HW216209   0.642   0.174   6.438 -1.7936  0.5607 -0.0625
 5104SOL     OW16210   3.228   4.314   6.396  0.1530  0.8064  0.5756
 5104SOL    HW116211   3.272   4.376   6.330  2.4226 -2.7287 -1.5334
 5104SOL    HW216212   3.280   4.315   6.481  2.0799 -0.3101 -0.5046
 5105SOL     OW16213   4.953   3.663   2.048 -0.3782 -0.3248  0.4184
 5105SOL    HW116214   5.021   3.716   1.997 -0.2135 -2.6320 -1.9972
 5105SOL    HW216215   4.875   3.643   1.988 -0.4775 -2.6268  1.2200
 5106SOL     OW16216   3.396   5.202   1.389  0.2076 -0.2961 -0.4897
 5106SOL    HW116217   3.484   5.182   1.432 -1.0323 -2.8128  1.1092
 5106SOL    HW216218   3.371   5.127   1.328 -1.7881 -0.7440  0.7976
 5107SOL     OW16219   6.704   6.166   0.942 -0.5776 -0.3762  0.0178
 5107SOL    HW116220   6.696   6.266   0.947  1.4724 -0.1372 -0.5309
 5107SOL    HW216221   6.632   6.124   0.997  0.1201  1.4439  2.5096
 5108SOL     OW16222   3.962   3.101   3.815 -0.2867 -0.5991  0.2277
 5108SOL    HW116223   3.931   3.033   3.882 -2.2946 -0.4476 -0.4939
 5108SOL    HW216224   3.974   3.057   3.726 -0.4697 -0.2260  0.0195
 5109SOL     OW16225   1.353   3.498   3.471  0.9679  0.3915 -0.2170
 5109SOL    HW116226   1.336   3.578   3.414 -2.3871  0.1665  0.2417
 5109SOL    HW216227   1.364   3.526   3.566  0.0045  0.3562 -0.0868
 5110SOL     OW16228   0.683   1.890   6.404 -0.2666  0.4320  0.0664
 5110SOL    HW116229   0.657   1.971   6.351 -1.6994  0.5349  0.8723
 5110SOL    HW216230   0.733   1.918   6.486  2.5753  0.2341 -1.4809
 5111SOL     OW16231   0.609   0.340   2.097 -0.1372  0.3906 -0.1114
 5111SOL    HW116232   0.641   0.404   2.027 -1.3034  0.4012 -0.6608
 5111SOL    HW216233   0.687   0.291   2.136  0.5144  0.2182 -1.5872
 5112SOL     OW16234   0.959   3.268   6.534 -0.3766  0.7126  0.4243
 5112SOL    HW116235   0.938   3.290   6.439  0.3646  0.5380  0.2174
 5112SOL    HW216236   0.937   3.173   6.553  0.4754  0.4463  0.1247
 5113SOL     OW16237   1.606   4.440   2.007 -0.1457 -0.2724  0.5529
 5113SOL    HW116238   1.564   4.504   2.071 -2.9459 -2.3065  0.9366
 5113SOL    HW216239   1.573   4.458   1.914 -1.1874 -1.2792  0.7074
 5114SOL     OW16240   1.091   0.789   4.862  0.6419  0.2323 -0.3449
 5114SOL    HW116241   1.109   0.727   4.939 -0.9209  0.6668  0.3974
 5114SOL    HW216242   0.996   0.779   4.833  1.1866  0.1445 -2.1886
 5115SOL     OW16243   6.132   6.221   3.622  0.2679  0.1621  0.1654
 5115SOL    HW116244   6.166   6.155   3.555  0.2854  0.2493  0.0879
 5115SOL    HW216245   6.042   6.253   3.593  0.2846  0.2152  0.1735
 5116SOL     OW16246   2.254   6.668   3.476  0.4287  0.7074  0.0248
 5116SOL    HW116247   2.255   6.590   3.414  1.0946 -0.5550  1.5680
 5116SOL    HW216248   2.171   6.722   3.460  0.9171  0.8732 -2.4359
 5117SOL     OW16249   4.419   3.258   6.113 -0.1550 -0.0125  0.3941
 5117SOL    HW116250   4.374   3.330   6.167 -0.0215 -1.9187  3.2639
 5117SOL    HW216251   4.515   3.250   6.142  0.6803  0.5839 -2.0305
 5118SOL     OW16252   0.477   4.331   2.609  0.0864 -0.0269  0.4804
 5118SOL    HW116253   0.512   4.417   2.646  0.6820 -1.2231  3.0051
 5118SOL    HW216254   0.541   4.296   2.541  0.3623  1.0225  0.1828
 5119SOL     OW16255   6.399   5.806   6.056 -0.1595  0.8759 -0.2466
 5119SOL    HW116256   6.449   5.880   6.100 -1.0108  1.2478  0.1127
 5119SOL    HW216257   6.386   5.731   6.122 -0.4117  0.9390 -0.2259
 5120SOL     OW16258   6.417   4.565   3.437  0.1549 -0.0221 -0.3738
 5120SOL    HW116259   6.489   4.635   3.444  1.3778 -1.0852 -1.6635
 5120SOL    HW216260   6.389   4.556   3.342 -0.3338 -0.9541 -0.1506
 5121SOL     OW16261   2.786   0.691   2.929  0.3483  0.2381  1.2624
 5121SOL    HW116262   2.826   0.636   3.004  1.4083  1.7170  1.8392
 5121SOL    HW216263   2.733   0.766   2.968  0.7211  0.8907  0.5227
 5122SOL     OW16264   2.997   5.375   2.688  0.1588 -0.0715  0.2721
 5122SOL    HW116265   3.078   5.382   2.746 -1.0152 -0.6909  2.0771
 5122SOL    HW216266   2.918   5.348   2.744 -0.8146 -1.8547 -1.7944
 5123SOL     OW16267   6.574   0.271   2.835 -0.0663  0.1477  0.4984
 5123SOL    HW116268   6.489   0.226   2.805 -0.2490 -0.6508  2.1104
 5123SOL    HW216269   6.598   0.239   2.927  2.1960  0.0862 -0.0667
 5124SOL     OW16270   6.818   1.409   4.262  0.3428 -0.1335 -0.1954
 5124SOL    HW116271   6.881   1.360   4.322  0.2764  0.6444  0.5404
 5124SOL    HW216272   6.787   1.493   4.308  1.9997  1.6807 -2.1409
 5125SOL     OW16273   5.144   3.939   5.399 -0.1093 -0.1562 -0.2717
 5125SOL    HW116274   5.206   3.888   5.339  0.1689  1.2481 -1.2114
 5125SOL    HW216275   5.094   3.874   5.457  1.6907 -1.3754  0.0048
 5126SOL     OW16276   3.049   5.116   3.013  0.2969  0.3240  0.2796
 5126SOL    HW116277   2.992   5.069   3.080  1.5176 -1.5238  0.0912
 5126SOL    HW216278   3.144   5.119   3.045  0.7970 -0.0650 -1.0615
 5127SOL     OW16279   3.127   1.883   2.689  0.0067  0.5259 -0.0302
 5127SOL    HW116280   3.083   1.803   2.647  1.6301  0.0669 -0.9275
 5127SOL    HW216281   3.084   1.966   2.654 -0.5690  0.0880 -0.3987
 5128SOL     OW16282   0.230   5.529   2.862  0.2804  0.1670 -0.2443
 5128SOL    HW116283   0.319   5.564   2.834  0.6180  1.2353  1.9297
 5128SOL    HW216284   0.243   5.443   2.912 -0.0751 -0.4183 -1.1262
 5129SOL     OW16285   0.236   4.733   4.542 -0.5631  0.1341  0.6932
 5129SOL    HW116286   0.257   4.664   4.473  3.0065  0.6487  1.1101
 5129SOL    HW216287   0.209   4.688   4.627 -0.3226 -0.6612  0.3537
 5130SOL     OW16288   1.238   5.763   6.395  0.1009 -0.4883  0.0474
 5130SOL    HW116289   1.173   5.735   6.323  0.7466 -2.3631  0.1501
 5130SOL    HW216290   1.265   5.683   6.448  1.7957  0.4260  0.6076
 5131SOL     OW16291   3.523   6.340   0.792 -0.0668  0.1739  0.5355
 5131SOL    HW116292   3.560   6.355   0.700  0.6955  0.8867  0.9472
 5131SOL    HW216293   3.520   6.427   0.841  0.2489 -0.3210  1.4469
 5132SOL     OW16294   3.407   2.937   6.419 -0.0341  0.1442 -0.2963
 5132SOL    HW116295   3.353   2.935   6.503 -0.1667 -1.2176 -0.3860
 5132SOL    HW216296   3.346   2.939   6.340  0.0418 -0.8666 -0.3883
 5133SOL     OW16297   3.180   5.580   0.109 -0.3882 -0.0609  0.0708
 5133SOL    HW116298   3.236   5.512   0.157  0.4269 -0.8345 -1.8966
 5133SOL    HW216299   3.084   5.566   0.133  0.0342  0.0304  1.9804
 5134SOL     OW16300   1.739   5.880   3.359  0.2508  0.1236  0.0361
 5134SOL    HW116301   1.725   5.782   3.363 -0.9743  0.3038  0.5158
 5134SOL    HW216302   1.786   5.904   3.273 -0.5807 -0.7432 -0.6698
 5135SOL     OW16303   2.741   4.715   2.228 -0.0853 -0.1408 -0.0300
 5135SOL    HW116304   2.767   4.661   2.148  3.2013  0.5053  0.4609
 5135SOL    HW216305   2.765   4.811   2.213 -0.0912  0.1186  1.4491
 5136SOL     OW16306   3.435   6.450   1.542  0.6306 -0.1427  0.7486
 5136SOL    HW116307   3.482   6.510   1.607 -1.6688 -0.1777  2.5508
 5136SOL    HW216308   3.427   6.358   1.581  0.7328 -0.6244 -0.3440
 5137SOL     OW16309   4.589   2.268   6.264 -0.4157  0.6584  0.0798
 5137SOL    HW116310   4.594   2.211   6.346 -0.6950  1.9210  1.0175
 5137SOL    HW216311   4.494   2.269   6.231 -0.4649  0.7800  0.2210
 5138SOL     OW16312   6.857   1.111   4.887  0.0473 -0.4580  0.8321
 5138SOL    HW116313   6.925   1.038   4.876  0.3113 -0.2002  0.7089
 5138SOL    HW216314   6.766   1.072   4.891  0.1811 -0.7893  0.6797
 5139SOL     OW16315   1.117   6.086   4.288  0.1143  0.5479  0.3798
 5139SOL    HW116316   1.129   6.143   4.206 -1.7128 -0.8356 -0.9174
 5139SOL    HW216317   1.195   6.024   4.297  0.2473  0.5838 -0.4304
 5140SOL     OW16318   2.948   2.343   5.312 -0.1555  0.2380  0.3183
 5140SOL    HW116319   3.025   2.301   5.265  0.3443 -0.0606  1.3786
 5140SOL    HW216320   2.981   2.421   5.365 -0.8051  0.9293 -0.2643
 5141SOL     OW16321   4.099   1.554   0.373 -0.1947  0.0311  0.0378
 5141SOL    HW116322   4.112   1.520   0.280 -1.5265  0.4623 -0.3325
 5141SOL    HW216323   4.003   1.542   0.400  0.1889 -0.1773  1.3977
 5142SOL     OW16324   2.234   1.754   4.459  0.1931  0.7570  0.0625
 5142SOL    HW116325   2.190   1.824   4.515 -0.5454  0.1667  0.2412
 5142SOL    HW216326   2.332   1.750   4.479  0.0373  0.9553  0.8777
 5143SOL     OW16327   6.126   5.475   2.820  0.3979  0.3418  0.1993
 5143SOL    HW116328   6.196   5.544   2.839 -0.8514  1.8342 -0.4304
 5143SOL    HW216329   6.078   5.453   2.904  0.5036  0.5763  0.3232
 5144SOL     OW16330   0.156   2.254   6.463 -0.8065 -0.3639  0.0805
 5144SOL    HW116331   0.116   2.214   6.380  0.2586  0.9246 -1.1097
 5144SOL    HW216332   0.122   2.347   6.474  1.3840  0.5690 -0.6662
 5145SOL     OW16333   6.007   2.202   5.754  0.0008 -0.1617  0.2055
 5145SOL    HW116334   5.923   2.177   5.801 -0.1953 -1.0047 -0.5589
 5145SOL    HW216335   5.998   2.179   5.656  1.0326 -0.0675  0.0803
 5146SOL     OW16336   4.604   6.284   5.767 -0.3755  0.1642  0.8334
 5146SOL    HW116337   4.529   6.314   5.708  0.9006  1.8679 -0.0100
 5146SOL    HW216338   4.610   6.184   5.765 -1.5281  0.0885 -0.4509
 5147SOL     OW16339   1.666   4.326   5.128 -0.2101  0.1239 -0.5307
 5147SOL    HW116340   1.616   4.334   5.042  1.0942 -1.0060 -1.4254
 5147SOL    HW216341   1.633   4.246   5.178 -1.7002  1.3470  0.5889
 5148SOL     OW16342   5.061   0.523   4.108  0.3698  0.7827 -0.0367
 5148SOL    HW116343   5.061   0.612   4.153  0.8986  0.2271  1.1019
 5148SOL    HW216344   5.154   0.486   4.106  0.4350  0.9589 -1.9803
 5149SOL     OW16345   2.104   3.424   5.665 -0.5009 -0.4133  0.0656
 5149SOL    HW116346   2.013   3.450   5.697  0.2524  2.3751  0.2518
 5149SOL    HW216347   2.128   3.479   5.584  1.1452 -0.8137  0.2416
 5150SOL     OW16348   6.770   4.047   1.625  0.2813  0.2379 -0.1019
 5150SOL    HW116349   6.860   4.014   1.653  0.1768  0.4555  0.4871
 5150SOL    HW216350   6.743   4.001   1.540  2.4332  2.6405 -2.2418
 5151SOL     OW16351   2.722   5.664   2.315 -0.0339 -0.1057  0.5076
 5151SOL    HW116352   2.663   5.597   2.269 -0.9805  0.0235  1.5072
 5151SOL    HW216353   2.736   5.636   2.410  1.6285 -0.1853  0.2670
 5152SOL     OW16354   3.658   3.137   2.049 -0.2694  0.1624  0.7570
 5152SOL    HW116355   3.669   3.198   1.970  2.0269 -2.0200 -0.7212
 5152SOL    HW216356   3.735   3.074   2.055 -1.3076 -1.0293  3.6913
 5153SOL     OW16357   1.372   1.594   3.890 -0.5083 -0.4959 -0.0871
 5153SOL    HW116358   1.417   1.513   3.928  1.7075  0.9961  0.6550
 5153SOL    HW216359   1.335   1.650   3.964 -0.1036  0.2269 -0.4172
 5154SOL     OW16360   3.116   6.901   3.637  0.3876 -0.6007 -0.1554
 5154SOL    HW116361   3.178   6.973   3.606  0.5669 -0.9031 -0.5110
 5154SOL    HW216362   3.021   6.930   3.624  0.4583 -0.3727 -0.1614
 5155SOL     OW16363   0.353   3.080   0.665  0.0192  0.0853 -0.3702
 5155SOL    HW116364   0.408   3.108   0.587 -0.1617  1.8738  0.1027
 5155SOL    HW216365   0.297   3.157   0.697 -1.1693 -1.0713  0.4866
 5156SOL     OW16366   0.129   2.007   0.679 -0.4332  0.0189  0.3922
 5156SOL    HW116367   0.059   1.963   0.623 -0.7235  0.3636  0.4785
 5156SOL    HW216368   0.108   1.993   0.776  1.2668 -2.5099  0.4831
 5157SOL     OW16369   6.983   1.366   2.602  0.3107 -0.4942  0.0472
 5157SOL    HW116370   7.061   1.339   2.657 -0.4156 -2.3535  0.2197
 5157SOL    HW216371   6.898   1.337   2.646 -0.3147 -1.7155 -1.8187
 5158SOL     OW16372   0.087   1.188   6.993  0.2026  0.0419  0.0754
 5158SOL    HW116373   0.047   1.262   6.939  0.6982  0.7902  0.7110
 5158SOL    HW216374   0.148   1.227   7.062  0.9771 -1.0032 -0.0025
 5159SOL     OW16375   5.500   2.948   2.383 -0.9271 -0.7817  0.0698
 5159SOL    HW116376   5.482   2.938   2.286 -1.4488  0.9589 -0.0390
 5159SOL    HW216377   5.515   3.044   2.405 -0.4294 -1.1880  1.6515
 5160SOL     OW16378   1.959   4.208   4.063  0.3473 -0.1524  0.2101
 5160SOL    HW116379   1.969   4.132   3.999 -0.0570  0.3238 -0.4155
 5160SOL    HW216380   2.032   4.275   4.047  0.7148 -0.4022  0.7739
 5161SOL     OW16381   1.362   1.956   1.760  0.2093  0.3799 -0.1774
 5161SOL    HW116382   1.277   1.904   1.762  1.3919 -1.6331  1.2646
 5161SOL    HW216383   1.343   2.050   1.788 -1.5170 -0.0462  0.2388
 5162SOL     OW16384   3.129   4.884   1.469  0.1027  0.1726 -0.3565
 5162SOL    HW116385   3.142   4.928   1.380  1.7400 -0.6781 -0.5801
 5162SOL    HW216386   3.036   4.847   1.475  0.4214 -1.1517 -2.3970
 5163SOL     OW16387   1.245   3.654   5.628 -1.1056  0.1425 -0.2848
 5163SOL    HW116388   1.230   3.599   5.710 -0.6090 -1.4713 -1.2296
 5163SOL    HW216389   1.308   3.606   5.566  1.7889  3.0700  0.0882
 5164SOL     OW16390   3.732   4.938   6.600  0.1595 -0.2693  0.6016
 5164SOL    HW116391   3.712   4.847   6.636  0.3798 -0.2889  0.6773
 5164SOL    HW216392   3.652   4.997   6.613 -0.1767 -0.5981  0.0649
 5165SOL     OW16393   1.343   1.943   4.840  0.2885  0.1617 -0.2846
 5165SOL    HW116394   1.442   1.936   4.826  0.1253  0.9242 -2.1543
 5165SOL    HW216395   1.324   2.009   4.912  1.1399  0.9573 -0.7642
 5166SOL     OW16396   2.958   2.290   5.780 -0.1962  0.5901 -0.0695
 5166SOL    HW116397   3.009   2.220   5.732 -1.0378 -0.0111 -0.1154
 5166SOL    HW216398   2.943   2.369   5.720 -0.0230  0.4323 -0.3198
 5167SOL     OW16399   6.267   4.215   6.364 -0.1554 -0.4685  0.0249
 5167SOL    HW116400   6.284   4.142   6.298  2.2341 -0.6275  0.7152
 5167SOL    HW216401   6.316   4.298   6.337  0.0575 -0.2357  1.0647
 5168SOL     OW16402   1.621   4.778   3.222  0.5434 -0.1957  0.1704
 5168SOL    HW116403   1.590   4.785   3.316  1.6343 -0.4362  0.5651
 5168SOL    HW216404   1.691   4.707   3.215  0.0427 -0.5956 -0.9399
 5169SOL     OW16405   6.494   3.109   2.766  0.1625  0.2219  0.2577
 5169SOL    HW116406   6.398   3.086   2.781 -0.3948  1.2545 -1.5066
 5169SOL    HW216407   6.512   3.201   2.799  0.9458 -0.4813  1.9150
 5170SOL     OW16408   3.466   2.127   1.760 -0.2162  0.0227  0.7078
 5170SOL    HW116409   3.511   2.213   1.782 -1.0118  0.2832  1.3429
 5170SOL    HW216410   3.534   2.062   1.725  0.1817  1.3306 -1.0724
 5171SOL     OW16411   2.909   2.195   2.408  0.1178 -0.3091 -0.2205
 5171SOL    HW116412   2.818   2.237   2.408  0.4182  0.4142  1.1335
 5171SOL    HW216413   2.944   2.190   2.314 -0.8052  0.5292 -0.6234
 5172SOL     OW16414   1.115   6.171   3.675 -0.4034  0.1051  0.3291
 5172SOL    HW116415   1.137   6.267   3.691 -0.4365 -0.1566  2.1775
 5172SOL    HW216416   1.019   6.163   3.647 -0.5140  0.5859  0.5658
 5173SOL     OW16417   5.886   2.573   6.084 -0.5378  0.6410 -0.3613
 5173SOL    HW116418   5.810   2.629   6.053 -0.3706  1.3336  0.4329
 5173SOL    HW216419   5.894   2.581   6.184  1.6926  2.0566 -0.5736
 5174SOL     OW16420   1.648   6.630   3.826 -0.9669 -0.6620 -0.2974
 5174SOL    HW116421   1.594   6.632   3.910 -0.2263  2.3651  0.2150
 5174SOL    HW216422   1.744   6.648   3.847  0.1960 -4.5918 -1.3478
 5175SOL     OW16423   1.219   4.569   5.375  0.4265 -0.7807  0.1703
 5175SOL    HW116424   1.290   4.543   5.309  0.5245 -0.6247  0.2135
 5175SOL    HW216425   1.260   4.620   5.451  0.1606  0.0359 -0.2171
 5176SOL     OW16426   3.955   4.950   0.046 -0.0349  0.3537 -0.0656
 5176SOL    HW116427   4.042   4.965   0.094 -0.3687 -0.5640  0.8613
 5176SOL    HW216428   3.884   5.006   0.089 -0.0643  0.5226 -0.3352
 5177SOL     OW16429   3.695   4.134   4.021  0.3280  0.1876 -0.1767
 5177SOL    HW116430   3.601   4.164   4.006  0.2826  0.6518  0.9316
 5177SOL    HW216431   3.742   4.124   3.933 -1.0645 -1.0965 -0.8177
 5178SOL     OW16432   6.095   1.932   4.422 -0.0322  0.3317 -0.7493
 5178SOL    HW116433   6.131   1.911   4.513  3.0857  1.5380 -1.6122
 5178SOL    HW216434   6.056   1.848   4.382  0.5440 -0.7269  0.8193
 5179SOL     OW16435   5.669   1.538   2.602 -0.3290 -0.5176 -0.1648
 5179SOL    HW116436   5.699   1.588   2.683 -0.1725 -2.8774  1.3189
 5179SOL    HW216437   5.745   1.484   2.566 -0.3402  0.6313 -2.0522
 5180SOL     OW16438   3.130   6.283   2.742  0.3219  0.5210 -0.4966
 5180SOL    HW116439   3.067   6.280   2.665  2.5183 -2.0781 -2.3826
 5180SOL    HW216440   3.166   6.376   2.753 -2.0436  1.5529 -0.7357
 5181SOL     OW16441   1.926   1.476   6.302 -0.1218 -0.2718 -0.2068
 5181SOL    HW116442   1.903   1.530   6.221 -1.1963  0.7568  0.7414
 5181SOL    HW216443   2.020   1.496   6.330 -0.1664  0.3122 -0.4718
 5182SOL     OW16444   2.300   1.059   4.051 -0.2096  0.1009 -0.1005
 5182SOL    HW116445   2.265   1.107   4.132  1.2201 -0.7519  1.0822
 5182SOL    HW216446   2.273   0.963   4.055 -2.7771  0.6135 -2.2901
 5183SOL     OW16447   6.691   3.461   5.149 -0.2253  0.1432 -0.3583
 5183SOL    HW116448   6.734   3.438   5.061 -0.1008 -0.0256 -0.2559
 5183SOL    HW216449   6.759   3.503   5.209 -0.0408 -0.6534  0.0129
 5184SOL     OW16450   5.006   4.069   1.024 -0.2246  0.0960  0.4251
 5184SOL    HW116451   4.929   4.126   1.056 -0.8072 -0.2959 -0.2425
 5184SOL    HW216452   4.989   4.042   0.929  0.4259 -0.5502  0.4889
 5185SOL     OW16453   3.600   3.143   5.437 -0.8401  0.4380  0.2969
 5185SOL    HW116454   3.555   3.228   5.466 -0.4536  0.4638  0.8500
 5185SOL    HW216455   3.612   3.084   5.517  1.5376  1.1008  0.5147
 5186SOL     OW16456   6.526   4.518   2.202 -0.3305 -0.6052  0.1317
 5186SOL    HW116457   6.478   4.602   2.225  1.6719  0.4007  0.8767
 5186SOL    HW216458   6.550   4.519   2.105  0.8457  0.3562  0.4053
 5187SOL     OW16459   0.156   0.873   5.422 -0.2854 -0.1712 -0.5122
 5187SOL    HW116460   0.078   0.923   5.383 -0.5887 -0.7725 -0.6799
 5187SOL    HW216461   0.238   0.931   5.418 -0.7872  0.5992 -0.0220
 5188SOL     OW16462   0.782   5.814   4.704 -0.0796  0.0321  0.6153
 5188SOL    HW116463   0.741   5.876   4.638 -0.3100  1.0485  1.6719
 5188SOL    HW216464   0.734   5.726   4.701 -0.7558  0.4037  0.1543
 5189SOL     OW16465   2.090   3.580   4.432 -0.2149 -0.3670  0.0141
 5189SOL    HW116466   2.134   3.616   4.514  0.1281 -0.2319 -0.2305
 5189SOL    HW216467   2.093   3.480   4.433 -0.9744 -0.4005  0.5865
 5190SOL     OW16468   5.703   1.103   3.005  0.5142 -0.0225  0.3007
 5190SOL    HW116469   5.752   1.062   3.083  0.9784 -0.6141 -0.2927
 5190SOL    HW216470   5.612   1.063   2.999  0.5051 -0.0323  0.5011
 5191SOL     OW16471   2.436   3.655   0.165 -0.2127 -0.6705 -0.3569
 5191SOL    HW116472   2.438   3.660   0.265 -3.4229 -2.2770 -0.0591
 5191SOL    HW216473   2.486   3.574   0.135  1.7344  0.4316 -0.2052
 5192SOL     OW16474   2.438   5.937   0.926  0.6861 -0.1961  0.0632
 5192SOL    HW116475   2.515   5.902   0.980  0.0923 -0.2728  0.8753
 5192SOL    HW216476   2.421   6.033   0.951 -1.2505 -0.9742  1.9681
 5193SOL     OW16477   3.690   1.428   4.469 -0.2905  0.3304 -0.8919
 5193SOL    HW116478   3.628   1.386   4.403 -0.1227 -0.4600 -0.5531
 5193SOL    HW216479   3.636   1.470   4.543 -0.4605 -2.0560  0.4638
 5194SOL     OW16480   6.774   4.761   4.117  0.4056  0.1815  0.6411
 5194SOL    HW116481   6.697   4.760   4.054  0.7972  2.0624  0.0685
 5194SOL    HW216482   6.767   4.683   4.179 -0.0314 -1.7305 -1.6427
 5195SOL     OW16483   4.179   2.653   5.679  0.3316 -0.2010 -0.4133
 5195SOL    HW116484   4.249   2.584   5.662  0.9368  0.8553 -2.4578
 5195SOL    HW216485   4.221   2.738   5.710 -0.0864  0.2384 -1.0215
 5196SOL     OW16486   5.806   1.327   0.333 -0.0256 -1.0198  0.2056
 5196SOL    HW116487   5.795   1.279   0.246  0.2546  1.1929 -1.1037
 5196SOL    HW216488   5.876   1.281   0.387  0.0704 -2.2152 -0.8893
 5197SOL     OW16489   0.270   5.899   3.342 -0.0454  0.6497  0.6209
 5197SOL    HW116490   0.217   5.978   3.370  0.9988  1.8340 -0.6183
 5197SOL    HW216491   0.360   5.928   3.309  0.2437 -1.0025 -0.1918
 5198SOL     OW16492   5.595   3.598   0.852 -0.0112  0.3665 -0.0302
 5198SOL    HW116493   5.602   3.691   0.888 -0.4421  1.5503 -2.7548
 5198SOL    HW216494   5.499   3.569   0.855  0.1722 -0.1466  1.1341
 5199SOL     OW16495   1.054   1.853   1.374 -0.2843 -0.0366  0.2594
 5199SOL    HW116496   1.061   1.952   1.378  1.7593 -0.1070 -0.3406
 5199SOL    HW216497   1.038   1.825   1.279 -0.3824 -0.3130  0.3557
 5200SOL     OW16498   0.379   0.894   2.219 -0.3075 -0.1251 -0.2766
 5200SOL    HW116499   0.329   0.814   2.187  1.6611 -1.6821  0.3659
 5200SOL    HW216500   0.423   0.939   2.141  1.0402 -1.4689 -0.3427
 5201SOL     OW16501   2.909   2.931   6.824  0.0480  0.0848 -0.1397
 5201SOL    HW116502   3.009   2.933   6.822  0.0316  1.3663 -1.3713
 5201SOL    HW216503   2.875   2.877   6.746 -0.2229  0.1001 -0.0320
 5202SOL     OW16504   0.224   1.788   0.192  0.0900 -0.2119  0.3613
 5202SOL    HW116505   0.195   1.871   0.145 -0.0410 -0.3032  0.2794
 5202SOL    HW216506   0.323   1.776   0.182  0.1176 -0.0366  0.4224
 5203SOL     OW16507   0.476   4.693   6.303  0.1324 -0.7214  0.2830
 5203SOL    HW116508   0.451   4.596   6.300 -0.2163 -0.6100 -1.1325
 5203SOL    HW216509   0.393   4.749   6.309  0.1227 -0.4336 -1.8804
 5204SOL     OW16510   2.575   0.037   1.584 -0.3572  0.2459  0.3870
 5204SOL    HW116511   2.522   0.029   1.499  2.3527  0.3749 -1.4168
 5204SOL    HW216512   2.537   0.111   1.640 -2.8874 -0.5703 -0.1185
 5205SOL     OW16513   1.652   3.975   1.026 -0.1534  0.5066 -0.2623
 5205SOL    HW116514   1.636   3.881   1.055 -0.4593  0.3239 -1.0204
 5205SOL    HW216515   1.714   3.977   0.948  0.0634  0.9502 -0.0826
 5206SOL     OW16516   3.052   6.390   0.037  0.4375  0.0607  0.5208
 5206SOL    HW116517   3.039   6.381  -0.062  1.3130  0.5174  0.3572
 5206SOL    HW216518   3.025   6.305   0.082 -1.0842  0.2470  0.0128
 5207SOL     OW16519   2.621   6.512   2.809 -0.1276  0.0586  0.0315
 5207SOL    HW116520   2.685   6.438   2.826 -0.2426 -0.0201  0.1163
 5207SOL    HW216521   2.672   6.592   2.776  0.1469  0.3702  1.1893
 5208SOL     OW16522   4.999   1.245   2.094  0.2624 -0.0121 -0.3447
 5208SOL    HW116523   5.045   1.280   2.013 -1.1809  0.2437 -1.0860
 5208SOL    HW216524   4.947   1.162   2.071  0.4033 -0.3446  0.4771
 5209SOL     OW16525   3.604   2.727   1.327 -0.1808  0.1833 -0.1838
 5209SOL    HW116526   3.537   2.692   1.392  0.1473 -1.6836 -0.7681
 5209SOL    HW216527   3.620   2.658   1.256  2.6775  0.3322  0.1756
 5210SOL     OW16528   2.038   4.783   2.037 -0.0287 -0.2862 -0.5457
 5210SOL    HW116529   2.019   4.716   2.109 -1.3113  0.1737 -0.4452
 5210SOL    HW216530   1.957   4.839   2.021 -0.3467 -1.3947 -3.4382
 5211SOL     OW16531   3.873   5.313   3.305 -0.2756 -0.1394 -0.9558
 5211SOL    HW116532   3.835   5.283   3.217  0.2737 -1.2268 -0.8315
 5211SOL    HW216533   3.799   5.326   3.371 -0.7315  1.0444 -1.6583
 5212SOL     OW16534   4.450   6.585   4.793 -0.5232 -0.1422  0.1144
 5212SOL    HW116535   4.421   6.496   4.760 -1.3395  0.1085  0.1279
 5212SOL    HW216536   4.532   6.575   4.850 -0.4689 -0.8441 -0.0781
 5213SOL     OW16537   5.374   6.244   0.632  0.2166  0.4082  0.2100
 5213SOL    HW116538   5.419   6.200   0.555  1.4548 -1.7419  2.0291
 5213SOL    HW216539   5.279   6.211   0.639  0.6763 -0.8817  0.6593
 5214SOL     OW16540   4.987   5.563   5.659  0.5026 -0.1916  0.3824
 5214SOL    HW116541   5.050   5.573   5.582  0.6674 -0.1411  0.5235
 5214SOL    HW216542   4.902   5.521   5.627  0.2039  0.7033 -0.0109
 5215SOL     OW16543   2.562   5.088   3.540  0.3320 -0.5097 -0.3113
 5215SOL    HW116544   2.656   5.118   3.525  1.0023 -0.7585  2.7290
 5215SOL    HW216545   2.561   4.991   3.564 -0.8470 -0.7568 -1.2415
 5216SOL     OW16546   0.397   3.935   5.475  0.2573  0.0128  0.2493
 5216SOL    HW116547   0.320   3.873   5.491 -0.7760  0.6025 -1.9532
 5216SOL    HW216548   0.398   4.006   5.545 -1.3752  0.1216  0.1918
 5217SOL     OW16549   0.333   5.638   3.729  0.2853 -0.2450 -0.0684
 5217SOL    HW116550   0.410   5.591   3.687 -0.0761 -0.5869 -0.3530
 5217SOL    HW216551   0.353   5.736   3.736  0.1079 -0.0736 -1.6049
 5218SOL     OW16552   4.773   5.062   2.086  0.1732  0.1410  0.1139
 5218SOL    HW116553   4.733   4.990   2.029 -2.5184  0.8755  0.9455
 5218SOL    HW216554   4.816   5.021   2.166  0.0919 -0.6200 -0.2240
 5219SOL     OW16555   3.032   4.374   6.074  0.2618  0.0499 -1.1736
 5219SOL    HW116556   3.074   4.284   6.057 -0.0404 -0.5026  0.8032
 5219SOL    HW216557   2.934   4.363   6.086  0.6222 -0.0424  2.9443
 5220SOL     OW16558   5.407   4.783   0.364  0.0082 -0.2702  0.7775
 5220SOL    HW116559   5.463   4.700   0.365 -0.5587 -0.6608  0.6304
 5220SOL    HW216560   5.434   4.840   0.287 -2.2367 -2.1891 -1.6208
 5221SOL     OW16561   0.401   1.046   5.108  0.5416 -0.0986 -0.3283
 5221SOL    HW116562   0.373   1.042   5.204 -0.8086 -0.4029 -0.7157
 5221SOL    HW216563   0.363   0.968   5.059 -1.5330  1.6786 -1.7678
 5222SOL     OW16564   0.670   0.092   1.260  0.4350 -0.3798 -0.2247
 5222SOL    HW116565   0.593   0.131   1.210 -0.3792 -0.8253  0.6377
 5222SOL    HW216566   0.752   0.146   1.243 -0.5132  1.3416  0.4526
 5223SOL     OW16567   0.660   1.968   3.479 -0.0496  0.0088 -0.1071
 5223SOL    HW116568   0.680   1.876   3.446 -0.2964 -0.3921  0.8355
 5223SOL    HW216569   0.567   1.971   3.517 -0.5969  1.0136 -1.4199
 5224SOL     OW16570   3.739   0.138   5.622 -0.5526 -0.3546  0.2977
 5224SOL    HW116571   3.822   0.110   5.573 -0.4171  1.1543 -0.4093
 5224SOL    HW216572   3.753   0.129   5.720  0.4993 -0.0037  0.1909
 5225SOL     OW16573   0.591   2.904   6.047 -0.0068 -0.1328  0.0791
 5225SOL    HW116574   0.606   2.808   6.070 -0.5300 -0.4083 -0.6716
 5225SOL    HW216575   0.622   2.962   6.122  2.0441 -0.7973 -0.1818
 5226SOL     OW16576   5.253   6.622   0.314  0.2428  0.5796 -0.0531
 5226SOL    HW116577   5.164   6.626   0.269 -0.4784  2.6401  1.3795
 5226SOL    HW216578   5.248   6.562   0.394  0.4836 -0.2217 -0.6358
 5227SOL     OW16579   3.975   1.207   1.380  0.1312  0.0610 -0.8700
 5227SOL    HW116580   3.998   1.182   1.286 -1.3318 -1.2107 -0.9386
 5227SOL    HW216581   4.000   1.132   1.442 -0.8191  0.0143 -0.5300
 5228SOL     OW16582   2.971   1.156   1.772 -0.6202  0.2259  0.3605
 5228SOL    HW116583   2.915   1.116   1.700 -0.7654 -0.2180  0.7105
 5228SOL    HW216584   2.921   1.230   1.817 -1.0012 -0.2893  0.7921
 5229SOL     OW16585   4.277   4.679   6.325  0.3540  0.0819  0.1858
 5229SOL    HW116586   4.264   4.650   6.230  0.7935  1.0606 -0.1884
 5229SOL    HW216587   4.190   4.713   6.362  0.1140 -0.5694  0.2459
 5230SOL     OW16588   2.961   2.153   3.225  0.3004 -0.0567  0.0553
 5230SOL    HW116589   2.963   2.186   3.319  1.9484  1.3005 -0.4055
 5230SOL    HW216590   2.866   2.146   3.194 -0.2157  1.4433  1.1653
 5231SOL     OW16591   1.516   1.717   3.548 -0.3261  0.4863 -0.5283
 5231SOL    HW116592   1.439   1.660   3.576 -0.9076  1.6757  0.4031
 5231SOL    HW216593   1.599   1.686   3.594 -1.0718  1.7556  1.8459
 5232SOL     OW16594   1.073   1.144   0.739 -0.0266  0.3376  0.0768
 5232SOL    HW116595   1.133   1.164   0.661  0.6238 -0.3027  0.4001
 5232SOL    HW216596   1.128   1.128   0.821 -0.6704  0.3195  0.5120
 5233SOL     OW16597   5.140   5.835   3.448 -0.1963 -0.0736  0.0752
 5233SOL    HW116598   5.109   5.917   3.496 -0.7581 -1.3441  2.0438
 5233SOL    HW216599   5.061   5.779   3.423 -0.0441  1.1145 -3.6765
 5234SOL     OW16600   0.275   0.180   1.397  0.3354 -0.5879  0.0277
 5234SOL    HW116601   0.243   0.193   1.490  1.0538  1.2922  0.0499
 5234SOL    HW216602   0.375   0.181   1.395  0.3735 -1.9794 -0.6140
 5235SOL     OW16603   3.383   0.599   6.168 -0.6366 -0.2398 -0.2162
 5235SOL    HW116604   3.442   0.646   6.234  0.0070 -0.7856 -0.3849
 5235SOL    HW216605   3.429   0.595   6.079 -2.4989  2.7079 -1.4593
 5236SOL     OW16606   4.726   1.728   6.231 -0.0157  0.8299 -0.3780
 5236SOL    HW116607   4.750   1.642   6.277 -1.9773 -0.3893 -1.5193
 5236SOL    HW216608   4.806   1.788   6.231  1.3510 -0.8747  0.6599
 5237SOL     OW16609   4.156   1.765   3.752  0.7943  0.3971 -0.1591
 5237SOL    HW116610   4.101   1.843   3.781 -0.3224 -0.4906  0.1464
 5237SOL    HW216611   4.250   1.778   3.785  0.1016  0.5001  1.9578
 5238SOL     OW16612   5.802   2.718   5.786  0.1959  0.5523  0.1319
 5238SOL    HW116613   5.788   2.662   5.704  0.1685 -1.8132  1.6896
 5238SOL    HW216614   5.892   2.761   5.782  0.4601 -0.0628 -0.8270
 5239SOL     OW16615   4.153   3.966   1.237  0.2212  0.1830  0.3544
 5239SOL    HW116616   4.180   3.896   1.303  0.0794 -0.3105 -0.1057
 5239SOL    HW216617   4.214   3.961   1.157 -0.8511 -0.5555 -0.4367
 5240SOL     OW16618   4.851   6.293   3.526  0.0416  0.4612 -0.0183
 5240SOL    HW116619   4.917   6.222   3.548  0.7540  1.0988 -0.0668
 5240SOL    HW216620   4.898   6.371   3.484 -0.8003  0.7447 -0.4656
 5241SOL     OW16621   6.752   5.293   5.770 -0.4076  0.0712  0.5579
 5241SOL    HW116622   6.847   5.290   5.801 -1.2564  0.7253  3.5103
 5241SOL    HW216623   6.736   5.379   5.721  0.1789  0.6542  1.3644
 5242SOL     OW16624   1.055   5.169   3.302  0.1243 -0.0544  0.3320
 5242SOL    HW116625   1.053   5.138   3.397  0.4362  1.4936  0.8696
 5242SOL    HW216626   1.082   5.093   3.243 -1.0005 -1.3009  1.3520
 5243SOL     OW16627   4.725   1.985   0.534  0.1587 -0.1344 -0.1519
 5243SOL    HW116628   4.691   2.058   0.595  1.7712 -1.6091  2.7221
 5243SOL    HW216629   4.655   1.915   0.524  0.8708 -1.3784  2.7049
 5244SOL     OW16630   3.601   1.958   6.415  0.1644  0.3641  0.0989
 5244SOL    HW116631   3.606   2.052   6.450 -0.9724  0.5616 -0.2208
 5244SOL    HW216632   3.513   1.918   6.441  1.1856 -1.1145  1.4257
 5245SOL     OW16633   5.447   0.991   5.740 -0.3548  0.3030 -0.2839
 5245SOL    HW116634   5.458   1.021   5.645 -0.9265  0.7999 -0.1993
 5245SOL    HW216635   5.357   0.950   5.752  0.8491 -2.7430 -0.7184
 5246SOL     OW16636   2.622   0.244   5.462  0.0268  0.0638 -0.0036
 5246SOL    HW116637   2.721   0.244   5.448  0.2169  0.8197  1.1487
 5246SOL    HW216638   2.583   0.163   5.420  1.1211 -0.2009 -0.5655
 5247SOL     OW16639   4.992   3.214   0.765 -0.3527  0.1161 -0.2034
 5247SOL    HW116640   4.997   3.221   0.864 -0.0537  0.6382 -0.2579
 5247SOL    HW216641   5.078   3.245   0.724 -0.9324  1.1272 -0.6867
 5248SOL     OW16642   4.334   2.410   2.958 -0.1925  0.1128  0.4121
 5248SOL    HW116643   4.283   2.391   3.042 -1.7079  3.5890  0.4260
 5248SOL    HW216644   4.291   2.361   2.882 -1.8557  0.7078  0.9162
 5249SOL     OW16645   5.866   4.453   2.287  0.2086  0.4269  0.2142
 5249SOL    HW116646   5.830   4.392   2.217 -1.0977  0.4679  0.8152
 5249SOL    HW216647   5.954   4.489   2.258  0.3461 -0.6478 -0.7670
 5250SOL     OW16648   2.329   3.807   6.581 -0.5277 -0.3896 -1.1202
 5250SOL    HW116649   2.395   3.879   6.604 -1.6398  0.8095 -1.6093
 5250SOL    HW216650   2.305   3.756   6.664 -2.0257  1.7803 -0.1198
 5251SOL     OW16651   3.131   1.812   3.476  0.0646 -0.5154  0.1014
 5251SOL    HW116652   3.057   1.797   3.542  1.8067  2.8340  3.1648
 5251SOL    HW216653   3.171   1.724   3.451 -2.7126 -2.1584  1.0246
 5252SOL     OW16654   3.570   5.081   4.956 -0.2281  0.6457  0.3272
 5252SOL    HW116655   3.612   5.061   4.867  0.6727  1.3950  0.5720
 5252SOL    HW216656   3.533   4.997   4.995  0.7736  0.0171 -0.0456
 5253SOL     OW16657   6.846   1.557   1.623  0.0808 -0.0799  0.3589
 5253SOL    HW116658   6.768   1.576   1.563  0.5202  0.3962 -0.0789
 5253SOL    HW216659   6.814   1.521   1.710 -0.5915 -0.5075 -0.0556
 5254SOL     OW16660   5.315   5.401   5.288  0.1386  0.3659  0.2024
 5254SOL    HW116661   5.366   5.429   5.207 -0.2102  1.3576  0.3156
 5254SOL    HW216662   5.363   5.326   5.334  0.1113 -0.5103 -1.1549
 5255SOL     OW16663   5.451   3.673   1.519 -0.3538 -0.0885  0.3689
 5255SOL    HW116664   5.441   3.765   1.480  2.8113  0.5806  0.9059
 5255SOL    HW216665   5.429   3.605   1.449  1.3102  1.1013 -1.4079
 5256SOL     OW16666   5.695   5.606   3.042  0.1185 -0.4130 -0.0316
 5256SOL    HW116667   5.636   5.685   3.027 -0.1591 -0.4141  0.9544
 5256SOL    HW216668   5.658   5.551   3.117 -0.6794 -2.4564 -1.8435
 5257SOL     OW16669   1.260   3.264   3.395 -0.3284  0.5052 -0.2986
 5257SOL    HW116670   1.295   3.358   3.394  1.0828  0.0009 -0.3454
 5257SOL    HW216671   1.180   3.259   3.454 -0.3934  1.7287 -0.2590
 5258SOL     OW16672   3.195   0.170   6.242  0.3922 -0.6688 -0.2210
 5258SOL    HW116673   3.166   0.074   6.250  1.3959 -1.0148 -0.5789
 5258SOL    HW216674   3.149   0.213   6.165  1.1574 -1.3529 -1.0885
 5259SOL     OW16675   5.194   2.339   5.527 -0.2393  0.3210  0.2194
 5259SOL    HW116676   5.121   2.407   5.527  0.3763  0.9964  1.0948
 5259SOL    HW216677   5.262   2.363   5.595  0.6659 -0.4592 -0.3856
 5260SOL     OW16678   4.391   0.989   3.268  0.5205  0.0283 -0.1470
 5260SOL    HW116679   4.336   1.067   3.236 -0.9244 -2.2148 -3.8784
 5260SOL    HW216680   4.344   0.945   3.345 -1.8021 -0.3484 -1.6451
 5261SOL     OW16681   1.418   0.652   1.192 -0.7649 -0.7193  0.3517
 5261SOL    HW116682   1.495   0.602   1.152 -1.2815 -0.2248 -1.3535
 5261SOL    HW216683   1.364   0.589   1.248 -0.1297 -1.5236  0.0902
 5262SOL     OW16684   6.744   6.414   3.015  0.7217  0.2529  0.7660
 5262SOL    HW116685   6.725   6.315   3.012  1.3811  0.1369  0.3523
 5262SOL    HW216686   6.702   6.458   2.936  2.7331 -0.1177 -0.5775
 5263SOL     OW16687   0.727   2.216   6.731 -0.5673  0.2598 -0.2304
 5263SOL    HW116688   0.649   2.166   6.769 -0.8416 -0.6868 -1.9295
 5263SOL    HW216689   0.777   2.156   6.669 -0.3119  1.7969 -1.5641
 5264SOL     OW16690   4.527   4.784   6.212  0.2620 -0.8252 -0.1564
 5264SOL    HW116691   4.466   4.734   6.273 -1.9962  0.1773 -1.4466
 5264SOL    HW216692   4.567   4.720   6.146  0.6554 -1.5103  0.7309
 5265SOL     OW16693   5.705   1.051   2.313 -0.4345 -0.0737  0.3169
 5265SOL    HW116694   5.698   0.953   2.333 -0.3696 -0.4949 -1.5415
 5265SOL    HW216695   5.660   1.103   2.385 -1.8300 -1.5518  0.5605
 5266SOL     OW16696   0.019   2.238   1.734 -0.3099  0.0824 -0.0376
 5266SOL    HW116697  -0.021   2.251   1.824 -1.3671 -0.8131 -0.3556
 5266SOL    HW216698   0.045   2.142   1.722  1.1482  0.4732 -0.1681
 5267SOL     OW16699   3.209   2.934   4.709  0.0532 -0.2646  0.7875
 5267SOL    HW116700   3.221   2.889   4.798 -2.0188 -0.2587  1.1066
 5267SOL    HW216701   3.158   3.019   4.721 -0.7700 -0.5558 -0.4773
 5268SOL     OW16702   2.333   1.268   5.432  0.5343 -0.1616 -0.0603
 5268SOL    HW116703   2.306   1.325   5.354 -0.1128  1.2104  1.1226
 5268SOL    HW216704   2.323   1.172   5.407 -2.1968  0.2382 -0.8460
 5269SOL     OW16705   5.401   2.141   0.633 -0.5431  0.4795 -0.5536
 5269SOL    HW116706   5.391   2.173   0.727 -1.6825  1.3649 -0.9464
 5269SOL    HW216707   5.415   2.042   0.632  2.1054  0.7699  0.6588
 5270SOL     OW16708   4.769   6.984   6.769 -0.2859 -0.6651  0.2757
 5270SOL    HW116709   4.822   6.905   6.803  2.5432  0.3162 -1.5281
 5270SOL    HW216710   4.780   7.060   6.832 -0.9481 -0.9458  0.7402
 5271SOL     OW16711   3.242   3.829   2.671  0.2878  0.0787  0.1950
 5271SOL    HW116712   3.255   3.843   2.770  0.2756  1.4919  0.0247
 5271SOL    HW216713   3.252   3.732   2.650 -1.9395 -0.6078  1.9164
 5272SOL     OW16714   4.526   4.435   1.672 -0.3323 -0.0356  0.1425
 5272SOL    HW116715   4.433   4.415   1.643  0.0420 -1.2126 -0.2999
 5272SOL    HW216716   4.552   4.374   1.747 -0.1790  0.8118  0.7887
 5273SOL     OW16717   2.796   5.349   5.411  0.3119 -0.3153 -0.1862
 5273SOL    HW116718   2.720   5.290   5.437 -0.2184  0.2826 -0.3509
 5273SOL    HW216719   2.879   5.295   5.404 -0.1518 -1.0279 -0.2784
 5274SOL     OW16720   0.615   3.365   0.799 -0.2932  0.1923  0.1424
 5274SOL    HW116721   0.606   3.437   0.730  2.1728  3.0645  2.5428
 5274SOL    HW216722   0.551   3.383   0.874  0.1553 -0.2397  0.6355
 5275SOL     OW16723   4.684   2.399   0.832  0.0275  0.1795  0.1209
 5275SOL    HW116724   4.661   2.461   0.907 -0.3454  0.6452 -0.3706
 5275SOL    HW216725   4.768   2.430   0.787  0.7173 -0.5782  0.8706
 5276SOL     OW16726   0.544   4.227   1.869  0.4269 -0.1792 -0.1468
 5276SOL    HW116727   0.504   4.288   1.937 -0.4112 -1.7005  0.7928
 5276SOL    HW216728   0.589   4.281   1.797  0.1381  1.4904  0.8782
 5277SOL     OW16729   2.920   6.241   3.778 -0.8979  0.0930 -0.0335
 5277SOL    HW116730   2.898   6.338   3.765 -0.5686  0.0536 -0.9493
 5277SOL    HW216731   2.859   6.185   3.723 -0.3212 -0.1541 -0.4296
 5278SOL     OW16732   1.859   2.527   3.756 -0.2941 -0.2500  0.3770
 5278SOL    HW116733   1.949   2.569   3.743  0.7136 -2.1803  0.7816
 5278SOL    HW216734   1.858   2.436   3.715 -2.3527  0.0192 -0.3289
 5279SOL     OW16735   2.796   1.207   2.260 -0.0996 -1.2004 -0.4948
 5279SOL    HW116736   2.881   1.165   2.228 -0.5048 -0.8921 -2.1026
 5279SOL    HW216737   2.749   1.145   2.322  1.5147 -1.1792  0.8097
 5280SOL     OW16738   6.286   2.128   5.830  0.0769 -0.1826 -0.2740
 5280SOL    HW116739   6.283   2.210   5.888 -0.8684 -0.6684  0.4051
 5280SOL    HW216740   6.202   2.123   5.776  0.2338 -0.5777 -0.4826
 5281SOL     OW16741   2.373   6.455   4.502  0.1283 -0.2562  0.3120
 5281SOL    HW116742   2.335   6.547   4.512  1.3768  0.5934 -1.9739
 5281SOL    HW216743   2.301   6.387   4.520 -2.2601  1.2373 -2.6647
 5282SOL     OW16744   0.395   4.351   2.108 -0.4737  0.2312  0.3585
 5282SOL    HW116745   0.372   4.438   2.152  0.4157  1.0465 -0.7432
 5282SOL    HW216746   0.311   4.299   2.092 -1.6730  2.7730 -2.8391
 5283SOL     OW16747   6.804   3.830   5.914 -0.4913  0.1398 -0.6495
 5283SOL    HW116748   6.722   3.863   5.962  1.6467  2.2224  1.9168
 5283SOL    HW216749   6.882   3.834   5.976  2.3476  1.8333 -4.0159
 5284SOL     OW16750   1.977   5.462   6.133  0.2696 -0.2446  0.1984
 5284SOL    HW116751   2.013   5.369   6.138  0.2475 -0.2302  0.7340
 5284SOL    HW216752   1.955   5.485   6.038 -0.0379 -0.9084  0.1012
 5285SOL     OW16753   6.756   4.374   5.141 -0.1782  0.4441 -0.3408
 5285SOL    HW116754   6.751   4.460   5.089  0.4930  0.3247 -0.6109
 5285SOL    HW216755   6.715   4.387   5.231  0.2249  1.1526 -0.2513
 5286SOL     OW16756   1.503   6.143   2.588 -0.3666  0.1895  0.2809
 5286SOL    HW116757   1.474   6.238   2.574  0.8328  0.4758 -0.3494
 5286SOL    HW216758   1.602   6.136   2.578 -0.3315 -0.9834  1.2095
 5287SOL     OW16759   5.186   4.030   0.100 -0.0662  0.0566  0.6802
 5287SOL    HW116760   5.099   4.043   0.149 -0.0010 -1.4615  1.2458
 5287SOL    HW216761   5.196   3.934   0.075  1.4826  0.2061  0.6509
 5288SOL     OW16762   4.607   5.987   2.890  0.6946  0.4042  0.3428
 5288SOL    HW116763   4.577   6.049   2.818 -1.2290  0.2121  0.9170
 5288SOL    HW216764   4.564   6.013   2.977  0.2613 -1.3627  0.7126
 5289SOL     OW16765   2.036   1.065   5.203  0.4076  0.3301 -0.1414
 5289SOL    HW116766   2.039   1.070   5.303  0.9788  1.8247 -0.2075
 5289SOL    HW216767   1.952   1.108   5.170  0.0831 -0.4110 -0.3067
 5290SOL     OW16768   6.165   6.198   1.947 -0.0046  0.3395  0.0810
 5290SOL    HW116769   6.194   6.120   2.003 -2.5102 -0.4355  0.4256
 5290SOL    HW216770   6.136   6.164   1.857 -2.3632  0.6323  0.6787
 5291SOL     OW16771   4.444   2.960   0.335  0.0688 -0.1007  0.0176
 5291SOL    HW116772   4.357   2.930   0.294  1.5442 -1.1701 -2.5873
 5291SOL    HW216773   4.487   2.882   0.381  0.9789 -0.3802 -1.2667
 5292SOL     OW16774   4.529   5.401   4.746  0.4736  0.3034  0.2369
 5292SOL    HW116775   4.469   5.468   4.704 -0.0840 -0.5111 -0.3017
 5292SOL    HW216776   4.477   5.347   4.813  0.4040 -0.8287 -0.6891
 5293SOL     OW16777   1.908   5.219   5.386 -0.1470 -0.4282 -0.2193
 5293SOL    HW116778   1.912   5.249   5.482 -0.7814 -2.8499  0.6399
 5293SOL    HW216779   1.831   5.157   5.374  0.3287 -0.6926 -2.1655
 5294SOL     OW16780   2.624   5.181   2.521 -0.4317  0.3221 -0.5632
 5294SOL    HW116781   2.596   5.085   2.517 -0.3452  0.1776  1.3678
 5294SOL    HW216782   2.695   5.198   2.453  2.0046 -1.8605  1.2137
 5295SOL     OW16783   3.985   5.170   4.646 -0.5120  0.3145  0.0524
 5295SOL    HW116784   4.006   5.191   4.551 -1.0160 -0.1907 -0.1790
 5295SOL    HW216785   4.043   5.095   4.677  0.5991  1.3630  0.5727
 5296SOL     OW16786   1.645   3.544   6.687 -0.3740  0.0426  0.2146
 5296SOL    HW116787   1.546   3.531   6.689 -0.2119 -1.1692  0.7168
 5296SOL    HW216788   1.690   3.459   6.663  0.5562  0.6127 -0.1253
 5297SOL     OW16789   0.580   3.261   5.952 -0.0867 -0.5101  0.2233
 5297SOL    HW116790   0.649   3.206   5.904 -0.5738  0.0102 -1.1230
 5297SOL    HW216791   0.523   3.309   5.885 -1.3876 -0.4627  1.3264
 5298SOL     OW16792   3.742   4.872   2.494  0.6431  0.1888  0.4001
 5298SOL    HW116793   3.724   4.877   2.592  0.6786 -2.7075  0.6503
 5298SOL    HW216794   3.656   4.882   2.443  0.0536 -1.6944  0.9519
 5299SOL     OW16795   1.932   3.535   1.099 -0.0755 -0.0711  0.6263
 5299SOL    HW116796   1.889   3.450   1.067  0.8111 -0.6719  0.9638
 5299SOL    HW216797   1.966   3.586   1.020 -0.3216 -0.1965  0.4363
 5300SOL     OW16798   0.098   4.268   6.568  0.2567 -0.1555  0.3028
 5300SOL    HW116799   0.136   4.178   6.586 -0.3203 -0.0752  2.1460
 5300SOL    HW216800   0.153   4.338   6.615 -0.0506  0.3134 -0.0267
 5301SOL     OW16801   6.170   5.314   4.186 -0.1610  0.0905 -0.1707
 5301SOL    HW116802   6.112   5.395   4.185  0.7799  0.8026  0.5921
 5301SOL    HW216803   6.150   5.259   4.267  0.2443  0.3507  0.1071
 5302SOL     OW16804   2.887   5.053   0.567  0.1616 -0.2304 -0.3737
 5302SOL    HW116805   2.915   4.960   0.544  1.2330  0.1813 -0.8086
 5302SOL    HW216806   2.811   5.080   0.508 -1.7933 -1.6405  1.3435
 5303SOL     OW16807   0.927   6.861   2.259 -0.7646 -0.9399  0.7725
 5303SOL    HW116808   1.021   6.830   2.271 -0.1416 -0.0526 -1.2793
 5303SOL    HW216809   0.893   6.901   2.344  1.4645  0.5837  1.0379
 5304SOL     OW16810   3.194   0.198   3.605  0.3321 -0.2290  0.0857
 5304SOL    HW116811   3.261   0.267   3.633 -0.7209  0.4108  1.1158
 5304SOL    HW216812   3.125   0.241   3.546  0.3025 -0.6647 -0.1990
 5305SOL     OW16813   0.460   0.279   5.684  0.1311  0.3802 -0.1174
 5305SOL    HW116814   0.504   0.198   5.721 -0.7805 -0.0388  0.0776
 5305SOL    HW216815   0.501   0.361   5.725 -1.3035 -0.0682  2.4072
 5306SOL     OW16816   1.776   6.182   5.440  0.4684  0.4489 -0.3338
 5306SOL    HW116817   1.773   6.281   5.456  0.6784  0.0608  2.9137
 5306SOL    HW216818   1.870   6.154   5.420  0.4373  0.8726 -1.0959
 5307SOL     OW16819   6.517   2.423   0.283 -0.3225 -0.1553  0.1175
 5307SOL    HW116820   6.463   2.363   0.342  0.8562 -3.3053 -1.7617
 5307SOL    HW216821   6.470   2.512   0.274 -2.8044 -1.1399  2.0915
 5308SOL     OW16822   5.860   4.977   4.768 -0.0208 -0.3746  0.0434
 5308SOL    HW116823   5.884   4.885   4.801  0.6494  0.7138  2.8358
 5308SOL    HW216824   5.776   5.007   4.811 -1.0489 -0.1684 -1.9820
 5309SOL     OW16825   0.904   2.888   4.064  0.1942  0.4440  0.2368
 5309SOL    HW116826   0.862   2.891   4.154  0.2792 -0.9868  0.3508
 5309SOL    HW216827   0.961   2.806   4.056 -0.6879 -0.0649 -1.4886
 5310SOL     OW16828   0.106   0.032   1.206  0.2202 -0.1421  0.5560
 5310SOL    HW116829   0.017   0.041   1.249  0.3969  1.1576  0.6759
 5310SOL    HW216830   0.177   0.064   1.268  0.8538 -1.6200  0.6555
 5311SOL     OW16831   0.652   5.770   4.273  0.1842 -0.4832  0.1189
 5311SOL    HW116832   0.704   5.685   4.278  0.6836 -0.2319 -0.5877
 5311SOL    HW216833   0.563   5.752   4.232  0.1413 -0.7302  0.3207
 5312SOL     OW16834   6.536   3.545   0.260  0.2436 -0.3075 -0.0830
 5312SOL    HW116835   6.495   3.470   0.311 -0.0272 -0.1215 -0.0244
 5312SOL    HW216836   6.607   3.510   0.198  0.5310 -0.5383  0.3776
 5313SOL     OW16837   4.601   3.976   1.705  0.4700 -0.0039 -0.1681
 5313SOL    HW116838   4.687   4.025   1.721 -0.1803  0.6253  1.6999
 5313SOL    HW216839   4.525   4.028   1.746 -0.7846 -0.6589 -1.5587
 5314SOL     OW16840   0.894   2.995   6.543 -0.0104  0.2117 -0.2377
 5314SOL    HW116841   0.863   2.954   6.629  0.7820  0.4456  0.1733
 5314SOL    HW216842   0.919   2.923   6.479 -0.5690  0.0358 -0.2701
 5315SOL     OW16843   5.585   0.064   4.189 -0.2777  0.1988  0.2924
 5315SOL    HW116844   5.527  -0.014   4.212 -0.7507  0.3766 -0.2799
 5315SOL    HW216845   5.678   0.047   4.223 -0.5970 -0.1951  0.9981
 5316SOL     OW16846   1.125   5.052   6.728  0.3752  0.1703  0.1334
 5316SOL    HW116847   1.213   5.057   6.776  0.2175 -0.7161  0.5244
 5316SOL    HW216848   1.117   5.131   6.667  1.1394  0.6293  0.6017
 5317SOL     OW16849   2.868   0.751   5.111 -0.4487 -0.0445 -0.5519
 5317SOL    HW116850   2.943   0.693   5.079  0.4323  1.8113 -2.0639
 5317SOL    HW216851   2.801   0.761   5.038 -1.3673 -0.3593  0.2297
 5318SOL     OW16852   4.005   3.941   5.081  0.4063  0.4125  0.2134
 5318SOL    HW116853   4.082   3.900   5.131 -0.2033 -2.7493 -1.2310
 5318SOL    HW216854   3.924   3.941   5.139  0.4855 -0.2538  0.3372
 5319SOL     OW16855   5.030   0.000   3.697 -0.2469 -0.2915  0.1761
 5319SOL    HW116856   5.085   0.000   3.781  0.4477 -0.4019 -0.2687
 5319SOL    HW216857   4.982   0.087   3.688  2.3435  1.1301 -1.0002
 5320SOL     OW16858   5.739   2.834   4.628 -0.4499  0.2195 -0.1449
 5320SOL    HW116859   5.696   2.744   4.640 -0.7768  0.5120  1.0892
 5320SOL    HW216860   5.739   2.882   4.716 -1.5656  1.9956 -1.0670
 5321SOL     OW16861   6.017   1.769   2.475  0.2567 -0.2558 -0.1190
 5321SOL    HW116862   6.047   1.862   2.498  0.1308 -0.1467 -0.3997
 5321SOL    HW216863   6.003   1.717   2.560 -1.9627  0.6975  0.1554
 5322SOL     OW16864   3.332   4.028   5.278  0.1958 -0.1397  0.5556
 5322SOL    HW116865   3.360   4.096   5.210  0.8937 -0.5393  0.4280
 5322SOL    HW216866   3.233   4.029   5.289  0.2227  1.0821  0.7554
 5323SOL     OW16867   2.239   4.361   3.821  0.6714  0.3235  0.2600
 5323SOL    HW116868   2.251   4.262   3.809 -0.8402 -0.2088  2.6355
 5323SOL    HW216869   2.142   4.384   3.817  1.0253  1.8200 -0.6325
 5324SOL     OW16870   3.104   3.799   2.236 -0.1234  0.7762  0.5941
 5324SOL    HW116871   3.075   3.758   2.322 -0.1727 -1.9722 -0.6331
 5324SOL    HW216872   3.062   3.750   2.160  0.9334  2.3054 -1.0584
 5325SOL     OW16873   4.443   1.865   1.074  0.0480 -0.3888 -0.1069
 5325SOL    HW116874   4.456   1.892   1.169 -0.4988 -0.5523  0.0172
 5325SOL    HW216875   4.513   1.799   1.048  0.2750 -0.2471  0.1399
 5326SOL     OW16876   3.647   1.091   0.584 -0.1819  0.0135  0.0994
 5326SOL    HW116877   3.622   0.994   0.583  2.0073 -0.6052 -0.0018
 5326SOL    HW216878   3.692   1.114   0.498  3.5145 -0.1560  1.7913
 5327SOL     OW16879   2.368   4.297   0.737  0.1024  0.4245  0.7979
 5327SOL    HW116880   2.412   4.328   0.652  2.0867  1.6274  2.1846
 5327SOL    HW216881   2.421   4.223   0.778 -0.8857 -0.2018  0.9783
 5328SOL     OW16882   6.132   6.342   2.588 -0.9854  0.3784  0.0504
 5328SOL    HW116883   6.114   6.246   2.567 -0.9083  0.0987  1.2068
 5328SOL    HW216884   6.104   6.362   2.682 -3.0214  2.0277 -0.8070
 5329SOL     OW16885   3.007   2.198   4.451  0.2977  0.3841  0.2032
 5329SOL    HW116886   2.930   2.211   4.388  1.0055  1.0308 -0.5551
 5329SOL    HW216887   3.075   2.270   4.436  1.9769 -1.2765 -0.5457
 5330SOL     OW16888   2.109   3.449   6.579 -0.0706 -0.1939 -0.3752
 5330SOL    HW116889   2.164   3.517   6.626  1.7562 -1.3022 -0.7928
 5330SOL    HW216890   2.031   3.494   6.534  0.2535  1.3701  0.5500
 5331SOL     OW16891   0.933   5.299   2.710  0.4999  0.1981  0.4754
 5331SOL    HW116892   1.000   5.370   2.729 -0.1360  0.5876  1.3735
 5331SOL    HW216893   0.942   5.225   2.777 -1.6694  1.5118  2.3665
 5332SOL     OW16894   6.572   0.194   0.172 -0.2618 -0.2905  0.0836
 5332SOL    HW116895   6.629   0.184   0.090  1.1884  2.0267  0.6983
 5332SOL    HW216896   6.543   0.290   0.180 -3.4588 -1.1718  0.3928
 5333SOL     OW16897   3.555   0.017   5.427 -0.1742 -0.7529  0.8572
 5333SOL    HW116898   3.601   0.082   5.487  1.7959  0.3022 -1.6277
 5333SOL    HW216899   3.482   0.062   5.377  0.0830 -0.8781  0.3620
 5334SOL     OW16900   3.261   5.894   2.224  0.1008  0.1736  0.3430
 5334SOL    HW116901   3.203   5.848   2.157  0.1125 -0.2425  0.6111
 5334SOL    HW216902   3.330   5.948   2.178 -1.0624  1.4334 -0.0038
 5335SOL     OW16903   5.767   5.175   3.567  0.6715 -0.9916 -0.2560
 5335SOL    HW116904   5.847   5.235   3.558 -0.8411  1.4973  1.7880
 5335SOL    HW216905   5.724   5.164   3.477  1.8386 -0.2823 -0.9318
 5336SOL     OW16906   0.852   3.897   3.430 -0.6101  0.1016 -0.4166
 5336SOL    HW116907   0.944   3.908   3.392 -0.3306 -1.0725 -0.1473
 5336SOL    HW216908   0.785   3.899   3.357 -0.2508 -0.2059 -0.7622
 5337SOL     OW16909   0.822   3.416   6.327  0.2330 -0.3483  0.4517
 5337SOL    HW116910   0.828   3.446   6.232 -0.0042 -1.5016  0.0635
 5337SOL    HW216911   0.744   3.355   6.339 -0.5438  0.8093  1.6881
 5338SOL     OW16912   0.546   3.676   4.850  0.0363  0.6911  0.0417
 5338SOL    HW116913   0.545   3.733   4.768  1.1725  1.5556  0.6185
 5338SOL    HW216914   0.619   3.705   4.912  0.3020 -1.0238  0.6144
 5339SOL     OW16915   1.601   1.404   5.453  0.4207  0.2202 -0.0452
 5339SOL    HW116916   1.501   1.405   5.451  0.3268 -2.2597  0.1510
 5339SOL    HW216917   1.632   1.394   5.548  0.8394  0.6049 -0.1402
 5340SOL     OW16918   6.618   0.958   0.842  0.1553  0.2651  0.0759
 5340SOL    HW116919   6.585   1.017   0.916  0.5641  0.0255  0.4590
 5340SOL    HW216920   6.641   0.868   0.879  2.8034  0.8936  0.2019
 5341SOL     OW16921   2.188   6.316   6.934  0.1256  0.2640 -0.1095
 5341SOL    HW116922   2.242   6.332   6.852  1.3756  2.5272  1.0693
 5341SOL    HW216923   2.246   6.282   7.007  0.0338  2.5223  1.1133
 5342SOL     OW16924   5.619   4.168   5.278  0.0941  0.4253 -0.3460
 5342SOL    HW116925   5.579   4.227   5.348  2.3001  1.2242  0.3344
 5342SOL    HW216926   5.589   4.199   5.187  0.0185  1.6634  0.0824
 5343SOL     OW16927   0.754   4.115   3.561 -0.0972  0.3230  0.5621
 5343SOL    HW116928   0.657   4.128   3.583 -0.7794  0.8126 -2.3559
 5343SOL    HW216929   0.768   4.022   3.527  0.1786  0.6749 -0.2916
 5344SOL     OW16930   3.498   3.656   1.831  0.4364  0.0674  0.0180
 5344SOL    HW116931   3.518   3.576   1.774  0.4939 -1.4218  2.0008
 5344SOL    HW216932   3.580   3.682   1.882 -0.4950 -1.1084  2.2744
 5345SOL     OW16933   4.488   3.465   0.475 -0.4921  0.0609 -0.5677
 5345SOL    HW116934   4.550   3.544   0.477 -1.3613  1.0146 -3.9932
 5345SOL    HW216935   4.539   3.384   0.445 -0.4109  0.3369 -1.2026
 5346SOL     OW16936   2.079   5.011   2.875 -0.4321 -0.2866 -0.1353
 5346SOL    HW116937   2.159   4.951   2.879 -0.2503  0.0018  0.8581
 5346SOL    HW216938   2.004   4.969   2.926 -0.7412 -0.2899 -0.5864
 5347SOL     OW16939   2.996   3.799   6.370 -0.3761 -0.4974 -0.6467
 5347SOL    HW116940   3.045   3.738   6.432  0.7733 -0.4916 -1.4977
 5347SOL    HW216941   2.964   3.880   6.420  1.4415  0.0134 -0.2383
 5348SOL     OW16942   3.835   1.794   4.703 -0.0323 -0.0195 -0.1267
 5348SOL    HW116943   3.890   1.738   4.642  0.0773  0.5020 -0.5108
 5348SOL    HW216944   3.894   1.833   4.775  0.0038  0.0932 -0.2165
 5349SOL     OW16945   3.819   4.073   6.689  0.4425 -0.2330 -0.4003
 5349SOL    HW116946   3.900   4.041   6.739 -0.2261 -0.7955  0.3265
 5349SOL    HW216947   3.849   4.129   6.611  1.5571 -1.0087 -0.5534
 5350SOL     OW16948   2.644   2.717   6.760  0.1624 -0.2104  0.2331
 5350SOL    HW116949   2.715   2.750   6.697 -1.6057 -0.4769 -2.0209
 5350SOL    HW216950   2.661   2.753   6.852  1.9570  1.5105 -0.7050
 5351SOL     OW16951   0.224   4.201   5.702  0.1675  0.0885 -0.3107
 5351SOL    HW116952   0.228   4.273   5.634  0.1958  1.2922  0.9179
 5351SOL    HW216953   0.302   4.209   5.764 -0.1031 -0.6923  0.1532
 5352SOL     OW16954   5.416   1.175   6.291 -0.0525  0.4566  0.4051
 5352SOL    HW116955   5.395   1.128   6.205  0.6809 -0.6801  0.8404
 5352SOL    HW216956   5.481   1.249   6.273  0.0612  0.2540 -0.0334
 5353SOL     OW16957   6.262   5.887   5.840 -0.1199  0.0181 -0.1582
 5353SOL    HW116958   6.277   5.833   5.757  0.7335 -0.9358  0.5927
 5353SOL    HW216959   6.331   5.864   5.908  1.0343  2.9618 -0.2050
 5354SOL     OW16960   1.285   1.528   3.340 -0.2771  0.0786  0.5715
 5354SOL    HW116961   1.341   1.600   3.298  0.4565  0.9508  2.8773
 5354SOL    HW216962   1.203   1.569   3.380  0.4268 -0.1797  2.4065
 5355SOL     OW16963   6.604   2.464   4.801 -0.2905 -0.1771  0.6622
 5355SOL    HW116964   6.629   2.535   4.735 -1.1914  0.3278  0.8438
 5355SOL    HW216965   6.674   2.392   4.801  0.2466  0.3281 -0.0797
 5356SOL     OW16966   6.569   1.068   3.524  0.4379  0.1981 -0.1799
 5356SOL    HW116967   6.662   1.059   3.489  0.9437 -0.6627  1.3063
 5356SOL    HW216968   6.506   1.018   3.465  1.5470 -3.0301  1.1223
 5357SOL     OW16969   1.127   0.750   4.234 -0.1566  0.4899  0.0163
 5357SOL    HW116970   1.122   0.662   4.186 -1.2990  0.0301  0.9204
 5357SOL    HW216971   1.172   0.817   4.176 -0.6009 -0.3032 -1.2977
 5358SOL     OW16972   2.693   1.544   5.932  0.4466 -0.1821  0.1127
 5358SOL    HW116973   2.772   1.571   5.877 -0.3584 -0.5785 -1.2648
 5358SOL    HW216974   2.723   1.476   6.000  1.8151  1.6572  1.4750
 5359SOL     OW16975   4.452   4.518   5.603 -0.1294 -0.0455  0.4680
 5359SOL    HW116976   4.380   4.451   5.622  0.9816 -1.3212  0.3082
 5359SOL    HW216977   4.497   4.495   5.517  0.0460  1.1277  0.2324
 5360SOL     OW16978   4.465   1.395   1.942 -0.3388  0.1423  0.3937
 5360SOL    HW116979   4.443   1.321   1.878  0.2704 -0.6061  1.0257
 5360SOL    HW216980   4.497   1.475   1.891  0.6399 -0.6211 -0.2200
 5361SOL     OW16981   3.372   3.308   0.236 -0.3846  0.2737  0.1494
 5361SOL    HW116982   3.369   3.407   0.248 -1.2891  0.0106  2.5730
 5361SOL    HW216983   3.310   3.282   0.162 -0.0311  1.5050 -0.6134
 5362SOL     OW16984   5.187   6.114   5.184 -0.0714  0.2445  0.3974
 5362SOL    HW116985   5.143   6.164   5.259  2.6816  0.0760  2.2776
 5362SOL    HW216986   5.201   6.018   5.212 -0.5395 -0.2683 -1.0523
 5363SOL     OW16987   0.404   5.951   2.866  0.1851 -0.5133 -0.1698
 5363SOL    HW116988   0.342   5.875   2.886 -0.4709 -0.2256 -1.0690
 5363SOL    HW216989   0.352   6.029   2.832  0.8311  0.4010  0.8578
 5364SOL     OW16990   3.410   0.601   4.701  0.4440  0.0375  0.2774
 5364SOL    HW116991   3.397   0.503   4.717 -2.1165  0.3436  0.5771
 5364SOL    HW216992   3.453   0.642   4.782  1.0837 -0.7477  0.3483
 5365SOL     OW16993   2.108   6.163   5.325 -0.0364 -0.4146 -0.1636
 5365SOL    HW116994   2.141   6.220   5.401 -0.0454 -0.5709 -0.0420
 5365SOL    HW216995   2.137   6.204   5.238  3.5804 -2.3064 -0.0534
 5366SOL     OW16996   4.048   2.161   1.444 -0.2412  0.0668  0.0350
 5366SOL    HW116997   4.028   2.091   1.513  1.0792  0.1367  0.5153
 5366SOL    HW216998   4.120   2.127   1.383  0.7797  1.1869  0.5851
 5367SOL     OW16999   6.955   1.029   5.816 -0.1666 -0.0387 -0.0133
 5367SOL    HW117000   6.953   1.028   5.916 -0.0056 -1.3568 -0.0044
 5367SOL    HW217001   6.901   0.953   5.781  0.4721 -0.0968 -0.9112
 5368SOL     OW17002   5.330   4.885   0.946  0.2777 -0.1241 -0.6991
 5368SOL    HW117003   5.340   4.983   0.963  0.6355 -0.3819  0.6541
 5368SOL    HW217004   5.259   4.870   0.877 -0.1783  1.0599 -0.5009
 5369SOL     OW17005   0.929   0.526   0.457 -0.0793  0.1512  0.5508
 5369SOL    HW117006   0.980   0.452   0.501 -0.7168 -1.5922 -1.4908
 5369SOL    HW217007   0.978   0.555   0.375 -1.2920 -0.0557 -0.2568
 5370SOL     OW17008   3.105   0.451   0.589 -0.4903 -0.8413  0.0315
 5370SOL    HW117009   3.193   0.483   0.626  0.0498 -1.2638 -0.8610
 5370SOL    HW217010   3.119   0.364   0.542 -1.1683 -0.3331 -1.1409
 5371SOL     OW17011   0.468   5.702   5.542  0.6170 -0.3417  0.0947
 5371SOL    HW117012   0.548   5.758   5.519 -0.2448  0.3523 -1.3766
 5371SOL    HW217013   0.423   5.671   5.458 -1.2311  0.1371  0.8386
 5372SOL     OW17014   3.021   5.060   0.836 -0.5768  0.4109  0.3235
 5372SOL    HW117015   3.009   4.971   0.879  2.1808  0.0383  0.4788
 5372SOL    HW217016   2.951   5.072   0.765 -0.7243 -2.0869 -0.0495
 5373SOL     OW17017   2.079   5.548   4.510  0.5478 -0.7153  0.4857
 5373SOL    HW117018   2.036   5.480   4.570 -0.1829 -0.8619 -0.1877
 5373SOL    HW217019   2.032   5.635   4.520  0.5949 -0.6708  0.3244
 5374SOL     OW17020   0.869   0.713   4.519  0.6914 -0.0231  0.0230
 5374SOL    HW117021   0.964   0.738   4.500  0.4178  0.6245 -0.5126
 5374SOL    HW217022   0.808   0.765   4.460  0.0906 -2.1191 -1.2928
 5375SOL     OW17023   1.863   5.803   1.705  0.0863 -0.1668  0.1911
 5375SOL    HW117024   1.767   5.822   1.726 -0.0678  1.0699 -1.5106
 5375SOL    HW217025   1.869   5.725   1.643 -0.0178  1.1041 -1.4891
 5376SOL     OW17026   5.344   4.666   1.762 -0.5406  0.2881  0.4636
 5376SOL    HW117027   5.286   4.725   1.706  0.7527 -0.0129 -1.2827
 5376SOL    HW217028   5.412   4.722   1.810  1.5078  0.2898 -2.1723
 5377SOL     OW17029   4.952   4.899   6.537 -0.3771  0.0862  0.1024
 5377SOL    HW117030   4.925   4.963   6.608 -2.0243 -0.1820 -0.2296
 5377SOL    HW217031   5.026   4.840   6.571 -1.6977 -0.6175  1.9376
 5378SOL     OW17032   1.569   2.177   4.304 -0.1254 -0.1456 -0.5091
 5378SOL    HW117033   1.637   2.249   4.295  0.0908 -0.2643  0.1078
 5378SOL    HW217034   1.580   2.131   4.392 -1.5072  0.3577 -0.0384
 5379SOL     OW17035   0.983   5.976   1.132 -0.7288  0.0852  0.6682
 5379SOL    HW117036   0.945   6.046   1.072  0.5731  1.1762  1.0627
 5379SOL    HW217037   1.081   5.965   1.112 -0.9419 -1.8007  0.4626
 5380SOL     OW17038   2.863   6.996   3.715  1.0084 -0.4189  0.0265
 5380SOL    HW117039   2.885   7.052   3.795  0.6771 -0.3770  0.0923
 5380SOL    HW217040   2.780   6.943   3.734  0.4275  0.2423 -0.6070
 5381SOL     OW17041   6.731   6.130   2.157 -0.1057  0.1249 -0.3501
 5381SOL    HW117042   6.799   6.200   2.179  0.5393  0.5963 -3.4171
 5381SOL    HW217043   6.640   6.172   2.155  0.2697  0.9383 -2.1310
 5382SOL     OW17044   1.728   0.201   3.485  0.0500  0.1814 -0.3260
 5382SOL    HW117045   1.678   0.278   3.524 -1.7051 -0.2665 -1.6126
 5382SOL    HW217046   1.727   0.124   3.550  1.4559  1.0324  0.7826
 5383SOL     OW17047   5.524   2.913   2.771  0.2201  0.6591 -0.2149
 5383SOL    HW117048   5.611   2.883   2.809  1.6311  3.8166 -0.6283
 5383SOL    HW217049   5.518   2.885   2.675  0.5374  0.0379 -0.0590
 5384SOL     OW17050   4.965   5.026   2.578  0.5588  0.0248 -0.9576
 5384SOL    HW117051   5.011   5.017   2.667 -0.9878  2.2122  0.1877
 5384SOL    HW217052   4.992   5.112   2.535  0.1711 -0.3088 -1.8934
 5385SOL     OW17053   3.979   3.645   5.332 -0.2896  0.1849  0.2555
 5385SOL    HW117054   3.924   3.679   5.408 -1.8400  0.0310 -0.7443
 5385SOL    HW217055   3.954   3.551   5.312  1.3908 -0.3935  0.6720
 5386SOL     OW17056   4.868   4.968   2.326  0.3886  0.0150  0.1243
 5386SOL    HW117057   4.928   4.982   2.405 -1.3025 -1.3515  1.7509
 5386SOL    HW217058   4.779   4.936   2.358 -0.1801 -1.1485 -2.4049
 5387SOL     OW17059   6.650   4.170   3.871 -0.0035 -0.2699  0.2813
 5387SOL    HW117060   6.553   4.183   3.854 -0.1047 -1.1667  0.1074
 5387SOL    HW217061   6.701   4.179   3.786 -0.1329 -1.4619  0.0650
 5388SOL     OW17062   2.880   3.683   4.534  0.6497  0.2478 -0.2481
 5388SOL    HW117063   2.847   3.659   4.443  0.0720  1.4528 -0.3779
 5388SOL    HW217064   2.969   3.727   4.528  0.6409  0.2692 -0.2292
 5389SOL     OW17065   3.750   6.645   0.379  1.0561 -0.4871  0.2532
 5389SOL    HW117066   3.732   6.743   0.386  0.9906 -0.4711 -0.1404
 5389SOL    HW217067   3.746   6.617   0.283 -1.6597 -1.3681  0.5441
 5390SOL     OW17068   3.118   5.219   6.483  0.3655  0.4289  0.9108
 5390SOL    HW117069   3.106   5.290   6.414  0.4112 -0.3832  0.0455
 5390SOL    HW217070   3.177   5.147   6.447 -0.5332 -0.5635  1.3710
 5391SOL     OW17071   1.833   4.041   0.368  0.0780  0.0456 -0.1863
 5391SOL    HW117072   1.805   3.965   0.426  1.0220  0.1760  0.4582
 5391SOL    HW217073   1.875   4.006   0.284  0.2164 -0.1421 -0.0386
 5392SOL     OW17074   1.421   6.461   5.339  0.5511  0.1550 -0.2664
 5392SOL    HW117075   1.472   6.541   5.373  0.6117 -0.2790  0.6902
 5392SOL    HW217076   1.323   6.481   5.343  0.6135  0.9639 -2.0388
 5393SOL     OW17077   2.913   4.701   6.836  0.7705 -0.3677  0.3208
 5393SOL    HW117078   2.893   4.769   6.765  3.6647  0.5698  0.2613
 5393SOL    HW217079   2.936   4.748   6.921  1.1348 -1.3374  0.7699
 5394SOL     OW17080   5.980   5.855   5.557  0.5926 -0.1017 -0.4050
 5394SOL    HW117081   6.050   5.926   5.545 -0.5640  1.1663  0.1458
 5394SOL    HW217082   5.957   5.815   5.469 -0.7819  2.2343 -1.1989
 5395SOL     OW17083   4.521   0.088   1.227 -0.1175  0.6489  0.1306
 5395SOL    HW117084   4.545   0.065   1.322 -2.1916 -0.5159  0.4535
 5395SOL    HW217085   4.592   0.054   1.166 -0.6839 -2.4611  1.0090
 5396SOL     OW17086   2.755   3.694   6.576  0.7106 -0.2612 -0.2894
 5396SOL    HW117087   2.661   3.675   6.605  0.7588 -0.0336  0.0167
 5396SOL    HW217088   2.770   3.793   6.576  1.3689 -0.3454  0.9960
 5397SOL     OW17089   3.446   2.042   5.696  0.2520  0.7445 -0.0620
 5397SOL    HW117090   3.429   2.018   5.792  1.4135 -0.1424 -0.0644
 5397SOL    HW217091   3.361   2.073   5.654 -0.4364  0.3869  1.0366
 5398SOL     OW17092   5.361   6.583   3.385  0.1423  0.3772  0.1540
 5398SOL    HW117093   5.420   6.651   3.429 -0.2135  0.7540  0.0495
 5398SOL    HW217094   5.357   6.601   3.287  1.4745 -0.8562 -0.1676
 5399SOL     OW17095   0.494   3.250   3.789 -0.4208 -0.0859 -0.4006
 5399SOL    HW117096   0.515   3.330   3.732 -0.2020  0.7250  0.7744
 5399SOL    HW217097   0.541   3.170   3.752 -0.1420  0.4536 -1.2586
 5400SOL     OW17098   2.077   6.494   5.023 -0.1241  0.5750  0.6642
 5400SOL    HW117099   1.978   6.485   5.024 -0.1537  0.1736 -1.4564
 5400SOL    HW217100   2.115   6.452   5.105 -1.4679 -2.8796 -0.3241
 5401SOL     OW17101   3.505   5.387   3.999  0.6716  0.1948 -0.0720
 5401SOL    HW117102   3.425   5.401   4.058 -1.3071  0.7157 -2.6908
 5401SOL    HW217103   3.507   5.292   3.969  0.9941  0.2132 -0.1044
 5402SOL     OW17104   3.721   4.979   3.943  0.1716  0.8764 -0.6883
 5402SOL    HW117105   3.721   5.072   3.906  0.7740  1.7603  1.3985
 5402SOL    HW217106   3.664   4.975   4.025  0.1888 -0.5927 -0.7192
 5403SOL     OW17107   1.002   2.733   2.937 -0.2247  0.6377 -0.0338
 5403SOL    HW117108   1.005   2.639   2.902  0.6470  0.3253  0.8452
 5403SOL    HW217109   1.093   2.760   2.968 -0.5171  1.7005 -0.0601
 5404SOL     OW17110   5.800   0.757   6.944 -0.5768  0.0583  0.2566
 5404SOL    HW117111   5.865   0.689   6.910 -0.2806  0.3101  0.3175
 5404SOL    HW217112   5.715   0.712   6.969 -0.4052 -0.2822  0.2316
 5405SOL     OW17113   6.857   3.765   1.260 -0.0754  0.2263  0.1349
 5405SOL    HW117114   6.912   3.849   1.264  0.4095 -0.1226  1.1956
 5405SOL    HW217115   6.913   3.690   1.226  1.0613 -0.7673  3.6961
 5406SOL     OW17116   4.732   2.080   4.199  0.6081  0.2504 -0.3727
 5406SOL    HW117117   4.814   2.096   4.255 -0.7328 -0.1270  1.8455
 5406SOL    HW217118   4.729   1.983   4.173  0.7621  0.2079 -0.2418
 5407SOL     OW17119   2.760   2.169   6.297  0.0811  0.5057  0.6901
 5407SOL    HW117120   2.729   2.245   6.240 -3.9158 -0.8719  0.6983
 5407SOL    HW217121   2.701   2.163   6.378 -0.7490 -3.3283 -0.0156
 5408SOL     OW17122   4.588   1.332   4.748 -0.3992 -0.2146 -0.3756
 5408SOL    HW117123   4.497   1.295   4.730 -0.3448 -0.2000 -0.6830
 5408SOL    HW217124   4.586   1.387   4.831 -0.1589 -2.1476  0.9864
 5409SOL     OW17125   3.934   5.166   5.355  0.6378 -0.0120  0.7415
 5409SOL    HW117126   3.913   5.234   5.285  0.4679 -1.3734 -0.5701
 5409SOL    HW217127   3.917   5.206   5.445 -0.7062  1.2772 -0.0268
 5410SOL     OW17128   1.242   4.966   2.587 -0.5794 -0.1760  0.3497
 5410SOL    HW117129   1.224   4.872   2.558  0.8344  0.4104 -2.8017
 5410SOL    HW217130   1.333   4.972   2.628 -0.3800 -0.0814 -0.0998
 5411SOL     OW17131   4.455   4.768   6.713  0.1701  0.4487  0.0040
 5411SOL    HW117132   4.403   4.823   6.649  1.8801 -0.5468 -2.3893
 5411SOL    HW217133   4.435   4.671   6.697  0.2738  0.1941  1.3286
 5412SOL     OW17134   3.879   3.426   1.647  0.9844  0.4431 -0.0703
 5412SOL    HW117135   3.823   3.507   1.628  1.4908  1.3147  1.8736
 5412SOL    HW217136   3.839   3.376   1.724 -0.0858 -1.9806 -2.0793
 5413SOL     OW17137   4.120   0.643   3.594 -0.6916 -0.2205  0.0354
 5413SOL    HW117138   4.168   0.714   3.543  0.3851  0.5555  1.9895
 5413SOL    HW217139   4.030   0.627   3.554 -0.4495  1.3265 -1.2000
 5414SOL     OW17140   5.341   2.834   6.063  0.3519  0.3679 -0.1439
 5414SOL    HW117141   5.278   2.758   6.082  0.0489 -0.0865 -2.6062
 5414SOL    HW217142   5.370   2.875   6.149 -3.3504  0.6596  1.1668
 5415SOL     OW17143   1.127   6.812   6.478 -0.0803  0.5529  0.1046
 5415SOL    HW117144   1.089   6.903   6.494  2.1117  1.2967  1.5628
 5415SOL    HW217145   1.226   6.814   6.490  0.1483 -1.8731 -0.6640
 5416SOL     OW17146   4.532   2.254   4.847  0.2147  0.5712  0.0386
 5416SOL    HW117147   4.610   2.197   4.819  0.9777  0.4244  2.2321
 5416SOL    HW217148   4.562   2.348   4.858 -0.6409  1.1032 -1.9073
 5417SOL     OW17149   6.951   3.088   4.994 -0.1513  0.4551  0.1431
 5417SOL    HW117150   6.852   3.105   4.991 -0.1729  0.1827 -1.4573
 5417SOL    HW217151   6.998   3.172   5.020 -0.7180  0.9623 -0.4311
 5418SOL     OW17152   2.057   6.036   6.684  0.1713  0.0772 -0.2597
 5418SOL    HW117153   2.041   5.976   6.763 -0.0262 -1.3531 -1.3564
 5418SOL    HW217154   2.128   5.997   6.626  0.4541  1.2128 -0.7217
 5419SOL     OW17155   5.955   5.489   5.100 -0.1841 -0.4150 -0.5598
 5419SOL    HW117156   6.049   5.484   5.134 -1.0841  3.4953  3.4534
 5419SOL    HW217157   5.891   5.463   5.173 -2.2992 -0.5529 -2.3398
 5420SOL     OW17158   2.822   6.123   6.362  0.8439 -0.2980  0.2964
 5420SOL    HW117159   2.847   6.212   6.400  1.2369 -0.5263  0.5798
 5420SOL    HW217160   2.774   6.136   6.275 -0.0323  0.2291  0.8512
 5421SOL     OW17161   4.602   4.778   3.126  0.1757  0.3394  0.1220
 5421SOL    HW117162   4.631   4.798   3.032 -1.7234  2.6153 -0.0636
 5421SOL    HW217163   4.640   4.846   3.188  1.2080 -1.0054  1.0095
 5422SOL     OW17164   0.521   5.316   3.001  0.1297  0.6384  0.3360
 5422SOL    HW117165   0.523   5.245   2.930  1.4259  0.2190  0.7486
 5422SOL    HW217166   0.463   5.286   3.077 -0.2915  0.5553 -0.0179
 5423SOL     OW17167   2.289   2.913   1.017 -0.1024  0.5026 -0.1142
 5423SOL    HW117168   2.249   2.878   0.932  0.5803  0.1870 -0.3134
 5423SOL    HW217169   2.337   2.998   0.999 -1.2796  1.2681  0.2651
 5424SOL     OW17170   6.787   2.357   5.610  0.0610  0.2253  0.1245
 5424SOL    HW117171   6.844   2.304   5.547  0.1076  1.1161 -0.6104
 5424SOL    HW217172   6.749   2.436   5.562 -2.9303 -1.0499  0.1707
 5425SOL     OW17173   0.570   5.755   6.474  0.1634  0.1670  0.4143
 5425SOL    HW117174   0.664   5.788   6.485 -0.0853  0.7594  0.7888
 5425SOL    HW217175   0.549   5.688   6.544  0.1372  0.4232  0.6517
 5426SOL     OW17176   0.288   2.712   0.535  0.2136  0.3276 -0.5151
 5426SOL    HW117177   0.202   2.743   0.576 -0.5488 -0.9109 -1.1522
 5426SOL    HW217178   0.270   2.640   0.469  1.7062  0.4083 -1.0430
 5427SOL     OW17179   0.633   2.881   2.337 -0.4837  0.2914 -0.4449
 5427SOL    HW117180   0.554   2.928   2.377  0.3672  0.3800  1.1967
 5427SOL    HW217181   0.685   2.835   2.409  0.9709  0.2303 -1.4851
 5428SOL     OW17182   3.050   1.840   5.617  0.4581  0.3219 -0.0080
 5428SOL    HW117183   3.054   1.757   5.561  0.3479  0.3903 -0.1184
 5428SOL    HW217184   3.106   1.911   5.575 -0.7135  0.8212 -0.7872
 5429SOL     OW17185   1.951   5.769   3.579 -0.5569  0.3018  0.0092
 5429SOL    HW117186   2.022   5.722   3.527 -0.6324  1.3255 -1.0699
 5429SOL    HW217187   1.926   5.853   3.532 -0.7988  1.1661  1.6228
 5430SOL     OW17188   3.434   2.824   5.264 -0.3483  0.5187 -0.1564
 5430SOL    HW117189   3.368   2.892   5.295  0.3268  0.7064  0.9142
 5430SOL    HW217190   3.401   2.732   5.285 -0.9232  0.5373 -0.9403
 5431SOL     OW17191   3.839   5.939   6.084 -0.3894 -0.5415 -0.0288
 5431SOL    HW117192   3.867   5.860   6.030  1.5448  1.2555 -1.8778
 5431SOL    HW217193   3.773   5.994   6.033 -0.3728 -0.0525  0.4539
 5432SOL     OW17194   1.914   6.848   2.388 -0.1412  0.3978  0.1656
 5432SOL    HW117195   1.967   6.915   2.440  2.1973 -0.3039 -1.1703
 5432SOL    HW217196   1.910   6.762   2.438 -0.1370  0.4956  0.3334
 5433SOL     OW17197   6.562   2.678   3.492 -0.6034  0.0259  0.2438
 5433SOL    HW117198   6.590   2.612   3.423 -0.9862 -2.6889  2.4824
 5433SOL    HW217199   6.463   2.674   3.504 -0.9839  2.8190 -1.1750
 5434SOL     OW17200   3.042   3.521   1.311  0.6328 -0.5812  0.1611
 5434SOL    HW117201   2.978   3.445   1.297  0.2073 -0.1879 -0.0863
 5434SOL    HW217202   3.133   3.485   1.329  0.5952 -1.1513 -0.7195
 5435SOL     OW17203   3.119   5.221   2.258 -0.2032 -0.4716  0.0159
 5435SOL    HW117204   3.201   5.271   2.229  0.2982 -1.7271 -0.8372
 5435SOL    HW217205   3.115   5.218   2.357 -0.0273  0.8805  0.0794
 5436SOL     OW17206   1.638   6.731   3.460  0.1173 -0.5169  0.1996
 5436SOL    HW117207   1.722   6.762   3.416 -0.5207 -0.5874 -1.1267
 5436SOL    HW217208   1.615   6.792   3.536 -0.2255  1.3061 -1.3081
 5437SOL     OW17209   5.033   3.596   1.663 -0.3625  0.5099  0.2793
 5437SOL    HW117210   5.086   3.681   1.671  0.4227 -0.1141  2.3446
 5437SOL    HW217211   5.089   3.519   1.694 -0.2865 -1.1823 -3.4871
 5438SOL     OW17212   4.344   2.039   3.961  0.4900 -0.6668 -0.1222
 5438SOL    HW117213   4.269   2.097   3.991  0.3565  0.1104 -1.8573
 5438SOL    HW217214   4.393   2.003   4.041 -1.1036 -0.3990  1.0062
 5439SOL     OW17215   6.527   0.875   4.512  0.1700  0.1000 -0.3973
 5439SOL    HW117216   6.428   0.860   4.505  0.0899  0.0131  0.7768
 5439SOL    HW217217   6.556   0.865   4.607  1.0211  1.9052 -0.4239
 5440SOL     OW17218   0.913   0.644   1.681 -0.3614 -0.2886  0.0473
 5440SOL    HW117219   0.821   0.608   1.667 -1.0229  1.1626  0.4601
 5440SOL    HW217220   0.917   0.739   1.650  0.7016  0.0079  1.0195
 5441SOL     OW17221   4.995   1.932   5.737 -0.0296 -0.4203  0.3608
 5441SOL    HW117222   5.069   1.918   5.671  1.5127  1.0187  1.6934
 5441SOL    HW217223   4.918   1.873   5.713  1.3903 -1.7316 -1.2961
 5442SOL     OW17224   1.519   1.787   1.605 -0.0950 -0.4865  0.3521
 5442SOL    HW117225   1.460   1.737   1.541 -0.6080 -1.2920  1.4065
 5442SOL    HW217226   1.462   1.845   1.664  0.2091 -0.8103  0.9818
 5443SOL     OW17227   4.744   0.646   5.121  0.0615  0.4942  0.5663
 5443SOL    HW117228   4.754   0.554   5.083  0.1569 -0.0859  1.9407
 5443SOL    HW217229   4.775   0.713   5.054 -0.9978 -0.3948 -0.8586
 5444SOL     OW17230   0.164   0.292   5.391  0.0732 -0.5163  0.0916
 5444SOL    HW117231   0.118   0.308   5.303 -2.2154  0.5704  1.4008
 5444SOL    HW217232   0.155   0.196   5.416  0.9407 -0.8832 -0.9410
 5445SOL     OW17233   6.940   2.272   6.056 -0.1599  0.1006 -0.4435
 5445SOL    HW117234   6.977   2.364   6.042 -0.9144  0.4644 -0.1037
 5445SOL    HW217235   6.911   2.234   5.969 -0.9844  0.6828 -0.4294
 5446SOL     OW17236   2.031   1.661   3.688  0.0442  0.4691 -0.0090
 5446SOL    HW117237   2.045   1.588   3.620  0.1587  1.5836 -1.2104
 5446SOL    HW217238   2.119   1.693   3.722  0.3445  3.0905 -2.8437
 5447SOL     OW17239   2.097   6.510   0.741  0.3783 -0.3365  0.8274
 5447SOL    HW117240   2.077   6.470   0.831  0.7327 -1.0589  0.5904
 5447SOL    HW217241   2.187   6.554   0.743  0.3146 -0.2065  0.8699
 5448SOL     OW17242   4.399   5.710   2.224 -0.1616  0.0621 -0.5133
 5448SOL    HW117243   4.425   5.625   2.269  5.0653  2.5216  1.9748
 5448SOL    HW217244   4.444   5.715   2.135  0.3133  0.5561 -0.2503
 5449SOL     OW17245   0.922   3.716   4.920  0.2290  0.0126  0.6891
 5449SOL    HW117246   0.944   3.810   4.891  0.4886 -0.5179 -0.9024
 5449SOL    HW217247   0.873   3.720   5.007  2.1807  1.5018  1.8190
 5450SOL     OW17248   4.350   6.286   4.574 -0.3740  0.1221  0.6424
 5450SOL    HW117249   4.285   6.304   4.500 -0.2970  0.8193  0.7397
 5450SOL    HW217250   4.306   6.230   4.644 -1.1135  1.1555  1.0390
 5451SOL     OW17251   0.603   1.221   0.452  0.5069  0.2039 -0.0884
 5451SOL    HW117252   0.668   1.145   0.439  0.7829  0.2818  0.7677
 5451SOL    HW217253   0.539   1.198   0.526 -0.2522  0.2609 -0.7156
 5452SOL     OW17254   4.161   1.326   5.713  0.2752  0.1797  0.1634
 5452SOL    HW117255   4.174   1.326   5.813  0.9402  0.3683  0.0842
 5452SOL    HW217256   4.212   1.249   5.674  0.2405  0.2700 -0.0567
 5453SOL     OW17257   5.578   6.312   5.226  0.5709 -0.5432  1.0187
 5453SOL    HW117258   5.635   6.390   5.253  0.7230 -0.6265  0.9395
 5453SOL    HW217259   5.495   6.345   5.182  1.5116 -0.4414 -0.7938
 5454SOL     OW17260   6.558   3.034   1.152 -0.2872  0.2055  0.1927
 5454SOL    HW117261   6.638   2.995   1.105 -0.6226 -0.3692  0.0881
 5454SOL    HW217262   6.502   3.084   1.086 -0.3333  0.0898  0.1442
 5455SOL     OW17263   2.597   6.627   0.231 -0.0013  0.1945  0.0649
 5455SOL    HW117264   2.559   6.593   0.145  1.8142 -0.7957 -0.3952
 5455SOL    HW217265   2.561   6.575   0.307 -0.6033  0.1930 -0.2156
 5456SOL     OW17266   3.660   0.215   4.278 -0.2052 -0.4442 -0.2058
 5456SOL    HW117267   3.575   0.163   4.288  0.5256 -1.5231  0.7510
 5456SOL    HW217268   3.733   0.167   4.326  0.5452  1.4399  0.6229
 5457SOL     OW17269   4.993   2.710   1.545  0.2620  0.1216 -0.2521
 5457SOL    HW117270   5.087   2.746   1.546  0.2779  0.0666  0.2704
 5457SOL    HW217271   4.929   2.784   1.561  0.3529 -0.2358  2.0587
 5458SOL     OW17272   0.931   5.276   6.085 -0.0994 -0.3910 -0.2748
 5458SOL    HW117273   0.946   5.311   6.178  3.6676  0.8105 -1.1620
 5458SOL    HW217274   0.914   5.178   6.089  1.4991 -0.6703  1.6821
 5459SOL     OW17275   6.559   2.137   5.355 -0.2209  0.0832 -0.0725
 5459SOL    HW117276   6.643   2.112   5.403 -0.4312 -1.0316 -0.2578
 5459SOL    HW217277   6.481   2.090   5.397 -0.6268  0.3799 -0.4834
 5460SOL     OW17278   4.556   5.181   3.052  0.2068  0.6192  0.1111
 5460SOL    HW117279   4.510   5.268   3.066 -2.6170 -1.1087  2.6927
 5460SOL    HW217280   4.581   5.141   3.140  0.6908 -1.5691 -0.9399
 5461SOL     OW17281   4.963   3.214   3.313  0.3444  0.2701  0.2368
 5461SOL    HW117282   4.980   3.289   3.248 -0.0191  1.0258  1.0013
 5461SOL    HW217283   4.921   3.250   3.396 -3.0910 -1.1904 -0.7013
 5462SOL     OW17284   6.899   3.883   3.769  0.1895  1.1158 -0.1414
 5462SOL    HW117285   6.918   3.806   3.830  1.3062  1.8701  0.4963
 5462SOL    HW217286   6.951   3.963   3.799  1.1547  1.3927 -2.3400
 5463SOL     OW17287   6.938   4.060   0.046 -0.1905 -0.2166 -0.1703
 5463SOL    HW117288   6.866   4.044   0.114  0.3710  0.0546  0.4980
 5463SOL    HW217289   6.930   4.154   0.012  3.1705  2.0068  4.0933
 5464SOL     OW17290   6.621   4.278   5.428 -0.4877  0.2628 -0.1157
 5464SOL    HW117291   6.681   4.212   5.382 -0.8289  0.0756 -0.3018
 5464SOL    HW217292   6.634   4.272   5.527 -1.4493 -1.0211 -0.0381
 5465SOL     OW17293   0.549   2.656   6.182  0.0967  0.0016 -0.2009
 5465SOL    HW117294   0.548   2.647   6.082 -1.3360  0.2393 -0.2193
 5465SOL    HW217295   0.457   2.646   6.218  0.4502  0.8441  1.0159
 5466SOL     OW17296   3.438   0.730   6.772 -0.1842 -0.6270  0.1881
 5466SOL    HW117297   3.360   0.732   6.709 -2.1573 -0.7723  2.4802
 5466SOL    HW217298   3.456   0.823   6.805  0.5829 -0.6155 -0.2197
 5467SOL     OW17299   6.259   2.523   6.115 -0.0550  0.1127 -0.5816
 5467SOL    HW117300   6.199   2.528   6.036  0.0243  0.0004 -0.6498
 5467SOL    HW217301   6.331   2.455   6.098  0.2868  0.4820 -0.6364
 5468SOL     OW17302   6.250   3.516   6.575 -0.6417 -0.1010 -0.0688
 5468SOL    HW117303   6.193   3.471   6.644 -0.8741 -0.1573 -0.2976
 5468SOL    HW217304   6.334   3.463   6.563 -0.2488  0.3184  0.7211
 5469SOL     OW17305   6.522   0.251   5.205  0.0476 -0.5524  0.1562
 5469SOL    HW117306   6.477   0.258   5.116  1.0734  0.8003 -0.2888
 5469SOL    HW217307   6.458   0.215   5.272 -2.2781  2.6620 -0.0909
 5470SOL     OW17308   4.980   3.812   5.979  0.1271 -0.5904 -0.3795
 5470SOL    HW117309   4.921   3.869   6.037  1.2491  0.9074 -0.6592
 5470SOL    HW217310   5.065   3.792   6.027 -0.3933 -2.4188 -0.1320
 5471SOL     OW17311   2.096   2.342   6.599 -0.2445 -0.4767 -0.4997
 5471SOL    HW117312   2.122   2.395   6.519  0.7060 -0.2028 -0.0303
 5471SOL    HW217313   2.049   2.402   6.665 -3.8140 -1.2970 -2.0361
 5472SOL     OW17314   3.415   6.702   0.534  0.4367  0.4047 -0.3692
 5472SOL    HW117315   3.377   6.640   0.603 -1.6043  2.2545  0.2671
 5472SOL    HW217316   3.416   6.655   0.445 -0.4573 -0.7433  0.1953
 5473SOL     OW17317   0.284   0.608   1.287  0.2823 -0.4337  0.3237
 5473SOL    HW117318   0.189   0.601   1.257  0.6438 -1.4878 -0.6150
 5473SOL    HW217319   0.344   0.611   1.208  0.9674  1.7921  0.8686
 5474SOL     OW17320   1.116   4.293   3.875  0.0587  0.2204  0.7413
 5474SOL    HW117321   1.054   4.371   3.883 -1.9076 -1.2111  0.3323
 5474SOL    HW217322   1.136   4.257   3.967 -1.9325 -0.9142  0.7687
 5475SOL     OW17323   6.907   1.473   1.350  0.0840  0.3375  0.0106
 5475SOL    HW117324   6.839   1.461   1.277  1.2598  0.5041 -1.1457
 5475SOL    HW217325   6.860   1.482   1.438 -1.4625  1.8634 -0.9181
 5476SOL     OW17326   1.459   1.831   4.519  0.0644  0.0701  0.1921
 5476SOL    HW117327   1.362   1.854   4.523 -0.1631 -0.6948 -0.6177
 5476SOL    HW217328   1.472   1.750   4.462  1.3216  0.9028 -0.7612
 5477SOL     OW17329   1.733   6.746   6.191 -0.0069 -0.1473 -0.0418
 5477SOL    HW117330   1.683   6.767   6.107 -0.0728 -2.2927 -0.5832
 5477SOL    HW217331   1.670   6.706   6.258  0.3271  0.2937  0.5504
 5478SOL     OW17332   4.518   6.513   6.850  0.4182  0.2036  0.0846
 5478SOL    HW117333   4.443   6.526   6.784 -0.0840 -1.6774  0.2410
 5478SOL    HW217334   4.581   6.445   6.815 -0.2292 -1.3557  1.8241
 5479SOL     OW17335   6.494   0.120   1.656  0.0035 -0.5812 -0.4804
 5479SOL    HW117336   6.584   0.096   1.690  1.3760  0.7253 -2.9157
 5479SOL    HW217337   6.473   0.215   1.680  0.1173 -0.2911 -1.4904
 5480SOL     OW17338   1.555   3.859   2.294  0.3850 -0.4209  0.2318
 5480SOL    HW117339   1.546   3.817   2.204 -0.1912 -0.7101  0.4148
 5480SOL    HW217340   1.498   3.941   2.298  0.7587 -0.1577  0.1894
 5481SOL     OW17341   0.637   4.329   4.106  0.2637 -0.0014 -0.5992
 5481SOL    HW117342   0.662   4.248   4.053  0.4415  0.6246 -1.4959
 5481SOL    HW217343   0.624   4.407   4.044 -1.2253  0.3492  0.1007
 5482SOL     OW17344   6.720   4.917   5.858 -0.0225  0.1405  0.1477
 5482SOL    HW117345   6.761   4.836   5.901  0.6251  1.2071  1.6669
 5482SOL    HW217346   6.713   4.903   5.760 -0.8691 -2.1429  0.4721
 5483SOL     OW17347   1.713   5.438   2.316  0.1002  0.0780  0.1354
 5483SOL    HW117348   1.676   5.404   2.229 -0.8251  0.9913  0.1558
 5483SOL    HW217349   1.651   5.506   2.354  0.7790  0.0975  1.2445
 5484SOL     OW17350   1.135   3.049   4.690  0.4217 -0.0986  0.4695
 5484SOL    HW117351   1.185   3.134   4.675  0.3289  0.4849  3.0965
 5484SOL    HW217352   1.165   2.980   4.624  1.4751  1.5375 -0.8252
 5485SOL     OW17353   1.824   6.133   4.666  0.6419 -0.5943  0.0207
 5485SOL    HW117354   1.788   6.078   4.591 -0.3472 -1.0792  0.8215
 5485SOL    HW217355   1.776   6.109   4.751  1.0377  0.6474  0.6198
 5486SOL     OW17356   4.989   5.175   6.851 -0.2182 -0.0884  0.1756
 5486SOL    HW117357   5.010   5.096   6.908  3.5313 -0.3429 -1.2498
 5486SOL    HW217358   4.981   5.146   6.755  0.7974  1.1292 -0.3131
 5487SOL     OW17359   0.995   2.511   5.866  0.1199  0.2479 -0.4948
 5487SOL    HW117360   1.057   2.548   5.797  0.5595  0.0448 -0.2139
 5487SOL    HW217361   1.023   2.542   5.957 -0.3377  0.3550 -0.3881
 5488SOL     OW17362   2.431   3.086   5.464 -0.2328 -0.2380 -0.0515
 5488SOL    HW117363   2.453   3.060   5.371  0.1597  1.6051 -0.5192
 5488SOL    HW217364   2.440   3.007   5.525 -1.5655 -1.7453 -1.7172
 5489SOL     OW17365   4.549   2.533   1.982 -0.2855 -0.6245 -0.3691
 5489SOL    HW117366   4.533   2.610   1.920  0.0773 -2.0378 -2.3109
 5489SOL    HW217367   4.514   2.449   1.941  1.8638 -1.9706  0.3445
 5490SOL     OW17368   0.815   0.293   3.872 -0.4199 -0.3978  0.7287
 5490SOL    HW117369   0.830   0.195   3.857  1.0419 -0.0972  0.0437
 5490SOL    HW217370   0.835   0.343   3.788 -0.2647  0.5788  1.3299
 5491SOL     OW17371   3.319   2.350   6.761  0.2506  0.1330 -0.3192
 5491SOL    HW117372   3.409   2.317   6.788 -0.1386 -0.0618  0.7852
 5491SOL    HW217373   3.300   2.321   6.667  2.1768  1.9448 -1.3584
 5492SOL     OW17374   1.384   4.387   6.231 -0.5101  0.1218  0.1975
 5492SOL    HW117375   1.399   4.445   6.151 -0.4646 -0.4924 -0.2468
 5492SOL    HW217376   1.315   4.318   6.210  1.2315 -1.5969 -0.1333
 5493SOL     OW17377   2.176   3.124   3.878 -0.0998  0.0635 -0.2724
 5493SOL    HW117378   2.210   3.102   3.786  0.7048 -0.8792  0.2159
 5493SOL    HW217379   2.204   3.051   3.941 -1.2207  0.3567  0.5945
 5494SOL     OW17380   5.010   5.463   3.655  0.2221 -0.5567  0.0506
 5494SOL    HW117381   4.986   5.369   3.678 -0.3361 -0.4014  0.1343
 5494SOL    HW217382   5.081   5.496   3.717  1.9256 -1.5852 -1.2674
 5495SOL     OW17383   6.173   0.372   0.294  0.2466  0.1039  0.5203
 5495SOL    HW117384   6.175   0.288   0.348 -1.8811 -0.6179 -0.3999
 5495SOL    HW217385   6.171   0.349   0.196  0.4348  1.2609  0.2215
 5496SOL     OW17386   3.424   3.265   2.622 -0.1532  1.0484 -0.1154
 5496SOL    HW117387   3.367   3.262   2.539 -0.6270  0.3469  0.2277
 5496SOL    HW217388   3.455   3.359   2.637  1.7756  0.8619 -2.3120
 5497SOL     OW17389   0.886   4.038   3.966 -0.3780 -0.0302  0.1513
 5497SOL    HW117390   0.929   3.989   3.890  1.2370  1.3176  0.1354
 5497SOL    HW217391   0.832   4.114   3.931 -0.8849 -0.3351  0.2754
 5498SOL     OW17392   0.433   0.762   4.735 -0.4357 -0.7274  0.0485
 5498SOL    HW117393   0.379   0.761   4.650  1.0198 -2.5014 -0.9095
 5498SOL    HW217394   0.519   0.715   4.720  0.7489  0.6839  1.9918
 5499SOL     OW17395   1.776   4.296   3.292  0.4197  1.0164 -0.5969
 5499SOL    HW117396   1.761   4.345   3.206  1.3315  0.7705 -0.8977
 5499SOL    HW217397   1.845   4.344   3.346  2.2957 -0.5859 -1.4597
 5500SOL     OW17398   3.616   5.897   6.283 -0.4788 -0.3200 -0.5170
 5500SOL    HW117399   3.652   5.807   6.307 -0.3523 -0.7002 -2.0036
 5500SOL    HW217400   3.589   5.897   6.186  0.4412  1.5212 -0.8247
 5501SOL     OW17401   3.101   4.128   5.133 -0.2745 -0.0701 -0.2659
 5501SOL    HW117402   3.042   4.058   5.092 -1.0592  0.8800 -0.8030
 5501SOL    HW217403   3.055   4.169   5.211 -0.3046  0.6208 -0.6375
 5502SOL     OW17404   0.743   6.819   2.908  0.0201  0.4259 -0.5793
 5502SOL    HW117405   0.643   6.811   2.909 -0.1357  1.7724 -1.6486
 5502SOL    HW217406   0.772   6.854   2.819  1.4031  0.5363 -0.0991
 5503SOL     OW17407   4.879   2.358   4.658  0.0007  0.5026  0.1128
 5503SOL    HW117408   4.892   2.267   4.697  0.6739  0.4548 -0.2078
 5503SOL    HW217409   4.870   2.351   4.559 -0.7255  0.7143  0.1602
 5504SOL     OW17410   1.598   4.710   0.111  0.0270 -0.1746 -0.0330
 5504SOL    HW117411   1.628   4.805   0.099  0.2631 -0.3893 -1.3142
 5504SOL    HW217412   1.598   4.664   0.022  1.3401 -1.8052  0.7541
 5505SOL     OW17413   4.491   0.783   0.267 -0.1390 -0.6669  0.1477
 5505SOL    HW117414   4.585   0.819   0.261 -1.3044  3.1410  1.6937
 5505SOL    HW217415   4.491   0.698   0.319  2.4443 -0.8491 -0.0159
 5506SOL     OW17416   4.496   1.227   2.192  0.3407 -0.0879  0.0252
 5506SOL    HW117417   4.420   1.216   2.128  0.0608 -1.4372  0.5391
 5506SOL    HW217418   4.535   1.318   2.184  0.7519 -0.4274 -2.5236
 5507SOL     OW17419   1.882   5.927   3.135 -0.0733  0.9666  1.1556
 5507SOL    HW117420   1.924   6.017   3.120  2.0647 -0.0971  0.3846
 5507SOL    HW217421   1.827   5.903   3.055  2.6262 -0.0624 -0.5303
 5508SOL     OW17422   5.325   3.313   6.816 -0.4350 -0.2917  0.4842
 5508SOL    HW117423   5.382   3.357   6.747 -1.9954 -0.4015 -0.9199
 5508SOL    HW217424   5.281   3.383   6.873 -2.4471  0.0462 -1.3677
 5509SOL     OW17425   4.518   6.826   0.703  0.4922  0.0577  0.0374
 5509SOL    HW117426   4.479   6.911   0.738 -0.8579 -0.5266  0.0118
 5509SOL    HW217427   4.511   6.755   0.772 -2.9625 -1.3345 -1.5440
 5510SOL     OW17428   6.046   1.794   3.553 -0.4493 -0.1423  0.1427
 5510SOL    HW117429   6.113   1.765   3.621  0.6384 -0.0929 -0.8797
 5510SOL    HW217430   5.960   1.818   3.599  0.0961 -0.5787  1.4344
 5511SOL     OW17431   5.872   1.314   2.451  0.4019  0.1720  0.7494
 5511SOL    HW117432   5.775   1.289   2.460 -0.1869  0.9368 -2.1687
 5511SOL    HW217433   5.928   1.231   2.455 -0.7684 -0.7884 -1.0254
 5512SOL     OW17434   0.196   5.174   5.609 -0.0373  0.1315 -0.3131
 5512SOL    HW117435   0.271   5.239   5.613  0.7797 -0.8569  1.7258
 5512SOL    HW217436   0.227   5.089   5.567 -0.5809  0.3794 -1.2453
 5513SOL     OW17437   6.090   5.091   4.799  0.6255 -0.9002  0.0760
 5513SOL    HW117438   5.999   5.051   4.794 -0.3418  1.2543 -0.5840
 5513SOL    HW217439   6.152   5.039   4.740 -0.3141 -1.9984  0.0233
 5514SOL     OW17440   2.690   2.460   1.681  0.4015  0.3522 -0.2960
 5514SOL    HW117441   2.781   2.461   1.723  0.0814  1.4446  0.4329
 5514SOL    HW217442   2.625   2.508   1.742 -0.8509 -1.1559 -0.3852
 5515SOL     OW17443   5.388   0.134   2.245  0.4121  0.6075  0.3875
 5515SOL    HW117444   5.354   0.228   2.241  0.4705  0.6082 -0.1888
 5515SOL    HW217445   5.312   0.071   2.260  0.1008  0.5971 -1.0232
 5516SOL     OW17446   6.940   5.479   4.696  0.5504  0.1033  0.2008
 5516SOL    HW117447   6.962   5.577   4.690  1.4008 -0.0975 -0.0736
 5516SOL    HW217448   6.844   5.468   4.724 -0.0854  1.0411 -1.4315
 5517SOL     OW17449   4.206   1.108   4.357  0.5665  0.4466 -0.0724
 5517SOL    HW117450   4.171   1.200   4.373  0.8598  0.1818  2.6018
 5517SOL    HW217451   4.134   1.050   4.319 -1.0561  0.7203  2.3312
 5518SOL     OW17452   3.835   6.544   0.788 -0.5010 -0.3101 -0.2543
 5518SOL    HW117453   3.902   6.525   0.860 -0.5262 -0.2960 -0.2273
 5518SOL    HW217454   3.809   6.458   0.744 -1.7027 -0.5397  0.8262
 5519SOL     OW17455   5.038   3.737   2.523 -0.8597  0.5114  0.0819
 5519SOL    HW117456   5.138   3.742   2.510 -0.7982 -0.0191  0.3392
 5519SOL    HW217457   5.003   3.654   2.479 -1.0130  0.0528  1.0387
 5520SOL     OW17458   4.416   5.708   4.635 -0.2377  0.0490  0.5028
 5520SOL    HW117459   4.366   5.777   4.686  0.6176  2.8162 -2.1440
 5520SOL    HW217460   4.511   5.737   4.624  0.2528 -1.7385 -0.4085
 5521SOL     OW17461   5.944   2.712   3.731 -0.2863 -0.6489  0.5198
 5521SOL    HW117462   6.027   2.768   3.736  1.2130 -2.6104 -0.7700
 5521SOL    HW217463   5.887   2.730   3.811  1.5193  0.5625  1.6138
 5522SOL     OW17464   3.133   6.040   5.379 -0.0015 -0.0748  0.8246
 5522SOL    HW117465   3.066   5.978   5.421 -1.0025  0.3239 -0.1455
 5522SOL    HW217466   3.115   6.047   5.281  0.9816  0.6595  0.6847
 5523SOL     OW17467   1.757   6.982   4.151 -0.5640  0.1439 -0.3729
 5523SOL    HW117468   1.700   6.999   4.232  0.6754  0.4310  0.4728
 5523SOL    HW217469   1.755   6.885   4.128  0.6896 -0.3244  1.2997
 5524SOL     OW17470   0.426   3.142   5.185  0.0995  0.0139 -0.3804
 5524SOL    HW117471   0.435   3.159   5.087  1.1647 -0.5940 -0.3959
 5524SOL    HW217472   0.341   3.092   5.202 -0.1048  0.1475 -0.9857
 5525SOL     OW17473   5.421   6.903   6.133 -0.0526  0.4173  0.5288
 5525SOL    HW117474   5.429   6.977   6.200  0.7415 -0.4768  1.4497
 5525SOL    HW217475   5.357   6.931   6.061  0.4385  2.1037  0.6929
 5526SOL     OW17476   5.886   0.845   5.965  0.1009 -0.0692  0.0682
 5526SOL    HW117477   5.891   0.888   6.055  1.9519  1.1393 -0.5417
 5526SOL    HW217478   5.840   0.906   5.901  0.5499 -0.0379 -0.2367
 5527SOL     OW17479   0.626   4.104   6.853 -0.0764  0.3575  0.2785
 5527SOL    HW117480   0.640   4.121   6.755 -0.3140 -0.4091  0.1011
 5527SOL    HW217481   0.658   4.183   6.905  1.0594  0.3349 -0.3436
 5528SOL     OW17482   6.686   6.725   0.990  0.0836 -0.2636  0.0115
 5528SOL    HW117483   6.698   6.720   0.891 -2.1271 -2.2314 -0.2741
 5528SOL    HW217484   6.588   6.717   1.012  0.6168 -1.1847  2.3837
 5529SOL     OW17485   4.218   5.546   4.149 -0.0313 -0.3537  0.1718
 5529SOL    HW117486   4.118   5.540   4.143 -0.0884  0.9769 -0.5224
 5529SOL    HW217487   4.254   5.597   4.071  1.3074 -1.7041 -0.1446
 5530SOL     OW17488   2.590   4.587   0.252 -0.0537  0.1853 -0.1740
 5530SOL    HW117489   2.681   4.560   0.220 -0.2215 -0.1277 -0.3994
 5530SOL    HW217490   2.530   4.601   0.174 -0.1896  0.4383 -0.0274
 5531SOL     OW17491   5.783   5.484   6.670  0.0403 -0.3035 -0.4255
 5531SOL    HW117492   5.739   5.538   6.598 -0.0535  0.6681  0.3460
 5531SOL    HW217493   5.801   5.392   6.636 -3.8910 -1.2619 -0.3599
 5532SOL     OW17494   5.074   6.962   4.566 -0.4095 -0.2329  0.0232
 5532SOL    HW117495   5.152   6.999   4.516 -0.9312  3.0370  1.3793
 5532SOL    HW217496   5.005   6.929   4.502  0.9072 -0.6648 -1.2228
 5533SOL     OW17497   6.644   0.453   1.874 -0.4397  0.1448 -0.3315
 5533SOL    HW117498   6.723   0.391   1.879 -0.2629  0.3650 -0.3604
 5533SOL    HW217499   6.663   0.535   1.928 -1.4947 -0.7239  1.4587
 5534SOL     OW17500   0.188   6.514   4.691  0.2874 -0.2220  0.2265
 5534SOL    HW117501   0.177   6.553   4.600 -1.3873 -1.4376 -0.1448
 5534SOL    HW217502   0.266   6.556   4.736 -0.5790  2.5220 -0.6312
 5535SOL     OW17503   5.151   1.809   1.726  0.5746  0.2084 -0.1110
 5535SOL    HW117504   5.197   1.889   1.686 -0.5814  1.2327  0.5315
 5535SOL    HW217505   5.065   1.793   1.680 -0.5058  1.0547  1.5017
 5536SOL     OW17506   2.366   3.074   6.169  0.2963 -0.0162 -0.4360
 5536SOL    HW117507   2.270   3.048   6.179  0.1556  1.0080  1.2295
 5536SOL    HW217508   2.424   3.006   6.214  0.2995 -0.1737 -0.6752
 5537SOL     OW17509   2.365   0.649   1.540  0.9582  0.7366 -0.0478
 5537SOL    HW117510   2.398   0.653   1.634  0.1769 -0.1168  0.2818
 5537SOL    HW217511   2.395   0.563   1.499  0.1854  0.5018 -0.1358
 5538SOL     OW17512   0.041   0.787   1.415 -0.5784  0.2626  0.0546
 5538SOL    HW117513   0.012   0.752   1.326 -0.2902  1.5102 -0.5450
 5538SOL    HW217514   0.131   0.751   1.437 -0.8166 -0.3677  0.0457
 5539SOL     OW17515   3.333   5.816   0.171  0.5449  0.2486  0.0715
 5539SOL    HW117516   3.276   5.740   0.139  0.9667  0.5258 -1.3772
 5539SOL    HW217517   3.427   5.804   0.138  0.6312  1.3583 -0.1106
 5540SOL     OW17518   5.272   3.191   6.504  0.1876 -0.1503 -0.3568
 5540SOL    HW117519   5.298   3.176   6.409  0.7208 -0.0929 -0.2230
 5540SOL    HW217520   5.337   3.254   6.547  0.5268 -0.9414  0.3216
 5541SOL     OW17521   0.260   5.674   6.891  0.1958 -0.0117  0.1428
 5541SOL    HW117522   0.330   5.666   6.962 -1.0924 -2.1005  1.2788
 5541SOL    HW217523   0.266   5.597   6.828 -0.4185  0.3472 -0.3724
 5542SOL     OW17524   0.011   6.005   2.091  0.4435 -0.2143 -0.3434
 5542SOL    HW117525  -0.078   6.049   2.081 -0.5428 -1.5854  1.7729
 5542SOL    HW217526   0.056   6.000   2.002 -0.7408  2.1862 -1.1540
 5543SOL     OW17527   5.650   1.909   3.868 -0.0203  0.4209 -0.4806
 5543SOL    HW117528   5.577   1.977   3.867  0.2123  0.7146  0.7274
 5543SOL    HW217529   5.728   1.944   3.919 -0.4205 -1.2453  1.4483
 5544SOL     OW17530   4.002   0.059   5.542  0.4258 -0.3131  0.0522
 5544SOL    HW117531   4.027   0.115   5.463 -1.8620 -1.3699 -1.5501
 5544SOL    HW217532   4.065   0.077   5.617  1.3192  2.4540 -1.2201
 5545SOL     OW17533   1.587   3.856   2.975 -0.2219 -0.2189 -0.7618
 5545SOL    HW117534   1.622   3.797   2.902  0.4229  0.5072 -1.0511
 5545SOL    HW217535   1.494   3.887   2.952  0.3137  0.7277 -1.7210
 5546SOL     OW17536   5.594   4.778   1.493 -0.4571 -0.3122  0.0122
 5546SOL    HW117537   5.561   4.685   1.504  1.3836 -0.9855  0.0415
 5546SOL    HW217538   5.519   4.835   1.458 -1.8567 -1.5718  0.8296
 5547SOL     OW17539   4.889   5.509   0.116  0.2457 -0.0877 -0.3422
 5547SOL    HW117540   4.796   5.490   0.084 -0.2370  0.2052  0.8558
 5547SOL    HW217541   4.886   5.579   0.188  1.5649  1.2967 -1.5494
 5548SOL     OW17542   1.018   5.580   5.421  0.4099 -0.0892 -0.2140
 5548SOL    HW117543   0.942   5.643   5.433  1.5420  1.2051  0.4376
 5548SOL    HW217544   1.100   5.616   5.467  0.7374 -2.7589  1.5579
 5549SOL     OW17545   5.302   5.820   3.789  0.2619  0.5046 -0.0677
 5549SOL    HW117546   5.366   5.895   3.774 -0.9821  1.9887  1.5913
 5549SOL    HW217547   5.210   5.849   3.764 -0.4562  0.0211  1.8282
 5550SOL     OW17548   1.786   6.723   5.161 -0.1786 -0.2511  0.1003
 5550SOL    HW117549   1.723   6.680   5.096 -1.9708 -0.2384  1.7419
 5550SOL    HW217550   1.736   6.751   5.242  2.0907 -0.9291  1.8428
 5551SOL     OW17551   0.517   5.521   6.643 -0.0630 -0.2146 -0.0937
 5551SOL    HW117552   0.574   5.475   6.711  0.8796 -1.7039 -1.7856
 5551SOL    HW217553   0.420   5.503   6.663  0.2507 -2.7140 -0.4459
 5552SOL     OW17554   1.975   3.871   4.825 -0.0855  0.0223  0.3060
 5552SOL    HW117555   1.932   3.960   4.813  0.8812  0.5429  0.5682
 5552SOL    HW217556   2.013   3.863   4.917 -0.8892 -0.9978  0.5688
 5553SOL     OW17557   0.784   3.879   6.840 -0.2406  0.4152 -0.0449
 5553SOL    HW117558   0.750   3.973   6.843 -3.1578 -0.5505  1.4050
 5553SOL    HW217559   0.786   3.842   6.932 -2.2731 -1.8547 -0.8004
 5554SOL     OW17560   4.401   2.646   0.165 -0.2538  0.2896  0.1587
 5554SOL    HW117561   4.487   2.693   0.149 -1.4399  3.4447  2.0770
 5554SOL    HW217562   4.417   2.548   0.178  2.7087  0.4652 -1.5142
 5555SOL     OW17563   0.405   2.976   1.353 -0.2720 -0.0807 -0.3060
 5555SOL    HW117564   0.452   3.047   1.301 -0.9196  0.1855 -0.5344
 5555SOL    HW217565   0.420   2.990   1.451  0.6605 -0.3813 -0.3919
 5556SOL     OW17566   6.201   4.224   2.250 -0.3110 -0.2822 -0.0564
 5556SOL    HW117567   6.179   4.128   2.231 -0.5849 -0.1244 -0.5851
 5556SOL    HW217568   6.226   4.235   2.346 -1.2097 -0.7238  0.2402
 5557SOL     OW17569   4.796   5.816   2.076  0.1249  0.0008 -0.4167
 5557SOL    HW117570   4.770   5.759   2.154 -0.1960 -1.1524 -1.3431
 5557SOL    HW217571   4.895   5.812   2.064  0.4558  1.8286  1.1443
 5558SOL     OW17572   3.832   5.479   1.553  0.5608 -0.2782  0.0602
 5558SOL    HW117573   3.902   5.447   1.616  2.6393  0.2193 -1.8585
 5558SOL    HW217574   3.806   5.405   1.491  0.2040 -0.1622  0.0691
 5559SOL     OW17575   3.461   5.512   6.061 -0.0831 -0.6093  0.2516
 5559SOL    HW117576   3.485   5.414   6.063 -1.9152 -1.0870  0.4580
 5559SOL    HW217577   3.510   5.556   5.986 -2.4774 -2.6264 -2.7363
 5560SOL     OW17578   0.783   0.680   5.036 -0.3646 -0.0384 -0.0685
 5560SOL    HW117579   0.744   0.612   4.973  1.8933  0.8460 -2.6108
 5560SOL    HW217580   0.734   0.767   5.026  0.0522  0.1275 -0.6997
 5561SOL     OW17581   2.444   4.929   3.103  0.1886  0.3200  0.0241
 5561SOL    HW117582   2.431   4.854   3.039 -2.1305  0.8471 -0.2236
 5561SOL    HW217583   2.536   4.966   3.094  0.7835 -1.3549 -1.0712
 5562SOL     OW17584   6.294   0.384   2.597  0.1842 -0.1074  0.7465
 5562SOL    HW117585   6.271   0.297   2.552 -1.3499 -0.2534  1.7513
 5562SOL    HW217586   6.219   0.449   2.584  1.5080  1.2891 -0.3989
 5563SOL     OW17587   3.591   3.514   6.481  0.4414  0.1516  0.1045
 5563SOL    HW117588   3.661   3.520   6.552  0.3216 -1.7972  0.4296
 5563SOL    HW217589   3.598   3.426   6.434 -1.4519  0.1332 -0.2187
 5564SOL     OW17590   0.932   5.076   5.093  0.3755  0.2531 -0.2630
 5564SOL    HW117591   0.883   5.070   5.006  0.0207  2.3810 -0.2650
 5564SOL    HW217592   0.984   5.162   5.095  2.0295 -0.7361  0.8058
 5565SOL     OW17593   5.063   4.342   5.902  0.3200 -0.9999 -0.1639
 5565SOL    HW117594   5.147   4.378   5.861  0.3542 -0.3031  0.5131
 5565SOL    HW217595   5.077   4.326   5.999 -0.4466 -0.5255  0.0318
 5566SOL     OW17596   0.139   0.198   4.908 -0.6588  0.0181 -0.2839
 5566SOL    HW117597   0.109   0.286   4.943 -0.5625 -1.2796  3.5478
 5566SOL    HW217598   0.073   0.127   4.936  1.7359 -1.7620  1.3046
 5567SOL     OW17599   6.550   2.317   1.597 -0.0380 -0.2474  0.1596
 5567SOL    HW117600   6.635   2.369   1.592  1.0866 -2.0536 -0.4760
 5567SOL    HW217601   6.553   2.241   1.532 -0.7306 -2.3463  2.4145
 5568SOL     OW17602   5.383   4.812   4.990  0.0668 -0.6058  0.6306
 5568SOL    HW117603   5.356   4.789   4.897  1.3697 -0.4145  0.1773
 5568SOL    HW217604   5.480   4.837   4.991  0.1449 -0.8789  2.0894
 5569SOL     OW17605   1.545   0.222   0.369  0.1669  0.2650 -0.1192
 5569SOL    HW117606   1.551   0.123   0.352 -0.8454  0.0237  0.7822
 5569SOL    HW217607   1.551   0.271   0.282 -0.0873 -0.6356 -0.6665
 5570SOL     OW17608   5.817   3.272   3.310 -0.3197 -0.6288  0.5036
 5570SOL    HW117609   5.817   3.177   3.343 -0.3821 -1.2666 -1.2571
 5570SOL    HW217610   5.723   3.301   3.293 -0.2078 -0.7419 -0.3097
 5571SOL     OW17611   4.036   0.216   5.060 -0.1636 -0.1830 -0.2447
 5571SOL    HW117612   3.997   0.282   5.125 -0.5425  2.3306 -2.8202
 5571SOL    HW217613   4.002   0.125   5.081  0.2954  0.3079  3.4400
 5572SOL     OW17614   5.731   6.569   2.527  0.4605 -0.4394 -0.0200
 5572SOL    HW117615   5.654   6.625   2.497  1.5501  1.2823  0.2415
 5572SOL    HW217616   5.789   6.547   2.450 -0.2823 -1.8147 -0.2324
 5573SOL     OW17617   5.764   1.952   1.761 -0.1824 -0.4326 -0.4562
 5573SOL    HW117618   5.712   1.978   1.681  0.1437 -1.7473 -1.1341
 5573SOL    HW217619   5.718   1.984   1.844 -1.5610 -0.7371 -1.0820
 5574SOL     OW17620   1.740   4.745   2.307 -0.0651 -0.0238 -0.1087
 5574SOL    HW117621   1.701   4.776   2.220 -0.0180  0.2754 -0.0258
 5574SOL    HW217622   1.766   4.825   2.361 -0.3652 -0.2026  0.3039
 5575SOL     OW17623   1.580   4.311   2.889  0.6257 -0.1538 -0.2255
 5575SOL    HW117624   1.518   4.244   2.930 -1.7397  1.4879 -0.8546
 5575SOL    HW217625   1.580   4.394   2.945 -0.2520  1.0095 -1.8770
 5576SOL     OW17626   3.343   5.209   6.240 -0.6385  0.4659 -0.0162
 5576SOL    HW117627   3.323   5.113   6.259 -1.7537  0.3884 -1.4575
 5576SOL    HW217628   3.260   5.255   6.210  0.0337  1.7335 -0.0047
 5577SOL     OW17629   3.903   6.882   6.564  0.2023 -0.0194  0.2758
 5577SOL    HW117630   3.936   6.865   6.657  0.2583  2.4008  0.7772
 5577SOL    HW217631   3.805   6.867   6.560  0.0255  0.8290  1.0388
 5578SOL     OW17632   0.971   3.185   1.057  0.0924 -0.1894  0.1800
 5578SOL    HW117633   0.913   3.190   0.975 -1.2149 -1.7871  0.9519
 5578SOL    HW217634   1.034   3.107   1.048  0.6219  0.2217  0.2860
 5579SOL     OW17635   1.992   4.824   5.093 -0.3470  0.1091 -0.2103
 5579SOL    HW117636   2.031   4.763   5.023 -2.0593 -2.8222  1.2102
 5579SOL    HW217637   2.030   4.800   5.182 -2.4249 -0.2248  0.6421
 5580SOL     OW17638   4.316   1.225   4.733 -0.8443 -0.5025  0.3095
 5580SOL    HW117639   4.257   1.157   4.689 -0.9326  0.0548 -0.4548
 5580SOL    HW217640   4.283   1.243   4.826 -1.1679 -1.0686  0.3074
 5581SOL     OW17641   1.305   1.641   4.723 -0.0958 -0.1680  0.0720
 5581SOL    HW117642   1.324   1.738   4.733  0.4238 -0.3891  1.4353
 5581SOL    HW217643   1.271   1.604   4.810 -0.0763 -1.2397 -0.3550
 5582SOL     OW17644   3.519   2.900   4.174 -0.1758  0.5706 -0.5776
 5582SOL    HW117645   3.573   2.887   4.257  0.6114  1.2775 -0.9571
 5582SOL    HW217646   3.427   2.931   4.199 -0.2403 -0.0999  0.0565
 5583SOL     OW17647   2.157   1.913   2.632  0.1221 -0.5582  0.4397
 5583SOL    HW117648   2.155   1.814   2.616 -1.3239 -0.3773 -0.7895
 5583SOL    HW217649   2.230   1.954   2.577 -1.2835 -0.6154 -1.5851
 5584SOL     OW17650   1.306   3.842   0.199 -0.4759  0.0654 -0.0714
 5584SOL    HW117651   1.387   3.826   0.143 -0.4931  0.7965 -0.3170
 5584SOL    HW217652   1.318   3.799   0.288  0.1271  0.0748 -0.1454
 5585SOL     OW17653   1.890   2.762   4.629  0.2118  0.6452  0.1204
 5585SOL    HW117654   1.936   2.829   4.687  1.5016  0.0788 -0.2068
 5585SOL    HW217655   1.841   2.809   4.556  1.2745  1.2437 -0.2324
 5586SOL     OW17656   3.418   5.729   1.369 -0.3989  0.6457 -0.4024
 5586SOL    HW117657   3.404   5.801   1.438 -0.4510 -0.8578  1.2163
 5586SOL    HW217658   3.394   5.640   1.408  0.3673 -0.3595 -2.1196
 5587SOL     OW17659   1.748   2.361   4.153  0.2280 -0.0416  0.1391
 5587SOL    HW117660   1.665   2.366   4.098 -0.7681  0.6473  1.6157
 5587SOL    HW217661   1.795   2.450   4.152  3.3110 -1.4210 -3.9890
 5588SOL     OW17662   0.050   1.844   2.636 -0.3550 -0.0014 -0.1386
 5588SOL    HW117663   0.041   1.862   2.538 -1.0650 -0.3918 -0.1548
 5588SOL    HW217664   0.009   1.755   2.657  0.4233 -0.2416  0.4069
 5589SOL     OW17665   6.618   5.029   2.019  0.9965 -0.4485  0.0937
 5589SOL    HW117666   6.554   5.055   2.091 -0.5285 -0.4202 -1.2044
 5589SOL    HW217667   6.630   5.105   1.956  4.7066  0.6348  1.8447
 5590SOL     OW17668   3.045   5.947   6.458 -0.0480  0.0908 -0.7124
 5590SOL    HW117669   2.976   6.019   6.448 -0.9019 -0.4584  0.9275
 5590SOL    HW217670   3.035   5.903   6.547 -0.1834 -2.6976 -1.9914
 5591SOL     OW17671   3.146   1.271   2.144  0.1177  0.6508 -0.7197
 5591SOL    HW117672   3.202   1.189   2.135  1.1071  0.6642  3.3395
 5591SOL    HW217673   3.203   1.347   2.174 -1.6045  1.2655  1.2692
 5592SOL     OW17674   2.748   1.525   4.080 -0.3619 -0.6377  0.1455
 5592SOL    HW117675   2.657   1.552   4.110  0.3683  1.1360  0.9013
 5592SOL    HW217676   2.771   1.574   3.995  0.3420 -0.0905  0.6346
 5593SOL     OW17677   1.311   2.047   3.850 -0.6557  0.0373 -0.4577
 5593SOL    HW117678   1.404   2.038   3.814  1.5186  2.6193  3.6619
 5593SOL    HW217679   1.305   2.003   3.939 -2.1445  2.9555  1.0318
 5594SOL     OW17680   5.002   4.161   5.700  0.0444  0.1179  0.1648
 5594SOL    HW117681   5.007   4.194   5.794  0.9276 -1.3012  0.6339
 5594SOL    HW217682   5.041   4.230   5.638 -1.6053  1.5698  0.6627
 5595SOL     OW17683   3.958   6.093   4.522 -0.3510 -0.0731 -0.7184
 5595SOL    HW117684   3.907   6.012   4.495 -0.3787  0.6686 -3.1988
 5595SOL    HW217685   3.902   6.174   4.507  0.4487  0.5424 -0.4696
 5596SOL     OW17686   6.925   2.804   6.951  0.6405 -0.4650  0.7673
 5596SOL    HW117687   6.946   2.824   7.047 -1.3812 -1.0004  1.3643
 5596SOL    HW217688   6.864   2.726   6.946 -1.2014  0.9701 -0.7840
 5597SOL     OW17689   4.779   5.734   3.800  0.2773 -0.6611 -0.3715
 5597SOL    HW117690   4.739   5.815   3.756  0.5337 -0.6564 -0.5964
 5597SOL    HW217691   4.705   5.676   3.835  0.1038 -0.1138  0.1852
 5598SOL     OW17692   5.398   0.234   3.051  0.0300 -0.3444 -0.5923
 5598SOL    HW117693   5.314   0.189   3.020 -1.8845  1.1401  2.1052
 5598SOL    HW217694   5.385   0.333   3.052  2.2127  0.0094 -1.0164
 5599SOL     OW17695   0.554   3.418   6.696 -0.7996 -0.4659 -0.0545
 5599SOL    HW117696   0.620   3.460   6.757  0.2667  0.1724 -1.5791
 5599SOL    HW217697   0.531   3.326   6.729 -0.9482  0.1890  1.7434
 5600SOL     OW17698   1.006   5.047   1.541 -0.3800 -0.2078 -0.7857
 5600SOL    HW117699   0.933   4.985   1.569  0.8929 -1.3905  0.1239
 5600SOL    HW217700   1.026   5.034   1.444 -1.2030 -0.0480 -0.9803
 5601SOL     OW17701   6.977   4.793   6.892  0.2069  0.1479 -0.4074
 5601SOL    HW117702   6.989   4.735   6.812 -1.5253 -0.2662 -0.3914
 5601SOL    HW217703   7.058   4.852   6.902  2.1811 -2.3998 -0.2328
 5602SOL     OW17704   0.018   0.507   1.214  0.5279 -0.0071  0.1254
 5602SOL    HW117705   0.066   0.463   1.138 -0.5301 -1.7004  0.3914
 5602SOL    HW217706  -0.023   0.593   1.182  2.3853  0.6997 -0.4801
 5603SOL     OW17707   3.660   2.850   2.821  0.1289  0.1997  0.0787
 5603SOL    HW117708   3.587   2.883   2.762  0.2713 -0.7752 -0.6532
 5603SOL    HW217709   3.742   2.834   2.768  0.3138 -0.5220  0.5615
 5604SOL     OW17710   2.333   5.163   3.423 -0.0588 -0.1064 -1.1225
 5604SOL    HW117711   2.321   5.261   3.409 -0.8043 -0.1815 -1.0106
 5604SOL    HW217712   2.424   5.146   3.462 -1.2424  0.8582  2.3665
 5605SOL     OW17713   5.207   3.416   1.801 -0.1355 -0.2769  0.3302
 5605SOL    HW117714   5.293   3.407   1.750 -0.2610 -3.4392  0.4742
 5605SOL    HW217715   5.226   3.423   1.898 -0.0042 -0.9636  0.3609
 5606SOL     OW17716   5.786   4.575   6.755 -0.7133 -0.0076 -0.0265
 5606SOL    HW117717   5.705   4.600   6.702 -0.0647 -0.7406 -1.4420
 5606SOL    HW217718   5.784   4.477   6.775 -1.4594  0.4245  2.2916
 5607SOL     OW17719   2.594   1.718   1.115 -0.1415  0.7411  0.0926
 5607SOL    HW117720   2.685   1.743   1.083  0.4240  0.5653  1.4966
 5607SOL    HW217721   2.560   1.788   1.178 -0.3629  0.0867  0.7123
 5608SOL     OW17722   2.299   4.420   4.791  0.7290 -0.2789 -0.3988
 5608SOL    HW117723   2.229   4.449   4.856  2.3840  1.2416  0.8160
 5608SOL    HW217724   2.332   4.329   4.815 -0.4623 -0.8234 -0.7198
 5609SOL     OW17725   1.491   4.355   3.297 -0.5111 -0.1470  0.0800
 5609SOL    HW117726   1.568   4.292   3.291  0.7827  1.3068  0.6941
 5609SOL    HW217727   1.494   4.402   3.385 -3.0340 -1.1579  0.8121
 5610SOL     OW17728   0.974   6.426   2.371  0.1709  0.2122 -0.6993
 5610SOL    HW117729   1.045   6.454   2.435 -0.9030 -0.7146  0.9842
 5610SOL    HW217730   0.896   6.490   2.378  0.2478  0.4048 -1.4848
 5611SOL     OW17731   1.206   0.260   5.577 -0.2573  0.0240 -0.4040
 5611SOL    HW117732   1.284   0.296   5.629  0.1041 -0.8298 -0.3337
 5611SOL    HW217733   1.186   0.321   5.501  0.1124  0.5546 -0.0828
 5612SOL     OW17734   4.720   3.359   5.265 -0.3263  0.1219  0.3581
 5612SOL    HW117735   4.726   3.439   5.206  1.2121  0.5307  1.0093
 5612SOL    HW217736   4.785   3.289   5.234 -0.5302 -0.2394  0.7276
 5613SOL     OW17737   0.130   5.941   1.240 -0.0594 -0.2850 -0.3200
 5613SOL    HW117738   0.042   5.895   1.229  0.4176 -1.8233  1.6044
 5613SOL    HW217739   0.169   5.917   1.329  1.6247  1.5669 -0.4866
 5614SOL     OW17740   1.932   3.196   4.981  0.0188  0.5883  0.1306
 5614SOL    HW117741   1.856   3.155   5.031  0.3104 -0.1922 -0.0550
 5614SOL    HW217742   2.008   3.214   5.043 -0.6745  2.3791  0.5430
 5615SOL     OW17743   4.161   5.677   2.771 -0.2856  0.5381 -0.1520
 5615SOL    HW117744   4.105   5.618   2.829 -0.6233  1.4764  0.5039
 5615SOL    HW217745   4.235   5.716   2.825  0.6511 -0.2134 -0.8721
 5616SOL     OW17746   4.883   6.342   0.121 -0.1023 -0.2747  0.2102
 5616SOL    HW117747   4.826   6.423   0.134  0.1378  0.2801 -1.8730
 5616SOL    HW217748   4.966   6.351   0.175  0.8091  1.8152 -1.3912
 5617SOL     OW17749   0.851   6.839   1.510  0.0989 -0.0955 -0.1663
 5617SOL    HW117750   0.785   6.779   1.465 -0.2447  0.3340 -0.2452
 5617SOL    HW217751   0.911   6.785   1.569 -0.8406 -0.3985  0.5360
 5618SOL     OW17752   6.136   0.432   4.855  0.1332  0.5842 -0.6559
 5618SOL    HW117753   6.079   0.350   4.849  0.7622  0.0436  0.3969
 5618SOL    HW217754   6.091   0.507   4.807 -2.2946  0.6501  1.4723
 5619SOL     OW17755   3.500   2.084   3.069  0.2724  0.2617 -0.3648
 5619SOL    HW117756   3.532   2.144   2.995  0.8193  0.5045  0.0560
 5619SOL    HW217757   3.401   2.090   3.077  0.2965  0.9019 -0.5100
 5620SOL     OW17758   1.884   5.455   5.175 -0.1444 -0.2487 -0.2680
 5620SOL    HW117759   1.919   5.395   5.246  0.6078  1.0799  0.5114
 5620SOL    HW217760   1.896   5.412   5.085  0.0704 -1.3823  0.2944
 5621SOL     OW17761   2.003   4.048   2.827  0.2445  0.2033  0.4061
 5621SOL    HW117762   1.940   4.105   2.879 -1.5866 -1.2199 -0.1477
 5621SOL    HW217763   1.982   4.055   2.729  0.2922 -1.0049  0.2857
 5622SOL     OW17764   5.669   5.008   2.647  0.3400 -0.7055  0.0601
 5622SOL    HW117765   5.579   4.978   2.680 -0.7384  1.8174 -0.4153
 5622SOL    HW217766   5.686   4.967   2.557 -0.1596 -1.4641  0.2966
 5623SOL     OW17767   3.633   6.271   3.349 -0.4818  0.5921 -0.0103
 5623SOL    HW117768   3.707   6.316   3.300 -0.3941  0.0591 -0.3733
 5623SOL    HW217769   3.569   6.231   3.283 -0.8813  0.7112  0.3033
 5624SOL     OW17770   5.797   0.796   0.218  0.5566  0.3679  0.6123
 5624SOL    HW117771   5.823   0.802   0.122 -2.7233 -0.6414 -0.4686
 5624SOL    HW217772   5.820   0.882   0.264  0.6329  1.5319 -1.4969
 5625SOL     OW17773   2.754   0.083   5.212  0.0581  0.1211  0.0459
 5625SOL    HW117774   2.668   0.106   5.167 -1.5695 -1.1151  2.2701
 5625SOL    HW217775   2.828   0.084   5.146 -1.8237  0.2106 -2.1919
 5626SOL     OW17776   5.200   2.361   0.590 -0.2505 -0.3111 -0.4298
 5626SOL    HW117777   5.265   2.433   0.614 -1.3169  0.8706 -0.9971
 5626SOL    HW217778   5.250   2.280   0.558  0.9855 -0.0363  0.7051
 5627SOL     OW17779   6.557   1.856   2.639  0.2966  0.1471  0.2231
 5627SOL    HW117780   6.559   1.766   2.682  2.3321  0.9402  1.9529
 5627SOL    HW217781   6.631   1.863   2.572  1.0243  0.9717  1.0933
 5628SOL     OW17782   3.119   0.691   0.154  0.1892  0.2232  0.0374
 5628SOL    HW117783   3.050   0.622   0.178  0.2927 -0.3506 -1.2414
 5628SOL    HW217784   3.131   0.694   0.055 -0.3143  2.5972 -0.0144
 5629SOL     OW17785   0.874   3.312   5.776 -0.2315 -0.2894  0.2283
 5629SOL    HW117786   0.895   3.367   5.857  0.3013  1.7516 -1.2263
 5629SOL    HW217787   0.849   3.372   5.700 -4.7966 -2.2192 -0.1413
 5630SOL     OW17788   5.573   1.433   4.351 -0.1604  0.5803  0.1795
 5630SOL    HW117789   5.550   1.527   4.375  0.6703  0.9241 -0.3210
 5630SOL    HW217790   5.490   1.385   4.321 -0.4929  1.3235 -0.1183
 5631SOL     OW17791   3.243   6.179   2.095  0.2064 -0.4503 -0.0591
 5631SOL    HW117792   3.264   6.111   2.024 -0.9720 -0.6673 -0.2268
 5631SOL    HW217793   3.325   6.198   2.149  1.4230  0.4790 -2.1184
 5632SOL     OW17794   6.092   1.469   2.601  0.3924  0.1379 -0.3924
 5632SOL    HW117795   6.085   1.439   2.696  0.0473  4.5559  1.2432
 5632SOL    HW217796   6.015   1.433   2.548 -0.9777 -0.2365  1.7501
 5633SOL     OW17797   3.274   0.674   3.503 -0.1312  0.2835 -0.3409
 5633SOL    HW117798   3.354   0.727   3.476 -1.5224  1.6659 -1.9621
 5633SOL    HW217799   3.269   0.591   3.447 -0.3546  0.6793 -0.9096
 5634SOL     OW17800   0.077   1.085   6.068 -0.3898 -0.4493  0.4409
 5634SOL    HW117801   0.054   1.038   6.153 -0.6001 -0.2823  0.4765
 5634SOL    HW217802   0.176   1.088   6.058 -0.2409  1.6419  1.8801
 5635SOL     OW17803   5.989   0.648   6.583 -0.0454 -0.3089 -0.0663
 5635SOL    HW117804   6.003   0.746   6.566  1.1943 -0.1386  1.6293
 5635SOL    HW217805   5.892   0.629   6.596 -0.1369  1.1767  1.9708
 5636SOL     OW17806   5.518   1.226   3.690 -0.1252  0.6595  0.5567
 5636SOL    HW117807   5.490   1.240   3.785  0.2523 -1.3407  1.0083
 5636SOL    HW217808   5.611   1.261   3.677  0.2968 -0.1550  1.2750
 5637SOL     OW17809   5.486   4.062   3.136  0.4201  0.3133 -0.0487
 5637SOL    HW117810   5.411   4.046   3.200  1.7267  0.5660  1.6278
 5637SOL    HW217811   5.465   4.141   3.078 -0.0174  1.2578  1.3625
 5638SOL     OW17812   4.309   3.690   6.627  0.3590  0.2889  0.0068
 5638SOL    HW117813   4.218   3.649   6.614  1.1133 -0.7187 -2.6490
 5638SOL    HW217814   4.366   3.672   6.547  2.5690  1.8944  1.1078
 5639SOL     OW17815   5.494   1.319   6.828 -0.5359  0.2190  0.0551
 5639SOL    HW117816   5.428   1.254   6.867 -0.1911  0.3575  0.9011
 5639SOL    HW217817   5.492   1.312   6.729 -1.3461 -0.2516  0.0880
 5640SOL     OW17818   6.416   1.791   6.830 -0.1558 -0.1982 -0.0771
 5640SOL    HW117819   6.427   1.693   6.849  2.3840 -0.1059 -0.6799
 5640SOL    HW217820   6.377   1.803   6.739 -0.6504 -0.6506  0.0720
 5641SOL     OW17821   1.843   6.126   1.052  0.5577  0.2125  0.0285
 5641SOL    HW117822   1.897   6.063   0.997  1.4579  0.2712  0.8085
 5641SOL    HW217823   1.836   6.091   1.146 -2.1925 -0.6463 -0.4118
 5642SOL     OW17824   2.031   4.775   4.206 -0.2330  0.0658 -0.2573
 5642SOL    HW117825   2.070   4.852   4.156 -0.1414 -0.0263 -0.3270
 5642SOL    HW217826   1.962   4.809   4.271  0.2594  0.2727  0.1646
 5643SOL     OW17827   2.964   2.925   5.332  0.2625  0.1720 -0.2987
 5643SOL    HW117828   2.874   2.897   5.367 -0.0657 -1.1281 -2.0457
 5643SOL    HW217829   2.955   3.014   5.287  0.0618  0.4826  0.3407
 5644SOL     OW17830   6.902   0.793   5.545  0.1236 -0.5440  0.1784
 5644SOL    HW117831   6.897   0.871   5.483 -1.0506 -0.5492  0.2358
 5644SOL    HW217832   6.968   0.726   5.511 -0.4005 -0.4840 -0.9818
 5645SOL     OW17833   4.865   6.009   5.313 -0.4116  0.3218  0.0029
 5645SOL    HW117834   4.812   6.027   5.397  0.2310 -0.9416  0.7003
 5645SOL    HW217835   4.963   6.010   5.335 -0.2444 -0.1354 -0.7043
 5646SOL     OW17836   1.675   3.654   4.658  0.1717  0.2190  0.0419
 5646SOL    HW117837   1.676   3.646   4.558 -0.2265  0.1530  0.0413
 5646SOL    HW217838   1.761   3.693   4.689  0.6422 -0.5589 -0.2643
 5647SOL     OW17839   0.038   5.844   5.048  0.1047 -0.1030 -0.3275
 5647SOL    HW117840   0.003   5.917   5.107 -0.0978 -0.2151 -0.3105
 5647SOL    HW217841  -0.013   5.760   5.065  1.9557 -0.9489  1.5140
 5648SOL     OW17842   6.143   3.970   2.706 -0.3659  0.5666 -0.5459
 5648SOL    HW117843   6.229   3.931   2.672 -0.7244 -0.1861 -0.6065
 5648SOL    HW217844   6.164   4.048   2.766  0.4358 -0.5624  0.6901
 5649SOL     OW17845   0.380   4.233   0.416  0.5026  0.1726  0.1858
 5649SOL    HW117846   0.439   4.248   0.337 -1.1989  1.0657 -1.0040
 5649SOL    HW217847   0.292   4.196   0.384 -0.3522  0.9092  1.6122
 5650SOL     OW17848   5.834   5.706   0.323  0.9339 -0.3876  0.2886
 5650SOL    HW117849   5.781   5.636   0.275  1.0441 -0.7577  0.6999
 5650SOL    HW217850   5.890   5.756   0.258  0.3762 -0.2554 -0.1000
 5651SOL     OW17851   3.926   5.463   3.988  0.5355 -0.6468  0.2707
 5651SOL    HW117852   3.855   5.516   3.940  0.0705 -0.6035  0.9729
 5651SOL    HW217853   3.894   5.443   4.081  0.5855 -2.4099 -0.0597
 5652SOL     OW17854   3.360   2.083   4.575  0.4145 -0.3364 -0.5143
 5652SOL    HW117855   3.306   2.009   4.535  0.4408 -0.6647  0.0309
 5652SOL    HW217856   3.430   2.113   4.511 -0.2779 -0.0512 -1.1480
 5653SOL     OW17857   0.424   1.058   3.195 -1.0391  0.1209  0.1143
 5653SOL    HW117858   0.502   1.087   3.251 -1.6698  1.4372  0.3310
 5653SOL    HW217859   0.457   0.998   3.122 -0.1578 -1.4478  1.7094
 5654SOL     OW17860   0.820   3.532   5.647  0.1220  0.4215 -0.3438
 5654SOL    HW117861   0.748   3.521   5.579 -0.1509  3.5882 -0.6905
 5654SOL    HW217862   0.779   3.551   5.736  0.4698  1.7969 -0.4549
 5655SOL     OW17863   4.174   5.350   2.537  0.0395  0.2934 -0.3628
 5655SOL    HW117864   4.113   5.389   2.606 -0.4933 -2.1291  0.6440
 5655SOL    HW217865   4.249   5.414   2.519 -1.1977  2.0947  0.5240
 5656SOL     OW17866   2.213   6.997   1.016  0.1370 -0.1612 -0.4982
 5656SOL    HW117867   2.206   7.084   1.064  2.0043 -1.0419  1.5144
 5656SOL    HW217868   2.167   6.926   1.070  0.4407 -0.8053 -1.0777
 5657SOL     OW17869   3.685   5.560   3.919 -0.3961 -0.0241  0.0640
 5657SOL    HW117870   3.671   5.570   3.821  1.1126 -0.4304 -0.2059
 5657SOL    HW217871   3.601   5.524   3.961 -1.2952  0.8171 -0.9458
 5658SOL     OW17872   6.679   2.641   3.079  0.1718  0.4019  0.3689
 5658SOL    HW117873   6.774   2.610   3.082 -0.5704 -2.2446 -0.3887
 5658SOL    HW217874   6.672   2.721   3.019  1.8195  0.1954 -0.1513
 5659SOL     OW17875   3.514   3.701   5.484  0.2750  0.7424 -0.4220
 5659SOL    HW117876   3.500   3.763   5.407  0.9414  0.1933 -0.9980
 5659SOL    HW217877   3.458   3.731   5.561  2.0515  3.2826  0.0351
 5660SOL     OW17878   0.284   4.686   1.911 -0.1327 -0.2425  0.7434
 5660SOL    HW117879   0.235   4.753   1.856 -1.2560 -0.7862  1.0524
 5660SOL    HW217880   0.346   4.634   1.853 -0.4101  0.0067  0.2181
 5661SOL     OW17881   6.818   6.616   0.467  0.1584  0.1562 -0.0752
 5661SOL    HW117882   6.910   6.654   0.472  1.1579 -2.0439 -0.6078
 5661SOL    HW217883   6.774   6.621   0.557  0.6923  1.3886  0.1364
 5662SOL     OW17884   6.323   0.214   0.990 -0.1103 -0.5624 -0.2493
 5662SOL    HW117885   6.369   0.297   0.959  1.8015 -0.8324  1.6283
 5662SOL    HW217886   6.306   0.154   0.912 -2.3985  1.9021 -1.7995
 5663SOL     OW17887   0.938   2.664   0.926 -0.2378 -0.0003 -0.1992
 5663SOL    HW117888   0.912   2.673   0.830 -0.5857 -1.8969 -0.3044
 5663SOL    HW217889   0.964   2.570   0.946 -0.0997  0.3680  1.5654
 5664SOL     OW17890   2.691   3.089   5.290  0.3577  0.9675 -0.3938
 5664SOL    HW117891   2.687   3.179   5.334  0.7970  1.4969 -1.3895
 5664SOL    HW217892   2.603   3.069   5.247  0.0331  0.5944  0.4181
 5665SOL     OW17893   5.513   5.152   5.858 -0.1926 -0.1634  0.7036
 5665SOL    HW117894   5.466   5.240   5.853 -0.1855 -0.1748  0.4290
 5665SOL    HW217895   5.579   5.146   5.783  0.9152  0.2459  1.6168
 5666SOL     OW17896   6.344   5.026   5.036  0.6437  0.6795 -0.1996
 5666SOL    HW117897   6.294   5.084   4.971 -1.9718  1.8832  2.6417
 5666SOL    HW217898   6.410   5.081   5.086  1.3564  0.1503 -0.5354
 5667SOL     OW17899   0.536   6.383   4.281  0.0198 -0.6405 -0.0052
 5667SOL    HW117900   0.636   6.382   4.283  0.1067  0.8732 -1.3305
 5667SOL    HW217901   0.505   6.449   4.212 -1.9050  0.2896  1.6607
 5668SOL     OW17902   1.225   6.011   5.074 -0.6938 -0.1011 -0.2234
 5668SOL    HW117903   1.160   5.947   5.031 -3.2845  0.6985  2.1805
 5668SOL    HW217904   1.176   6.094   5.100  0.5416 -0.5068  4.1872
 5669SOL     OW17905   6.309   6.940   5.743 -0.2346 -0.2678 -0.2645
 5669SOL    HW117906   6.394   6.926   5.793  0.4132 -0.5429 -1.4056
 5669SOL    HW217907   6.238   6.973   5.805  1.0516  1.2426  0.4622
 5670SOL     OW17908   6.606   2.463   3.307  0.6359 -0.2318  0.8004
 5670SOL    HW117909   6.655   2.504   3.230 -1.7573  1.1195 -0.1069
 5670SOL    HW217910   6.567   2.376   3.278 -0.6036  0.4678  0.3268
 5671SOL     OW17911   3.883   6.078   2.211  0.2799 -0.2989  0.2362
 5671SOL    HW117912   3.856   6.099   2.117 -0.0269  0.2861  0.4506
 5671SOL    HW217913   3.909   6.162   2.257  0.1461 -0.5453  0.7663
 5672SOL     OW17914   5.658   6.823   1.215 -0.0692  1.0541  0.0826
 5672SOL    HW117915   5.623   6.862   1.300 -2.3718  0.6883 -0.6257
 5672SOL    HW217916   5.620   6.872   1.137  1.7885  1.2068 -0.7832
 5673SOL     OW17917   1.054   4.624   3.378  0.0057  0.6087 -0.2336
 5673SOL    HW117918   0.985   4.596   3.311 -1.0364  2.1041  0.1524
 5673SOL    HW217919   1.093   4.543   3.422  0.9515 -0.4643 -2.8054
 5674SOL     OW17920   1.011   3.976   6.626 -0.0148 -0.2057  0.1928
 5674SOL    HW117921   1.075   4.045   6.659  1.1377 -1.1504  0.0134
 5674SOL    HW217922   0.969   3.930   6.704 -0.0239  0.0028  0.3133
 5675SOL     OW17923   4.703   2.774   5.463  0.9465 -0.8047 -0.0433
 5675SOL    HW117924   4.751   2.827   5.533  2.8600 -0.9022 -1.1836
 5675SOL    HW217925   4.610   2.808   5.452  1.1890  0.3750  1.2939
 5676SOL     OW17926   2.946   3.499   4.308 -0.1680 -0.0278 -0.2683
 5676SOL    HW117927   2.932   3.402   4.291  2.1974 -0.5330  0.2972
 5676SOL    HW217928   2.969   3.545   4.222 -0.5875 -0.1002 -0.4211
 5677SOL     OW17929   0.576   0.506   4.958  0.1927  0.6917 -0.4076
 5677SOL    HW117930   0.546   0.416   4.991  2.1231  0.3477  0.5605
 5677SOL    HW217931   0.558   0.513   4.860 -1.2939 -0.1610 -0.2326
 5678SOL     OW17932   6.629   0.156   6.073  0.5463 -0.0795  0.2436
 5678SOL    HW117933   6.667   0.120   6.158 -0.8534 -1.1176  0.4867
 5678SOL    HW217934   6.603   0.080   6.014  2.1803  0.6255 -1.4810
 5679SOL     OW17935   4.900   5.527   1.427  0.4335  0.4268 -0.0448
 5679SOL    HW117936   4.815   5.491   1.388  0.4804 -1.2690  1.3068
 5679SOL    HW217937   4.879   5.583   1.507  0.5537  0.7971 -0.2673
 5680SOL     OW17938   6.658   4.998   2.386  0.5266  0.2702  0.0833
 5680SOL    HW117939   6.589   5.014   2.316  3.8053  0.1594 -3.5180
 5680SOL    HW217940   6.652   4.903   2.417 -0.9312  0.2859 -0.1039
 5681SOL     OW17941   6.924   6.035   5.182 -0.1139  0.7053  0.0154
 5681SOL    HW117942   6.884   6.111   5.132  0.9652  1.3747  0.1399
 5681SOL    HW217943   6.971   6.070   5.263 -1.5292 -0.3196  1.3278
 5682SOL     OW17944   1.621   6.879   3.164 -0.1800  0.7543 -0.1676
 5682SOL    HW117945   1.605   6.963   3.215  0.9084  0.8676  0.0085
 5682SOL    HW217946   1.562   6.806   3.200 -0.6146  1.2510  0.1435
 5683SOL     OW17947   2.806   0.771   2.662  0.3917  0.0991 -0.5594
 5683SOL    HW117948   2.757   0.714   2.596 -3.5333  2.4704 -0.0495
 5683SOL    HW217949   2.778   0.747   2.754  2.1082  0.0187 -0.0185
 5684SOL     OW17950   4.859   5.446   4.168  0.1602 -0.1786 -0.2579
 5684SOL    HW117951   4.873   5.394   4.084 -2.0352  0.0095 -0.7883
 5684SOL    HW217952   4.917   5.408   4.240  0.4478 -1.7624 -1.2746
 5685SOL     OW17953   5.598   0.104   0.924 -0.0693  0.3221 -0.3233
 5685SOL    HW117954   5.661   0.030   0.899 -0.8904 -0.7878  0.7186
 5685SOL    HW217955   5.582   0.102   1.023 -1.7344  0.5463 -0.5561
 5686SOL     OW17956   1.074   4.907   5.288  0.6238  0.1698 -0.2570
 5686SOL    HW117957   1.035   4.976   5.227 -0.5964 -1.5940 -1.5568
 5686SOL    HW217958   1.008   4.885   5.360  0.7734 -0.0658 -0.1903
 5687SOL     OW17959   0.360   6.804   3.955  0.1698  0.2788  0.5494
 5687SOL    HW117960   0.422   6.882   3.960 -0.1186  0.4782  1.1605
 5687SOL    HW217961   0.267   6.834   3.980  0.3929 -0.6215  2.6941
 5688SOL     OW17962   1.367   2.117   3.001 -0.1108 -0.2182 -0.2836
 5688SOL    HW117963   1.269   2.105   3.010 -0.2006  1.5597  1.5653
 5688SOL    HW217964   1.399   2.190   3.061  2.0372  0.7525 -2.3919
 5689SOL     OW17965   5.952   2.827   2.538  0.8240 -0.0072  0.2441
 5689SOL    HW117966   5.865   2.786   2.567  0.3952  1.1059  0.5760
 5689SOL    HW217967   5.965   2.812   2.440  1.1853 -1.8179  0.5398
 5690SOL     OW17968   1.300   4.404   1.687  0.6023  0.4113 -0.0202
 5690SOL    HW117969   1.265   4.364   1.602 -3.1648 -0.5122  1.7583
 5690SOL    HW217970   1.349   4.334   1.739  0.6674  0.2610 -0.2817
 5691SOL     OW17971   2.555   5.060   4.294  0.2638 -0.3745 -0.5747
 5691SOL    HW117972   2.519   4.998   4.363 -0.4984 -0.6042 -1.1698
 5691SOL    HW217973   2.509   5.149   4.301  2.3985  0.6960  1.2761
 5692SOL     OW17974   1.348   3.599   1.266 -0.0395 -0.3530 -0.5244
 5692SOL    HW117975   1.435   3.584   1.311  0.7468  2.2728 -1.0197
 5692SOL    HW217976   1.286   3.647   1.328 -1.2130 -2.2377 -0.1558
 5693SOL     OW17977   5.446   3.020   0.486  0.5135 -0.2732 -0.6158
 5693SOL    HW117978   5.353   2.987   0.504  0.3690 -0.3386 -1.4617
 5693SOL    HW217979   5.457   3.110   0.528 -0.3635  0.3155 -1.5903
 5694SOL     OW17980   6.447   6.870   1.137  0.0881 -0.0499 -0.7610
 5694SOL    HW117981   6.396   6.920   1.208  0.1267 -2.3214  0.9915
 5694SOL    HW217982   6.398   6.787   1.113  1.9519 -1.2970 -0.4802
 5695SOL     OW17983   4.132   3.808   5.722 -0.5153 -0.5834  0.5892
 5695SOL    HW117984   4.141   3.752   5.640 -0.9939  1.3575 -0.8589
 5695SOL    HW217985   4.167   3.757   5.801  0.1734 -2.4231 -0.8247
 5696SOL     OW17986   1.437   2.319   4.526 -0.2778  0.0475 -0.0619
 5696SOL    HW117987   1.501   2.395   4.538 -0.5886  0.3160 -0.1125
 5696SOL    HW217988   1.480   2.250   4.467 -0.0881  0.2963 -0.2208
 5697SOL     OW17989   0.291   6.603   2.084 -0.4805 -0.3294 -0.1373
 5697SOL    HW117990   0.381   6.640   2.106 -0.9005  1.2124 -0.8316
 5697SOL    HW217991   0.260   6.640   1.996 -1.5380 -1.2918 -0.1935
 5698SOL     OW17992   4.546   1.513   0.628  0.2906 -0.9434  0.4315
 5698SOL    HW117993   4.446   1.508   0.632  0.0541  0.9220 -1.2537
 5698SOL    HW217994   4.584   1.421   0.636 -1.7625 -2.1620 -2.0256
 5699SOL     OW17995   4.320   6.173   2.022 -0.2521  0.3697 -0.3631
 5699SOL    HW117996   4.299   6.127   1.935 -0.7523  1.1288 -0.6569
 5699SOL    HW217997   4.331   6.104   2.094 -1.3336 -0.2090 -0.7120
 5700SOL     OW17998   6.419   6.914   0.879 -0.1549 -0.4625  0.1946
 5700SOL    HW117999   6.439   6.905   0.976  0.2257 -2.2712 -0.0266
 5700SOL    HW218000   6.393   6.826   0.842 -2.4290  0.5977 -0.9105
 5701SOL     OW18001   2.099   6.482   6.383 -0.3953  0.1278  0.3116
 5701SOL    HW118002   2.073   6.417   6.454  0.8334 -2.4013 -1.3951
 5701SOL    HW218003   2.074   6.445   6.293  1.2467  1.5552 -0.8031
 5702SOL     OW18004   6.695   3.325   0.771  0.7757  0.4038 -0.5459
 5702SOL    HW118005   6.705   3.415   0.813  0.1459  1.2526 -2.1108
 5702SOL    HW218006   6.785   3.283   0.759  0.9579  0.0485  1.7196
 5703SOL     OW18007   0.722   3.897   5.020 -0.2159 -0.1846  0.3855
 5703SOL    HW118008   0.694   3.947   4.938  2.9605  1.3235  0.0358
 5703SOL    HW218009   0.717   3.959   5.099  1.1120 -0.0988  0.4378
 5704SOL     OW18010   3.930   1.995   5.110  0.3961  0.2146  0.4860
 5704SOL    HW118011   3.979   1.951   5.035  0.0693  0.0203  0.3812
 5704SOL    HW218012   3.976   2.079   5.136  1.8326 -0.8817  1.6344
 5705SOL     OW18013   5.296   6.694   6.290  0.2168 -0.0008 -0.1767
 5705SOL    HW118014   5.202   6.729   6.280 -0.4304 -1.1838  1.3294
 5705SOL    HW218015   5.358   6.749   6.234 -1.4784  0.3282 -1.8455
 5706SOL     OW18016   4.198   3.625   5.532  0.0039 -1.0854 -0.4126
 5706SOL    HW118017   4.122   3.615   5.468 -0.8587  0.3688  0.3346
 5706SOL    HW218018   4.259   3.546   5.524  0.0084 -0.8988 -3.1088
 5707SOL     OW18019   3.275   4.594   5.340  0.3636  0.2534 -0.2029
 5707SOL    HW118020   3.279   4.497   5.365 -0.5493  0.3974  0.5872
 5707SOL    HW218021   3.182   4.618   5.312  1.0094  0.4819 -2.2819
 5708SOL     OW18022   0.785   1.531   0.836  0.2117 -0.0377  0.2822
 5708SOL    HW118023   0.704   1.473   0.839 -0.9776  1.5831  1.8396
 5708SOL    HW218024   0.832   1.527   0.924  2.6005 -1.8602 -0.9355
 5709SOL     OW18025   6.587   2.132   1.396 -0.1692 -0.2701  0.2582
 5709SOL    HW118026   6.661   2.067   1.379 -1.2845 -0.8796 -2.8528
 5709SOL    HW218027   6.503   2.083   1.416 -0.7238  0.2047 -0.8025
 5710SOL     OW18028   6.247   4.019   6.969 -0.7355 -0.0612 -0.2207
 5710SOL    HW118029   6.315   4.062   7.028  0.1145  0.3440 -1.4590
 5710SOL    HW218030   6.259   3.919   6.972 -0.7452 -0.0498  0.3288
 5711SOL     OW18031   2.808   1.291   0.074  0.3341 -0.1152  0.2801
 5711SOL    HW118032   2.783   1.377   0.118 -0.1291 -0.1288  0.0495
 5711SOL    HW218033   2.906   1.275   0.085  0.2239 -0.1593  1.3871
 5712SOL     OW18034   5.465   4.940   3.294  0.3832  0.7749  0.2331
 5712SOL    HW118035   5.504   4.999   3.365  1.0080 -0.5678  1.0533
 5712SOL    HW218036   5.489   4.845   3.313  0.8555  0.3836 -1.9668
 5713SOL     OW18037   6.975   4.335   6.179 -0.6859  0.2513 -0.4718
 5713SOL    HW118038   7.062   4.302   6.215  0.5835  1.6034 -2.1362
 5713SOL    HW218039   6.940   4.408   6.238 -0.6676 -0.2515  0.1688
 5714SOL     OW18040   0.552   0.499   3.760  0.3101  0.2022 -0.2068
 5714SOL    HW118041   0.498   0.578   3.734  1.2295  0.0988 -2.6455
 5714SOL    HW218042   0.513   0.457   3.842 -1.5764  1.7629 -0.2546
 5715SOL     OW18043   5.610   6.579   4.683  0.3124 -0.5490  0.1281
 5715SOL    HW118044   5.647   6.556   4.774  0.0115  2.3607  1.1000
 5715SOL    HW218045   5.532   6.640   4.694  1.5420  1.5985 -2.0686
 5716SOL     OW18046   5.852   0.039   5.453  0.2577 -0.0010  0.1558
 5716SOL    HW118047   5.926   0.095   5.418  0.4805 -0.9329 -0.9098
 5716SOL    HW218048   5.765   0.087   5.441  0.6236  0.9234  1.0499
 5717SOL     OW18049   3.434   5.408   2.238  0.0531  0.5041 -0.6911
 5717SOL    HW118050   3.533   5.426   2.237  0.2238 -0.3426  0.1728
 5717SOL    HW218051   3.413   5.339   2.168 -0.0936  1.4604 -1.6083
 5718SOL     OW18052   1.524   3.435   2.860  0.3633 -0.3713  0.0866
 5718SOL    HW118053   1.438   3.478   2.888  0.1278  0.1304 -1.3452
 5718SOL    HW218054   1.600   3.498   2.880  0.2057 -0.0462 -0.3291
 5719SOL     OW18055   5.992   1.029   6.993  0.3337 -0.3919 -0.2259
 5719SOL    HW118056   5.992   0.958   6.923  0.9458 -0.6962  0.0698
 5719SOL    HW218057   6.037   1.111   6.958 -0.2745 -0.1817 -0.5301
 5720SOL     OW18058   4.436   5.537   6.150 -0.1241 -0.3661  0.0177
 5720SOL    HW118059   4.528   5.535   6.112 -0.6237  2.7701 -1.6524
 5720SOL    HW218060   4.381   5.464   6.109  0.8467 -0.4402 -1.1857
 5721SOL     OW18061   2.971   1.871   2.258 -0.2615  0.1331 -0.2106
 5721SOL    HW118062   2.992   1.952   2.203 -1.9234  0.9227  0.2697
 5721SOL    HW218063   3.048   1.853   2.320 -1.0873  3.3728  2.0297
 5722SOL     OW18064   4.688   6.643   1.596  0.1094  0.4105  0.5460
 5722SOL    HW118065   4.698   6.547   1.568 -0.7585  0.0089  1.5471
 5722SOL    HW218066   4.768   6.669   1.651  0.6397  0.4543 -0.2359
 5723SOL     OW18067   6.026   4.702   1.885  0.1559 -0.4889 -0.0891
 5723SOL    HW118068   6.123   4.687   1.902 -0.0342 -0.4017  1.2068
 5723SOL    HW218069   5.990   4.631   1.825  1.1732 -0.1038 -1.1809
 5724SOL     OW18070   4.421   1.883   0.749  0.4546  0.2195  0.4443
 5724SOL    HW118071   4.429   1.855   0.844 -0.6161 -0.8992  0.2344
 5724SOL    HW218072   4.449   1.808   0.689 -1.1515  0.0140 -0.1132
 5725SOL     OW18073   1.402   3.590   6.871 -0.7166  0.1523  1.0875
 5725SOL    HW118074   1.458   3.652   6.926  1.8799 -0.9983 -0.1178
 5725SOL    HW218075   1.424   3.495   6.894  0.2590 -0.3662 -1.6204
 5726SOL     OW18076   1.767   0.161   5.169 -0.3066  0.2913 -0.2926
 5726SOL    HW118077   1.703   0.226   5.127 -2.1427  0.6122  2.6834
 5726SOL    HW218078   1.811   0.204   5.248 -1.0464 -1.7350  1.3535
 5727SOL     OW18079   6.520   4.803   3.990 -0.3516  0.0697  0.2481
 5727SOL    HW118080   6.464   4.825   4.070  1.3845 -0.6348  1.7125
 5727SOL    HW218081   6.460   4.783   3.912 -2.0866  0.7286  1.3581
 5728SOL     OW18082   6.759   5.177   1.127 -0.2587 -0.3200  0.2594
 5728SOL    HW118083   6.814   5.198   1.207 -0.8849  1.1753  0.3254
 5728SOL    HW218084   6.681   5.121   1.154  0.8043 -1.8493  0.2760
 5729SOL     OW18085   2.280   2.158   6.125 -0.5183  0.1624 -0.0800
 5729SOL    HW118086   2.364   2.106   6.138 -0.8508 -0.1252  0.9799
 5729SOL    HW218087   2.274   2.188   6.029 -0.0344 -1.2465 -0.5786
 5730SOL     OW18088   4.126   0.519   5.177  0.0179  0.4832 -0.4297
 5730SOL    HW118089   4.120   0.476   5.087  1.8068 -0.8731  0.0326
 5730SOL    HW218090   4.042   0.570   5.195 -1.1535 -0.7379 -2.0862
 5731SOL     OW18091   5.763   6.442   4.323  0.1818  0.3085  0.3749
 5731SOL    HW118092   5.665   6.425   4.319  0.3470 -0.4180 -1.5990
 5731SOL    HW218093   5.811   6.361   4.357  0.1589  0.4817  0.8327
 5732SOL     OW18094   3.810   1.691   1.259 -0.1224  0.5461  0.3216
 5732SOL    HW118095   3.802   1.604   1.308 -0.2079 -0.1625 -0.9170
 5732SOL    HW218096   3.779   1.680   1.165 -0.6998  2.0815  0.2997
 5733SOL     OW18097   1.302   0.464   6.766  0.1161  0.2740  0.1599
 5733SOL    HW118098   1.402   0.464   6.764  0.1153  1.1585 -1.6139
 5733SOL    HW218099   1.271   0.489   6.858  1.4789 -1.2485  1.0898
 5734SOL     OW18100   4.294   0.268   1.623  0.3758 -0.2941  0.2510
 5734SOL    HW118101   4.195   0.258   1.628  0.3539  0.1928  0.9386
 5734SOL    HW218102   4.318   0.365   1.632  0.8868 -0.3471 -0.4550
 5735SOL     OW18103   4.830   4.178   0.436 -0.0466 -0.3261 -0.3067
 5735SOL    HW118104   4.895   4.179   0.360 -1.8077  1.6883 -1.9150
 5735SOL    HW218105   4.833   4.266   0.484 -1.0442 -0.4818  0.0629
 5736SOL     OW18106   0.420   5.777   4.851  0.3784  0.2196 -0.0651
 5736SOL    HW118107   0.512   5.737   4.843  0.3838  0.3683 -0.8355
 5736SOL    HW218108   0.411   5.852   4.786 -0.0776  0.6209  0.4566
 5737SOL     OW18109   3.045   4.866   2.477  0.3828 -0.0616 -0.3905
 5737SOL    HW118110   3.036   4.830   2.570  0.7894  2.7355  0.8017
 5737SOL    HW218111   3.123   4.928   2.471 -1.2909  2.0772 -1.7787
 5738SOL     OW18112   0.350   0.592   3.066 -0.3904 -0.1201  0.1298
 5738SOL    HW118113   0.394   0.617   3.153  1.3115 -2.6010  0.0660
 5738SOL    HW218114   0.341   0.674   3.010  0.9312  1.1079  1.5797
 5739SOL     OW18115   3.276   5.635   0.423  0.4841  0.6905 -0.2045
 5739SOL    HW118116   3.366   5.593   0.407  0.0619 -0.0360 -0.7340
 5739SOL    HW218117   3.281   5.733   0.402  1.0487  0.5825 -0.6027
 5740SOL     OW18118   3.912   1.163   1.086 -0.0887  0.1130  0.1747
 5740SOL    HW118119   3.885   1.073   1.053  1.3686  0.1018 -1.0949
 5740SOL    HW218120   4.011   1.174   1.078  0.0251  1.1112  2.1802
 5741SOL     OW18121   0.704   2.256   1.006  0.3495 -0.5657 -0.6461
 5741SOL    HW118122   0.783   2.203   0.975  2.6572  2.1847  0.1835
 5741SOL    HW218123   0.700   2.343   0.957 -2.0349 -0.4905 -0.4492
 5742SOL     OW18124   1.921   6.812   3.675  0.7101  0.1541  0.2084
 5742SOL    HW118125   1.924   6.893   3.733  2.3431 -0.2482  0.7199
 5742SOL    HW218126   1.898   6.732   3.730 -1.6213  0.3105 -0.4131
 5743SOL     OW18127   1.464   6.707   0.235 -0.0820  0.1035  0.2608
 5743SOL    HW118128   1.382   6.716   0.178  1.2530 -0.0256 -1.7873
 5743SOL    HW218129   1.498   6.613   0.230  2.3137  0.9580 -2.1592
 5744SOL     OW18130   3.337   2.916   1.611 -0.1747  0.0323  0.1133
 5744SOL    HW118131   3.266   2.903   1.680  0.8946 -4.4020  0.6692
 5744SOL    HW218132   3.404   2.982   1.644 -1.5890  0.8193  1.5791
 5745SOL     OW18133   4.844   4.106   1.280  0.1206  0.3895 -0.3836
 5745SOL    HW118134   4.871   4.131   1.373 -1.4563  1.3600 -0.1531
 5745SOL    HW218135   4.744   4.105   1.274  0.1870 -1.0361 -1.7193
 5746SOL     OW18136   4.761   0.145   0.027  0.7374  0.0906  0.2234
 5746SOL    HW118137   4.751   0.127   0.125  3.0388  0.2042  0.5342
 5746SOL    HW218138   4.710   0.227   0.002  1.8412  1.3252  1.8162
 5747SOL     OW18139   3.399   0.872   1.830  0.5417  0.0178 -0.3889
 5747SOL    HW118140   3.466   0.947   1.831  0.9733 -0.3619 -0.0156
 5747SOL    HW218141   3.309   0.908   1.853  0.5419  0.5970 -1.2352
 5748SOL     OW18142   6.945   0.704   1.765  0.5933 -0.3383 -0.4168
 5748SOL    HW118143   7.032   0.655   1.767  0.6967 -0.1822 -0.9853
 5748SOL    HW218144   6.871   0.641   1.743  0.7340 -0.2297 -1.2092
 5749SOL     OW18145   3.528   2.279   5.358 -0.3571 -0.0363  0.1638
 5749SOL    HW118146   3.496   2.259   5.265 -1.1352 -1.4842  0.7151
 5749SOL    HW218147   3.457   2.253   5.423  0.0028  1.3778  1.1659
 5750SOL     OW18148   2.503   5.092   1.837  0.3709 -0.8337 -0.8363
 5750SOL    HW118149   2.579   5.142   1.878 -0.5838  1.1010 -1.3155
 5750SOL    HW218150   2.515   4.994   1.854  1.7383 -0.3965  1.1328
 5751SOL     OW18151   0.427   6.578   3.158  0.3696  0.0438  0.0289
 5751SOL    HW118152   0.439   6.641   3.234  1.6664 -2.0831  1.7052
 5751SOL    HW218153   0.352   6.515   3.179  0.9645 -0.7849 -0.2923
 5752SOL     OW18154   4.533   6.491   2.158 -0.3212 -0.0607  0.2973
 5752SOL    HW118155   4.455   6.456   2.107  0.1115 -1.8348  0.8025
 5752SOL    HW218156   4.573   6.569   2.109 -0.8255 -0.7684 -1.2827
 5753SOL     OW18157   4.028   3.878   2.758 -0.4187  0.4542 -0.4664
 5753SOL    HW118158   4.121   3.911   2.739  0.3210 -1.4882 -0.4440
 5753SOL    HW218159   3.978   3.869   2.671  0.6135 -1.7346 -0.9109
 5754SOL     OW18160   1.327   4.735   1.491 -0.2741 -0.6200  0.1754
 5754SOL    HW118161   1.279   4.801   1.433  0.1713 -0.3091  0.1581
 5754SOL    HW218162   1.348   4.776   1.579  0.7272 -0.4560 -0.1269
 5755SOL     OW18163   5.491   6.876   3.768  0.0067 -0.1934  0.3522
 5755SOL    HW118164   5.482   6.790   3.818 -1.5786  0.5018  1.3177
 5755SOL    HW218165   5.491   6.857   3.669  1.9375 -1.4587  0.5330
 5756SOL     OW18166   1.919   6.473   1.395 -0.0442  0.3842 -0.0792
 5756SOL    HW118167   2.016   6.480   1.371 -0.3061 -0.7206 -1.6021
 5756SOL    HW218168   1.905   6.508   1.488  1.7621  0.7561  0.0900
 5757SOL     OW18169   1.052   3.289   0.582  0.4306 -0.5599 -0.3701
 5757SOL    HW118170   1.105   3.215   0.623  1.7097  0.5776  0.1157
 5757SOL    HW218171   1.082   3.304   0.488  2.2481  1.1658  0.4065
 5758SOL     OW18172   6.343   5.430   3.975 -0.3606 -0.2408 -0.4590
 5758SOL    HW118173   6.413   5.360   3.962  0.0096  0.2187 -0.9624
 5758SOL    HW218174   6.304   5.421   4.066 -0.9732 -1.6971 -0.8398
 5759SOL     OW18175   2.041   6.316   6.578 -0.2335 -0.6450 -0.7826
 5759SOL    HW118176   1.967   6.369   6.618  1.5170  1.1749  0.1947
 5759SOL    HW218177   2.070   6.245   6.642  0.6415  0.3953 -0.0033
 5760SOL     OW18178   3.616   2.133   1.329 -0.0403  0.4540 -0.0423
 5760SOL    HW118179   3.692   2.079   1.293  1.4846  2.1823  0.4338
 5760SOL    HW218180   3.606   2.216   1.274 -1.1723  0.5588  0.3104
 5761SOL     OW18181   3.678   1.937   2.084 -0.0169  0.1088 -0.0863
 5761SOL    HW118182   3.670   2.022   2.032  0.9551  0.0524 -0.3414
 5761SOL    HW218183   3.761   1.940   2.139  0.3306 -0.9257 -0.5515
 5762SOL     OW18184   6.166   4.724   5.979 -0.1989 -0.2154  0.2646
 5762SOL    HW118185   6.222   4.807   5.967 -0.8958  0.4478  1.4284
 5762SOL    HW218186   6.117   4.705   5.895  0.4803  0.1660 -0.2331
 5763SOL     OW18187   1.871   2.702   4.968 -0.4438  0.6282  0.1982
 5763SOL    HW118188   1.907   2.769   5.034  2.2309  0.5792 -1.0645
 5763SOL    HW218189   1.882   2.738   4.876 -0.6865 -0.8115 -0.4150
 5764SOL     OW18190   5.380   2.191   6.546 -0.0023  0.1947  0.4732
 5764SOL    HW118191   5.320   2.219   6.471 -0.0782  0.6397  0.6926
 5764SOL    HW218192   5.428   2.272   6.581  2.3466 -0.4323 -1.0596
 5765SOL     OW18193   2.639   6.157   2.312  0.4250  0.0219 -0.2690
 5765SOL    HW118194   2.551   6.109   2.316  1.2632 -1.5550  2.4659
 5765SOL    HW218195   2.697   6.116   2.242 -0.1177 -0.6691 -0.3249
 5766SOL     OW18196   5.143   7.000   6.920  0.0201 -0.4677 -0.2046
 5766SOL    HW118197   5.057   6.951   6.903 -1.6314  1.3266  2.4044
 5766SOL    HW218198   5.137   7.051   7.006  3.4084  0.4717 -0.3766
 5767SOL     OW18199   0.778   0.080   1.003 -0.3780  0.0144 -0.0104
 5767SOL    HW118200   0.816   0.077   1.096 -0.7874  0.9425  0.1991
 5767SOL    HW218201   0.748  -0.011   0.976  1.4239 -0.6487  0.0502
 5768SOL     OW18202   4.686   2.660   2.735  0.0863 -0.1308  0.2042
 5768SOL    HW118203   4.664   2.697   2.826 -0.5359  2.0290 -0.7358
 5768SOL    HW218204   4.602   2.629   2.691  0.0685  0.6074 -0.3175
 5769SOL     OW18205   0.303   5.929   4.322 -0.3921 -0.5557  0.4750
 5769SOL    HW118206   0.326   5.844   4.275 -1.9417 -0.5318 -0.4060
 5769SOL    HW218207   0.358   6.003   4.285 -2.1782 -0.3553 -2.0982
 5770SOL     OW18208   6.851   1.766   1.318  0.5416 -0.2696 -0.2276
 5770SOL    HW118209   6.924   1.706   1.286  0.8844 -1.2788  2.1713
 5770SOL    HW218210   6.778   1.710   1.358  0.0285  0.8338  0.4260
 5771SOL     OW18211   3.775   0.425   4.497  0.3642  0.6829  0.0277
 5771SOL    HW118212   3.848   0.420   4.565  0.3693  0.4896  0.0093
 5771SOL    HW218213   3.783   0.348   4.434 -0.1968  0.3356  0.3706
 5772SOL     OW18214   2.215   2.617   1.282 -0.1345 -0.2645  0.3987
 5772SOL    HW118215   2.182   2.586   1.193  0.1670  0.0170  0.1851
 5772SOL    HW218216   2.301   2.667   1.270 -0.0862 -0.2348  0.8488
 5773SOL     OW18217   5.704   3.852   5.936  0.2698 -0.3391 -0.4606
 5773SOL    HW118218   5.752   3.800   6.008  0.0379 -0.4311 -0.3698
 5773SOL    HW218219   5.742   3.828   5.847 -0.0300 -0.8953 -0.4478
 5774SOL     OW18220   1.070   2.973   2.139  0.0556 -0.0151 -0.7647
 5774SOL    HW118221   1.084   3.026   2.223 -0.8655 -1.0517  0.0597
 5774SOL    HW218222   1.159   2.946   2.103  0.4750  0.6073 -0.2459
 5775SOL     OW18223   1.701   6.543   0.543 -0.0113 -0.1782 -0.1314
 5775SOL    HW118224   1.734   6.594   0.623  1.0213  0.1947 -0.7626
 5775SOL    HW218225   1.724   6.446   0.553  0.6989 -0.0322 -0.2423
 5776SOL     OW18226   4.103   4.797   5.980 -0.3335 -0.3007  0.5838
 5776SOL    HW118227   4.132   4.711   6.021 -0.6845 -1.1180 -0.8200
 5776SOL    HW218228   4.055   4.852   6.048  0.0533 -1.1290  1.5457
 5777SOL     OW18229   6.058   5.531   4.429  0.0744  0.0446 -0.0516
 5777SOL    HW118230   6.149   5.504   4.460  0.2250  0.4311 -0.1612
 5777SOL    HW218231   6.048   5.630   4.435  0.1628  0.1449 -1.4045
 5778SOL     OW18232   4.287   6.801   2.622  0.0223 -0.1952  0.4343
 5778SOL    HW118233   4.288   6.893   2.661  1.1899 -0.3408  0.8039
 5778SOL    HW218234   4.298   6.734   2.695 -1.1761 -0.6622  0.2061
 5779SOL     OW18235   1.705   3.223   0.667  0.0670  0.0047  0.2830
 5779SOL    HW118236   1.649   3.242   0.586 -0.7193  0.2739  0.8824
 5779SOL    HW218237   1.720   3.308   0.717 -0.2175 -0.3117  0.9074
 5780SOL     OW18238   0.002   2.772   6.549  0.7762 -0.5323  0.0708
 5780SOL    HW118239   0.022   2.688   6.598  1.8497 -0.7455 -0.6996
 5780SOL    HW218240   0.051   2.848   6.592  0.5038 -0.4500  0.2387
 5781SOL     OW18241   1.234   2.732   4.776 -0.6178  0.3537 -0.0672
 5781SOL    HW118242   1.199   2.764   4.689  1.5844 -1.9240 -1.9426
 5781SOL    HW218243   1.331   2.755   4.784 -0.3145 -1.0586  0.9139
 5782SOL     OW18244   4.202   6.603   5.590 -0.0232  0.4436 -0.0302
 5782SOL    HW118245   4.150   6.523   5.557 -0.0053  0.3993  0.0496
 5782SOL    HW218246   4.224   6.663   5.513  0.7435 -0.0760 -0.2266
 5783SOL     OW18247   3.691   1.020   5.329  0.1537  0.1255  0.2015
 5783SOL    HW118248   3.688   0.922   5.310  1.0751 -0.3408  2.2415
 5783SOL    HW218249   3.611   1.064   5.288 -2.0892 -2.0155  1.9691
 5784SOL     OW18250   6.394   1.594   1.668 -0.3331 -0.1778  0.1098
 5784SOL    HW118251   6.361   1.538   1.592 -0.1332 -2.4688  1.6007
 5784SOL    HW218252   6.358   1.558   1.754 -1.3489  2.9254  1.0927
 5785SOL     OW18253   6.934   3.571   2.181  0.2878 -0.5143 -0.3792
 5785SOL    HW118254   6.839   3.575   2.212  0.1047 -1.4418 -0.7864
 5785SOL    HW218255   6.942   3.505   2.106  1.1150  0.1215 -0.8641
 5786SOL     OW18256   1.488   0.191   1.752 -0.1242  0.2904 -0.1388
 5786SOL    HW118257   1.587   0.179   1.764 -0.1727  0.9011  0.9692
 5786SOL    HW218258   1.471   0.275   1.701 -0.0757 -0.0022 -0.6530
 5787SOL     OW18259   5.671   6.941   3.287 -0.3773 -0.1284  0.0151
 5787SOL    HW118260   5.742   7.010   3.300 -0.8354  0.5313 -0.8038
 5787SOL    HW218261   5.707   6.867   3.231 -0.5439  0.5987 -1.0938
 5788SOL     OW18262   4.184   5.024   0.145  0.3931 -0.0358  0.2982
 5788SOL    HW118263   4.249   5.057   0.077  0.4656  0.0494  0.4079
 5788SOL    HW218264   4.232   5.011   0.232  0.1030  0.7695  0.5895
 5789SOL     OW18265   3.006   5.863   1.196  0.4093  0.1815  0.5106
 5789SOL    HW118266   3.057   5.844   1.112 -0.9709  1.0332 -0.5832
 5789SOL    HW218267   2.960   5.779   1.226  1.1980 -0.2165  0.6355
 5790SOL     OW18268   6.399   1.165   4.498 -0.4225  0.5771 -0.7702
 5790SOL    HW118269   6.419   1.129   4.407 -0.4593 -1.8015  0.0929
 5790SOL    HW218270   6.306   1.139   4.524  0.0741 -0.0065  0.4742
 5791SOL     OW18271   5.586   3.781   6.629 -0.0548  0.2550  0.2341
 5791SOL    HW118272   5.577   3.715   6.703  0.2675 -0.8008 -0.6368
 5791SOL    HW218273   5.683   3.800   6.612 -0.0151 -0.9342 -1.0903
 5792SOL     OW18274   2.847   5.639   1.263  0.0234  0.5616  0.2154
 5792SOL    HW118275   2.812   5.547   1.277 -1.7109  1.3521  1.4467
 5792SOL    HW218276   2.783   5.706   1.301  0.7913  2.3481 -1.4501
 5793SOL     OW18277   5.822   2.490   2.497 -0.4044 -0.0288 -0.1910
 5793SOL    HW118278   5.913   2.515   2.464 -1.2101  2.2902 -0.8365
 5793SOL    HW218279   5.830   2.443   2.584  1.3448  3.3551  1.6655
 5794SOL     OW18280   2.125   1.391   1.069  0.3440  0.2614  0.2364
 5794SOL    HW118281   2.064   1.431   1.001 -1.2499  0.4743  1.7136
 5794SOL    HW218282   2.165   1.307   1.034 -0.6900  0.2002 -0.8472
 5795SOL     OW18283   5.036   2.558   0.505  0.3428  0.3410 -0.3770
 5795SOL    HW118284   4.945   2.545   0.466  0.0172  0.6511  0.2577
 5795SOL    HW218285   5.085   2.471   0.504 -0.7092 -0.3152  1.1072
 5796SOL     OW18286   3.159   2.965   0.170 -0.4805  0.3644  0.4384
 5796SOL    HW118287   3.087   2.899   0.190 -0.7334  0.3780 -0.3885
 5796SOL    HW218288   3.206   2.989   0.254 -1.7127  0.6654  1.0655
 5797SOL     OW18289   5.191   5.075   1.169 -0.7908  0.5726  0.4557
 5797SOL    HW118290   5.184   5.166   1.128 -0.5555  0.0256 -0.8557
 5797SOL    HW218291   5.128   5.013   1.123  1.4188 -0.7234 -1.0733
 5798SOL     OW18292   6.435   0.645   4.291  0.3644  0.4381 -0.3124
 5798SOL    HW118293   6.526   0.684   4.276  0.9421 -0.2160  1.2214
 5798SOL    HW218294   6.372   0.717   4.318  1.4264  0.4756  2.5242
 5799SOL     OW18295   6.317   6.950   2.210  0.2946  0.2460  0.0729
 5799SOL    HW118296   6.264   6.963   2.126 -0.9223 -0.1727  0.7518
 5799SOL    HW218297   6.413   6.936   2.187 -0.3249 -2.0052 -1.3921
 5800SOL     OW18298   2.559   1.847   4.008 -0.0508 -0.0635  0.3107
 5800SOL    HW118299   2.644   1.855   4.060 -1.0790 -0.0076  2.0486
 5800SOL    HW218300   2.494   1.792   4.059 -0.7458 -0.9502 -1.4489
 5801SOL     OW18301   4.541   6.135   6.362 -0.1696  0.3848  0.3518
 5801SOL    HW118302   4.463   6.091   6.316  0.1823 -0.4536  0.5384
 5801SOL    HW218303   4.602   6.064   6.398  0.0603  1.0304  1.2621
 5802SOL     OW18304   3.110   2.107   0.624 -0.4205 -0.4748 -0.0975
 5802SOL    HW118305   3.112   2.119   0.525 -1.8075 -0.2789 -0.1268
 5802SOL    HW218306   3.160   2.182   0.668 -0.1305 -0.3481 -0.6348
 5803SOL     OW18307   0.069   6.854   2.807 -0.1869  0.3037 -0.2664
 5803SOL    HW118308   0.127   6.851   2.889 -1.6199 -1.8449  0.7347
 5803SOL    HW218309   0.110   6.797   2.736 -0.4475 -0.2014 -0.0086
 5804SOL     OW18310   4.892   5.327   4.615 -0.2652 -0.5055  0.2503
 5804SOL    HW118311   4.823   5.317   4.544 -0.9548 -0.4436  0.8994
 5804SOL    HW218312   4.884   5.251   4.680 -2.3565  1.4977  2.5255
 5805SOL     OW18313   2.899   4.002   1.019 -0.6900 -0.1334 -0.0957
 5805SOL    HW118314   2.957   4.053   1.082 -1.2129  0.7442 -0.3108
 5805SOL    HW218315   2.847   3.933   1.070  0.0302 -0.4636  0.1963
 5806SOL     OW18316   6.704   1.790   3.847 -0.0197  0.1195 -0.6030
 5806SOL    HW118317   6.650   1.740   3.915 -1.4200  0.9290 -1.0572
 5806SOL    HW218318   6.644   1.855   3.799  1.2496  0.5979 -1.5977
 5807SOL     OW18319   2.495   0.808   2.718  0.8475  0.3951  0.6993
 5807SOL    HW118320   2.532   0.863   2.643  1.7781  1.2431  1.7434
 5807SOL    HW218321   2.400   0.834   2.735  0.9622  0.9440  0.5120
 5808SOL     OW18322   0.603   4.197   0.246  0.3652  0.2952 -0.2438
 5808SOL    HW118323   0.610   4.102   0.277 -0.1383  0.2346 -0.3055
 5808SOL    HW218324   0.666   4.212   0.171  2.3721  0.7238  1.4425
 5809SOL     OW18325   1.202   4.142   6.704  0.6012  0.1223  0.0624
 5809SOL    HW118326   1.243   4.080   6.637 -1.7093 -1.3396 -0.0879
 5809SOL    HW218327   1.221   4.108   6.797 -0.8541 -0.9861 -0.0252
 5810SOL     OW18328   4.705   2.943   0.724  0.0709 -0.1759 -0.3286
 5810SOL    HW118329   4.643   2.893   0.664 -0.3403 -0.2033  0.1139
 5810SOL    HW218330   4.690   3.041   0.713  0.8269 -0.1356 -1.1421
 5811SOL     OW18331   6.719   5.713   2.378  0.1230 -0.0749  0.0077
 5811SOL    HW118332   6.684   5.685   2.289  1.1393  0.4663 -0.5767
 5811SOL    HW218333   6.705   5.812   2.390 -0.2985 -0.1967  0.5956
 5812SOL     OW18334   0.017   6.820   4.935 -0.0775 -0.3555 -0.2311
 5812SOL    HW118335   0.010   6.720   4.938 -0.9445 -0.3385 -1.1128
 5812SOL    HW218336   0.073   6.847   4.857 -0.5085 -0.1390 -0.4699
 5813SOL     OW18337   4.669   5.884   6.397 -0.5370 -0.4519 -0.2253
 5813SOL    HW118338   4.659   5.792   6.359 -1.1080 -0.3592 -0.3035
 5813SOL    HW218339   4.652   5.882   6.496  2.5401 -0.9925  0.3891
 5814SOL     OW18340   0.469   1.503   0.440  0.4455 -0.2472  0.3295
 5814SOL    HW118341   0.508   1.435   0.378  0.4541  0.0041  0.0541
 5814SOL    HW218342   0.413   1.458   0.510 -0.5037 -0.4686 -0.5441
 5815SOL     OW18343   3.924   2.105   1.946  0.2584 -0.0982  0.0705
 5815SOL    HW118344   3.828   2.132   1.944 -0.1584 -1.5505 -0.0382
 5815SOL    HW218345   3.937   2.021   1.894  1.7146  0.4122 -0.4625
 5816SOL     OW18346   4.331   3.761   0.319  0.5343  0.1754 -0.2969
 5816SOL    HW118347   4.272   3.699   0.369 -1.6777  0.6643 -2.1431
 5816SOL    HW218348   4.407   3.710   0.279 -0.5061 -1.1295 -0.6707
 5817SOL     OW18349   5.556   3.708   2.703 -0.2793  0.2746 -0.0704
 5817SOL    HW118350   5.565   3.698   2.802  0.2036  0.0082 -0.1373
 5817SOL    HW218351   5.642   3.681   2.659 -0.2764  0.9829 -0.5227
 5818SOL     OW18352   6.875   1.576   0.396  0.1499  0.0080 -0.9031
 5818SOL    HW118353   6.840   1.499   0.342  0.6691  0.0036 -1.2348
 5818SOL    HW218354   6.927   1.637   0.337 -0.7878  0.9552 -0.7765
 5819SOL     OW18355   5.545   0.780   6.692 -0.1600  0.1511  0.2054
 5819SOL    HW118356   5.584   0.691   6.714  2.3840  0.8938 -0.9639
 5819SOL    HW218357   5.545   0.794   6.593 -0.7289  1.3890  0.3541
 5820SOL     OW18358   0.010   4.022   1.006 -0.0952  0.2837  0.4934
 5820SOL    HW118359  -0.002   4.106   0.952 -0.3206  1.1176  1.8023
 5820SOL    HW218360   0.007   4.044   1.103 -3.1080 -1.6034  0.9600
 5821SOL     OW18361   1.326   4.706   4.425 -0.2191 -0.0122  0.2844
 5821SOL    HW118362   1.339   4.765   4.505  0.3800 -0.5409  0.5934
 5821SOL    HW218363   1.295   4.760   4.348  0.5981  0.7625  0.4836
 5822SOL     OW18364   1.491   1.751   4.194  0.2301  0.2914  0.7025
 5822SOL    HW118365   1.560   1.702   4.247  0.1179  0.8340  1.3704
 5822SOL    HW218366   1.409   1.695   4.185  1.4159 -1.2140 -1.8300
 5823SOL     OW18367   4.829   4.137   3.288 -0.0343 -0.2543 -0.3035
 5823SOL    HW118368   4.790   4.223   3.322 -1.1491 -1.0764  0.5588
 5823SOL    HW218369   4.782   4.110   3.204  0.9906  0.4519 -1.1445
 5824SOL     OW18370   5.517   0.180   5.957 -0.6583  0.5313  0.4967
 5824SOL    HW118371   5.550   0.253   6.016  1.4448  0.5854 -0.6512
 5824SOL    HW218372   5.558   0.093   5.985  1.9073  0.8419 -1.8991
 5825SOL     OW18373   2.657   0.402   0.841  0.1631 -0.0837 -0.2652
 5825SOL    HW118374   2.730   0.358   0.894 -0.1240  0.4124  0.5637
 5825SOL    HW218375   2.653   0.362   0.750  1.0420 -0.5693 -0.0999
 5826SOL     OW18376   3.104   0.405   2.073  0.4950  0.0700  0.0362
 5826SOL    HW118377   3.136   0.316   2.105 -0.4189 -0.7287 -1.1914
 5826SOL    HW218378   3.183   0.461   2.046  0.9970 -1.0630 -0.9220
 5827SOL     OW18379   1.173   4.635   3.784 -0.6142  0.7189  0.2487
 5827SOL    HW118380   1.263   4.620   3.826 -0.8039 -1.0587  0.0909
 5827SOL    HW218381   1.104   4.581   3.833 -0.7378 -2.0555 -2.6891
 5828SOL     OW18382   3.775   3.575   1.996 -0.0431 -0.4846 -0.8637
 5828SOL    HW118383   3.759   3.668   2.028  0.2424 -0.3777 -1.0377
 5828SOL    HW218384   3.834   3.527   2.060 -2.3758 -1.4366  0.7337
 5829SOL     OW18385   6.432   3.288   6.221 -0.5262  0.3964  0.0567
 5829SOL    HW118386   6.345   3.242   6.203 -1.4701  1.6685  1.1051
 5829SOL    HW218387   6.414   3.383   6.245  1.1494  0.5920  0.6351
 5830SOL     OW18388   6.451   0.390   1.692  0.1628 -0.1562  0.0908
 5830SOL    HW118389   6.520   0.408   1.762 -0.0155  2.4186 -0.2864
 5830SOL    HW218390   6.453   0.463   1.624 -2.3747 -0.4318 -0.3832
 5831SOL     OW18391   0.047   6.212   6.638 -0.2598  0.5696 -0.6995
 5831SOL    HW118392  -0.045   6.194   6.674 -0.1652  1.4927  0.0313
 5831SOL    HW218393   0.091   6.282   6.692  1.7061 -1.2814  0.2533
 5832SOL     OW18394   0.762   0.606   2.228  0.2862  0.0297 -0.1500
 5832SOL    HW118395   0.815   0.530   2.268  0.4908  1.1641  1.8875
 5832SOL    HW218396   0.670   0.606   2.266  0.1886  0.6177 -0.3738
 5833SOL     OW18397   6.768   3.641   4.529 -0.1067  0.1531 -0.0602
 5833SOL    HW118398   6.777   3.543   4.547  0.5827  0.1956 -0.1283
 5833SOL    HW218399   6.671   3.667   4.527 -0.3127 -0.6370 -0.6443
 5834SOL     OW18400   4.609   3.467   1.671 -0.4359 -0.1892 -0.2379
 5834SOL    HW118401   4.692   3.415   1.653  0.2918  0.9902 -0.3912
 5834SOL    HW218402   4.533   3.429   1.619  0.1264 -0.9571 -0.5021
 5835SOL     OW18403   5.178   0.428   2.032  0.2565 -0.0319  0.3323
 5835SOL    HW118404   5.269   0.391   2.052  0.6718  1.0998  0.6539
 5835SOL    HW218405   5.169   0.443   1.934  0.4756 -0.0083  0.3152
 5836SOL     OW18406   6.866   3.000   3.778  0.4785  0.2527 -0.6196
 5836SOL    HW118407   6.826   3.046   3.698 -0.7707 -0.2959 -0.3309
 5836SOL    HW218408   6.916   2.918   3.748 -0.0461  0.0106 -0.8391
 5837SOL     OW18409   2.858   4.031   5.931  0.1364 -0.1677 -0.2083
 5837SOL    HW118410   2.924   3.988   5.993 -0.6253 -2.4765 -0.8765
 5837SOL    HW218411   2.905   4.059   5.847  0.6356  0.1984  0.1874
 5838SOL     OW18412   2.045   0.016   2.559  0.0834  0.0420  0.2310
 5838SOL    HW118413   2.061   0.098   2.504  1.7964 -0.7808 -0.5785
 5838SOL    HW218414   2.023   0.043   2.653 -1.4605  1.4422 -0.4763
 5839SOL     OW18415   6.775   0.531   1.651 -0.1484  0.2319 -0.2387
 5839SOL    HW118416   6.814   0.482   1.573 -0.3104 -1.5786  0.7753
 5839SOL    HW218417   6.689   0.489   1.677  0.6581 -0.2164  1.8823
 5840SOL     OW18418   1.248   6.117   0.023 -0.0128  0.0775  0.3140
 5840SOL    HW118419   1.277   6.203   0.063  0.8687  0.4269 -1.0180
 5840SOL    HW218420   1.327   6.058   0.009 -0.3448 -0.1887 -0.5189
 5841SOL     OW18421   3.317   0.380   6.959 -0.0929 -0.0814 -0.2198
 5841SOL    HW118422   3.393   0.329   6.918 -0.3512  0.8475 -1.9272
 5841SOL    HW218423   3.346   0.474   6.977  0.0153 -0.4428  1.8381
 5842SOL     OW18424   1.625   2.386   2.929  0.0331  0.1358 -0.2033
 5842SOL    HW118425   1.597   2.383   3.025 -1.5114 -0.5666 -0.6401
 5842SOL    HW218426   1.673   2.472   2.911 -0.6398  0.7785  0.9567
 5843SOL     OW18427   6.389   3.813   1.458 -0.0095 -0.0965  0.5709
 5843SOL    HW118428   6.296   3.813   1.494 -0.2598  1.1750 -0.0469
 5843SOL    HW218429   6.406   3.726   1.410 -0.9824 -0.1994  0.3888
 5844SOL     OW18430   6.183   3.729   4.061  0.3164 -0.3479  1.0589
 5844SOL    HW118431   6.207   3.703   3.967  1.2251 -0.5059  1.3203
 5844SOL    HW218432   6.169   3.646   4.115  0.8845 -0.2766  1.3238
 5845SOL     OW18433   2.579   6.928   0.518  0.0264  0.0178 -0.0352
 5845SOL    HW118434   2.563   7.027   0.523 -0.7812 -0.1526  0.9229
 5845SOL    HW218435   2.492   6.880   0.526  0.1950 -0.7528 -2.1323
 5846SOL     OW18436   3.817   4.075   3.767  0.0040  0.0101  0.3297
 5846SOL    HW118437   3.874   3.993   3.768 -0.5914 -0.4474  2.3970
 5846SOL    HW218438   3.795   4.099   3.673  2.4215 -0.5914 -0.4724
 5847SOL     OW18439   1.974   2.784   0.356 -0.1142 -0.3007  0.0305
 5847SOL    HW118440   2.068   2.755   0.373  0.2528  0.0136 -1.2954
 5847SOL    HW218441   1.912   2.706   0.366  0.5322 -0.9579 -0.8656
 5848SOL     OW18442   3.985   0.410   4.666  0.3041 -0.6130 -0.4405
 5848SOL    HW118443   4.050   0.433   4.593  0.5742  0.0625  0.0004
 5848SOL    HW218444   4.008   0.462   4.748 -0.6264 -0.5800 -0.1935
 5849SOL     OW18445   2.377   6.616   5.792  0.1387  0.0690  0.1125
 5849SOL    HW118446   2.354   6.650   5.701  2.6994  2.7555  0.3544
 5849SOL    HW218447   2.443   6.541   5.784 -0.2475 -0.2337 -0.2524
 5850SOL     OW18448   6.399   1.681   0.609  0.3399 -0.5546  0.7792
 5850SOL    HW118449   6.338   1.673   0.530 -0.2409  0.4542  1.1164
 5850SOL    HW218450   6.493   1.693   0.578  0.0018  0.7944  0.2099
 5851SOL     OW18451   0.221   4.907   6.878  0.3844 -0.2529 -0.6383
 5851SOL    HW118452   0.279   4.975   6.924  1.8353 -1.1544 -1.0944
 5851SOL    HW218453   0.272   4.823   6.865 -0.8665 -0.8943 -1.5663
 5852SOL     OW18454   6.019   5.771   5.261 -0.2888  0.2091 -0.1168
 5852SOL    HW118455   5.937   5.779   5.204  0.3676  0.1445 -1.1024
 5852SOL    HW218456   6.091   5.829   5.224  0.2025  0.0630  0.5880
 5853SOL     OW18457   5.197   4.611   1.410 -0.4223 -0.1296  0.2695
 5853SOL    HW118458   5.219   4.629   1.315  1.4028 -0.5978  0.5684
 5853SOL    HW218459   5.230   4.686   1.467 -1.2493  0.0114  0.5827
 5854SOL     OW18460   1.988   3.753   2.674 -0.4320  0.3644  0.7642
 5854SOL    HW118461   2.052   3.781   2.603 -1.4907  1.1642  0.0868
 5854SOL    HW218462   2.034   3.756   2.763  0.8133 -0.3242  0.1699
 5855SOL     OW18463   3.777   1.024   3.433  0.1874 -0.3729 -0.0932
 5855SOL    HW118464   3.857   1.027   3.493 -0.0792  1.1552  0.2286
 5855SOL    HW218465   3.695   1.010   3.488  0.2147 -2.0563 -0.4336
 5856SOL     OW18466   6.567   1.074   6.094  1.0379  0.2563 -0.2978
 5856SOL    HW118467   6.509   0.996   6.117  1.1362  0.7223  1.6767
 5856SOL    HW218468   6.651   1.071   6.147  1.7707  0.8651 -1.3803
 5857SOL     OW18469   5.927   5.163   0.656 -0.0239 -0.3131  0.3144
 5857SOL    HW118470   5.945   5.088   0.720 -0.5885 -1.0337 -0.3627
 5857SOL    HW218471   5.890   5.126   0.571  0.1947  0.6933 -0.2224
 5858SOL     OW18472   3.830   5.787   0.863 -0.8686 -0.1245 -0.0221
 5858SOL    HW118473   3.921   5.769   0.900  0.0677  0.3158 -1.9751
 5858SOL    HW218474   3.792   5.702   0.826 -1.9510 -0.6422  2.0803
 5859SOL     OW18475   2.618   6.196   0.207 -0.7313 -0.8892 -0.2566
 5859SOL    HW118476   2.629   6.174   0.303  0.8141  0.6585 -0.0135
 5859SOL    HW218477   2.684   6.267   0.181 -1.7822 -0.5239 -2.2077
 5860SOL     OW18478   0.778   1.278   6.733 -0.3590 -0.1029  0.6100
 5860SOL    HW118479   0.748   1.183   6.722 -0.3080 -0.1380  0.7630
 5860SOL    HW218480   0.787   1.321   6.644  1.2007 -0.7327  0.4425
 5861SOL     OW18481   5.296   6.385   0.961  0.4251 -0.2668 -0.7669
 5861SOL    HW118482   5.367   6.371   0.891 -0.9847 -1.0601 -2.0925
 5861SOL    HW218483   5.244   6.301   0.972  2.3463 -1.1581  3.3803
 5862SOL     OW18484   5.449   2.965   3.958  0.6340 -0.3705  0.0686
 5862SOL    HW118485   5.522   3.023   3.922  0.3412  0.1590  0.3122
 5862SOL    HW218486   5.482   2.918   4.040  0.5484  0.2815  0.4920
 5863SOL     OW18487   4.222   5.368   0.548  0.1080 -0.6079 -0.2706
 5863SOL    HW118488   4.178   5.427   0.615 -0.4715 -1.2533 -0.0701
 5863SOL    HW218489   4.250   5.422   0.468  0.9853  0.1985  0.5635
 5864SOL     OW18490   2.359   0.536   4.992 -0.6001 -0.2104 -0.3244
 5864SOL    HW118491   2.392   0.528   5.086 -1.6505 -0.8671  0.0064
 5864SOL    HW218492   2.350   0.632   4.968  0.3093 -0.0353  0.0153
 5865SOL     OW18493   0.556   0.738   0.696 -0.0481 -0.5814 -0.2979
 5865SOL    HW118494   0.633   0.741   0.633 -0.2227  0.3363 -0.4776
 5865SOL    HW218495   0.558   0.818   0.756 -0.2167 -1.1410  0.4742
 5866SOL     OW18496   6.601   2.971   6.001 -0.1027  0.4017 -0.6816
 5866SOL    HW118497   6.602   2.951   6.099  1.3299  0.6004 -0.6326
 5866SOL    HW218498   6.575   2.889   5.950 -1.6656  0.5202 -0.1100
 5867SOL     OW18499   5.150   2.783   2.272  0.1500  0.5485  0.1143
 5867SOL    HW118500   5.237   2.735   2.266 -0.4428 -0.4048 -1.4822
 5867SOL    HW218501   5.163   2.879   2.245  0.6616  0.3584 -0.3260
 5868SOL     OW18502   1.359   5.527   1.251 -0.0611  0.4043  0.2775
 5868SOL    HW118503   1.276   5.479   1.281  0.5031 -2.2406 -1.9461
 5868SOL    HW218504   1.420   5.462   1.206  1.4637  3.0084 -1.6683
 5869SOL     OW18505   6.565   0.949   2.803 -0.7573 -1.0197 -0.3527
 5869SOL    HW118506   6.611   0.999   2.876 -0.2944 -0.2887 -1.1287
 5869SOL    HW218507   6.479   0.911   2.838 -0.9848  0.0784  0.3452
 5870SOL     OW18508   0.896   2.306   3.467 -0.1490  0.2938 -0.2526
 5870SOL    HW118509   0.818   2.268   3.517 -0.5352  0.5636 -0.6496
 5870SOL    HW218510   0.864   2.376   3.403  0.6457  2.0980  1.2346
 5871SOL     OW18511   2.580   5.605   3.976  0.1172 -0.0808  0.2619
 5871SOL    HW118512   2.650   5.666   3.940  1.2535 -0.1353  2.2816
 5871SOL    HW218513   2.602   5.579   4.070 -1.3726 -2.0250  0.1442
 5872SOL     OW18514   4.353   5.549   0.284  0.0770 -1.1318  0.2554
 5872SOL    HW118515   4.399   5.628   0.243 -0.6161  0.4082  2.2670
 5872SOL    HW218516   4.255   5.568   0.290  0.0460 -1.6948  1.6927
 5873SOL     OW18517   1.504   6.174   4.747 -0.1593  0.7432  0.1573
 5873SOL    HW118518   1.487   6.111   4.824  1.5435  1.5071  1.2048
 5873SOL    HW218519   1.433   6.160   4.678  0.2983 -2.5616  0.1709
 5874SOL     OW18520   3.844   2.870   5.855 -0.1881  0.2185 -0.0614
 5874SOL    HW118521   3.883   2.792   5.906  0.6658  0.2640 -0.6272
 5874SOL    HW218522   3.846   2.951   5.913 -1.3956 -0.2464  0.6543
 5875SOL     OW18523   5.427   2.661   0.054  0.3117  0.1084  0.3918
 5875SOL    HW118524   5.334   2.691   0.075 -0.4488 -0.3633 -1.9478
 5875SOL    HW218525   5.468   2.619   0.135 -1.2816  0.8576  1.6378
 5876SOL     OW18526   2.234   5.878   0.336 -0.1332 -0.0588  0.1916
 5876SOL    HW118527   2.227   5.944   0.410  0.8015 -0.7265  0.9000
 5876SOL    HW218528   2.253   5.927   0.250  1.8525  0.5540  0.9150
 5877SOL     OW18529   6.010   4.598   1.394 -0.4711 -0.0847 -0.3316
 5877SOL    HW118530   6.097   4.626   1.434 -1.6230  0.2590  2.1484
 5877SOL    HW218531   5.935   4.648   1.438 -2.0772 -1.8454 -0.9064
 5878SOL     OW18532   3.319   2.388   1.366 -0.4546  0.3655 -1.1193
 5878SOL    HW118533   3.394   2.383   1.431 -0.8548  0.2163 -0.6658
 5878SOL    HW218534   3.244   2.329   1.396 -0.8553  0.7074 -1.4311
 5879SOL     OW18535   2.915   3.843   0.441 -0.1512 -0.1303 -0.5518
 5879SOL    HW118536   2.916   3.823   0.539  1.4985 -2.0559 -0.8862
 5879SOL    HW218537   2.834   3.896   0.418 -0.9240 -0.2302  1.7413
 5880SOL     OW18538   4.112   3.573   0.761  0.2687 -0.4607 -0.6170
 5880SOL    HW118539   4.192   3.516   0.747  1.2460  0.8035 -0.3758
 5880SOL    HW218540   4.081   3.565   0.856  0.4064 -0.5842 -0.5819
 5881SOL     OW18541   6.891   6.667   2.234 -0.3272 -0.5027 -0.0778
 5881SOL    HW118542   6.829   6.683   2.158 -0.4814  0.6725  0.2818
 5881SOL    HW218543   6.858   6.715   2.315  1.4956  0.9458 -0.1063
 5882SOL     OW18544   4.556   5.198   3.339 -0.1038  0.5851  0.3107
 5882SOL    HW118545   4.513   5.211   3.428  0.9317 -1.0606  1.1121
 5882SOL    HW218546   4.656   5.195   3.351  0.0744  0.9424 -0.9908
 5883SOL     OW18547   0.666   4.439   1.694  0.1896 -0.3864  0.2533
 5883SOL    HW118548   0.582   4.487   1.721 -0.1866 -1.2175  0.5890
 5883SOL    HW218549   0.702   4.480   1.610 -0.6852 -0.1737 -0.0280
 5884SOL     OW18550   6.220   0.581   1.835  0.4317 -0.6381  0.0063
 5884SOL    HW118551   6.282   0.508   1.804  0.4879 -0.8343  0.5744
 5884SOL    HW218552   6.127   0.558   1.807 -0.3612 -3.2820  3.9169
 5885SOL     OW18553   5.377   6.833   0.805  0.5178 -0.1292 -0.4410
 5885SOL    HW118554   5.472   6.811   0.828  0.4128 -1.8246 -1.4415
 5885SOL    HW218555   5.375   6.888   0.721  0.6426  1.2307  0.4071
 5886SOL     OW18556   0.509   5.571   2.858  0.1765 -0.2011 -0.3412
 5886SOL    HW118557   0.518   5.485   2.906 -0.3318 -0.5734 -0.8975
 5886SOL    HW218558   0.488   5.554   2.762  0.8990  0.5279 -0.6434
 5887SOL     OW18559   2.889   5.434   5.783  0.2648  0.1767  0.1163
 5887SOL    HW118560   2.823   5.453   5.711 -1.5417  1.2047  1.9523
 5887SOL    HW218561   2.852   5.366   5.846  1.9427 -0.9488 -0.0459
 5888SOL     OW18562   3.299   6.520   3.051 -0.1443 -0.1183 -0.1365
 5888SOL    HW118563   3.219   6.460   3.047  0.4198 -0.8285 -1.0273
 5888SOL    HW218564   3.351   6.512   2.966  0.2382  1.2311 -0.0548
 5889SOL     OW18565   6.029   2.643   0.936  0.0968 -0.7597  0.0788
 5889SOL    HW118566   6.057   2.737   0.953  0.6634 -1.1273  1.3170
 5889SOL    HW218567   6.090   2.581   0.986 -1.3020 -1.7027  0.6760
 5890SOL     OW18568   2.871   1.029   4.565 -0.0908 -0.0222 -0.0974
 5890SOL    HW118569   2.958   1.012   4.612  0.3680 -1.1561 -1.2644
 5890SOL    HW218570   2.827   1.109   4.603  1.3797  0.4612  0.6668
 5891SOL     OW18571   0.818   1.205   3.877  0.1210 -0.1062  0.8544
 5891SOL    HW118572   0.767   1.253   3.949 -1.5816  0.8852 -0.8892
 5891SOL    HW218573   0.755   1.146   3.826  0.2842  2.1305 -2.2055
 5892SOL     OW18574   3.985   0.888   4.152 -0.2077 -0.0714 -0.1217
 5892SOL    HW118575   3.929   0.919   4.075 -0.5587  0.8254  0.4748
 5892SOL    HW218576   3.968   0.791   4.170  1.5721 -0.9571 -2.6209
 5893SOL     OW18577   6.570   3.877   1.773  0.1298  0.2501  1.0944
 5893SOL    HW118578   6.590   3.901   1.678 -2.0004 -0.9221  0.2939
 5893SOL    HW218579   6.580   3.958   1.831 -1.3573  1.7177 -0.6000
 5894SOL     OW18580   5.537   2.532   5.895 -0.0793 -0.0565 -0.0597
 5894SOL    HW118581   5.618   2.480   5.868  0.7119  0.2626  1.5929
 5894SOL    HW218582   5.526   2.529   5.994 -0.2826  2.4954  0.0681
 5895SOL     OW18583   6.842   6.610   1.209 -0.0442  0.3793  0.2502
 5895SOL    HW118584   6.798   6.654   1.131 -1.8036 -1.0409  0.3678
 5895SOL    HW218585   6.839   6.671   1.288  2.0716  1.9816 -0.7907
 5896SOL     OW18586   3.790   0.647   4.708  0.4315  0.7165  0.5868
 5896SOL    HW118587   3.864   0.645   4.641  1.4518 -0.1611  1.7026
 5896SOL    HW218588   3.748   0.737   4.709  1.1152  1.0641 -0.4456
 5897SOL     OW18589   1.003   3.038   5.865 -0.2253  0.3406  0.3095
 5897SOL    HW118590   0.998   3.119   5.806 -2.6996  0.9913  1.3015
 5897SOL    HW218591   0.925   2.978   5.845  1.1815 -1.4936  0.0980
 5898SOL     OW18592   6.567   1.489   3.637  0.2131  0.5836 -0.3272
 5898SOL    HW118593   6.534   1.419   3.574 -0.7509 -0.3248  1.1188
 5898SOL    HW218594   6.659   1.465   3.668 -0.3976 -0.5284  0.7522
 5899SOL     OW18595   2.922   6.161   4.027 -0.1163  0.0609 -0.0179
 5899SOL    HW118596   2.915   6.183   3.929 -1.1452 -1.4748 -0.3276
 5899SOL    HW218597   2.832   6.170   4.069  0.4004  1.1182  0.9130
 5900SOL     OW18598   1.654   4.559   3.518 -0.2984 -0.6871  0.3356
 5900SOL    HW118599   1.638   4.631   3.586  0.8570 -0.2594  0.1768
 5900SOL    HW218600   1.736   4.580   3.465 -1.2991 -0.9020 -1.3723
 5901SOL     OW18601   0.156   6.523   5.191 -0.3152  0.6427 -0.5951
 5901SOL    HW118602   0.105   6.499   5.109 -2.5419 -0.0289  0.8778
 5901SOL    HW218603   0.253   6.501   5.179 -0.5993  0.4578 -2.9387
 5902SOL     OW18604   6.429   2.282   2.932 -0.6331 -0.4536  0.1455
 5902SOL    HW118605   6.361   2.339   2.978 -1.0592 -0.6838 -0.2015
 5902SOL    HW218606   6.454   2.324   2.845  0.9720  0.5495  1.0419
 5903SOL     OW18607   1.390   2.374   6.507 -0.3519 -0.4217 -0.0149
 5903SOL    HW118608   1.444   2.319   6.445  2.0025 -0.0476  1.5810
 5903SOL    HW218609   1.346   2.315   6.574 -0.8055 -0.6136 -0.4729
 5904SOL     OW18610   3.426   4.806   6.420  0.8763  0.1361 -0.0750
 5904SOL    HW118611   3.406   4.859   6.503  0.8086 -0.0553  0.0305
 5904SOL    HW218612   3.522   4.817   6.396  0.4863  1.8148 -1.1055
 5905SOL     OW18613   6.295   0.737   5.717 -0.6430 -0.1512  0.7121
 5905SOL    HW118614   6.377   0.717   5.770  0.5993 -1.2991 -1.4898
 5905SOL    HW218615   6.316   0.728   5.619 -2.8365  1.7219 -0.0155
 5906SOL     OW18616   2.737   6.899   6.970  0.0292 -0.2364  0.3684
 5906SOL    HW118617   2.748   6.883   7.068  1.7805  1.3669  0.4931
 5906SOL    HW218618   2.641   6.921   6.950 -0.4940 -1.3171  1.5813
 5907SOL     OW18619   2.167   0.010   0.733  0.4549  0.2610  0.3002
 5907SOL    HW118620   2.186  -0.007   0.830  1.3056  0.3008  0.1547
 5907SOL    HW218621   2.070   0.028   0.720 -0.0516 -1.9039  0.8288
 5908SOL     OW18622   1.698   1.546   3.265 -0.4203 -0.7963 -0.4349
 5908SOL    HW118623   1.704   1.495   3.351 -1.1897  1.4025  1.0085
 5908SOL    HW218624   1.733   1.638   3.278  0.7777 -0.8012 -2.9141
 5909SOL     OW18625   4.859   5.414   6.742 -0.9134 -0.3137  0.1575
 5909SOL    HW118626   4.952   5.394   6.774 -1.3516 -1.5436  0.7079
 5909SOL    HW218627   4.847   5.513   6.735  0.9094 -0.1497 -1.3582
 5910SOL     OW18628   3.377   6.562   4.599 -0.1051 -0.0666 -0.1010
 5910SOL    HW118629   3.388   6.661   4.598  1.0445 -0.1509 -2.0857
 5910SOL    HW218630   3.349   6.531   4.508  1.8272 -1.7353 -0.1951
 5911SOL     OW18631   2.436   2.409   6.171  0.4526  0.2804  0.2301
 5911SOL    HW118632   2.387   2.365   6.245 -1.4490  0.9854 -0.5632
 5911SOL    HW218633   2.378   2.415   6.090  0.8793  3.4469  0.0256
 5912SOL     OW18634   6.933   6.594   5.728 -0.2996 -0.4052 -0.4533
 5912SOL    HW118635   6.899   6.510   5.687 -1.7323  0.1284 -0.3944
 5912SOL    HW218636   6.931   6.667   5.659  1.1977 -0.4606 -0.5892
 5913SOL     OW18637   5.173   2.632   6.142 -0.3969 -0.0190  0.0456
 5913SOL    HW118638   5.159   2.550   6.086  1.7946  0.6747 -1.6488
 5913SOL    HW218639   5.209   2.605   6.231  0.8192 -0.8963 -0.6838
 5914SOL     OW18640   3.320   6.970   5.790 -0.0877  0.1120 -0.2693
 5914SOL    HW118641   3.319   6.883   5.740  1.2953 -0.4264  0.5893
 5914SOL    HW218642   3.226   6.996   5.813 -0.6327 -0.3988 -1.7870
 5915SOL     OW18643   3.231   3.813   0.210  0.6647 -0.0656 -0.1307
 5915SOL    HW118644   3.167   3.886   0.184  0.0298 -0.8507 -0.8392
 5915SOL    HW218645   3.268   3.831   0.301 -0.4037  0.5218  0.1976
 5916SOL     OW18646   6.100   1.829   3.265  0.6918 -0.3067  0.3278
 5916SOL    HW118647   6.078   1.809   3.360  0.3682 -1.6006  0.0025
 5916SOL    HW218648   6.078   1.750   3.208  0.6998  0.5126 -0.8558
 5917SOL     OW18649   6.411   3.087   5.855  0.0238 -0.1670 -0.0575
 5917SOL    HW118650   6.397   3.055   5.761 -1.0696  0.3920 -0.1020
 5917SOL    HW218651   6.506   3.069   5.883  0.5205  0.1558 -1.4584
 5918SOL     OW18652   5.664   3.990   2.135 -0.8130 -0.3119 -0.3256
 5918SOL    HW118653   5.646   3.960   2.042  0.9454  0.6543 -1.0113
 5918SOL    HW218654   5.665   4.090   2.139  2.0170 -0.2647  0.0509
 5919SOL     OW18655   0.882   1.468   4.918 -0.2028  0.1069  0.0141
 5919SOL    HW118656   0.928   1.556   4.903 -0.8267  0.3388 -0.6084
 5919SOL    HW218657   0.908   1.404   4.845 -0.3002  0.0020  0.0704
 5920SOL     OW18658   6.956   4.553   4.860 -0.3477 -0.1483  0.1705
 5920SOL    HW118659   6.989   4.458   4.854 -1.9725 -0.7729  0.5843
 5920SOL    HW218660   6.980   4.602   4.776  0.3932 -0.9500 -0.1056
 5921SOL     OW18661   7.000   0.402   3.068 -0.2478  0.1674 -0.0296
 5921SOL    HW118662   6.945   0.479   3.102  2.4838  2.7059 -0.9457
 5921SOL    HW218663   7.088   0.401   3.114  0.2003 -1.7866 -0.8333
 5922SOL     OW18664   4.392   2.758   1.604 -0.1988 -0.1529  0.1864
 5922SOL    HW118665   4.467   2.801   1.554  1.3369 -1.9690  0.8192
 5922SOL    HW218666   4.386   2.662   1.579 -2.0343 -0.1560  0.5206
 5923SOL     OW18667   5.027   1.973   0.726 -0.3399 -0.2448  0.9597
 5923SOL    HW118668   5.034   2.039   0.652  0.8243 -0.9435  0.4107
 5923SOL    HW218669   4.973   1.894   0.695 -2.4452  0.7417  1.8812
 5924SOL     OW18670   4.539   1.281   2.851  0.1159 -0.6437 -0.3361
 5924SOL    HW118671   4.606   1.351   2.823  0.7574 -1.4818 -0.9575
 5924SOL    HW218672   4.577   1.190   2.833 -0.1947 -1.2081  1.6337
 5925SOL     OW18673   1.789   3.256   4.546  0.9881  0.4355  0.5816
 5925SOL    HW118674   1.834   3.275   4.633  1.6946 -2.4793  0.9526
 5925SOL    HW218675   1.808   3.162   4.519 -3.6378 -0.5915  0.0231
 5926SOL     OW18676   6.214   2.858   4.861 -0.0372 -0.5414 -0.1761
 5926SOL    HW118677   6.192   2.914   4.941 -1.5320 -1.0627 -0.1897
 5926SOL    HW218678   6.153   2.882   4.786  0.9900 -0.4406 -1.0098
 5927SOL     OW18679   6.259   0.938   6.868  0.5184 -0.1467 -0.3572
 5927SOL    HW118680   6.197   0.963   6.794  2.3198 -1.4116 -2.4200
 5927SOL    HW218681   6.317   1.016   6.890  1.7058 -0.4367 -2.1819
 5928SOL     OW18682   6.748   2.273   1.168  0.3072 -1.0487 -0.0305
 5928SOL    HW118683   6.756   2.249   1.071 -1.0531 -1.0715 -0.1497
 5928SOL    HW218684   6.772   2.193   1.223  0.7896 -1.1292 -0.3440
 5929SOL     OW18685   5.860   2.635   0.322 -0.1805  0.0445  0.4299
 5929SOL    HW118686   5.838   2.676   0.234 -0.4032  1.2177  1.0101
 5929SOL    HW218687   5.846   2.536   0.318 -1.2843  0.2259 -0.5180
 5930SOL     OW18688   1.943   0.368   5.953 -0.1912  0.1177 -0.2999
 5930SOL    HW118689   1.932   0.436   6.025 -0.3263 -0.7191  0.4952
 5930SOL    HW218690   2.020   0.393   5.894 -0.3949  1.0727 -0.1722
 5931SOL     OW18691   6.896   5.140   4.031 -0.2726 -0.9392 -0.2275
 5931SOL    HW118692   6.946   5.076   4.090  0.2495 -0.6703 -0.3698
 5931SOL    HW218693   6.832   5.089   3.973  0.4451 -1.3868 -0.6449
 5932SOL     OW18694   1.904   0.748   4.148  0.3209 -0.3579  0.2760
 5932SOL    HW118695   1.962   0.678   4.106  1.8712 -0.1601  1.9510
 5932SOL    HW218696   1.811   0.714   4.155  1.2658 -2.8827  2.2389
 5933SOL     OW18697   6.392   0.550   6.242  0.1042 -0.0138  0.2816
 5933SOL    HW118698   6.415   0.496   6.161  0.8911  0.4868  0.1592
 5933SOL    HW218699   6.293   0.552   6.254 -0.0528  0.2247 -0.8934
 5934SOL     OW18700   3.872   0.970   1.527  0.1183 -0.4978  0.0716
 5934SOL    HW118701   3.943   0.911   1.488 -0.4079 -0.8129 -0.4214
 5934SOL    HW218702   3.782   0.934   1.503 -0.2558  1.7514 -2.2072
 5935SOL     OW18703   0.308   6.131   6.116 -0.7415  0.1711  0.4295
 5935SOL    HW118704   0.369   6.209   6.103 -0.2300 -0.2403  0.3258
 5935SOL    HW218705   0.267   6.135   6.207  2.8990 -1.8742  2.3804
 5936SOL     OW18706   6.522   6.483   2.272  0.4405  0.4768 -0.4403
 5936SOL    HW118707   6.425   6.489   2.295  0.6415 -0.4078  0.7105
 5936SOL    HW218708   6.577   6.509   2.351  1.1592  1.7219 -1.3170
 5937SOL     OW18709   1.575   6.574   5.011  0.5249  0.2845  0.3307
 5937SOL    HW118710   1.476   6.588   5.002  0.9351  2.5795 -1.5443
 5937SOL    HW218711   1.605   6.511   4.940  0.5309  0.3030  0.3169
 5938SOL     OW18712   0.159   3.430   2.271  0.4327  0.3284  0.2721
 5938SOL    HW118713   0.070   3.472   2.286  0.1001  0.3058 -1.4115
 5938SOL    HW218714   0.147   3.333   2.248  0.8421  0.4121 -0.3309
 5939SOL     OW18715   5.524   3.716   2.305  0.1883  0.5789 -1.1269
 5939SOL    HW118716   5.537   3.664   2.220  0.1478 -0.3924 -0.5547
 5939SOL    HW218717   5.612   3.755   2.332  0.3802  0.2025 -1.1876
 5940SOL     OW18718   3.459   6.763   2.803 -0.1303  0.1461  0.2882
 5940SOL    HW118719   3.521   6.831   2.764  0.7598 -1.2085 -0.7117
 5940SOL    HW218720   3.431   6.793   2.895  1.6313  1.0076  0.5816
 5941SOL     OW18721   2.968   2.731   0.263 -0.4262 -0.0219  0.0254
 5941SOL    HW118722   2.989   2.635   0.241  1.2932  0.5413 -0.9420
 5941SOL    HW218723   2.957   2.740   0.362 -2.6243 -1.5474  0.0126
 5942SOL     OW18724   0.269   5.460   6.738 -0.5926  0.4913  0.5355
 5942SOL    HW118725   0.217   5.400   6.677  0.7302  0.1829 -0.3491
 5942SOL    HW218726   0.301   5.407   6.817 -1.9304  0.7827  1.2983
 5943SOL     OW18727   0.341   4.569   3.963 -0.2505 -0.0564 -0.3989
 5943SOL    HW118728   0.297   4.646   3.919  0.2329 -0.1864 -1.1223
 5943SOL    HW218729   0.348   4.493   3.899  0.8672 -0.0933 -0.2642
 5944SOL     OW18730   6.777   6.057   6.645 -0.4188  0.1507  0.8159
 5944SOL    HW118731   6.823   5.987   6.699 -2.5266 -1.0055  1.2365
 5944SOL    HW218732   6.722   6.115   6.705  2.1207  2.9951  0.6300
 5945SOL     OW18733   2.300   4.805   6.245  0.5390 -0.7291 -0.2730
 5945SOL    HW118734   2.203   4.827   6.257  0.7311 -0.9334  2.3978
 5945SOL    HW218735   2.355   4.887   6.264  1.0014 -1.7423  3.5831
 5946SOL     OW18736   4.250   2.166   5.607  0.3301  0.6089 -0.1477
 5946SOL    HW118737   4.311   2.222   5.664  0.8421 -1.0867  1.0470
 5946SOL    HW218738   4.176   2.224   5.571  0.2355  1.8613  1.8906
 5947SOL     OW18739   3.933   6.364   6.144  0.5548 -0.3015  0.6751
 5947SOL    HW118740   3.954   6.418   6.226  1.9329 -0.3899  0.3972
 5947SOL    HW218741   3.935   6.267   6.166 -0.5482 -0.3053  0.8510
 5948SOL     OW18742   2.737   6.382   2.172 -0.3651  0.2132  0.0191
 5948SOL    HW118743   2.699   6.296   2.204 -2.2171  0.3311 -1.6626
 5948SOL    HW218744   2.826   6.366   2.130 -1.3648 -1.1932 -1.7007
 5949SOL     OW18745   4.449   2.974   6.575  0.1988  0.4149  0.6397
 5949SOL    HW118746   4.500   2.959   6.490 -2.6085 -1.4891 -0.8979
 5949SOL    HW218747   4.411   3.067   6.574  1.2194  0.8358  0.4178
 5950SOL     OW18748   5.113   5.507   6.047 -0.7355  0.4845  0.3155
 5950SOL    HW118749   5.203   5.477   6.078 -0.5208 -0.5719 -1.1681
 5950SOL    HW218750   5.113   5.606   6.034 -0.2480  0.6836  1.7106
 5951SOL     OW18751   5.158   3.380   3.826  0.1671 -0.1498  0.4661
 5951SOL    HW118752   5.188   3.401   3.733  1.1251 -0.3952  0.7072
 5951SOL    HW218753   5.067   3.339   3.824  0.3559 -0.5376 -0.3933
 5952SOL     OW18754   6.466   0.570   1.491  0.6417 -0.4148  0.2933
 5952SOL    HW118755   6.386   0.629   1.490  0.3785 -0.5699  3.1190
 5952SOL    HW218756   6.536   0.607   1.431  0.0082  2.0891  0.9920
 5953SOL     OW18757   0.096   3.508   3.085  0.5909  0.0966  0.1914
 5953SOL    HW118758   0.123   3.600   3.115  0.6621  0.5791 -1.2661
 5953SOL    HW218759   0.006   3.512   3.042 -0.6970 -1.0360  2.5735
 5954SOL     OW18760   2.651   0.037   4.188 -0.2399 -0.5155  0.0523
 5954SOL    HW118761   2.628   0.134   4.200 -3.0251 -1.2341  1.2114
 5954SOL    HW218762   2.619   0.006   4.099  2.8726  0.1130 -1.4199
 5955SOL     OW18763   4.275   0.442   0.269  0.2764  0.4375  0.3234
 5955SOL    HW118764   4.250   0.527   0.223 -0.7913  0.0661  0.2063
 5955SOL    HW218765   4.345   0.461   0.338  0.3834  1.3301 -0.0176
 5956SOL     OW18766   0.794   4.764   5.186 -0.4700 -0.5671 -0.4331
 5956SOL    HW118767   0.806   4.667   5.207 -1.6972  0.0067  3.6946
 5956SOL    HW218768   0.700   4.781   5.157 -0.4974 -0.4602 -0.2804
 5957SOL     OW18769   4.085   4.151   5.229  0.5825  0.0007  0.0856
 5957SOL    HW118770   4.057   4.103   5.146 -0.7538 -1.0266  1.0794
 5957SOL    HW218771   4.128   4.238   5.204 -1.9162  0.8732 -1.6831
 5958SOL     OW18772   6.345   3.463   4.294  0.2129 -0.7455  0.1026
 5958SOL    HW118773   6.408   3.456   4.371 -0.3572 -0.0515  0.6426
 5958SOL    HW218774   6.274   3.529   4.315 -0.4013 -1.1288 -0.7151
 5959SOL     OW18775   5.064   4.666   0.862 -0.2806 -0.0180  0.3616
 5959SOL    HW118776   5.138   4.619   0.910  0.9575  1.7916  0.3482
 5959SOL    HW218777   4.987   4.604   0.850  0.5703 -1.4571  1.9018
 5960SOL     OW18778   2.249   0.121   5.459 -0.1395  0.6674  0.4923
 5960SOL    HW118779   2.318   0.159   5.397  0.1253  1.0063  0.9963
 5960SOL    HW218780   2.160   0.122   5.413  0.3040 -0.4703 -0.4515
 5961SOL     OW18781   4.165   1.039   4.639  0.2481 -0.3112  0.2404
 5961SOL    HW118782   4.166   1.063   4.542  0.0040  2.9543  0.9481
 5961SOL    HW218783   4.100   0.964   4.654  0.9014 -1.4717 -2.1659
 5962SOL     OW18784   5.753   1.257   1.515  0.5990  0.2071  0.1622
 5962SOL    HW118785   5.658   1.282   1.497  0.8740  0.7321 -0.5930
 5962SOL    HW218786   5.766   1.160   1.498  0.3603  0.2748 -0.4109
 5963SOL     OW18787   6.599   1.487   3.232 -0.1828  0.1505 -0.6768
 5963SOL    HW118788   6.566   1.425   3.303 -0.7797  0.0143 -1.0612
 5963SOL    HW218789   6.559   1.577   3.244  1.8708  0.9451  0.7984
 5964SOL     OW18790   5.666   2.524   3.841 -0.4347  0.1353  0.0756
 5964SOL    HW118791   5.598   2.505   3.770 -0.2875  1.0094 -0.3015
 5964SOL    HW218792   5.754   2.483   3.815 -0.3097  0.6913 -0.3770
 5965SOL     OW18793   5.343   6.418   2.737  0.2285  0.3150 -0.4799
 5965SOL    HW118794   5.249   6.394   2.761  0.1596  1.1168  0.1002
 5965SOL    HW218795   5.403   6.339   2.749 -0.5162 -0.4697 -1.7580
 5966SOL     OW18796   0.129   6.016   0.953 -0.2334 -0.2558 -0.4901
 5966SOL    HW118797   0.077   6.024   0.868 -0.1724  0.6235 -0.4480
 5966SOL    HW218798   0.193   6.092   0.960  0.8468 -1.1497 -0.3833
 5967SOL     OW18799   2.221   6.315   5.930 -0.1427  0.4509  0.1272
 5967SOL    HW118800   2.129   6.308   5.969  0.0002  0.4385  0.4662
 5967SOL    HW218801   2.268   6.395   5.968 -0.4855  1.2400 -1.0498
 5968SOL     OW18802   0.786   4.817   6.597  0.1767 -0.0211 -0.0906
 5968SOL    HW118803   0.851   4.802   6.672 -1.0965 -1.2941  0.8131
 5968SOL    HW218804   0.759   4.729   6.559 -1.4817  0.4467 -0.0462
 5969SOL     OW18805   2.624   2.396   2.648  0.0950  0.3427  0.0708
 5969SOL    HW118806   2.628   2.352   2.558  0.6200  0.5978 -0.0365
 5969SOL    HW218807   2.621   2.326   2.719 -1.2198  0.1317 -0.1676
 5970SOL     OW18808   4.748   6.935   3.059 -0.0208  0.2415 -0.0431
 5970SOL    HW118809   4.740   7.034   3.074  0.2091  0.1503  0.7026
 5970SOL    HW218810   4.796   6.919   2.973  2.0527  0.7968  0.9541
 5971SOL     OW18811   3.670   4.527   5.772 -0.1863  0.1655 -0.5353
 5971SOL    HW118812   3.667   4.436   5.730 -0.1072 -0.1830  0.1977
 5971SOL    HW218813   3.577   4.560   5.786 -0.2170  0.1318 -0.6538
 5972SOL     OW18814   6.548   1.029   0.142  0.3131 -0.3616  0.2840
 5972SOL    HW118815   6.617   1.098   0.118 -0.1530  0.1807  0.4816
 5972SOL    HW218816   6.583   0.971   0.215  0.8277 -0.5270 -0.0895
 5973SOL     OW18817   3.504   0.298   2.344  0.7778 -0.2357  0.2989
 5973SOL    HW118818   3.594   0.307   2.299  0.0213 -0.3437 -1.3259
 5973SOL    HW218819   3.478   0.386   2.383  1.2535 -0.0064  0.1177
 5974SOL     OW18820   6.305   3.984   0.915  0.6846 -0.3124 -0.1313
 5974SOL    HW118821   6.267   3.918   0.849 -1.4547  0.1693  0.5414
 5974SOL    HW218822   6.317   3.939   1.003 -1.9198  0.3546  0.6707
 5975SOL     OW18823   5.102   2.938   5.159  0.4698 -0.0378  0.0326
 5975SOL    HW118824   5.049   2.892   5.088 -2.6987 -0.8021  2.6196
 5975SOL    HW218825   5.114   3.034   5.135  0.3197 -0.4733 -1.9205
 5976SOL     OW18826   4.841   3.118   0.541  0.3591 -0.6568  0.5131
 5976SOL    HW118827   4.799   3.201   0.505  0.1760 -0.9156  0.1161
 5976SOL    HW218828   4.903   3.141   0.617  2.0918  0.1143 -1.0443
 5977SOL     OW18829   0.195   2.042   5.953 -0.0766  0.2384 -0.2410
 5977SOL    HW118830   0.198   2.141   5.964 -1.4036  0.0852  2.1452
 5977SOL    HW218831   0.155   2.000   6.035  0.2787 -2.2704 -1.2507
 5978SOL     OW18832   6.150   4.285   6.970  0.2327 -0.0339  0.0156
 5978SOL    HW118833   6.141   4.185   6.977  1.0561 -0.0434  1.4837
 5978SOL    HW218834   6.122   4.326   7.057 -2.5018  1.2442 -1.3751
 5979SOL     OW18835   0.848   6.472   2.844  0.0987  0.5782  0.1928
 5979SOL    HW118836   0.776   6.506   2.904 -2.2508  2.0107 -3.1387
 5979SOL    HW218837   0.937   6.485   2.888 -1.3272  2.9000  2.7006
 5980SOL     OW18838   4.297   3.092   1.183 -0.5320 -0.5369  0.0395
 5980SOL    HW118839   4.294   3.064   1.279  0.6722 -2.6849 -0.4877
 5980SOL    HW218840   4.256   3.021   1.127 -0.5585  0.3669 -1.1100
 5981SOL     OW18841   2.692   3.992   0.018  0.0793 -0.1184  0.4812
 5981SOL    HW118842   2.722   4.087   0.017  0.1353 -0.1328  0.7012
 5981SOL    HW218843   2.768   3.933  -0.009 -0.0019 -0.0900  0.1842
 5982SOL     OW18844   4.115   5.870   1.374  0.3239 -0.1408 -0.6324
 5982SOL    HW118845   4.030   5.824   1.398  0.8166 -0.0622  1.4746
 5982SOL    HW218846   4.165   5.815   1.307 -1.8807  0.4121 -2.8989
 5983SOL     OW18847   5.469   0.680   1.057 -0.1283 -0.3034 -0.2807
 5983SOL    HW118848   5.526   0.600   1.041  0.0696 -0.7938  2.4679
 5983SOL    HW218849   5.509   0.736   1.129 -0.4094  2.1952 -1.9357
 5984SOL     OW18850   4.257   5.776   1.640 -0.1471 -0.2433  0.0678
 5984SOL    HW118851   4.189   5.839   1.604 -1.0568 -0.4669  1.3343
 5984SOL    HW218852   4.217   5.723   1.715  1.6582  0.1592  1.3578
 5985SOL     OW18853   5.859   0.099   2.605  0.2551 -0.0502 -0.1138
 5985SOL    HW118854   5.938   0.110   2.665 -1.1210 -1.1016  2.0236
 5985SOL    HW218855   5.775   0.100   2.659 -1.0255 -2.1756 -1.8721
 5986SOL     OW18856   1.647   0.503   4.768 -0.3847  0.3310 -0.0935
 5986SOL    HW118857   1.638   0.424   4.707  3.0838 -0.5046  0.2355
 5986SOL    HW218858   1.642   0.471   4.863 -2.7919  1.1868  0.1371
 5987SOL     OW18859   0.497   4.707   4.373  0.2992 -0.8909  0.3121
 5987SOL    HW118860   0.439   4.718   4.453  0.3979 -2.9836  0.7478
 5987SOL    HW218861   0.460   4.634   4.315 -0.1096  0.9521 -1.9107
 5988SOL     OW18862   2.642   5.872   5.820  0.3174 -0.3873  0.1757
 5988SOL    HW118863   2.570   5.854   5.752  0.3709  0.2484 -0.0574
 5988SOL    HW218864   2.624   5.959   5.865  0.5761 -0.5527  0.6050
 5989SOL     OW18865   0.657   3.446   1.742  0.0942 -0.1202  0.1622
 5989SOL    HW118866   0.636   3.479   1.650 -0.0007  0.8538  0.5206
 5989SOL    HW218867   0.753   3.419   1.747  0.4694  1.1738  0.1552
 5990SOL     OW18868   3.953   5.367   6.508 -0.6285 -0.0596 -0.4335
 5990SOL    HW118869   4.037   5.336   6.553 -0.1865  0.8032 -0.6466
 5990SOL    HW218870   3.882   5.383   6.576 -0.5894 -0.6765 -0.2388
 5991SOL     OW18871   0.131   4.933   1.127  0.6944  0.2401 -0.3829
 5991SOL    HW118872   0.217   4.915   1.080  0.4067 -0.8629 -0.5163
 5991SOL    HW218873   0.055   4.912   1.066  0.2853  2.6747 -0.8195
 5992SOL     OW18874   4.246   6.639   1.388  0.1680  0.4592  0.6603
 5992SOL    HW118875   4.169   6.703   1.388  0.3028  0.6666 -1.1826
 5992SOL    HW218876   4.225   6.562   1.328  1.1514  0.2098  0.6260
 5993SOL     OW18877   3.982   1.885   0.599  0.4090  0.0761 -0.6926
 5993SOL    HW118878   3.978   1.889   0.499  0.4949  1.9757 -0.6555
 5993SOL    HW218879   4.038   1.961   0.633 -0.1335 -0.1694  0.8193
 5994SOL     OW18880   0.099   1.215   3.424  0.1633  0.3013  0.6537
 5994SOL    HW118881   0.022   1.253   3.372  1.5316  1.4752 -0.6171
 5994SOL    HW218882   0.113   1.120   3.398  0.5443  0.7453 -0.8476
 5995SOL     OW18883   5.873   6.370   1.130 -0.1604  0.3122  0.3232
 5995SOL    HW118884   5.861   6.464   1.160 -1.2562 -0.4176  2.4088
 5995SOL    HW218885   5.925   6.320   1.200  0.0479 -0.7413 -0.5582
 5996SOL     OW18886   6.302   4.719   4.740 -0.2536 -0.3780  0.1430
 5996SOL    HW118887   6.316   4.717   4.839  0.3600  2.1347  0.1736
 5996SOL    HW218888   6.204   4.717   4.720 -0.4070 -0.2008  0.8412
 5997SOL     OW18889   0.338   6.469   1.728 -0.5139 -0.5419  0.0945
 5997SOL    HW118890   0.430   6.470   1.690  0.4869 -0.9935  2.3146
 5997SOL    HW218891   0.311   6.561   1.754  0.7820 -0.7877  2.5683
 5998SOL     OW18892   2.715   1.531   0.177  0.1022 -0.1034 -0.2571
 5998SOL    HW118893   2.656   1.502   0.101  0.9448 -0.8066 -0.6591
 5998SOL    HW218894   2.806   1.554   0.141 -0.0176  1.3448  0.2973
 5999SOL     OW18895   6.482   5.837   5.099 -0.3213 -0.7576  0.0244
 5999SOL    HW118896   6.431   5.768   5.150  0.6457 -0.9182  0.7952
 5999SOL    HW218897   6.420   5.911   5.072 -0.8460 -0.6368  1.4788
 6000SOL     OW18898   3.419   6.280   6.450  0.4885 -0.1960  0.1327
 6000SOL    HW118899   3.432   6.357   6.513 -1.0638  0.0239  0.2211
 6000SOL    HW218900   3.325   6.248   6.456  0.3916 -0.3948 -1.8405
 6001SOL     OW18901   6.208   0.737   1.465 -0.3656  0.1058 -0.0694
 6001SOL    HW118902   6.193   0.725   1.367 -1.1082 -0.5686  0.1138
 6001SOL    HW218903   6.121   0.748   1.512 -0.2833 -2.3834  0.8422
 6002SOL     OW18904   5.004   2.227   6.244 -0.5123  0.1085  0.4873
 6002SOL    HW118905   5.018   2.221   6.145  0.5884  0.6441  0.5872
 6002SOL    HW218906   4.953   2.148   6.276 -0.6871 -0.1755 -0.4843
 6003SOL     OW18907   4.289   5.944   4.297 -0.2919  0.6705 -0.6675
 6003SOL    HW118908   4.272   5.903   4.386  1.2867 -1.9734 -1.4972
 6003SOL    HW218909   4.204   5.943   4.244 -0.3571 -1.4844 -0.6025
 6004SOL     OW18910   5.146   2.991   3.665 -0.0130  0.1406 -0.1521
 6004SOL    HW118911   5.059   2.988   3.615 -0.9090  1.4430  1.2710
 6004SOL    HW218912   5.177   3.085   3.674  1.2825 -0.2637 -0.1530
 6005SOL     OW18913   2.244   5.081   0.649  0.5085 -0.3854  0.7642
 6005SOL    HW118914   2.152   5.116   0.631  1.2774  0.4350 -2.2246
 6005SOL    HW218915   2.241   4.982   0.660 -0.9124 -0.1852  2.6447
 6006SOL     OW18916   2.076   6.790   5.771 -0.2539  0.3203  0.2939
 6006SOL    HW118917   2.156   6.846   5.754  0.5760 -0.9692 -0.2343
 6006SOL    HW218918   2.024   6.827   5.848  1.0785  0.9403  0.9203
 6007SOL     OW18919   4.875   2.091   4.483  0.6002 -0.2690  0.0131
 6007SOL    HW118920   4.789   2.039   4.479  1.2972 -1.5314  0.6688
 6007SOL    HW218921   4.862   2.181   4.442 -0.6440 -0.9872 -1.2452
 6008SOL     OW18922   5.542   4.766   5.556  0.2940  0.2390 -0.6699
 6008SOL    HW118923   5.470   4.698   5.541 -0.3852  1.1305 -1.5945
 6008SOL    HW218924   5.549   4.785   5.653 -0.3192 -0.2931 -0.5105
 6009SOL     OW18925   0.558   0.939   0.907 -0.1314  0.3463  0.3498
 6009SOL    HW118926   0.526   1.004   0.976 -0.6307 -1.0128  1.4520
 6009SOL    HW218927   0.650   0.909   0.930  0.4909  1.3769 -0.7081
 6010SOL     OW18928   3.051   0.542   2.413  0.5332  0.1226  0.1357
 6010SOL    HW118929   3.137   0.586   2.441  0.7288  0.4256 -0.8959
 6010SOL    HW218930   3.046   0.540   2.313 -1.2408  1.2523  0.1682
 6011SOL     OW18931   1.015   1.569   2.248 -0.0370 -1.0010  0.2178
 6011SOL    HW118932   1.013   1.655   2.300  2.1220 -0.1926 -0.9359
 6011SOL    HW218933   0.924   1.554   2.208 -1.0951 -0.4537  2.2283
 6012SOL     OW18934   1.583   0.880   3.659  0.0054 -0.2303 -1.0412
 6012SOL    HW118935   1.650   0.951   3.682 -0.3058  0.0360 -0.9479
 6012SOL    HW218936   1.629   0.791   3.651  0.1751 -0.2853  0.3283
 6013SOL     OW18937   1.546   1.115   2.252  0.3652  0.0004 -0.0557
 6013SOL    HW118938   1.578   1.079   2.164  1.1265  0.0946  0.1766
 6013SOL    HW218939   1.464   1.171   2.237  1.3038  1.1901 -0.8992
 6014SOL     OW18940   5.280   3.800   1.703  0.2688 -0.0349  0.4292
 6014SOL    HW118941   5.342   3.878   1.706  0.3879 -0.0382 -1.1461
 6014SOL    HW218942   5.324   3.724   1.655  0.0474 -0.9923  1.6905
 6015SOL     OW18943   4.020   4.468   5.368  0.1800 -0.0571  0.1422
 6015SOL    HW118944   4.089   4.431   5.306 -0.2522  0.5500 -0.7291
 6015SOL    HW218945   3.969   4.540   5.322  1.1747  1.8536  1.8516
 6016SOL     OW18946   6.771   5.169   4.620  0.0916 -0.4385  0.0030
 6016SOL    HW118947   6.769   5.097   4.550 -1.2061 -0.6930  0.2844
 6016SOL    HW218948   6.802   5.254   4.579  1.8972 -1.1816 -0.2849
 6017SOL     OW18949   1.693   5.407   4.421  0.0010  0.3854  0.5128
 6017SOL    HW118950   1.722   5.488   4.471 -0.4306  0.6692  0.3091
 6017SOL    HW218951   1.762   5.383   4.352  0.4943  0.1185  1.0867
 6018SOL     OW18952   5.458   1.680   4.450 -0.1460 -0.4622  0.4707
 6018SOL    HW118953   5.424   1.603   4.504  1.3965 -1.3175  0.3090
 6018SOL    HW218954   5.400   1.693   4.370 -1.3992 -0.3557  1.3625
 6019SOL     OW18955   3.424   1.009   0.187 -0.4269 -0.2331  0.1015
 6019SOL    HW118956   3.384   0.988   0.098  0.9524 -0.3262 -0.5197
 6019SOL    HW218957   3.521   1.031   0.176 -0.8688  2.6559  1.2156
 6020SOL     OW18958   6.576   6.331   0.224  0.0605  0.6830  0.6126
 6020SOL    HW118959   6.548   6.418   0.263 -2.9465 -0.9908  2.5853
 6020SOL    HW218960   6.542   6.324   0.130 -1.6260  0.8174  1.1902
 6021SOL     OW18961   4.283   2.311   0.725 -0.2510 -0.5601  0.1643
 6021SOL    HW118962   4.374   2.338   0.696 -0.8140 -0.9907 -2.2204
 6021SOL    HW218963   4.244   2.383   0.783  0.5276  0.9763 -1.1298
 6022SOL     OW18964   1.511   3.777   4.011  0.5823 -0.1561  0.0635
 6022SOL    HW118965   1.515   3.722   3.927 -1.7398 -0.2216 -0.0826
 6022SOL    HW218966   1.497   3.717   4.090  0.0083  0.0739  0.1421
 6023SOL     OW18967   3.227   1.497   0.904 -0.4295 -0.4275  0.3332
 6023SOL    HW118968   3.211   1.398   0.896 -0.3548 -0.3715 -0.7470
 6023SOL    HW218969   3.199   1.528   0.995 -0.7549 -1.3858  0.5795
 6024SOL     OW18970   4.194   2.288   2.756 -0.2953  0.6633  0.3290
 6024SOL    HW118971   4.106   2.261   2.794 -0.5369  1.0500  0.0522
 6024SOL    HW218972   4.201   2.253   2.662 -0.1549  0.6364  0.3497
 6025SOL     OW18973   6.916   6.399   3.218  0.1158  0.2043  0.3775
 6025SOL    HW118974   6.860   6.433   3.142  2.2524 -0.3151 -1.5112
 6025SOL    HW218975   6.871   6.320   3.259 -1.3556  0.8311  0.0462
 6026SOL     OW18976   4.622   2.769   1.797 -0.0296 -0.1496 -0.7834
 6026SOL    HW118977   4.640   2.843   1.861  0.8490 -0.6911 -0.3884
 6026SOL    HW218978   4.529   2.778   1.761  0.4564  1.8277 -1.6657
 6027SOL     OW18979   6.222   4.999   3.946 -0.3165 -0.0814  0.3398
 6027SOL    HW118980   6.217   4.991   3.846 -1.9332 -0.4656  0.4160
 6027SOL    HW218981   6.285   5.072   3.971  0.0057  0.1083 -0.9674
 6028SOL     OW18982   4.068   0.664   6.312 -0.6165  0.8064  0.4535
 6028SOL    HW118983   4.002   0.602   6.269 -1.1492  1.9471 -0.4045
 6028SOL    HW218984   4.107   0.619   6.393 -1.3883 -0.4304  0.1711
 6029SOL     OW18985   2.448   1.262   5.060 -0.0373  0.1198 -0.1652
 6029SOL    HW118986   2.380   1.296   4.995  0.4225 -0.1212 -0.7805
 6029SOL    HW218987   2.409   1.185   5.112 -0.1864 -0.1203 -0.6260
 6030SOL     OW18988   3.959   4.371   5.633 -0.8031  0.2064 -0.1580
 6030SOL    HW118989   3.863   4.345   5.640 -0.8890  0.5651  0.0371
 6030SOL    HW218990   3.979   4.403   5.541 -0.3870 -1.7438 -0.7843
 6031SOL     OW18991   6.661   3.346   2.160 -0.0049 -0.3741 -0.4843
 6031SOL    HW118992   6.658   3.379   2.065 -0.5974 -1.1222 -0.7354
 6031SOL    HW218993   6.734   3.278   2.170  0.9190  0.6488 -0.0747
 6032SOL     OW18994   0.045   4.582   2.083 -0.5511 -0.2315  0.0570
 6032SOL    HW118995   0.076   4.487   2.089  1.2173  0.3883  2.3335
 6032SOL    HW218996   0.067   4.619   1.993  2.2190 -0.9339  0.3546
 6033SOL     OW18997   0.069   5.805   4.058 -0.5444 -0.1109 -0.0852
 6033SOL    HW118998   0.129   5.867   4.008 -1.4469  1.7980  1.0844
 6033SOL    HW218999  -0.020   5.848   4.073 -0.5126 -0.7819  2.6371
 6034SOL     OW19000   4.960   6.911   3.292  0.1327  0.3413  0.1956
 6034SOL    HW119001   4.897   6.838   3.266  1.5116 -1.4116  1.5125
 6034SOL    HW219002   4.965   6.978   3.218 -3.3943  0.7215  0.1400
 6035SOL     OW19003   3.242   1.756   6.085  0.7994 -0.2507  0.2023
 6035SOL    HW119004   3.172   1.788   6.148  1.5355  1.1865  0.3300
 6035SOL    HW219005   3.204   1.754   5.992  0.6184  0.6464  0.2479
 6036SOL     OW19006   0.779   1.900   4.383  0.1506  0.4040  0.1352
 6036SOL    HW119007   0.713   1.940   4.447  0.0904  0.6582 -0.0885
 6036SOL    HW219008   0.740   1.897   4.291  0.2912  0.1676  0.0827
 6037SOL     OW19009   4.713   4.644   1.722 -0.1999 -0.5264  0.4008
 6037SOL    HW119010   4.639   4.580   1.701 -0.0280 -0.1505 -1.5581
 6037SOL    HW219011   4.793   4.594   1.754 -0.6904 -1.1008  0.7551
 6038SOL     OW19012   1.441   0.331   3.254 -0.3316  0.4231 -0.6257
 6038SOL    HW119013   1.352   0.285   3.247 -0.2024  0.3567 -2.1558
 6038SOL    HW219014   1.426   0.430   3.253 -0.4104  0.4144 -0.4361
 6039SOL     OW19015   1.932   2.440   4.663 -0.5911 -0.3811  0.0102
 6039SOL    HW119016   1.971   2.431   4.755 -2.0256 -0.5303  0.6192
 6039SOL    HW219017   1.953   2.531   4.626 -1.3897  0.2834  1.1559
 6040SOL     OW19018   0.787   2.635   6.682 -1.0528  0.0829 -0.2177
 6040SOL    HW119019   0.794   2.550   6.735 -1.0478  0.6327  0.6933
 6040SOL    HW219020   0.771   2.613   6.586  1.9801 -1.0352 -0.5741
 6041SOL     OW19021   0.677   5.969   4.511  0.1681 -0.0110 -0.0375
 6041SOL    HW119022   0.658   5.907   4.435 -1.3450 -0.3078  0.5489
 6041SOL    HW219023   0.752   6.031   4.485 -0.6111  0.2200 -1.9609
 6042SOL     OW19024   1.948   1.876   5.867 -0.6348 -0.2752  0.4689
 6042SOL    HW119025   1.937   1.953   5.931 -1.1010  0.7997 -0.8547
 6042SOL    HW219026   2.030   1.825   5.891  0.6896  1.6754  0.3843
 6043SOL     OW19027   1.335   4.245   3.701 -0.0740 -0.6341  0.5379
 6043SOL    HW119028   1.244   4.242   3.741  0.6023 -1.7613  2.0701
 6043SOL    HW219029   1.403   4.264   3.771  0.8148  1.5011 -0.7825
 6044SOL     OW19030   1.810   1.399   1.588  0.4176 -0.1942  0.3735
 6044SOL    HW119031   1.906   1.378   1.604  0.5658  0.1404 -0.0633
 6044SOL    HW219032   1.793   1.496   1.605  0.2186 -0.1942  0.1853
 6045SOL     OW19033   5.296   0.410   4.844 -0.2657  0.0472  0.0756
 6045SOL    HW119034   5.200   0.428   4.866  0.9442  3.4982  3.9331
 6045SOL    HW219035   5.316   0.445   4.752 -2.1984  1.8011  0.2315
 6046SOL     OW19036   5.630   3.853   0.964 -0.2141  0.1588 -0.1758
 6046SOL    HW119037   5.728   3.841   0.947  0.2086  0.4603  1.7897
 6046SOL    HW219038   5.594   3.925   0.904  0.8208  0.2497 -0.7152
 6047SOL     OW19039   3.724   4.826   0.904  0.7643  0.6004  0.2060
 6047SOL    HW119040   3.771   4.893   0.847  0.6423 -0.1533 -0.8170
 6047SOL    HW219041   3.722   4.738   0.857 -2.5105  0.8104 -0.2835
 6048SOL     OW19042   6.703   5.907   3.625 -0.3555  0.0261  0.0716
 6048SOL    HW119043   6.800   5.921   3.648 -0.2558 -1.7085  0.9049
 6048SOL    HW219044   6.697   5.858   3.537 -0.4387 -0.3778  0.2981
 6049SOL     OW19045   1.015   1.100   4.593 -0.0981  0.5462  0.1773
 6049SOL    HW119046   0.999   1.190   4.634  2.0350 -0.2725  3.1377
 6049SOL    HW219047   1.097   1.104   4.536  0.0584  0.4528  0.3965
 6050SOL     OW19048   5.433   4.402   6.678  0.3292  0.1322  0.3226
 6050SOL    HW119049   5.460   4.499   6.675  1.1804 -0.0384  1.5359
 6050SOL    HW219050   5.391   4.383   6.767 -0.7531 -0.4069 -0.2768
 6051SOL     OW19051   2.041   6.525   0.058 -0.0605 -0.1598  0.0235
 6051SOL    HW119052   2.104   6.469   0.004 -0.7174 -0.5056 -0.3936
 6051SOL    HW219053   2.012   6.474   0.139  0.2279  0.0214  0.2459
 6052SOL     OW19054   3.979   0.111   2.762 -0.3120  0.2753 -0.3030
 6052SOL    HW119055   3.945   0.037   2.704 -1.4159 -0.1571  0.8523
 6052SOL    HW219056   3.925   0.194   2.745  2.5197  1.7255 -3.4885
 6053SOL     OW19057   5.730   3.036   1.853 -0.1537 -0.3644 -0.7995
 6053SOL    HW119058   5.768   3.078   1.935  0.4452 -0.2477 -1.1326
 6053SOL    HW219059   5.701   2.943   1.874  1.0150 -0.7197 -0.7166
 6054SOL     OW19060   4.109   4.772   3.696 -0.2636  0.4738  0.4416
 6054SOL    HW119061   4.137   4.834   3.622  0.1291  0.0705  0.2490
 6054SOL    HW219062   4.150   4.682   3.681 -2.1820 -0.3384 -0.2212
 6055SOL     OW19063   5.354   6.610   1.758  0.2547  0.2711  0.3321
 6055SOL    HW119064   5.311   6.545   1.695 -1.1663  0.3704  1.1543
 6055SOL    HW219065   5.286   6.678   1.787  0.8259  0.1506  2.0536
 6056SOL     OW19066   6.895   0.548   5.284  0.3293  0.4833 -0.6766
 6056SOL    HW119067   6.837   0.568   5.206  1.2333  0.9470 -1.2473
 6056SOL    HW219068   6.991   0.568   5.261  0.6156  0.6009  0.5285
 6057SOL     OW19069   3.569   1.813   3.001  0.1483 -0.6645 -0.2904
 6057SOL    HW119070   3.530   1.905   3.011 -0.0893 -0.6351 -1.3271
 6057SOL    HW219071   3.654   1.806   3.053  1.1907  0.7766 -1.6806
 6058SOL     OW19072   2.274   1.030   5.975 -0.0118 -0.2541  0.1537
 6058SOL    HW119073   2.176   1.009   5.972 -0.1320 -0.1545  2.3129
 6058SOL    HW219074   2.309   1.014   6.067  1.7203  1.0344 -0.2352
 6059SOL     OW19075   6.236   4.944   3.134  0.3507 -0.4484 -0.4741
 6059SOL    HW119076   6.151   4.971   3.179  0.5746 -2.3473  1.2238
 6059SOL    HW219077   6.287   5.026   3.108 -1.7704  0.7146 -1.1591
 6060SOL     OW19078   1.239   6.298   4.838 -0.2973  0.2474 -0.3303
 6060SOL    HW119079   1.233   6.219   4.777 -1.3189 -0.2623  0.4039
 6060SOL    HW219080   1.299   6.367   4.797 -1.1966  0.0591 -2.0560
 6061SOL     OW19081   6.942   0.990   0.856 -0.1834 -0.1166 -0.0385
 6061SOL    HW119082   6.884   0.932   0.798 -1.3606 -0.1584  1.1235
 6061SOL    HW219083   6.890   1.070   0.885  0.1056 -0.4430  1.5039
 6062SOL     OW19084   4.371   2.059   0.364 -0.7330  0.4526 -0.0318
 6062SOL    HW119085   4.405   2.069   0.271 -1.1353 -0.8113 -0.3305
 6062SOL    HW219086   4.278   2.022   0.362  0.2618 -2.3846  0.8782
 6063SOL     OW19087   5.979   3.061   0.415 -0.4604 -0.3142  0.3362
 6063SOL    HW119088   5.975   3.129   0.489  2.8694 -0.2461  0.6297
 6063SOL    HW219089   5.889   3.019   0.403 -1.3425  0.1631  3.9530
 6064SOL     OW19090   1.668   5.976   0.811  0.8305  0.3754 -0.1103
 6064SOL    HW119091   1.653   6.075   0.813  0.1754  0.2746  1.2535
 6064SOL    HW219092   1.761   5.956   0.842 -0.0105  0.4579  2.7841
 6065SOL     OW19093   2.877   6.901   5.775 -0.4639  0.0894  0.1970
 6065SOL    HW119094   2.799   6.903   5.837 -0.2399  0.9582  0.4648
 6065SOL    HW219095   2.891   6.808   5.742 -1.2401 -0.1829  0.6154
 6066SOL     OW19096   2.495   0.793   5.690 -0.2273 -0.4334 -0.2809
 6066SOL    HW119097   2.567   0.830   5.632 -1.4082  1.1747 -0.8197
 6066SOL    HW219098   2.531   0.776   5.782  0.6234  1.3020 -0.2429
 6067SOL     OW19099   0.895   3.656   0.347 -0.1924 -0.0984  0.3613
 6067SOL    HW119100   0.955   3.583   0.315  1.9766  1.5132  0.6125
 6067SOL    HW219101   0.852   3.628   0.433  0.9254 -0.9171  0.6664
 6068SOL     OW19102   4.454   5.460   2.319 -0.0371 -0.5112 -0.9018
 6068SOL    HW119103   4.469   5.442   2.416 -1.8479  1.1405 -0.2401
 6068SOL    HW219104   4.530   5.424   2.266  1.7528 -0.1351  1.2612
 6069SOL     OW19105   6.180   3.148   6.176  0.1315  0.3394  0.2328
 6069SOL    HW119106   6.157   3.153   6.079 -2.5624  1.0299  0.8142
 6069SOL    HW219107   6.187   3.052   6.203 -1.1375  0.0692 -0.2889
 6070SOL     OW19108   3.634   3.335   0.279 -0.1214 -0.0392 -0.5155
 6070SOL    HW119109   3.704   3.282   0.231 -1.0545 -1.1990 -0.6460
 6070SOL    HW219110   3.543   3.305   0.249 -0.6898  1.7350 -0.6655
 6071SOL     OW19111   3.323   0.599   1.909  0.0707  0.2556 -0.2151
 6071SOL    HW119112   3.400   0.571   1.967  0.7444 -0.5125 -1.4316
 6071SOL    HW219113   3.343   0.686   1.866  1.7142 -1.3184 -2.9326
 6072SOL     OW19114   4.902   6.915   5.802 -0.4277 -0.1018  0.2140
 6072SOL    HW119115   4.976   6.886   5.862  2.0336  1.7349 -1.7022
 6072SOL    HW219116   4.872   6.838   5.746  1.1180 -0.5883  0.0060
 6073SOL     OW19117   3.797   1.385   0.928 -0.0391  0.1303  0.8488
 6073SOL    HW119118   3.820   1.474   0.968  0.5067  0.5162 -0.2637
 6073SOL    HW219119   3.844   1.313   0.978  1.7618  0.7150  0.1069
 6074SOL     OW19120   1.288   6.627   2.027  0.7292  0.4484 -0.4904
 6074SOL    HW119121   1.199   6.667   2.004  0.9843  1.1682 -0.2500
 6074SOL    HW219122   1.360   6.677   1.979  1.0289  0.0646 -0.4427
 6075SOL     OW19123   5.330   2.011   1.296 -0.4483  0.1893 -0.2979
 6075SOL    HW119124   5.393   2.073   1.344  2.2562 -2.5436 -0.0190
 6075SOL    HW219125   5.374   1.978   1.212 -2.0004 -0.9911 -0.6815
 6076SOL     OW19126   2.309   5.452   2.668 -0.0340 -0.6060  0.2234
 6076SOL    HW119127   2.392   5.397   2.679  0.2820 -0.0023  0.9422
 6076SOL    HW219128   2.233   5.408   2.717 -0.2568 -1.3755 -0.7796
 6077SOL     OW19129   5.188   4.279   2.442  0.4918  0.8167  0.6047
 6077SOL    HW119130   5.090   4.302   2.447  0.3093 -0.0686  1.3404
 6077SOL    HW219131   5.239   4.333   2.509  0.1132 -0.5720  2.0844
 6078SOL     OW19132   2.097   2.394   1.669 -0.1680  0.4540 -0.1530
 6078SOL    HW119133   2.094   2.474   1.729 -1.4900  0.6237 -0.4172
 6078SOL    HW219134   2.155   2.413   1.590 -1.3673  1.6111 -0.8017
 6079SOL     OW19135   3.687   3.444   2.957  0.3481  0.0396 -0.1821
 6079SOL    HW119136   3.691   3.346   2.938  2.9622  0.0275  0.0009
 6079SOL    HW219137   3.616   3.487   2.901 -0.8379 -1.9231 -0.2725
 6080SOL     OW19138   0.676   3.404   0.399  0.7476  0.2015  0.7757
 6080SOL    HW119139   0.733   3.336   0.353 -0.6155 -1.2768  1.1712
 6080SOL    HW219140   0.714   3.425   0.489  1.3807  0.2551  0.5008
 6081SOL     OW19141   0.848   6.660   5.700 -0.5368  0.1021  0.3060
 6081SOL    HW119142   0.928   6.612   5.736  0.5746 -0.3230 -2.5126
 6081SOL    HW219143   0.859   6.759   5.715  1.7517  0.3089 -2.0708
 6082SOL     OW19144   2.864   1.856   3.110  0.0966 -0.2720 -0.1502
 6082SOL    HW119145   2.816   1.942   3.094  0.5792  0.4331  1.8801
 6082SOL    HW219146   2.859   1.832   3.207  0.3575 -2.3187 -0.5904
 6083SOL     OW19147   6.558   2.037   5.875  0.7924  0.6228 -0.1408
 6083SOL    HW119148   6.461   2.057   5.870  0.4464  0.5714  3.4666
 6083SOL    HW219149   6.574   1.941   5.855 -0.1182  0.3074  0.6022
 6084SOL     OW19150   1.165   1.176   3.699 -0.4947  0.6821 -0.5104
 6084SOL    HW119151   1.214   1.089   3.709  0.8134  1.3800 -0.5594
 6084SOL    HW219152   1.142   1.190   3.603  4.3480  2.8956 -1.6480
 6085SOL     OW19153   4.497   3.747   1.581  0.1905 -0.6676  0.3518
 6085SOL    HW119154   4.536   3.658   1.603  1.7471 -0.0086  0.3630
 6085SOL    HW219155   4.531   3.815   1.645  0.1829  0.2005 -0.5514
 6086SOL     OW19156   1.363   4.610   4.868 -0.1461 -1.3908 -0.7456
 6086SOL    HW119157   1.289   4.664   4.827  0.0850  0.2866  0.9182
 6086SOL    HW219158   1.451   4.649   4.842  0.0241 -1.0135  0.3106
 6087SOL     OW19159   1.246   3.417   2.527 -0.0500  0.3054  0.0446
 6087SOL    HW119160   1.258   3.352   2.601 -1.3066 -0.1868 -0.1572
 6087SOL    HW219161   1.334   3.434   2.483  0.6847  0.4897  1.5300
 6088SOL     OW19162   6.527   2.294   3.812 -0.0836 -0.5181  0.1076
 6088SOL    HW119163   6.576   2.275   3.727 -1.5144 -0.4471 -0.7471
 6088SOL    HW219164   6.442   2.242   3.815 -1.7076  1.9473 -0.0576
 6089SOL     OW19165   4.932   0.873   1.752  0.1385  0.4859  0.3761
 6089SOL    HW119166   4.925   0.941   1.678  0.0934 -0.0848 -0.1557
 6089SOL    HW219167   5.016   0.821   1.741 -1.0217 -1.2769 -0.7618
 6090SOL     OW19168   2.136   4.425   4.080 -0.2837  0.0907 -0.3933
 6090SOL    HW119169   2.182   4.499   4.030 -1.5247  1.3822  0.2920
 6090SOL    HW219170   2.107   4.459   4.169  1.2346 -1.9638  0.9586
 6091SOL     OW19171   4.682   2.398   1.293 -1.2553  0.1137  0.4478
 6091SOL    HW119172   4.731   2.326   1.245 -1.3725  0.4308 -0.1577
 6091SOL    HW219173   4.584   2.382   1.288 -1.2526 -0.1317  1.0404
 6092SOL     OW19174   6.997   3.149   1.451 -0.2789  0.1379  0.1441
 6092SOL    HW119175   7.050   3.066   1.463  0.9833  0.8544 -0.2355
 6092SOL    HW219176   7.056   3.229   1.467 -1.9446  1.0016  2.7068
 6093SOL     OW19177   3.503   5.803   0.578  0.0863  0.7251  0.2727
 6093SOL    HW119178   3.520   5.712   0.616 -0.6032 -0.4949 -2.1344
 6093SOL    HW219179   3.585   5.859   0.589  0.7963 -0.4293  1.1122
 6094SOL     OW19180   4.135   0.875   5.049 -0.2290  0.4746 -0.4794
 6094SOL    HW119181   4.226   0.845   5.020 -0.6428  1.7410 -3.4623
 6094SOL    HW219182   4.126   0.864   5.148  2.7818 -0.6093 -0.2300
 6095SOL     OW19183   5.531   5.197   0.032 -0.0377 -0.4437 -0.1926
 6095SOL    HW119184   5.595   5.272   0.049  0.0390 -0.7191  0.8162
 6095SOL    HW219185   5.489   5.208  -0.057 -0.2542  0.9749  0.0724
 6096SOL     OW19186   2.138   6.487   1.770  0.4248 -0.5333  0.6589
 6096SOL    HW119187   2.224   6.538   1.766 -0.7780  1.5295 -0.3556
 6096SOL    HW219188   2.109   6.478   1.866 -1.2849  4.3707  0.8583
 6097SOL     OW19189   1.322   5.552   6.568  0.5233 -0.2162 -0.4783
 6097SOL    HW119190   1.257   5.517   6.636 -1.4889 -0.0937 -2.2151
 6097SOL    HW219191   1.403   5.587   6.614 -0.2814 -1.0943  1.7563
 6098SOL     OW19192   1.561   6.248   0.729 -0.3188 -0.5274  0.1704
 6098SOL    HW119193   1.471   6.251   0.684 -1.0258 -0.3684  1.5504
 6098SOL    HW219194   1.554   6.286   0.821  0.9675 -1.3733  0.6455
 6099SOL     OW19195   5.590   3.294   3.096  0.0420  0.4462  0.4850
 6099SOL    HW119196   5.675   3.304   3.044 -0.8371  0.6719 -0.9522
 6099SOL    HW219197   5.601   3.337   3.186  1.4880  0.3237  0.3960
 6100SOL     OW19198   5.159   5.065   1.453 -0.9206  1.1954 -0.1002
 6100SOL    HW119199   5.157   5.052   1.354  0.2723 -0.3627  0.0459
 6100SOL    HW219200   5.235   5.125   1.477 -0.8123  1.0529 -0.0847
 6101SOL     OW19201   2.073   2.278   4.462 -0.2816 -0.1049 -0.3516
 6101SOL    HW119202   2.002   2.298   4.529  0.4228 -1.5170  0.8939
 6101SOL    HW219203   2.137   2.211   4.501  0.8529 -0.0374 -2.0003
 6102SOL     OW19204   5.158   2.469   0.184 -0.0698 -0.0864  0.0640
 6102SOL    HW119205   5.227   2.510   0.244  0.5581 -1.5151  0.3748
 6102SOL    HW219206   5.198   2.389   0.138 -1.1361 -0.1611 -0.7730
 6103SOL     OW19207   0.599   5.849   6.947 -0.5074 -0.1330  0.1288
 6103SOL    HW119208   0.569   5.943   6.934  1.2772  0.6558  1.3463
 6103SOL    HW219209   0.658   5.822   6.871  1.7121  0.9688  1.3522
 6104SOL     OW19210   2.895   5.061   6.441 -0.2806 -0.1520 -0.7446
 6104SOL    HW119211   2.989   5.081   6.469  0.2247 -0.0654 -2.3978
 6104SOL    HW219212   2.851   5.145   6.408 -1.4629  0.1167  1.3295
 6105SOL     OW19213   6.843   6.817   6.015  0.1981 -0.6456  0.2295
 6105SOL    HW119214   6.911   6.819   6.089  0.7498 -0.0545 -0.2699
 6105SOL    HW219215   6.882   6.861   5.933 -0.2289 -1.6940 -0.5633
 6106SOL     OW19216   4.507   2.195   1.441  0.2127 -0.3969  0.1276
 6106SOL    HW119217   4.446   2.268   1.408 -0.9088 -1.0976  0.5974
 6106SOL    HW219218   4.476   2.165   1.531  1.2068 -0.8489  0.3267
 6107SOL     OW19219   3.818   1.205   0.023  0.6061 -0.2644  0.1623
 6107SOL    HW119220   3.759   1.275   0.065 -0.9223 -0.3861 -1.6829
 6107SOL    HW219221   3.878   1.248  -0.044  1.1718 -0.4493  0.5412
 6108SOL     OW19222   4.665   6.876   2.639  0.0475 -0.0991  0.5147
 6108SOL    HW119223   4.591   6.881   2.572  0.9453  0.5363 -0.4667
 6108SOL    HW219224   4.630   6.839   2.725 -0.9850 -1.6626 -0.5135
 6109SOL     OW19225   0.433   6.200   0.550  0.0433  0.1413  0.1281
 6109SOL    HW119226   0.376   6.187   0.469 -0.4718 -0.5962  0.5999
 6109SOL    HW219227   0.528   6.217   0.521 -0.2610  0.6017 -0.6404
 6110SOL     OW19228   6.189   6.472   3.703 -0.6360 -0.2918 -0.1964
 6110SOL    HW119229   6.235   6.509   3.622 -0.6396 -2.5035 -1.2722
 6110SOL    HW219230   6.186   6.372   3.698 -0.4257 -0.5381  2.6705
 6111SOL     OW19231   3.938   4.409   6.689  0.0866  0.7028 -0.2063
 6111SOL    HW119232   4.015   4.355   6.654 -1.1050 -0.9209 -0.4835
 6111SOL    HW219233   3.963   4.505   6.694  2.0676  0.2300 -0.4210
 6112SOL     OW19234   6.286   3.343   0.880 -0.4428 -0.6133  0.1045
 6112SOL    HW119235   6.337   3.387   0.954  0.8198  0.0270 -1.0961
 6112SOL    HW219236   6.188   3.356   0.894 -0.2148 -0.3252  1.5334
 6113SOL     OW19237   1.045   4.404   6.201 -0.0724  0.1201 -0.4193
 6113SOL    HW119238   1.053   4.427   6.298 -0.7151  0.6310 -0.4745
 6113SOL    HW219239   1.073   4.483   6.146 -0.1775  0.0026 -0.6406
 6114SOL     OW19240   2.526   2.214   0.034  0.2147  0.4359 -0.2651
 6114SOL    HW119241   2.429   2.215   0.058  0.1936 -0.1538 -0.3208
 6114SOL    HW219242   2.581   2.232   0.116  0.0857 -0.0271 -0.0727
 6115SOL     OW19243   0.697   5.512   3.388 -0.1659 -0.2197  0.2808
 6115SOL    HW119244   0.599   5.497   3.401 -0.4971  1.8495  0.5840
 6115SOL    HW219245   0.722   5.487   3.295 -1.2818  0.4647 -0.2314
 6116SOL     OW19246   6.003   0.600   6.856 -0.1478  0.4113 -0.5403
 6116SOL    HW119247   6.089   0.555   6.879 -0.5404 -0.5859 -0.9516
 6116SOL    HW219248   6.003   0.625   6.759 -0.6389 -0.3511 -0.7448
 6117SOL     OW19249   5.226   1.987   2.649  0.6383  0.1745 -0.0216
 6117SOL    HW119250   5.254   2.083   2.655 -0.5693  0.9049 -3.5681
 6117SOL    HW219251   5.132   1.982   2.615 -0.5199 -2.3108  3.1040
 6118SOL     OW19252   0.562   6.949   2.389 -0.9028  0.0559  0.5493
 6118SOL    HW119253   0.591   6.887   2.462  1.6244  0.2398 -0.1982
 6118SOL    HW219254   0.517   6.896   2.317  2.4932 -1.3555 -0.7717
 6119SOL     OW19255   2.073   5.821   4.663 -0.6128 -0.1278  1.0041
 6119SOL    HW119256   1.994   5.868   4.703  0.7613  1.0030  2.5393
 6119SOL    HW219257   2.111   5.758   4.730 -0.4140 -0.9430  0.1443
 6120SOL     OW19258   6.827   0.731   5.794  0.3814 -0.0041 -0.2276
 6120SOL    HW119259   6.729   0.729   5.814  0.3503  0.9942 -0.2635
 6120SOL    HW219260   6.842   0.725   5.696  0.3970 -0.8724 -0.1864
 6121SOL     OW19261   1.250   1.652   4.122  0.5529 -0.2104 -0.2432
 6121SOL    HW119262   1.219   1.704   4.202 -0.4157  0.0858 -0.7950
 6121SOL    HW219263   1.171   1.631   4.064  0.8162 -2.6694  0.1549
 6122SOL     OW19264   2.130   3.047   3.305 -0.0858 -0.4423 -0.7822
 6122SOL    HW119265   2.121   3.086   3.397  0.0216  0.5442 -1.1758
 6122SOL    HW219266   2.075   3.101   3.241  2.2621  0.8073 -1.8345
 6123SOL     OW19267   4.486   5.475   0.517 -0.0416 -0.6986  0.3157
 6123SOL    HW119268   4.457   5.505   0.426  0.8653 -0.8545 -0.0362
 6123SOL    HW219269   4.578   5.509   0.536  0.3489 -1.8511  0.5814
 6124SOL     OW19270   2.733   2.245   0.525  0.3710 -0.3592 -0.0186
 6124SOL    HW119271   2.687   2.269   0.611 -1.8391 -0.4364 -1.1085
 6124SOL    HW219272   2.821   2.292   0.520 -0.0389  0.6739  1.6966
 6125SOL     OW19273   6.367   1.838   5.026  0.0580 -0.3041  0.2746
 6125SOL    HW119274   6.460   1.870   5.009 -0.6922  1.6633 -0.3586
 6125SOL    HW219275   6.350   1.754   4.974  0.9461  0.2385 -0.9296
 6126SOL     OW19276   2.439   1.483   2.564  0.4294 -0.2250  0.5317
 6126SOL    HW119277   2.520   1.502   2.509 -0.3634 -0.8673 -0.9356
 6126SOL    HW219278   2.359   1.526   2.522 -0.1683 -0.5249  1.3300
 6127SOL     OW19279   5.642   5.847   3.284  0.6312 -0.4324 -0.1130
 6127SOL    HW119280   5.616   5.750   3.276  0.4148 -0.3216 -0.8691
 6127SOL    HW219281   5.563   5.901   3.311  0.9385 -0.5597  1.1112
 6128SOL     OW19282   5.624   3.692   0.540  0.2755 -0.1729 -0.0263
 6128SOL    HW119283   5.641   3.687   0.639  0.3647 -1.9251 -0.0963
 6128SOL    HW219284   5.588   3.605   0.508 -0.3863  0.5900 -1.4507
 6129SOL     OW19285   2.155   3.048   5.159 -0.2664 -0.4886 -0.1812
 6129SOL    HW119286   2.085   2.983   5.189  0.8206 -0.1373  3.7200
 6129SOL    HW219287   2.240   2.999   5.140 -0.7832 -0.6347 -2.4004
 6130SOL     OW19288   0.054   3.004   5.605 -0.3267 -0.1551 -0.0849
 6130SOL    HW119289   0.017   3.035   5.517 -1.1243  1.3938  0.7632
 6130SOL    HW219290  -0.019   2.964   5.660 -0.4824  1.5216  0.9922
 6131SOL     OW19291   4.695   4.245   6.582 -0.3504 -0.1737  0.3459
 6131SOL    HW119292   4.646   4.326   6.614 -0.5511 -0.2140  0.1445
 6131SOL    HW219293   4.764   4.219   6.649  0.4461  0.7979 -0.0640
 6132SOL     OW19294   2.067   2.553   0.157 -0.2629  0.0193 -0.0494
 6132SOL    HW119295   1.981   2.603   0.147 -0.1951 -0.2552 -2.6034
 6132SOL    HW219296   2.138   2.616   0.189 -1.4988  0.0895  2.8239
 6133SOL     OW19297   2.322   6.936   2.844 -0.1267 -0.0973  0.2948
 6133SOL    HW119298   2.233   6.932   2.888 -0.6363 -0.5733 -0.7440
 6133SOL    HW219299   2.390   6.970   2.909 -0.8588 -0.7131  1.4101
 6134SOL     OW19300   6.296   6.469   0.475  0.9200  0.2349  0.0222
 6134SOL    HW119301   6.285   6.563   0.444  2.4965  1.0008  1.6292
 6134SOL    HW219302   6.384   6.458   0.520  1.2781 -2.3228 -1.0811
 6135SOL     OW19303   2.707   5.061   0.351 -0.4826 -0.2130  0.5503
 6135SOL    HW119304   2.625   5.043   0.405  0.3845 -0.4805  1.8272
 6135SOL    HW219305   2.684   5.060   0.254 -1.9921 -0.2268  0.8853
 6136SOL     OW19306   0.198   6.988   6.546  0.4070  0.1066  0.6303
 6136SOL    HW119307   0.202   7.088   6.551  0.1645  0.3299 -2.1190
 6136SOL    HW219308   0.124   6.960   6.484  0.2880 -1.8041  1.5532
 6137SOL     OW19309   3.598   6.146   3.991 -0.2086 -0.2092 -0.0162
 6137SOL    HW119310   3.612   6.241   3.964  0.7007 -0.1635  0.5969
 6137SOL    HW219311   3.499   6.127   3.993 -0.3851  0.5934 -0.5430
 6138SOL     OW19312   2.367   2.507   3.515  0.2123 -0.3305 -0.7653
 6138SOL    HW119313   2.450   2.453   3.505 -0.4871 -1.6007  0.1606
 6138SOL    HW219314   2.288   2.454   3.485 -0.5248  0.0621  0.4177
 6139SOL     OW19315   0.437   4.570   1.663  0.1823 -0.0341 -0.0151
 6139SOL    HW119316   0.451   4.641   1.594 -0.2608 -0.1544 -0.2362
 6139SOL    HW219317   0.368   4.505   1.631  0.5331 -0.5300  0.2130
 6140SOL     OW19318   3.642   6.707   0.951  0.5359  0.0549 -0.0514
 6140SOL    HW119319   3.594   6.744   0.872 -1.7782 -0.2472  1.1324
 6140SOL    HW219320   3.725   6.661   0.921 -0.5394 -0.5232 -2.3667
 6141SOL     OW19321   1.425   1.098   6.960 -0.2106  0.3673  0.3743
 6141SOL    HW119322   1.351   1.141   7.011 -0.1539  1.2547 -0.2597
 6141SOL    HW219323   1.395   1.009   6.926 -1.6353  1.4624 -1.3941
 6142SOL     OW19324   5.053   1.243   4.701  0.7688 -0.1354 -0.0233
 6142SOL    HW119325   5.109   1.171   4.661 -0.3319 -1.1809  0.2790
 6142SOL    HW219326   4.958   1.213   4.707  0.0613  1.7428 -0.8817
 6143SOL     OW19327   5.783   0.350   3.111 -0.2990 -0.0822  0.5729
 6143SOL    HW119328   5.748   0.358   3.205  0.5757 -0.4902  0.9505
 6143SOL    HW219329   5.755   0.262   3.073 -2.4974  0.9574 -0.3711
 6144SOL     OW19330   4.150   4.726   5.241 -0.1902  0.0871  0.1143
 6144SOL    HW119331   4.174   4.719   5.338  2.1056  0.2866 -0.3969
 6144SOL    HW219332   4.195   4.653   5.190 -1.2688  0.0643 -0.8557
 6145SOL     OW19333   3.388   1.781   3.705  0.0440 -0.5717 -0.5316
 6145SOL    HW119334   3.455   1.763   3.778 -1.6036 -0.3506  1.1069
 6145SOL    HW219335   3.436   1.795   3.619  2.1825  0.5524  0.7533
 6146SOL     OW19336   0.276   2.004   4.985 -0.3739  0.1078 -0.0570
 6146SOL    HW119337   0.320   2.066   5.050  1.6070  0.7277 -1.8862
 6146SOL    HW219338   0.263   1.915   5.029 -0.5728  0.9402  1.6727
 6147SOL     OW19339   5.936   1.971   5.080  0.2724 -0.0400  0.3312
 6147SOL    HW119340   5.916   1.977   4.982 -0.2194 -0.2455  0.4121
 6147SOL    HW219341   6.027   2.008   5.099 -0.0837  1.0607 -0.0521
 6148SOL     OW19342   2.402   2.127   1.900  0.1108 -0.8318 -0.2472
 6148SOL    HW119343   2.401   2.151   1.997  0.4904 -2.7984  0.2859
 6148SOL    HW219344   2.493   2.145   1.863 -0.3305  0.9494 -0.5569
 6149SOL     OW19345   3.226   3.729   4.673 -0.4397  0.2414  0.2319
 6149SOL    HW119346   3.174   3.666   4.731  0.8637 -0.8766  0.2382
 6149SOL    HW219347   3.202   3.713   4.577 -0.0838 -0.3251  0.2291
 6150SOL     OW19348   1.759   3.044   5.126 -0.4265  0.4932  0.3970
 6150SOL    HW119349   1.803   2.956   5.107 -1.6305 -0.0442 -0.0211
 6150SOL    HW219350   1.759   3.061   5.224  1.8194  1.1265  0.3408
 6151SOL     OW19351   2.908   1.880   3.637  0.6781 -0.1263  0.2373
 6151SOL    HW119352   2.933   1.926   3.722 -2.2196  0.6668  0.7984
 6151SOL    HW219353   2.812   1.851   3.643  0.3011  0.1734 -2.8300
 6152SOL     OW19354   6.136   6.715   0.578  0.3691  0.0199  0.1064
 6152SOL    HW119355   6.091   6.789   0.629 -0.1352 -0.3629  0.2151
 6152SOL    HW219356   6.077   6.635   0.576 -0.0878  0.3602 -1.9856
 6153SOL     OW19357   6.745   3.435   3.441  0.6913 -0.0712 -0.2691
 6153SOL    HW119358   6.785   3.490   3.514  1.5184  0.6721 -1.2554
 6153SOL    HW219359   6.652   3.408   3.467  0.6876  0.8245  0.7202
 6154SOL     OW19360   5.928   5.469   4.201 -0.4235 -0.5006  0.1866
 6154SOL    HW119361   5.969   5.490   4.290  0.2487  0.8363 -0.4121
 6154SOL    HW219362   5.911   5.553   4.151  1.2040 -1.2700 -1.8305
 6155SOL     OW19363   2.387   2.335   3.884 -0.0988 -0.0530 -0.0009
 6155SOL    HW119364   2.296   2.362   3.916 -0.3656  0.8493 -1.4375
 6155SOL    HW219365   2.396   2.355   3.786  1.1990 -1.3378 -0.1856
 6156SOL     OW19366   2.945   3.177   3.500  0.1716  0.6827 -0.3314
 6156SOL    HW119367   3.025   3.228   3.530 -0.4996  1.3093  0.4294
 6156SOL    HW219368   2.870   3.189   3.565 -0.3077 -0.5271 -0.6167
 6157SOL     OW19369   5.444   6.357   4.558  0.2759  0.3823  0.2525
 6157SOL    HW119370   5.494   6.437   4.591  0.2861  1.4446 -2.1436
 6157SOL    HW219371   5.347   6.369   4.575  0.2512  1.0378 -0.3155
 6158SOL     OW19372   5.323   2.695   0.447  0.6949  0.0111 -0.1809
 6158SOL    HW119373   5.227   2.679   0.468  0.4304  1.6681  0.0015
 6158SOL    HW219374   5.357   2.771   0.502  1.6188  0.6011 -1.5076
 6159SOL     OW19375   1.340   1.375   6.759 -0.0840  0.7839 -0.3022
 6159SOL    HW119376   1.337   1.382   6.659  1.6086 -2.6485 -0.7467
 6159SOL    HW219377   1.289   1.295   6.788  0.6457  0.9248  1.4572
 6160SOL     OW19378   0.442   6.484   4.525  0.4084  0.4610  0.7803
 6160SOL    HW119379   0.504   6.445   4.457  0.6112 -0.7360  1.6125
 6160SOL    HW219380   0.366   6.529   4.479  0.2471 -0.8071 -0.2548
 6161SOL     OW19381   2.981   0.341   4.916  0.3499  0.0774 -0.0429
 6161SOL    HW119382   3.005   0.279   4.990 -1.1269  0.1218  0.4964
 6161SOL    HW219383   2.975   0.434   4.952  1.2668  0.3685 -0.5865
 6162SOL     OW19384   1.466   2.184   6.316  0.3307 -0.7780 -0.4381
 6162SOL    HW119385   1.484   2.116   6.245  3.1117 -0.6871  0.0623
 6162SOL    HW219386   1.538   2.178   6.386 -1.5182  0.0844  1.6667
 6163SOL     OW19387   1.263   2.761   2.982 -0.5139 -0.0408  0.4192
 6163SOL    HW119388   1.318   2.735   2.902  1.4849 -0.6713  1.9145
 6163SOL    HW219389   1.265   2.687   3.049 -1.3446  0.8476  1.4595
 6164SOL     OW19390   4.781   0.663   2.958 -0.4020  0.1673 -0.1991
 6164SOL    HW119391   4.738   0.597   3.020 -1.8574  0.3543 -0.9696
 6164SOL    HW219392   4.807   0.617   2.874 -0.1901  0.2968 -0.2028
 6165SOL     OW19393   1.446   2.343   4.829 -0.1258 -0.0656  0.1741
 6165SOL    HW119394   1.469   2.296   4.744  2.0412 -0.7316  1.0552
 6165SOL    HW219395   1.509   2.420   4.843 -1.4837  1.0503  0.4216
 6166SOL     OW19396   6.688   3.759   3.325 -0.0067  0.0949  0.7549
 6166SOL    HW119397   6.604   3.707   3.311  0.1521  0.0325  0.0068
 6166SOL    HW219398   6.742   3.759   3.241  1.0668 -0.4391  1.4197
 6167SOL     OW19399   0.473   2.125   3.016 -0.0685 -0.3480  0.3305
 6167SOL    HW119400   0.552   2.116   3.077 -0.1338 -0.9804  0.3381
 6167SOL    HW219401   0.398   2.069   3.052 -0.2556 -0.3691 -0.0904
 6168SOL     OW19402   0.641   1.701   6.214 -0.5333 -0.1235  0.1621
 6168SOL    HW119403   0.680   1.744   6.296 -0.9388  0.6309 -0.0335
 6168SOL    HW219404   0.556   1.654   6.238  0.0679 -1.1177  0.4379
 6169SOL     OW19405   3.113   4.642   0.750  0.3188 -0.3732 -0.4354
 6169SOL    HW119406   3.192   4.671   0.696  1.9319 -1.2175  1.3349
 6169SOL    HW219407   3.138   4.561   0.804 -2.1272 -1.3513 -0.6511
 6170SOL     OW19408   5.122   6.790   5.918 -0.1778 -0.4160  0.3010
 6170SOL    HW119409   5.152   6.875   5.961  1.7471 -0.9833  0.1852
 6170SOL    HW219410   5.092   6.725   5.988 -2.1945  0.4958  0.3558
 6171SOL     OW19411   3.028   6.275   4.322 -0.0648  0.2214 -0.2165
 6171SOL    HW119412   3.052   6.246   4.414 -0.4090  0.5652 -0.0160
 6171SOL    HW219413   3.032   6.197   4.259 -1.4514 -0.3718  0.3946
 6172SOL     OW19414   3.491   2.899   3.668  0.6269 -0.5872  0.3790
 6172SOL    HW119415   3.417   2.911   3.735 -0.9485 -2.3126 -0.9464
 6172SOL    HW219416   3.486   2.973   3.601  1.7479  0.7258  1.6634
 6173SOL     OW19417   2.223   0.828   3.560  0.0125  0.4404 -0.0535
 6173SOL    HW119418   2.158   0.869   3.624  0.6006  0.1157  0.7661
 6173SOL    HW219419   2.175   0.763   3.501 -0.5382  0.7411  0.0540
 6174SOL     OW19420   1.602   4.092   3.300 -0.4326 -0.0405  0.2584
 6174SOL    HW119421   1.594   3.992   3.302 -1.2281 -0.1642 -2.8046
 6174SOL    HW219422   1.692   4.117   3.266  1.5383  0.5605  5.1733
 6175SOL     OW19423   4.257   0.014   0.329  0.2901 -0.2620 -0.1070
 6175SOL    HW119424   4.217  -0.075   0.309 -1.3145  0.3719  0.1270
 6175SOL    HW219425   4.211   0.084   0.274  1.2909  0.4774 -0.0354
 6176SOL     OW19426   6.572   5.688   3.819 -0.3438 -0.1614 -0.4105
 6176SOL    HW119427   6.666   5.709   3.846 -0.5942 -0.4538  0.7548
 6176SOL    HW219428   6.532   5.626   3.886 -2.3150  2.2007  0.7154
 6177SOL     OW19429   6.458   5.180   3.783  0.0126  0.2568 -0.8567
 6177SOL    HW119430   6.505   5.263   3.751  0.6301  0.1245 -0.3283
 6177SOL    HW219431   6.521   5.127   3.841 -1.3282  0.9538  1.3688
 6178SOL     OW19432   0.031   3.079   4.211  0.2724 -0.4038 -0.1522
 6178SOL    HW119433   0.026   2.980   4.218  1.6816 -0.4090  1.7319
 6178SOL    HW219434   0.022   3.107   4.116 -0.4073 -2.2937 -0.6882
 6179SOL     OW19435   6.143   0.116   6.411  0.0244  0.2762 -0.3324
 6179SOL    HW119436   6.099   0.186   6.468  0.3797  0.7378 -0.6192
 6179SOL    HW219437   6.079   0.040   6.396  0.1565 -0.1861  1.2621
 6180SOL     OW19438   5.917   0.257   1.969  0.0192 -0.2111  0.2329
 6180SOL    HW119439   5.888   0.190   2.037 -0.2212  0.1386  0.4805
 6180SOL    HW219440   5.943   0.342   2.015  0.2648 -0.1122 -0.0822
 6181SOL     OW19441   0.677   2.422   5.623  0.7966  0.3891 -0.2667
 6181SOL    HW119442   0.647   2.499   5.680  0.2574 -1.2146  1.7342
 6181SOL    HW219443   0.634   2.338   5.656  2.4277 -1.0019 -1.5220
 6182SOL     OW19444   6.384   2.097   0.445  0.7852 -0.2070  0.3721
 6182SOL    HW119445   6.316   2.170   0.445 -0.1791 -1.0816  0.1295
 6182SOL    HW219446   6.410   2.075   0.539  0.3646 -0.1968  0.4907
 6183SOL     OW19447   2.318   0.666   6.009 -0.1160  0.2547  0.5654
 6183SOL    HW119448   2.316   0.674   6.108 -0.8569  0.2223  0.5620
 6183SOL    HW219449   2.307   0.570   5.983  4.0131 -0.3623  0.5053
 6184SOL     OW19450   2.218   2.100   5.795  0.8585  0.3955  0.3656
 6184SOL    HW119451   2.141   2.058   5.748 -0.2036  2.0491  0.5562
 6184SOL    HW219452   2.250   2.039   5.867 -0.4447 -0.2076  0.4623
 6185SOL     OW19453   0.611   2.411   2.302 -0.2578  0.8080 -0.0552
 6185SOL    HW119454   0.691   2.446   2.253 -0.6769  0.7284 -0.8229
 6185SOL    HW219455   0.638   2.378   2.392  0.8572 -0.7322 -0.9121
 6186SOL     OW19456   6.944   4.783   0.392 -0.3540  0.8026 -0.1386
 6186SOL    HW119457   7.043   4.771   0.403  0.0957  1.9735 -2.3637
 6186SOL    HW219458   6.925   4.828   0.305 -2.6881  3.4424  1.5653
 6187SOL     OW19459   3.809   2.955   3.214  0.8108 -0.1906  0.3880
 6187SOL    HW119460   3.795   3.035   3.272 -1.1914 -0.4948  0.3868
 6187SOL    HW219461   3.721   2.921   3.182  1.7302 -1.3986 -0.9942
 6188SOL     OW19462   5.302   2.488   1.697 -0.4369  0.0680 -0.0604
 6188SOL    HW119463   5.367   2.412   1.709 -0.4684  0.0446 -0.0390
 6188SOL    HW219464   5.215   2.452   1.665 -1.4011 -0.2755  2.7311
 6189SOL     OW19465   5.214   3.334   5.690 -0.0720  0.0574  0.0418
 6189SOL    HW119466   5.117   3.344   5.709 -0.2475 -1.9302  0.4130
 6189SOL    HW219467   5.230   3.343   5.591 -0.4796  1.2484  0.0694
 6190SOL     OW19468   3.936   4.342   0.616  0.1930 -0.0254  0.2169
 6190SOL    HW119469   3.918   4.307   0.708  0.4216  0.0116  0.2767
 6190SOL    HW219470   3.864   4.312   0.554  1.6277 -2.7412 -0.2933
 6191SOL     OW19471   5.058   5.784   2.058  0.2286  0.2038 -0.3825
 6191SOL    HW119472   5.127   5.712   2.073  0.7101  0.8900  0.8069
 6191SOL    HW219473   5.084   5.839   1.979  2.2820  1.8285  1.3221
 6192SOL     OW19474   5.243   4.412   3.625 -0.2401 -0.1505 -0.3337
 6192SOL    HW119475   5.309   4.469   3.675 -0.1956 -1.1690  0.8184
 6192SOL    HW219476   5.178   4.372   3.690 -1.2605 -0.1413 -1.3114
 6193SOL     OW19477   3.427   4.141   4.652  0.3529 -0.5833 -0.0840
 6193SOL    HW119478   3.396   4.122   4.559 -0.2658  1.9007 -0.4780
 6193SOL    HW219479   3.350   4.131   4.715  0.2060 -0.0963 -0.1839
 6194SOL     OW19480   4.271   5.264   6.055  0.3138 -0.2321 -0.4748
 6194SOL    HW119481   4.284   5.299   5.963  0.7579  1.3902  0.1781
 6194SOL    HW219482   4.328   5.182   6.068  1.2658  0.2930 -1.2176
 6195SOL     OW19483   2.049   3.730   1.980 -0.0120 -0.1307  0.4142
 6195SOL    HW119484   2.140   3.692   1.965 -0.4983 -0.6167 -1.5952
 6195SOL    HW219485   1.984   3.688   1.917 -1.6648  0.1720  1.8311
 6196SOL     OW19486   4.088   3.666   4.666 -0.7554  0.6465 -0.4297
 6196SOL    HW119487   3.993   3.689   4.647 -1.6739 -1.8355  0.6552
 6196SOL    HW219488   4.109   3.688   4.762 -0.7762 -0.2645 -0.2025
 6197SOL     OW19489   6.424   6.908   4.970 -0.0526  0.0383  0.2949
 6197SOL    HW119490   6.450   6.918   5.067  0.1351  0.9599  0.1674
 6197SOL    HW219491   6.469   6.828   4.932  0.6025  0.1779  0.7452
 6198SOL     OW19492   0.978   1.715   5.790 -0.4970 -0.9179  0.0912
 6198SOL    HW119493   1.063   1.664   5.802 -0.1166 -0.1676  0.7518
 6198SOL    HW219494   0.932   1.686   5.706  0.8255 -0.7675 -0.7154
 6199SOL     OW19495   4.090   2.728   6.297 -0.1486 -0.2793  0.0564
 6199SOL    HW119496   4.130   2.662   6.361  0.1261  0.5429  0.7537
 6199SOL    HW219497   4.139   2.814   6.303  0.0794 -0.2674 -1.5071
 6200SOL     OW19498   1.621   2.665   2.948  0.0661 -0.5175 -0.3910
 6200SOL    HW119499   1.584   2.745   2.994  1.4467  0.1471 -0.3935
 6200SOL    HW219500   1.718   2.653   2.973 -0.6291 -3.5002  1.4402
 6201SOL     OW19501   4.952   6.411   3.897  0.0184  0.0496  0.5980
 6201SOL    HW119502   4.862   6.418   3.940 -0.8638 -1.5062 -0.8585
 6201SOL    HW219503   4.940   6.405   3.798  1.7353 -0.3919  0.3975
 6202SOL     OW19504   4.970   0.652   2.389  0.0469  0.1465 -0.3058
 6202SOL    HW119505   4.887   0.655   2.334  0.2809  0.4634 -0.6479
 6202SOL    HW219506   5.045   0.695   2.339 -0.0918  1.8765  0.8977
 6203SOL     OW19507   5.239   5.538   6.354 -0.3493 -0.1990 -0.0918
 6203SOL    HW119508   5.331   5.500   6.365  0.2678  0.8107 -1.3855
 6203SOL    HW219509   5.192   5.538   6.442  0.2857 -2.1702  0.3060
 6204SOL     OW19510   0.525   2.004   2.126 -0.0309  0.2914  0.3885
 6204SOL    HW119511   0.480   1.953   2.199  0.6484 -0.2326  0.4435
 6204SOL    HW219512   0.606   1.955   2.095 -0.0264  0.7605 -0.3704
 6205SOL     OW19513   5.939   2.127   1.513  0.0597  0.1156  0.0165
 6205SOL    HW119514   5.915   2.212   1.465 -0.1331 -0.5126 -1.0204
 6205SOL    HW219515   5.949   2.146   1.610 -1.9722  0.9565  0.1130
 6206SOL     OW19516   5.004   1.727   4.000  0.1167  0.2416 -0.2727
 6206SOL    HW119517   5.051   1.720   3.912  0.5200 -0.5886 -0.0005
 6206SOL    HW219518   4.909   1.698   3.989  0.3514 -0.5551 -0.3013
 6207SOL     OW19519   2.563   4.109   5.316 -0.5062 -0.0024  0.1198
 6207SOL    HW119520   2.490   4.077   5.256  0.5720 -0.2627 -1.0966
 6207SOL    HW219521   2.580   4.207   5.299  1.2001 -0.5209 -1.6039
 6208SOL     OW19522   1.159   2.101   0.648  0.4845 -0.3866  0.6687
 6208SOL    HW119523   1.105   2.146   0.577  1.5398  0.7855  0.5866
 6208SOL    HW219524   1.174   2.005   0.623  0.7891 -0.0083 -0.6660
 6209SOL     OW19525   1.229   6.058   0.795 -0.2024  0.3558 -0.0440
 6209SOL    HW119526   1.153   6.008   0.754 -0.7125  0.7225  0.4238
 6209SOL    HW219527   1.211   6.070   0.893  0.7187 -0.0193  0.1814
 6210SOL     OW19528   5.620   1.641   5.615 -0.1624 -0.3589  0.0629
 6210SOL    HW119529   5.677   1.620   5.695  0.0138  0.5877  0.2034
 6210SOL    HW219530   5.657   1.594   5.535  0.4058 -0.3157  0.2893
 6211SOL     OW19531   2.868   5.389   6.614 -0.3795  0.0404  0.3615
 6211SOL    HW119532   2.861   5.367   6.517 -3.7320 -0.0228  0.4839
 6211SOL    HW219533   2.913   5.314   6.663 -1.4739 -1.3833 -0.7506
 6212SOL     OW19534   0.076   1.973   0.943  0.2648 -0.3223  0.0832
 6212SOL    HW119535   0.129   2.016   1.017  0.1752 -0.8948  0.4892
 6212SOL    HW219536   0.082   1.873   0.952  1.8311 -0.4675 -1.7886
 6213SOL     OW19537   2.668   6.152   0.481 -0.3561 -0.4255  0.0127
 6213SOL    HW119538   2.584   6.107   0.511  0.0633 -1.1738  0.0725
 6213SOL    HW219539   2.746   6.093   0.499  0.1846  0.2498 -0.0808
 6214SOL     OW19540   0.163   6.421   1.256  0.2331  0.2480  0.0519
 6214SOL    HW119541   0.103   6.346   1.228  0.1513  0.4881 -0.4308
 6214SOL    HW219542   0.163   6.492   1.185 -0.3670  1.1149  0.8998
 6215SOL     OW19543   2.813   5.707   0.537 -0.4391 -0.7554  0.4780
 6215SOL    HW119544   2.740   5.699   0.469 -0.7536  2.8519  0.1957
 6215SOL    HW219545   2.892   5.655   0.507 -1.8917 -2.4185 -0.6550
 6216SOL     OW19546   1.707   1.940   1.459 -0.1848 -0.5067  0.3524
 6216SOL    HW119547   1.765   1.878   1.405  1.3764 -1.5338  3.0091
 6216SOL    HW219548   1.623   1.892   1.485 -0.8233 -0.0946 -0.8679
 6217SOL     OW19549   6.656   1.985   4.659 -1.0407 -0.0597  0.1141
 6217SOL    HW119550   6.631   1.889   4.671  1.3975 -0.6119  1.3392
 6217SOL    HW219551   6.613   2.040   4.731 -0.4162 -0.6484  0.9458
 6218SOL     OW19552   6.925   6.946   0.270 -0.3178 -0.4196 -0.1426
 6218SOL    HW119553   7.006   6.966   0.325 -0.4715 -0.3218  0.0486
 6218SOL    HW219554   6.842   6.972   0.320 -0.5402 -1.7120  0.2101
 6219SOL     OW19555   1.402   1.376   6.469 -0.0656  0.3505 -0.4481
 6219SOL    HW119556   1.470   1.434   6.424  3.6256 -2.3846  1.2028
 6219SOL    HW219557   1.407   1.283   6.432 -0.2870 -0.7938  2.2033
 6220SOL     OW19558   3.523   1.504   5.966 -0.4204 -0.0776  0.3347
 6220SOL    HW119559   3.530   1.603   5.978  0.2208 -0.0450 -0.2154
 6220SOL    HW219560   3.443   1.482   5.910  0.1007  0.2277 -0.5511
 6221SOL     OW19561   6.249   4.042   3.504  0.6716 -0.0955  0.7367
 6221SOL    HW119562   6.300   3.956   3.506 -0.0077 -0.5667 -0.6426
 6221SOL    HW219563   6.212   4.062   3.594  1.0756 -1.0977  1.1331
 6222SOL     OW19564   6.350   5.368   5.533 -0.3530 -0.4066  0.1971
 6222SOL    HW119565   6.344   5.296   5.464  0.1159 -0.2988  0.0321
 6222SOL    HW219566   6.277   5.435   5.518  0.5003  0.3075 -1.0293
 6223SOL     OW19567   2.676   0.863   6.260  0.3452 -0.1979  0.0562
 6223SOL    HW119568   2.741   0.798   6.222  0.5332  0.1868 -0.2817
 6223SOL    HW219569   2.681   0.861   6.360 -0.4196 -1.4891  0.0929
 6224SOL     OW19570   1.044   3.829   2.758  0.0998 -0.0837  0.3790
 6224SOL    HW119571   1.014   3.794   2.669 -0.5402 -0.9545  0.9183
 6224SOL    HW219572   1.067   3.753   2.818 -1.4597  0.3553  1.6315
 6225SOL     OW19573   3.907   6.258   0.628 -0.0928 -0.1530 -0.3855
 6225SOL    HW119574   3.978   6.287   0.564 -0.6331  0.2986 -0.7881
 6225SOL    HW219575   3.824   6.311   0.612  0.4704  1.7363  2.2915
 6226SOL     OW19576   2.707   4.277   0.492  0.5430 -0.0787  0.2900
 6226SOL    HW119577   2.792   4.327   0.476  0.5929 -0.0868  0.5247
 6226SOL    HW219578   2.640   4.337   0.536  0.9955 -0.5188  1.6523
 6227SOL     OW19579   0.756   4.695   3.112  0.6136 -0.2324 -0.4122
 6227SOL    HW119580   0.754   4.769   3.046  1.1223  0.9633  0.8653
 6227SOL    HW219581   0.664   4.674   3.143  0.5584  0.6175  0.0170
 6228SOL     OW19582   6.973   2.236   5.453  0.1849 -0.4303  1.5058
 6228SOL    HW119583   6.974   2.232   5.353  2.5284  2.0503  1.3244
 6228SOL    HW219584   7.046   2.178   5.489  0.4502 -0.0002  1.6641
 6229SOL     OW19585   5.697   0.393   6.134 -0.2344  0.7461 -0.2808
 6229SOL    HW119586   5.779   0.451   6.128 -1.0263  1.8328 -0.9905
 6229SOL    HW219587   5.616   0.451   6.141 -0.8956 -0.3193  1.6124
 6230SOL     OW19588   6.669   1.721   4.719 -0.0183  0.3276  0.3595
 6230SOL    HW119589   6.697   1.651   4.654 -1.9145  1.1550 -1.4565
 6230SOL    HW219590   6.713   1.705   4.807  2.1286 -1.2082 -0.9195
 6231SOL     OW19591   1.735   0.834   4.607  0.0016  0.5615 -0.2575
 6231SOL    HW119592   1.796   0.913   4.620 -0.7931  1.1796 -0.2114
 6231SOL    HW219593   1.660   0.839   4.672  0.3702 -0.6805  0.2814
 6232SOL     OW19594   3.543   1.318   2.592 -0.0033 -0.1595  0.2947
 6232SOL    HW119595   3.454   1.321   2.546  0.0635 -0.6399  0.1237
 6232SOL    HW219596   3.612   1.285   2.528  0.2249 -0.1497  0.5355
 6233SOL     OW19597   3.865   6.804   6.160 -0.1533 -0.0193 -0.1154
 6233SOL    HW119598   3.864   6.823   6.062 -2.1375  0.5642 -0.0081
 6233SOL    HW219599   3.772   6.799   6.194  0.5003  1.1218  2.0108
 6234SOL     OW19600   6.442   1.418   5.066  0.3539 -0.2926 -0.4044
 6234SOL    HW119601   6.412   1.460   5.152 -0.3352  0.0994 -0.8233
 6234SOL    HW219602   6.398   1.465   4.989  1.9852  0.2429 -1.0537
 6235SOL     OW19603   4.601   6.487   2.417 -0.1848 -0.2441  0.2791
 6235SOL    HW119604   4.593   6.473   2.318  0.2847 -0.8698  0.3242
 6235SOL    HW219605   4.550   6.569   2.443  1.5393  1.2474 -0.7976
 6236SOL     OW19606   2.367   1.805   2.946 -0.0073  0.1288  0.2858
 6236SOL    HW119607   2.301   1.783   3.019  0.9516 -0.6129  0.9476
 6236SOL    HW219608   2.387   1.903   2.949 -0.8505  0.3154  0.2654
 6237SOL     OW19609   3.637   3.783   5.804 -0.6291 -0.5197 -0.7601
 6237SOL    HW119610   3.716   3.832   5.765  1.7749 -1.3468  2.6255
 6237SOL    HW219611   3.580   3.847   5.854  1.7156 -0.6880  2.4262
 6238SOL     OW19612   6.233   4.809   1.411 -0.3670 -0.1094 -0.4653
 6238SOL    HW119613   6.215   4.806   1.509  0.1486 -0.2778 -0.3712
 6238SOL    HW219614   6.204   4.898   1.374 -0.4734 -0.0096 -0.1426
 6239SOL     OW19615   0.117   1.519   2.818 -0.7466  0.1296  0.1519
 6239SOL    HW119616   0.176   1.564   2.752  0.1279 -0.7328  0.3253
 6239SOL    HW219617   0.148   1.425   2.832 -1.8286 -0.1679  0.6626
 6240SOL     OW19618   4.250   4.336   1.660 -0.2007  0.4966 -0.6437
 6240SOL    HW119619   4.154   4.317   1.677 -0.5679  2.3744 -0.3664
 6240SOL    HW219620   4.306   4.259   1.689 -1.5556 -0.2758 -0.0286
 6241SOL     OW19621   1.646   2.858   5.894  0.0375  0.2620  0.1814
 6241SOL    HW119622   1.690   2.868   5.983 -2.2425  0.0465  1.3911
 6241SOL    HW219623   1.675   2.772   5.852  2.9792  1.4449 -0.4549
 6242SOL     OW19624   2.634   2.437   1.417 -0.2603  0.1077 -0.7471
 6242SOL    HW119625   2.653   2.445   1.515 -1.6008 -0.5006 -0.4245
 6242SOL    HW219626   2.562   2.369   1.402 -1.3314  1.4710 -2.0098
 6243SOL     OW19627   6.722   1.738   6.660  0.6346 -0.0000  0.4859
 6243SOL    HW119628   6.625   1.765   6.669  0.8650  0.8511  0.5423
 6243SOL    HW219629   6.734   1.686   6.575  0.7915  3.3604 -1.7578
 6244SOL     OW19630   3.104   5.571   2.484  0.3342  0.3970 -0.1148
 6244SOL    HW119631   3.045   5.553   2.562 -0.1629 -1.9813 -0.9515
 6244SOL    HW219632   3.062   5.535   2.401  2.2085  0.1237 -1.0073
 6245SOL     OW19633   4.310   1.399   3.233  0.3508 -0.3679  0.2294
 6245SOL    HW119634   4.346   1.482   3.276 -1.1603  1.3569 -1.6677
 6245SOL    HW219635   4.383   1.354   3.182  0.4297  1.9084 -1.8326
 6246SOL     OW19636   6.696   0.002   1.135 -0.5293 -0.3341 -0.5059
 6246SOL    HW119637   6.724   0.023   1.229  0.4003 -0.7097 -0.6818
 6246SOL    HW219638   6.607  -0.044   1.137 -1.3918  1.2845  0.0418
 6247SOL     OW19639   1.597   3.504   5.531  0.2237  0.0851  0.5083
 6247SOL    HW119640   1.563   3.484   5.440  4.6165 -0.2215 -1.2761
 6247SOL    HW219641   1.615   3.419   5.581  0.1645  0.1779  0.6908
 6248SOL     OW19642   4.137   1.781   1.506  0.2217 -0.0909 -0.1971
 6248SOL    HW119643   4.057   1.726   1.482  0.4325 -1.2684  1.6302
 6248SOL    HW219644   4.218   1.723   1.505  0.7105  0.5804  0.1567
 6249SOL     OW19645   2.448   5.623   1.955 -0.1855 -0.2345 -0.1794
 6249SOL    HW119646   2.456   5.720   1.931  1.6323 -0.2570  0.2146
 6249SOL    HW219647   2.352   5.597   1.953 -0.6281  1.3181 -1.2680
 6250SOL     OW19648   5.380   0.945   0.727  0.9456 -0.6606  0.1437
 6250SOL    HW119649   5.356   0.964   0.632 -0.2498  0.7607  0.7059
 6250SOL    HW219650   5.333   1.009   0.787  2.9532 -0.4701  1.6060
 6251SOL     OW19651   3.146   5.126   0.475  0.1421 -0.1640 -0.2571
 6251SOL    HW119652   3.090   5.076   0.541 -0.7853 -0.7993 -1.4867
 6251SOL    HW219653   3.205   5.191   0.524  0.9006 -1.9687  1.3330
 6252SOL     OW19654   4.499   6.598   0.912  0.0830  0.0173 -0.2752
 6252SOL    HW119655   4.471   6.654   0.990 -0.3178 -0.1441 -0.2983
 6252SOL    HW219656   4.580   6.545   0.936  1.2197  1.5227 -0.6621
 6253SOL     OW19657   4.033   0.989   6.597  0.1261 -0.4118 -0.0193
 6253SOL    HW119658   4.060   1.064   6.537  0.3729 -1.3243 -1.0837
 6253SOL    HW219659   3.935   0.994   6.616  0.3142  0.7527  0.7767
 6254SOL     OW19660   5.571   5.707   3.641 -0.2841 -0.2732  0.2016
 6254SOL    HW119661   5.565   5.794   3.689  0.2498  1.4604 -2.6493
 6254SOL    HW219662   5.486   5.691   3.590  0.8269  0.3548 -1.9751
 6255SOL     OW19663   5.175   2.306   2.640  0.3135 -0.2829 -0.2572
 6255SOL    HW119664   5.102   2.286   2.574  1.4323 -1.0226 -1.3362
 6255SOL    HW219665   5.213   2.397   2.621  0.1859 -0.2151 -0.1900
 6256SOL     OW19666   5.393   6.879   6.933 -0.6121  0.1237 -0.0581
 6256SOL    HW119667   5.301   6.919   6.931 -0.8075 -0.3354 -0.1811
 6256SOL    HW219668   5.392   6.789   6.891 -0.3378 -0.3883  1.0063
 6257SOL     OW19669   3.469   3.099   3.485  0.1991  0.0643  0.1513
 6257SOL    HW119670   3.423   3.083   3.398 -2.6617 -0.5837  1.6623
 6257SOL    HW219671   3.487   3.197   3.495 -0.0091  0.2209 -0.8651
 6258SOL     OW19672   0.662   1.082   3.359 -0.0701  0.1146  0.2210
 6258SOL    HW119673   0.630   1.133   3.439  1.1120  1.1226  0.0679
 6258SOL    HW219674   0.762   1.077   3.360 -0.0829 -0.6448 -0.7344
 6259SOL     OW19675   4.548   6.318   0.472 -0.0265  0.4635  0.0192
 6259SOL    HW119676   4.635   6.350   0.509  0.8858 -1.5539 -0.2791
 6259SOL    HW219677   4.548   6.330   0.373 -0.6167  1.5916  0.1358
 6260SOL     OW19678   4.216   3.169   0.042 -0.0714 -0.3778  0.3026
 6260SOL    HW119679   4.171   3.084   0.068  3.3551 -2.6013 -0.3073
 6260SOL    HW219680   4.148   3.241   0.031 -3.2904 -3.2002  0.0224
 6261SOL     OW19681   1.433   5.250   6.666  0.6904  0.7797 -0.1521
 6261SOL    HW119682   1.412   5.194   6.746  0.1566  1.8142  0.4522
 6261SOL    HW219683   1.388   5.212   6.585  1.3346 -0.3402  0.0020
 6262SOL     OW19684   3.843   4.557   1.386 -0.2963  0.5561  0.4389
 6262SOL    HW119685   3.828   4.636   1.445 -1.7506  0.6654 -0.0304
 6262SOL    HW219686   3.756   4.510   1.371 -0.0065  0.6274 -1.7415
 6263SOL     OW19687   3.477   0.845   3.409 -0.0077  0.1352 -0.0771
 6263SOL    HW119688   3.498   0.930   3.457  0.7526  0.3317 -0.7378
 6263SOL    HW219689   3.560   0.808   3.369 -0.3315 -0.9242  0.1944
 6264SOL     OW19690   5.830   3.439   5.762 -0.3662 -0.0501  0.9645
 6264SOL    HW119691   5.764   3.493   5.710  0.1435 -1.1247 -0.8881
 6264SOL    HW219692   5.786   3.356   5.795 -0.7552  0.7446  2.5407
 6265SOL     OW19693   6.701   4.597   0.270  0.0551  0.5208  0.0077
 6265SOL    HW119694   6.779   4.656   0.292  0.9675 -0.4882 -0.4385
 6265SOL    HW219695   6.665   4.621   0.180  1.5974 -0.7603 -1.0004
 6266SOL     OW19696   1.305   1.808   0.750  0.6196 -0.0579  0.3881
 6266SOL    HW119697   1.355   1.723   0.763  1.3844  0.1706 -0.9438
 6266SOL    HW219698   1.368   1.885   0.756  0.0321  0.3986  0.9753
 6267SOL     OW19699   6.061   1.655   6.741 -0.0525  0.6767  0.1600
 6267SOL    HW119700   6.001   1.720   6.695 -0.1611  0.0403 -0.6162
 6267SOL    HW219701   6.030   1.561   6.722  0.7400  0.3622  0.3730
 6268SOL     OW19702   0.824   6.246   4.696 -0.1370  0.0295  0.0231
 6268SOL    HW119703   0.850   6.341   4.713  0.5410 -0.5660  2.7391
 6268SOL    HW219704   0.890   6.204   4.633 -0.8052  1.4469 -1.7376
 6269SOL     OW19705   5.439   0.423   2.178  0.1221  0.5561 -0.1884
 6269SOL    HW119706   5.436   0.523   2.185  0.0005  0.5242  0.3179
 6269SOL    HW219707   5.504   0.388   2.245  0.0033  0.2846 -0.2148
 6270SOL     OW19708   0.085   4.421   3.419 -0.1960 -0.2337  0.4900
 6270SOL    HW119709  -0.006   4.439   3.382 -1.0555 -0.6362  2.2718
 6270SOL    HW219710   0.082   4.429   3.519  1.7738 -0.1159  0.5806
 6271SOL     OW19711   2.912   4.456   0.400  0.0067  0.2877  0.1330
 6271SOL    HW119712   2.900   4.484   0.305  0.3509  0.9300  0.2743
 6271SOL    HW219713   3.009   4.458   0.424  0.1201 -1.5120  0.0085
 6272SOL     OW19714   3.816   5.947   6.597  0.4109 -0.1062  0.3542
 6272SOL    HW119715   3.765   6.014   6.544  0.5886 -1.2012 -1.2844
 6272SOL    HW219716   3.914   5.956   6.577  0.3171 -1.8445 -1.1863
 6273SOL     OW19717   1.471   3.151   1.888  0.0855 -0.0284  0.9390
 6273SOL    HW119718   1.568   3.141   1.867  0.2234  0.6447  1.2440
 6273SOL    HW219719   1.430   3.060   1.901  0.1429 -0.4539 -1.4523
 6274SOL     OW19720   0.276   1.129   4.676 -0.1990 -0.5135 -0.0747
 6274SOL    HW119721   0.242   1.118   4.769 -2.7568 -1.7101 -1.0588
 6274SOL    HW219722   0.216   1.080   4.612  1.4709  0.2480 -2.3682
 6275SOL     OW19723   0.629   3.804   2.973 -0.0170  0.1889  0.3643
 6275SOL    HW119724   0.685   3.749   2.910  0.4166  0.1347  0.7931
 6275SOL    HW219725   0.678   3.816   3.059 -1.1319 -0.7769  1.1613
 6276SOL     OW19726   2.919   0.462   1.721  0.0860  0.0021 -0.1666
 6276SOL    HW119727   2.849   0.498   1.782  1.0594  0.2897  0.8252
 6276SOL    HW219728   3.009   0.494   1.751  0.7503 -1.2635 -0.7264
 6277SOL     OW19729   4.894   6.384   4.299  0.2318 -0.3537 -0.0703
 6277SOL    HW119730   4.891   6.440   4.382  0.3751  1.7726 -1.4181
 6277SOL    HW219731   4.817   6.320   4.299 -0.6848  0.7092  0.9481
 6278SOL     OW19732   0.748   2.199   0.265  0.0460  0.1639 -0.3028
 6278SOL    HW119733   0.794   2.116   0.296 -0.2796 -0.2718 -0.9826
 6278SOL    HW219734   0.712   2.248   0.344  1.1682  0.2165  0.1999
 6279SOL     OW19735   3.427   2.089   3.938  0.8650 -0.0949 -0.0253
 6279SOL    HW119736   3.360   2.074   3.865  0.2063  1.7425  0.1711
 6279SOL    HW219737   3.396   2.042   4.021  0.6037 -0.5245 -0.3570
 6280SOL     OW19738   6.208   6.886   6.997 -0.4024 -0.5562  0.5209
 6280SOL    HW119739   6.281   6.882   6.928 -1.5240  1.4397 -0.8620
 6280SOL    HW219740   6.131   6.939   6.962 -1.2228  0.1658  3.1588
 6281SOL     OW19741   3.197   6.148   6.064 -0.6880  0.5016 -0.1986
 6281SOL    HW119742   3.147   6.192   5.990 -0.8469  0.1630 -0.2984
 6281SOL    HW219743   3.166   6.053   6.073  0.3382  0.0985 -0.6556
 6282SOL     OW19744   0.881   6.632   4.981 -0.2584 -0.3397 -0.1774
 6282SOL    HW119745   0.896   6.557   5.046  0.0367  0.5752  0.8488
 6282SOL    HW219746   0.816   6.697   5.019 -1.6941 -0.8053 -1.7072
 6283SOL     OW19747   4.460   0.090   0.805  0.6517  0.1430 -0.3409
 6283SOL    HW119748   4.533   0.152   0.835 -0.2445  0.8745  0.3990
 6283SOL    HW219749   4.436   0.111   0.711  0.5606  0.7233 -0.1909
 6284SOL     OW19750   5.924   5.198   0.150  0.5703 -0.1118 -0.5338
 6284SOL    HW119751   5.935   5.155   0.060 -0.9760 -0.7732 -0.4375
 6284SOL    HW219752   5.923   5.127   0.220 -1.9886  0.0110 -0.3688
 6285SOL     OW19753   3.398   5.028   0.380  0.2534 -0.2596 -0.1303
 6285SOL    HW119754   3.466   5.093   0.415  1.7386  0.1304 -3.4295
 6285SOL    HW219755   3.308   5.073   0.378  0.3469  0.1091  1.7711
 6286SOL     OW19756   6.775   0.336   3.307 -0.1748  0.2342 -0.3723
 6286SOL    HW119757   6.703   0.366   3.369 -0.7250 -3.2001  0.8931
 6286SOL    HW219758   6.753   0.245   3.272  1.4657  0.8963 -3.5588
 6287SOL     OW19759   6.107   4.571   4.110 -0.1819 -0.0704 -0.2945
 6287SOL    HW119760   6.203   4.555   4.086 -0.4823 -0.6800 -1.1204
 6287SOL    HW219761   6.063   4.622   4.037 -0.3004  0.9212  0.4452
 6288SOL     OW19762   5.044   3.214   5.350 -0.1028  0.1767 -0.1218
 6288SOL    HW119763   5.138   3.249   5.346  0.2482 -0.6504  0.5893
 6288SOL    HW219764   4.980   3.290   5.339  0.6431  0.9086  0.4304
 6289SOL     OW19765   1.533   5.958   3.987  0.0950  0.2087 -0.0009
 6289SOL    HW119766   1.518   6.029   4.054 -0.3196  1.5025 -1.4086
 6289SOL    HW219767   1.624   5.917   4.002  0.9817  2.0510 -0.0370
 6290SOL     OW19768   2.835   1.827   3.383  0.4176  0.1841 -0.5326
 6290SOL    HW119769   2.772   1.900   3.358 -0.1560 -0.5172 -1.1966
 6290SOL    HW219770   2.890   1.855   3.461 -0.7465  0.7953  0.0914
 6291SOL     OW19771   4.569   1.599   5.771  0.1207 -0.1297 -0.0428
 6291SOL    HW119772   4.504   1.582   5.845  0.9269  1.1141  0.9881
 6291SOL    HW219773   4.529   1.567   5.685 -2.1639  1.1633  0.4357
 6292SOL     OW19774   1.096   0.632   0.235 -0.1056  0.0885  0.0340
 6292SOL    HW119775   1.040   0.689   0.174 -1.6961 -1.3345  0.0892
 6292SOL    HW219776   1.136   0.557   0.183 -0.5067 -0.4588  0.4950
 6293SOL     OW19777   0.717   4.338   0.486  0.3473  0.4969  0.1414
 6293SOL    HW119778   0.735   4.396   0.407 -0.6869 -0.2422 -0.6657
 6293SOL    HW219779   0.635   4.284   0.469  0.4162 -0.0663  1.5124
 6294SOL     OW19780   6.320   5.852   3.238  0.0908 -0.7121 -0.0096
 6294SOL    HW119781   6.311   5.767   3.187  0.2544 -1.0346  0.4950
 6294SOL    HW219782   6.239   5.866   3.295 -1.2636  0.8813 -2.1562
 6295SOL     OW19783   5.210   5.653   4.913 -0.1203  0.4931  0.7481
 6295SOL    HW119784   5.295   5.706   4.918 -0.1311  0.6979 -0.7525
 6295SOL    HW219785   5.232   5.556   4.902  0.0299  0.7772 -2.2586
 6296SOL     OW19786   5.303   0.702   5.474  0.3175  0.6727  0.0314
 6296SOL    HW119787   5.208   0.735   5.476  0.2809  0.7504  3.4401
 6296SOL    HW219788   5.359   0.764   5.420 -1.5583  0.4784 -2.2885
 6297SOL     OW19789   0.957   2.312   2.047  0.0005  0.5319  0.7150
 6297SOL    HW119790   1.015   2.391   2.031 -0.9035  0.9524 -0.5552
 6297SOL    HW219791   0.894   2.331   2.123  1.5649  0.0079  2.2278
 6298SOL     OW19792   4.826   0.988   5.251 -0.0438 -0.6001 -0.5511
 6298SOL    HW119793   4.817   1.086   5.272 -0.4002 -0.8073  0.2809
 6298SOL    HW219794   4.778   0.968   5.166 -0.5620 -0.1774 -0.3600
 6299SOL     OW19795   0.458   2.610   0.249  0.3480  0.4772 -0.2026
 6299SOL    HW119796   0.445   2.675   0.174  0.8783  0.3274 -0.4287
 6299SOL    HW219797   0.380   2.548   0.254  0.8378 -0.2731 -1.4037
 6300SOL     OW19798   4.484   5.474   1.914  0.3303  0.1016 -0.6318
 6300SOL    HW119799   4.478   5.572   1.935 -0.4260 -0.0954  0.1339
 6300SOL    HW219800   4.407   5.448   1.857  1.5367  0.3099 -2.4370
 6301SOL     OW19801   5.219   0.429   1.739  0.0097 -0.0673 -0.0906
 6301SOL    HW119802   5.304   0.475   1.714  1.4276 -2.0347  0.7897
 6301SOL    HW219803   5.144   0.464   1.683  1.4670  1.4297 -1.1990
 6302SOL     OW19804   4.729   2.241   1.974 -0.5476  0.5518  0.1439
 6302SOL    HW119805   4.643   2.216   2.017  0.6861 -1.8431  1.4500
 6302SOL    HW219806   4.729   2.211   1.879  0.3826 -3.8281  1.3054
 6303SOL     OW19807   1.123   3.218   6.056 -0.2429  0.1800  0.2697
 6303SOL    HW119808   1.165   3.163   6.128  0.6197  0.8349  0.2909
 6303SOL    HW219809   1.086   3.159   5.985  0.2102 -0.4282  0.5364
 6304SOL     OW19810   5.303   0.308   4.020  0.8886  0.4101 -0.3060
 6304SOL    HW119811   5.396   0.334   3.992  1.0941 -0.3770 -0.3864
 6304SOL    HW219812   5.268   0.238   3.958  1.1111 -0.9169  0.9943
 6305SOL     OW19813   4.658   6.199   4.304 -0.2912  0.6855 -0.1456
 6305SOL    HW119814   4.617   6.108   4.310 -0.9129  0.7298 -2.5141
 6305SOL    HW219815   4.594   6.261   4.258  1.0204  1.7129 -0.6568
 6306SOL     OW19816   1.323   4.868   2.266  0.1503 -0.2286  0.1121
 6306SOL    HW119817   1.283   4.812   2.339 -1.3303 -1.3201 -1.4491
 6306SOL    HW219818   1.403   4.917   2.301 -1.2647  0.3602  2.8299
 6307SOL     OW19819   4.152   0.222   0.170 -0.1027  0.4656 -0.1631
 6307SOL    HW119820   4.231   0.284   0.179  0.6486 -0.5518  0.5367
 6307SOL    HW219821   4.068   0.276   0.163  0.6604  1.5772 -1.0682
 6308SOL     OW19822   0.742   4.956   2.604  0.2191 -0.1940  0.2436
 6308SOL    HW119823   0.733   4.908   2.691  0.7544 -1.2980 -0.2899
 6308SOL    HW219824   0.675   4.921   2.539 -0.6370  1.0928  0.3832
 6309SOL     OW19825   6.183   3.491   2.768 -0.1584  0.5098 -0.3026
 6309SOL    HW119826   6.215   3.486   2.673 -1.1433 -1.0615 -0.5956
 6309SOL    HW219827   6.155   3.400   2.798  1.4534  0.6979  1.9996
 6310SOL     OW19828   5.191   5.901   0.796  0.4467  0.1595 -0.1878
 6310SOL    HW119829   5.118   5.858   0.850  0.8827  0.9952  1.0948
 6310SOL    HW219830   5.232   5.832   0.736 -0.7482 -0.5464 -0.2276
 6311SOL     OW19831   1.714   4.346   1.589  0.1077 -0.2898  0.4477
 6311SOL    HW119832   1.717   4.285   1.668 -1.2249 -1.5825 -0.4436
 6311SOL    HW219833   1.643   4.315   1.525  0.0383  1.6681 -0.4999
 6312SOL     OW19834   6.358   6.370   4.183 -0.5702 -0.0840  0.4533
 6312SOL    HW119835   6.382   6.389   4.278 -1.3872 -0.8749  0.8247
 6312SOL    HW219836   6.338   6.273   4.172  0.7659 -0.2570 -0.8062
 6313SOL     OW19837   2.628   5.690   0.295 -0.5177  0.6057  0.3558
 6313SOL    HW119838   2.665   5.767   0.242  1.1204 -0.1807  0.2975
 6313SOL    HW219839   2.602   5.616   0.233  2.6442 -0.8513  0.5848
 6314SOL     OW19840   0.258   6.719   5.546 -0.8829  0.8143 -0.0828
 6314SOL    HW119841   0.285   6.703   5.641  0.4415 -0.4151 -0.6305
 6314SOL    HW219842   0.176   6.667   5.525  0.9485 -2.1007 -0.6151
 6315SOL     OW19843   4.018   6.074   0.853  0.4238 -0.0976  0.2352
 6315SOL    HW119844   3.996   6.162   0.812  1.9465  0.2436  0.1050
 6315SOL    HW219845   3.980   6.070   0.946 -3.0598 -0.8743 -1.0553
 6316SOL     OW19846   1.821   2.024   3.817  0.0123 -0.0984  0.3107
 6316SOL    HW119847   1.755   2.046   3.889 -2.7237 -1.9748 -1.4358
 6316SOL    HW219848   1.864   2.109   3.784 -0.7456  1.0776  2.1655
 6317SOL     OW19849   0.227   3.325   1.224 -0.6073  0.4061  0.1713
 6317SOL    HW119850   0.219   3.346   1.321 -1.4827 -0.0389  0.2083
 6317SOL    HW219851   0.156   3.375   1.174 -1.8591 -1.3739  0.0982
 6318SOL     OW19852   4.639   6.716   1.974  0.3623  0.3831  0.1622
 6318SOL    HW119853   4.660   6.808   1.942  0.5285 -0.7161 -3.3655
 6318SOL    HW219854   4.569   6.675   1.915  0.8036 -2.0018  1.1561
 6319SOL     OW19855   4.389   3.325   1.576 -0.4173  0.5315  0.7841
 6319SOL    HW119856   4.421   3.346   1.484 -0.4506 -2.2030  0.0832
 6319SOL    HW219857   4.311   3.383   1.598  0.2874  2.0222 -0.4084
 6320SOL     OW19858   6.804   2.392   1.584  0.0921 -0.1788 -0.3688
 6320SOL    HW119859   6.878   2.334   1.617  1.4822  2.2930  1.1313
 6320SOL    HW219860   6.822   2.420   1.490  0.1679 -0.9403 -0.5883
 6321SOL     OW19861   6.508   5.986   3.798  0.4263 -0.0631  0.1796
 6321SOL    HW119862   6.583   5.949   3.743 -1.7326 -1.2264 -2.1675
 6321SOL    HW219863   6.490   5.924   3.875  1.0337 -0.4271  0.0377
 6322SOL     OW19864   3.679   0.886   4.695  0.0844 -0.1600  0.1364
 6322SOL    HW119865   3.684   0.932   4.783 -1.6114 -0.7752  0.5804
 6322SOL    HW219866   3.672   0.954   4.622 -2.2573  0.3603  0.7695
 6323SOL     OW19867   1.708   1.901   6.936  0.0311  0.0218  0.2963
 6323SOL    HW119868   1.613   1.870   6.937 -0.1832  0.6605  0.6929
 6323SOL    HW219869   1.728   1.947   7.023  0.2815  1.1392 -0.3410
 6324SOL     OW19870   6.486   3.171   0.909  0.0183  0.6329  0.1227
 6324SOL    HW119871   6.541   3.254   0.898 -1.3035  1.3695 -1.2852
 6324SOL    HW219872   6.393   3.188   0.876 -0.0540 -1.6628 -1.0546
 6325SOL     OW19873   2.435   2.359   6.702  1.0750  0.3698 -0.0303
 6325SOL    HW119874   2.436   2.283   6.766 -2.5010 -0.5655 -0.8596
 6325SOL    HW219875   2.409   2.443   6.750  1.4703  0.3393  0.2439
 6326SOL     OW19876   1.335   0.194   5.194  0.3871 -0.2246 -0.6523
 6326SOL    HW119877   1.355   0.253   5.116  2.0862 -1.5513 -1.3041
 6326SOL    HW219878   1.293   0.109   5.161 -2.9518  0.8977  0.3504
 6327SOL     OW19879   1.957   0.920   3.238 -0.0306  0.1050 -0.3491
 6327SOL    HW119880   1.970   0.964   3.327 -0.8778 -0.3194 -0.0073
 6327SOL    HW219881   1.997   0.977   3.166  1.6119 -0.0458  0.3991
 6328SOL     OW19882   5.865   3.689   5.178 -0.3684 -0.1372 -0.0591
 6328SOL    HW119883   5.928   3.763   5.157  1.7248 -1.8643 -0.2365
 6328SOL    HW219884   5.886   3.652   5.269 -3.2481  1.2425  1.2953
 6329SOL     OW19885   5.582   4.578   0.255  0.3722  0.0265  0.0094
 6329SOL    HW119886   5.599   4.542   0.163 -0.8764 -0.1605 -0.1720
 6329SOL    HW219887   5.630   4.665   0.266  0.5860  0.0187 -0.8006
 6330SOL     OW19888   1.318   2.370   2.370  0.0696  0.5136 -0.0043
 6330SOL    HW119889   1.309   2.366   2.470 -1.3960 -1.1481 -0.1737
 6330SOL    HW219890   1.240   2.419   2.332 -0.5653 -0.8141 -0.4632
 6331SOL     OW19891   6.256   0.930   3.812  0.0938  0.1318  0.1264
 6331SOL    HW119892   6.171   0.969   3.778 -0.0539 -0.3524 -0.0728
 6331SOL    HW219893   6.324   1.003   3.824 -0.4995  0.5893  0.7691
 6332SOL     OW19894   3.268   1.947   1.606 -0.1177 -0.5567  0.8088
 6332SOL    HW119895   3.225   2.004   1.676  1.3251 -0.2575  1.4780
 6332SOL    HW219896   3.204   1.876   1.577 -3.0761  2.8173 -1.9730
 6333SOL     OW19897   5.994   5.218   2.338 -0.3942  0.1739 -0.0806
 6333SOL    HW119898   6.040   5.244   2.423 -3.0263  2.5962  0.7900
 6333SOL    HW219899   5.942   5.133   2.353 -0.1225  0.0979  0.4628
 6334SOL     OW19900   6.423   5.272   6.804 -0.5813 -0.1015 -0.1608
 6334SOL    HW119901   6.521   5.252   6.810 -0.7899 -1.2234 -0.4107
 6334SOL    HW219902   6.404   5.355   6.856  0.4890  0.0907 -0.0448
 6335SOL     OW19903   3.777   2.208   5.871  0.1326  0.5584 -0.4231
 6335SOL    HW119904   3.720   2.289   5.864 -0.5510  0.0003 -1.7780
 6335SOL    HW219905   3.774   2.157   5.785  2.7529  0.5340 -0.5939
 6336SOL     OW19906   6.046   4.908   2.870  0.0662  0.3548  0.1207
 6336SOL    HW119907   6.107   4.912   2.949 -1.7257 -0.2387  1.6283
 6336SOL    HW219908   5.951   4.898   2.902 -0.5776 -1.7741 -2.1315
 6337SOL     OW19909   3.878   1.864   4.326  0.1828  0.0790  0.7088
 6337SOL    HW119910   3.936   1.854   4.407  3.2237 -0.4168 -1.3461
 6337SOL    HW219911   3.817   1.785   4.319  2.2756 -1.6627  0.8308
 6338SOL     OW19912   1.676   1.489   6.610 -0.0025 -0.2397 -0.3997
 6338SOL    HW119913   1.696   1.560   6.677  1.1235 -1.1698  0.2810
 6338SOL    HW219914   1.591   1.442   6.635 -0.4429  0.4585 -0.5389
 6339SOL     OW19915   1.793   1.770   3.694  0.3375  0.8025 -0.2325
 6339SOL    HW119916   1.806   1.860   3.735  1.5512 -0.5173  2.6038
 6339SOL    HW219917   1.882   1.725   3.684 -0.3378 -0.6315 -0.1127
 6340SOL     OW19918   1.181   4.193   4.780 -0.6137  0.1464  0.2122
 6340SOL    HW119919   1.227   4.139   4.709 -1.3161 -0.0379 -0.1180
 6340SOL    HW219920   1.234   4.190   4.864  0.7448  1.1554 -0.5650
 6341SOL     OW19921   0.276   2.647   3.727  0.2352  0.4857 -0.0034
 6341SOL    HW119922   0.322   2.690   3.805 -2.2452 -0.7960  2.3508
 6341SOL    HW219923   0.252   2.718   3.660 -0.6435  2.2843  2.0731
 6342SOL     OW19924   1.797   3.967   3.125 -0.1086 -0.2322 -0.1427
 6342SOL    HW119925   1.733   3.908   3.077  0.0638 -0.6728  0.1604
 6342SOL    HW219926   1.827   3.922   3.210 -0.6431  0.6612  0.5343
 6343SOL     OW19927   3.516   1.172   6.303 -0.1454 -0.6844 -0.0498
 6343SOL    HW119928   3.606   1.191   6.342 -0.0170  0.6010 -0.8986
 6343SOL    HW219929   3.517   1.083   6.257  1.0908 -0.1370 -1.1467
 6344SOL     OW19930   6.206   0.261   1.471 -0.4116 -0.4371  0.6501
 6344SOL    HW119931   6.225   0.357   1.452 -1.0403 -0.6301 -1.1625
 6344SOL    HW219932   6.189   0.248   1.568 -3.5906  1.8961  0.5500
 6345SOL     OW19933   2.261   0.930   2.826 -0.0997 -0.3462  0.4305
 6345SOL    HW119934   2.267   0.979   2.913 -0.8292  0.0910  0.2485
 6345SOL    HW219935   2.267   0.995   2.750  2.9127 -0.9298  0.0386
 6346SOL     OW19936   6.580   1.309   6.879 -0.0486 -0.4657  0.3897
 6346SOL    HW119937   6.575   1.406   6.903  2.4001 -0.0760 -0.3641
 6346SOL    HW219938   6.642   1.262   6.942 -1.0031 -1.5043  0.5839
 6347SOL     OW19939   2.646   0.164   2.752  0.1914  0.5507  0.3242
 6347SOL    HW119940   2.652   0.211   2.664  1.0867 -1.0627 -0.5238
 6347SOL    HW219941   2.690   0.220   2.823  2.5054  0.4062 -0.9239
 6348SOL     OW19942   0.857   6.908   3.598  0.4116 -0.0998  0.0676
 6348SOL    HW119943   0.948   6.873   3.576  0.8737 -0.1103  1.8103
 6348SOL    HW219944   0.832   6.981   3.534  2.4251  1.1369  0.5948
 6349SOL     OW19945   6.733   1.265   0.728  0.3579  0.7056  0.1114
 6349SOL    HW119946   6.646   1.313   0.722 -0.1399 -0.1712  0.2318
 6349SOL    HW219947   6.756   1.249   0.825 -1.2851 -2.4719  0.0877
 6350SOL     OW19948   3.075   0.667   0.770 -0.6778 -0.2672 -0.0991
 6350SOL    HW119949   2.993   0.723   0.779 -1.7433 -1.9092  1.0781
 6350SOL    HW219950   3.080   0.629   0.677  0.6921  2.5519 -1.3156
 6351SOL     OW19951   5.588   4.080   0.791  0.1241  0.5630  1.0111
 6351SOL    HW119952   5.602   4.135   0.708  2.1336  1.1176  1.6633
 6351SOL    HW219953   5.591   4.140   0.871  0.6208 -0.2827  1.6389
 6352SOL     OW19954   2.541   1.263   0.312 -0.1083 -0.5435  0.9753
 6352SOL    HW119955   2.454   1.279   0.265  0.4345 -0.0198  0.1172
 6352SOL    HW219956   2.574   1.348   0.351  0.1811 -0.6727  1.0131
 6353SOL     OW19957   6.756   0.101   4.240 -0.0378 -0.2189  0.0536
 6353SOL    HW119958   6.712   0.162   4.174  1.8145  0.6209 -0.5021
 6353SOL    HW219959   6.692   0.077   4.312 -1.4358  0.7208 -0.8367
 6354SOL     OW19960   0.516   2.067   1.437  0.2624  0.3328 -0.4048
 6354SOL    HW119961   0.522   2.115   1.349 -1.3313  0.3281 -0.5365
 6354SOL    HW219962   0.452   2.114   1.497  0.7865 -0.0816  0.5066
 6355SOL     OW19963   0.249   6.141   0.341  0.2892  1.0425 -0.2288
 6355SOL    HW119964   0.247   6.194   0.256  1.3286 -1.3154 -1.8504
 6355SOL    HW219965   0.216   6.049   0.322  0.1463  0.5766  2.0685
 6356SOL     OW19966   3.301   1.399   3.721 -0.2953 -0.2911  0.1365
 6356SOL    HW119967   3.357   1.421   3.800  0.4634  0.5150 -0.6115
 6356SOL    HW219968   3.276   1.302   3.724  1.9173 -0.9243  0.0258
 6357SOL     OW19969   1.063   4.604   1.518  0.0850 -0.3938 -1.3503
 6357SOL    HW119970   1.076   4.505   1.522 -0.8874 -0.4866  1.6292
 6357SOL    HW219971   1.152   4.649   1.511  0.5589 -1.4239 -2.4020
 6358SOL     OW19972   0.453   3.420   4.472  0.0738 -0.4806 -0.1386
 6358SOL    HW119973   0.452   3.465   4.382 -1.5571  0.6205  0.3925
 6358SOL    HW219974   0.360   3.414   4.507  0.7003 -0.7567  1.5487
 6359SOL     OW19975   5.692   6.941   6.322 -0.7018  0.1417  0.4461
 6359SOL    HW119976   5.690   6.849   6.281  2.3852  1.4060 -3.0825
 6359SOL    HW219977   5.604   6.985   6.307 -0.6892 -0.5846 -2.3444
 6360SOL     OW19978   1.601   2.199   6.857 -0.2192  0.5566  0.2521
 6360SOL    HW119979   1.668   2.215   6.929  0.2468  0.7122 -0.2130
 6360SOL    HW219980   1.557   2.110   6.871  0.7960  0.0036 -0.0046
 6361SOL     OW19981   1.204   0.381   4.199  0.0895 -0.1905 -0.2319
 6361SOL    HW119982   1.236   0.454   4.138 -0.5144 -1.1188 -1.7319
 6361SOL    HW219983   1.271   0.307   4.200 -1.0284 -1.3034 -1.8735
 6362SOL     OW19984   4.598   5.651   5.796 -0.7500  0.2023 -0.2079
 6362SOL    HW119985   4.635   5.660   5.889 -1.5197  0.3073  0.0949
 6362SOL    HW219986   4.637   5.570   5.753  0.1714  0.5567 -0.0634
 6363SOL     OW19987   1.616   6.408   4.811 -0.4207  0.0091  0.4744
 6363SOL    HW119988   1.715   6.400   4.815 -0.2810  0.8733 -0.8584
 6363SOL    HW219989   1.577   6.327   4.768 -0.1237  0.4722 -0.6946
 6364SOL     OW19990   4.541   0.563   2.329  0.2403 -0.1434  0.2451
 6364SOL    HW119991   4.551   0.623   2.249 -2.1952 -3.2431 -2.7030
 6364SOL    HW219992   4.598   0.482   2.317  0.1427 -0.4832  1.8891
 6365SOL     OW19993   2.675   0.726   5.360  0.2926  0.1932  0.0550
 6365SOL    HW119994   2.737   0.723   5.281  0.5542 -0.4679  0.2733
 6365SOL    HW219995   2.689   0.811   5.410  2.0224 -0.5104  0.8654
 6366SOL     OW19996   0.667   3.944   0.281  0.2287 -0.5260  0.5581
 6366SOL    HW119997   0.610   3.862   0.272 -0.5576 -0.0556  1.0734
 6366SOL    HW219998   0.719   3.938   0.366  3.3905 -2.3878 -1.3010
 6367SOL     OW19999   6.792   3.208   6.659 -0.5332 -0.2620 -0.6862
 6367SOL    HW120000   6.722   3.235   6.725 -0.0751 -0.5880 -0.0597
 6367SOL    HW220001   6.836   3.289   6.621  0.8679 -0.0709  1.2170
 6368SOL     OW20002   5.693   4.665   6.281  0.2794  0.4788 -0.3426
 6368SOL    HW120003   5.613   4.725   6.292  0.4312  0.7601 -0.7304
 6368SOL    HW220004   5.772   4.720   6.255  0.7745  0.2868  0.7450
 6369SOL     OW20005   0.251   5.882   1.488  0.2621  0.0920  0.1360
 6369SOL    HW120006   0.234   5.824   1.568 -0.7673  0.3444  0.1133
 6369SOL    HW220007   0.348   5.902   1.481  0.9639 -3.1555 -0.9124
 6370SOL     OW20008   3.893   6.386   3.848  0.2207 -0.4255 -0.0151
 6370SOL    HW120009   3.946   6.459   3.803  1.3474 -0.7855  0.6997
 6370SOL    HW220010   3.948   6.345   3.920 -0.6648 -1.5330  0.0462
 6371SOL     OW20011   1.029   0.645   2.456 -0.5675  0.3087 -0.1554
 6371SOL    HW120012   0.968   0.571   2.428 -1.4364  1.0788 -0.3490
 6371SOL    HW220013   1.093   0.665   2.382 -0.5798 -0.0041 -0.2491
 6372SOL     OW20014   3.590   6.478   3.110 -0.3578 -0.1328  0.3760
 6372SOL    HW120015   3.515   6.538   3.136 -0.4514 -0.6353  1.3326
 6372SOL    HW220016   3.554   6.386   3.091  0.1014 -0.6853  1.9645
 6373SOL     OW20017   6.371   5.884   0.452  0.3574 -0.0189 -0.2988
 6373SOL    HW120018   6.357   5.859   0.357  2.1233  1.9312 -1.1600
 6373SOL    HW220019   6.460   5.850   0.483  0.2823  0.3059  0.2966
 6374SOL     OW20020   6.492   2.711   6.942  0.2648  0.1252  0.2130
 6374SOL    HW120021   6.549   2.640   6.983 -0.0686 -0.6761 -0.6706
 6374SOL    HW220022   6.498   2.795   6.997  0.4034 -0.6767  1.4682
 6375SOL     OW20023   3.542   5.255   6.006 -0.8887 -0.0547  0.3224
 6375SOL    HW120024   3.543   5.212   6.096 -2.3291  1.9952  1.4130
 6375SOL    HW220025   3.507   5.190   5.939 -1.1658 -1.1872  1.5158
 6376SOL     OW20026   4.817   1.840   1.613  0.3711 -0.1432 -0.0433
 6376SOL    HW120027   4.795   1.775   1.541  0.5893  1.4672 -1.6464
 6376SOL    HW220028   4.843   1.928   1.572 -2.7485  1.9291  2.0077
 6377SOL     OW20029   4.016   4.995   2.744  0.4080 -0.2441  0.0368
 6377SOL    HW120030   3.943   5.061   2.727 -0.6352 -1.2458  0.5065
 6377SOL    HW220031   4.006   4.958   2.836  2.1480  0.3689  0.5073
 6378SOL     OW20032   1.656   4.987   5.966 -0.3118  0.5685  0.2119
 6378SOL    HW120033   1.644   4.894   5.931 -1.4002  1.7402 -2.7892
 6378SOL    HW220034   1.573   5.040   5.951  0.7780  2.4675  0.4902
 6379SOL     OW20035   4.404   1.645   6.959  0.2097  0.4119  0.1460
 6379SOL    HW120036   4.433   1.657   7.054 -1.3188 -3.8157  1.3825
 6379SOL    HW220037   4.465   1.581   6.914  0.1643  1.3951 -1.3667
 6380SOL     OW20038   4.006   6.583   3.682  0.5385 -0.6678  0.1380
 6380SOL    HW120039   3.914   6.606   3.650  0.5347  1.5737  1.5467
 6380SOL    HW220040   4.070   6.585   3.605  0.1031  2.0484 -0.2508
 6381SOL     OW20041   5.230   1.503   2.551 -0.0056  0.4933  0.4689
 6381SOL    HW120042   5.272   1.501   2.642 -1.3989  0.8223  1.1511
 6381SOL    HW220043   5.257   1.586   2.503  0.6236  0.3868  0.6316
 6382SOL     OW20044   4.756   2.202   1.119  0.2790  0.2116  0.0449
 6382SOL    HW120045   4.831   2.182   1.056  0.2202 -0.4968  0.1863
 6382SOL    HW220046   4.723   2.116   1.159 -0.4133  0.5444  0.2034
 6383SOL     OW20047   0.344   0.968   3.641 -0.1110 -0.1883  0.5097
 6383SOL    HW120048   0.302   0.988   3.552  0.6480 -0.1299  0.1542
 6383SOL    HW220049   0.335   1.047   3.701  2.2596  1.0728 -0.6483
 6384SOL     OW20050   0.055   3.856   2.409  0.2189 -0.1880  0.3904
 6384SOL    HW120051   0.018   3.764   2.422 -2.4474  0.3378 -2.2235
 6384SOL    HW220052   0.023   3.916   2.482 -0.0001 -0.8297  0.8314
 6385SOL     OW20053   1.981   4.019   1.924 -0.0475  0.0394 -0.6883
 6385SOL    HW120054   2.017   4.111   1.912 -0.2461  0.4982  1.7822
 6385SOL    HW220055   2.057   3.953   1.929  0.4355  0.6902  2.0258
 6386SOL     OW20056   2.164   6.977   4.242 -0.5049  0.8993  0.8308
 6386SOL    HW120057   2.146   6.971   4.144 -1.5093  1.2127  0.9858
 6386SOL    HW220058   2.260   6.954   4.259 -0.0955  1.6474 -0.3113
 6387SOL     OW20059   5.417   1.008   3.293  0.3104  0.0491 -0.0774
 6387SOL    HW120060   5.477   0.974   3.220  0.3078  0.2319 -0.1684
 6387SOL    HW220061   5.322   0.998   3.265  0.3188  1.4716 -0.7566
 6388SOL     OW20062   6.726   1.219   5.436  0.4983 -0.4905  0.2804
 6388SOL    HW120063   6.714   1.160   5.516 -0.4224 -0.8360 -0.1022
 6388SOL    HW220064   6.686   1.174   5.356  2.4495 -0.7145 -0.6444
 6389SOL     OW20065   1.096   1.575   0.911 -0.4459  0.3360 -0.0339
 6389SOL    HW120066   1.192   1.563   0.885 -0.4711 -0.8369  0.3343
 6389SOL    HW220067   1.045   1.614   0.834 -0.2005 -1.6057 -1.2680
 6390SOL     OW20068   2.939   3.147   2.140  0.1756  0.0753  0.2860
 6390SOL    HW120069   2.909   3.220   2.201 -2.2071  0.1621 -0.8594
 6390SOL    HW220070   2.877   3.069   2.149  0.4346 -0.3286 -1.2077
 6391SOL     OW20071   5.045   4.523   6.240 -0.9503  0.3889 -0.6734
 6391SOL    HW120072   4.972   4.496   6.303 -0.5319  0.8904  0.0473
 6391SOL    HW220073   5.112   4.449   6.234 -0.5837  0.6489  0.1039
 6392SOL     OW20074   6.602   4.408   2.764 -0.7214 -0.0393 -0.0482
 6392SOL    HW120075   6.668   4.409   2.690  0.2698  1.8352  0.8050
 6392SOL    HW220076   6.572   4.501   2.784 -2.4981 -0.6946  0.6003
 6393SOL     OW20077   3.439   5.880   5.876 -0.3796 -0.1332  0.3321
 6393SOL    HW120078   3.458   5.794   5.829 -1.3713 -0.4488  0.4659
 6393SOL    HW220079   3.343   5.880   5.907 -0.2083  0.7483  0.9027
 6394SOL     OW20080   3.148   6.231   3.613 -0.0012 -0.1599  0.7609
 6394SOL    HW120081   3.099   6.296   3.555 -1.6280 -0.8086  1.3680
 6394SOL    HW220082   3.097   6.215   3.697  1.4330 -0.6216  1.5847
 6395SOL     OW20083   1.798   4.436   4.155 -0.3649  0.4520 -0.0207
 6395SOL    HW120084   1.734   4.420   4.231 -2.3370  0.9307 -1.4826
 6395SOL    HW220085   1.830   4.349   4.119 -0.5378  0.1907  0.4459
 6396SOL     OW20086   5.821   3.439   0.408  0.7699 -0.2360 -0.2809
 6396SOL    HW120087   5.723   3.429   0.421  1.0517 -2.9317  0.1933
 6396SOL    HW220088   5.842   3.443   0.310  0.1949  0.8208 -0.3782
 6397SOL     OW20089   0.600   2.660   3.637  0.2729  0.1860 -0.2417
 6397SOL    HW120090   0.615   2.692   3.731  1.7871  0.2389 -0.4718
 6397SOL    HW220091   0.598   2.739   3.576  1.9210  0.0113 -0.5553
 6398SOL     OW20092   2.471   1.493   6.158  0.3540  0.2842  0.2365
 6398SOL    HW120093   2.558   1.484   6.205  0.9897 -0.4239 -1.0256
 6398SOL    HW220094   2.451   1.409   6.107 -1.8298 -0.1966  1.7268
 6399SOL     OW20095   3.808   3.654   6.206  0.3786 -0.1266  0.3350
 6399SOL    HW120096   3.719   3.619   6.176 -0.1512  0.5103  1.1233
 6399SOL    HW220097   3.797   3.703   6.293  1.9426 -2.3725  1.9155
 6400SOL     OW20098   0.787   0.747   0.539  0.1220  0.3568  0.1929
 6400SOL    HW120099   0.857   0.776   0.604  0.9140  1.1607 -0.9767
 6400SOL    HW220100   0.815   0.663   0.495  0.4905  0.8120 -0.4584
 6401SOL     OW20101   4.949   0.983   1.234 -0.6649 -0.3041  0.1721
 6401SOL    HW120102   4.868   0.936   1.268 -0.6257  1.5847  3.2510
 6401SOL    HW220103   5.021   0.980   1.303  0.3003  1.8525 -0.6603
 6402SOL     OW20104   5.690   0.810   2.083 -0.1928 -0.1209 -0.0916
 6402SOL    HW120105   5.754   0.738   2.053  0.0880  0.1436 -0.1281
 6402SOL    HW220106   5.726   0.899   2.057 -0.6387  0.0238 -0.2136
 6403SOL     OW20107   2.493   3.051   6.818  0.0229  0.4247 -0.3894
 6403SOL    HW120108   2.503   3.005   6.906  0.3102 -0.0353 -0.6601
 6403SOL    HW220109   2.549   3.133   6.817  1.9980 -0.8733 -1.0284
 6404SOL     OW20110   0.239   0.692   6.731  0.1620  0.0801 -0.2986
 6404SOL    HW120111   0.243   0.792   6.735  1.0645  0.0209  0.5007
 6404SOL    HW220112   0.299   0.659   6.658  0.1064  0.0955 -0.3519
 6405SOL     OW20113   6.085   6.478   6.389  0.3102 -0.0683 -0.4117
 6405SOL    HW120114   5.989   6.461   6.366  0.1032 -0.0170  0.3860
 6405SOL    HW220115   6.092   6.559   6.447  0.6636 -0.9096  0.7679
 6406SOL     OW20116   3.556   3.085   6.603  0.3076  1.1890 -0.5221
 6406SOL    HW120117   3.510   3.046   6.523 -1.1250  0.9703  0.3730
 6406SOL    HW220118   3.516   3.174   6.625  0.8215  1.3386 -0.1683
 6407SOL     OW20119   5.267   5.561   4.139  0.0886  0.9802  0.2988
 6407SOL    HW120120   5.348   5.618   4.153 -0.1894  1.0254  1.9309
 6407SOL    HW220121   5.215   5.555   4.225 -1.5116  0.7437 -0.6542
 6408SOL     OW20122   1.075   2.870   0.648  0.1952  0.0544 -0.0495
 6408SOL    HW120123   0.990   2.908   0.683  0.5454  0.4144  0.4292
 6408SOL    HW220124   1.132   2.944   0.611 -0.3878 -0.3675 -1.9033
 6409SOL     OW20125   6.774   4.508   5.619  0.2328  0.2736  0.4934
 6409SOL    HW120126   6.733   4.422   5.650  0.4136  0.5260  1.4609
 6409SOL    HW220127   6.873   4.504   5.633  0.2444  0.6336  0.5293
 6410SOL     OW20128   5.205   2.292   6.909 -0.0778  0.7354  0.1530
 6410SOL    HW120129   5.217   2.200   6.869 -1.8889  0.6577 -0.2755
 6410SOL    HW220130   5.131   2.290   6.976 -1.3018  2.2151 -1.0855
 6411SOL     OW20131   5.016   0.839   5.641 -0.9839  0.2153 -0.1145
 6411SOL    HW120132   5.094   0.861   5.699 -0.6006 -1.2704 -0.0205
 6411SOL    HW220133   4.970   0.758   5.676 -1.8095  0.3298 -0.8958
 6412SOL     OW20134   2.512   4.790   0.477 -0.4216  0.1166  0.4006
 6412SOL    HW120135   2.535   4.703   0.434  0.9459  0.1554  1.0234
 6412SOL    HW220136   2.432   4.829   0.431 -0.3155 -0.8723 -0.6753
 6413SOL     OW20137   5.875   1.948   4.815  0.2290  0.4463 -0.3392
 6413SOL    HW120138   5.844   1.887   4.742 -0.0606  0.1050  0.0626
 6413SOL    HW220139   5.933   2.020   4.776  1.8627 -0.9571 -0.6220
 6414SOL     OW20140   0.100   2.341   0.932 -0.1148  0.7206  0.0278
 6414SOL    HW120141   0.027   2.359   0.997 -2.1093 -1.5916 -1.3804
 6414SOL    HW220142   0.074   2.376   0.842 -0.6796 -2.0823 -1.0147
 6415SOL     OW20143   0.497   6.090   5.500  0.2900  0.5237 -0.1861
 6415SOL    HW120144   0.463   6.011   5.448  0.2062  1.7606 -2.0897
 6415SOL    HW220145   0.442   6.102   5.583  1.0218 -2.0643  0.7821
 6416SOL     OW20146   4.573   5.780   0.374 -0.4728  0.2674 -0.3298
 6416SOL    HW120147   4.548   5.781   0.470 -1.0280  1.5879 -0.4636
 6416SOL    HW220148   4.629   5.860   0.353  0.7839 -0.7059 -0.8347
 6417SOL     OW20149   1.649   5.568   2.842 -0.3238  0.3563 -0.0462
 6417SOL    HW120150   1.576   5.529   2.900 -0.1867  1.6197  1.0102
 6417SOL    HW220151   1.607   5.618   2.767 -0.5954  1.4817  0.8227
 6418SOL     OW20152   3.688   4.962   5.974  0.6911 -0.0642 -0.2348
 6418SOL    HW120153   3.773   5.016   5.981  0.5213  0.0469  1.6483
 6418SOL    HW220154   3.702   4.886   5.911  2.6282 -0.7529  0.9363
 6419SOL     OW20155   6.706   4.723   2.435 -0.3369 -0.5514  0.3273
 6419SOL    HW120156   6.752   4.764   2.514  0.7483  0.4927 -0.8008
 6419SOL    HW220157   6.671   4.633   2.460 -2.0973  0.6870  2.6529
 6420SOL     OW20158   3.919   1.650   0.972  0.6232 -0.0906  0.2888
 6420SOL    HW120159   3.975   1.636   1.054  3.8372  2.7342 -1.1492
 6420SOL    HW220160   3.973   1.629   0.891 -1.1219  0.8206 -1.1900
 6421SOL     OW20161   4.283   0.868   5.426 -0.1224 -0.7670 -0.2854
 6421SOL    HW120162   4.337   0.786   5.445  0.8502  0.1214  0.9583
 6421SOL    HW220163   4.331   0.924   5.358  0.5372  0.0029  0.7896
 6422SOL     OW20164   3.085   1.531   3.158 -0.1393 -0.2906  0.1469
 6422SOL    HW120165   3.060   1.538   3.255 -0.4964 -0.3029  0.0575
 6422SOL    HW220166   3.135   1.613   3.131  0.3179 -0.4683  0.4444
 6423SOL     OW20167   4.663   5.800   4.953 -0.4394  0.0991  0.0830
 6423SOL    HW120168   4.692   5.713   4.911 -0.0432  0.2445  0.0560
 6423SOL    HW220169   4.576   5.828   4.912  0.5384  0.8669 -1.5525
 6424SOL     OW20170   5.146   0.180   1.077 -0.0341 -0.3616  0.0937
 6424SOL    HW120171   5.177   0.148   1.166  0.6411  1.5150  0.5595
 6424SOL    HW220172   5.209   0.249   1.042 -1.8066  1.0164 -0.5202
 6425SOL     OW20173   5.175   0.966   6.191 -0.0011 -1.1063 -0.2206
 6425SOL    HW120174   5.136   1.018   6.267  3.0525  0.6153  0.3216
 6425SOL    HW220175   5.106   0.954   6.120 -1.6201  1.4319  0.7817
 6426SOL     OW20176   2.872   5.956   2.651  0.4802 -0.0321  0.2232
 6426SOL    HW120177   2.932   6.001   2.585  1.1652  1.3183  1.7146
 6426SOL    HW220178   2.925   5.927   2.731 -0.0918 -2.7949 -0.2847
 6427SOL     OW20179   2.100   1.258   3.617  0.1558  0.1690 -0.4034
 6427SOL    HW120180   2.092   1.258   3.716  0.6010  0.2855 -0.3615
 6427SOL    HW220181   2.195   1.240   3.591  0.0344  0.0884 -0.8080
 6428SOL     OW20182   2.805   6.102   6.953 -0.2198  0.3987 -0.2430
 6428SOL    HW120183   2.902   6.076   6.950  0.3250  2.2793 -0.3008
 6428SOL    HW220184   2.751   6.033   6.906  0.8283 -1.6664  1.3847
 6429SOL     OW20185   0.771   0.343   2.566  0.0711 -0.0329  0.6935
 6429SOL    HW120186   0.853   0.290   2.587  1.6296  1.4929 -1.2269
 6429SOL    HW220187   0.703   0.327   2.638  1.5258 -2.3223  1.6927
 6430SOL     OW20188   2.970   6.336   0.798 -0.0182  0.2654 -0.5832
 6430SOL    HW120189   2.989   6.369   0.706 -4.2715  0.3998 -1.6305
 6430SOL    HW220190   2.972   6.236   0.798 -0.2583  0.2580 -0.9134
 6431SOL     OW20191   5.472   3.901   5.335  0.1256 -0.6781  0.6811
 6431SOL    HW120192   5.427   3.856   5.259 -2.3834 -0.6975  2.0732
 6431SOL    HW220193   5.522   3.981   5.302  0.3326 -1.5156 -1.1311
 6432SOL     OW20194   0.403   2.244   1.656 -0.0687 -0.2496 -0.0051
 6432SOL    HW120195   0.317   2.296   1.653 -0.2099 -0.4571  0.4240
 6432SOL    HW220196   0.452   2.266   1.740  0.5581  0.2709 -0.4976
 6433SOL     OW20197   4.047   2.122   6.526 -0.0923 -0.0592 -0.0572
 6433SOL    HW120198   3.977   2.134   6.597 -0.2435 -0.1619 -0.1864
 6433SOL    HW220199   4.123   2.184   6.542  0.3791 -0.8445  0.8200
 6434SOL     OW20200   6.635   0.237   6.461  0.2053 -0.2847 -0.4160
 6434SOL    HW120201   6.677   0.165   6.516  0.9014  0.4947  0.0970
 6434SOL    HW220202   6.568   0.197   6.398 -1.0517 -1.1453  1.3948
 6435SOL     OW20203   4.420   0.637   0.672 -0.0886  0.1956  0.6054
 6435SOL    HW120204   4.392   0.733   0.679 -2.2135 -0.2259 -0.9405
 6435SOL    HW220205   4.376   0.584   0.745  1.4240  0.4261  1.7194
 6436SOL     OW20206   0.810   6.586   0.002  0.7014  0.8454  0.2197
 6436SOL    HW120207   0.714   6.568   0.023  0.8475 -0.7709 -0.4238
 6436SOL    HW220208   0.834   6.544  -0.085  2.2566  0.3503  0.8520
 6437SOL     OW20209   3.439   0.190   1.579 -0.1193 -0.0123 -0.7470
 6437SOL    HW120210   3.442   0.116   1.511  2.0122 -0.4456 -0.2716
 6437SOL    HW220211   3.344   0.208   1.605 -0.7201 -3.4469  0.0139
 6438SOL     OW20212   0.674   5.768   3.618  0.2663 -0.6721 -0.0608
 6438SOL    HW120213   0.707   5.822   3.540  2.1870 -0.7037  0.6799
 6438SOL    HW220214   0.577   5.787   3.633  0.6288  1.8385 -0.4434
 6439SOL     OW20215   1.169   5.415   3.250 -0.1225 -0.2682 -0.1941
 6439SOL    HW120216   1.155   5.489   3.315  0.4000 -0.2116 -0.1417
 6439SOL    HW220217   1.120   5.334   3.280 -1.9871  0.4838 -1.0431
 6440SOL     OW20218   0.135   2.492   3.487 -0.0072  0.1945 -0.4068
 6440SOL    HW120219   0.226   2.464   3.518 -0.2699 -1.6638 -1.1827
 6440SOL    HW220220   0.130   2.592   3.484  1.4125  0.3825  1.3366
 6441SOL     OW20221   6.549   1.287   5.914 -0.1684 -0.4651 -0.5953
 6441SOL    HW120222   6.602   1.358   5.961 -1.8582  1.0873 -0.9102
 6441SOL    HW220223   6.552   1.202   5.966  3.3766 -0.7869 -1.0869
 6442SOL     OW20224   2.292   2.096   0.626  0.2138  0.1760 -0.4231
 6442SOL    HW120225   2.323   2.121   0.534 -0.0235  2.0936 -0.0308
 6442SOL    HW220226   2.364   2.046   0.673  0.7780  0.1902 -1.2429
 6443SOL     OW20227   6.663   6.974   2.650  0.4808  0.0261  0.1859
 6443SOL    HW120228   6.585   7.011   2.701 -0.1394 -1.3814  0.3072
 6443SOL    HW220229   6.748   7.016   2.684 -0.0601  0.2787  1.2884
 6444SOL     OW20230   4.452   5.586   4.995  0.5782  0.2440 -0.8260
 6444SOL    HW120231   4.391   5.512   4.964 -1.2224  2.2611 -2.3766
 6444SOL    HW220232   4.514   5.550   5.064 -2.2402 -2.0143  0.7545
 6445SOL     OW20233   0.868   1.880   5.266 -0.0718 -0.6253  0.1857
 6445SOL    HW120234   0.927   1.803   5.242  0.8997  0.1176  0.1642
 6445SOL    HW220235   0.888   1.909   5.360 -2.0643 -1.8722  1.0715
 6446SOL     OW20236   6.990   2.546   5.609  0.3410  0.5592  0.0516
 6446SOL    HW120237   7.068   2.510   5.557  0.9959  1.7529  0.1855
 6446SOL    HW220238   6.925   2.472   5.624  1.0985 -0.3000 -0.6867
 6447SOL     OW20239   3.710   4.982   1.487 -0.5702 -0.0008 -0.1636
 6447SOL    HW120240   3.748   4.895   1.519 -0.6532 -1.0902 -2.7284
 6447SOL    HW220241   3.611   4.974   1.478 -0.7306  0.8052  0.7688
 6448SOL     OW20242   4.806   3.932   6.130 -0.1970 -0.3153  0.3668
 6448SOL    HW120243   4.804   3.993   6.209  2.7541  2.1106 -1.2487
 6448SOL    HW220244   4.714   3.926   6.090 -0.6818  2.8597  0.7716
 6449SOL     OW20245   6.549   0.546   5.550 -0.4462 -0.1800  0.6078
 6449SOL    HW120246   6.643   0.512   5.553 -0.8280 -1.5125 -1.0792
 6449SOL    HW220247   6.534   0.598   5.466 -1.3315 -0.3096  0.6681
 6450SOL     OW20248   3.526   1.793   5.544  0.5383 -0.2551  0.2339
 6450SOL    HW120249   3.608   1.821   5.493  0.2820 -1.4706 -0.9067
 6450SOL    HW220250   3.520   1.846   5.629  2.9345 -0.6855  0.7450
 6451SOL     OW20251   5.685   6.756   0.220  0.5077 -0.5208  0.7337
 6451SOL    HW120252   5.619   6.684   0.236 -0.0276  0.2050  1.9305
 6451SOL    HW220253   5.777   6.718   0.218  0.1273 -1.4400 -0.2823
 6452SOL     OW20254   1.324   3.647   2.281  0.4528  0.1924 -0.1819
 6452SOL    HW120255   1.314   3.674   2.185 -1.8969 -0.4248 -0.1571
 6452SOL    HW220256   1.370   3.558   2.285 -0.8742 -0.5466 -0.8556
 6453SOL     OW20257   5.068   5.851   4.819  0.1303  0.2336  0.2627
 6453SOL    HW120258   5.119   5.935   4.840 -0.9561  0.4593  2.1674
 6453SOL    HW220259   5.118   5.772   4.853  0.0671  0.3000  0.5091
 6454SOL     OW20260   0.328   3.799   6.926  0.0766 -0.0183  0.4804
 6454SOL    HW120261   0.248   3.743   6.948  1.4150 -2.0867  0.4565
 6454SOL    HW220262   0.345   3.864   6.999 -0.6922 -0.6728  1.2622
 6455SOL     OW20263   5.393   2.452   6.719 -0.5928 -0.4138 -0.4714
 6455SOL    HW120264   5.327   2.405   6.777 -1.0075  0.1367 -0.4872
 6455SOL    HW220265   5.455   2.506   6.775 -0.7333 -0.2082 -0.5131
 6456SOL     OW20266   3.119   0.969   1.894 -0.7078  0.3844 -0.0967
 6456SOL    HW120267   3.057   0.893   1.874 -0.7949  0.4031  0.1072
 6456SOL    HW220268   3.077   1.055   1.863 -0.4419  0.3080 -0.6865
 6457SOL     OW20269   5.155   0.721   1.705 -0.3584 -0.3946  0.1314
 6457SOL    HW120270   5.245   0.691   1.737 -0.3833 -0.7588 -0.1258
 6457SOL    HW220271   5.152   0.717   1.605 -0.1411  1.1324  0.0513
 6458SOL     OW20272   1.562   3.486   2.489  0.5621 -0.1454  0.3059
 6458SOL    HW120273   1.606   3.488   2.399  0.2303  0.5600  0.1506
 6458SOL    HW220274   1.537   3.579   2.515 -2.6240 -0.6716 -0.5023
 6459SOL     OW20275   3.671   4.860   2.783 -0.1642  0.0268  0.5981
 6459SOL    HW120276   3.677   4.813   2.871  0.7628 -1.2568 -0.1275
 6459SOL    HW220277   3.575   4.877   2.760 -0.3974  0.9975  2.1502
 6460SOL     OW20278   3.197   3.804   5.673  0.4209 -0.0672 -0.2958
 6460SOL    HW120279   3.206   3.804   5.574 -0.7721 -2.0513 -0.4462
 6460SOL    HW220280   3.209   3.712   5.709 -0.7849  0.3135  1.2314
 6461SOL     OW20281   5.620   4.579   1.984  0.2014 -0.4707  0.4735
 6461SOL    HW120282   5.638   4.615   2.075  0.4173  1.0873 -0.1524
 6461SOL    HW220283   5.561   4.498   1.991 -0.9497  0.4346  1.9194
 6462SOL     OW20284   6.197   1.050   0.487  0.1935  0.3484 -0.4930
 6462SOL    HW120285   6.170   1.054   0.390  2.0092 -0.4389 -1.0760
 6462SOL    HW220286   6.289   1.011   0.494  0.3748  1.0526  1.5208
 6463SOL     OW20287   0.271   2.485   2.851 -0.2001 -0.1055  0.4599
 6463SOL    HW120288   0.236   2.441   2.934 -0.4593 -0.6074  0.0901
 6463SOL    HW220289   0.369   2.503   2.863  0.4931 -2.8757 -0.1948
 6464SOL     OW20290   0.251   1.753   3.955  0.9463  1.0498 -0.7453
 6464SOL    HW120291   0.260   1.802   4.042  1.7587  0.8872 -0.7203
 6464SOL    HW220292   0.155   1.749   3.928  0.2265 -1.4515  1.6507
 6465SOL     OW20293   1.870   0.376   5.348 -0.3466  0.0062  0.0646
 6465SOL    HW120294   1.967   0.390   5.370 -1.0348  1.5735  2.5850
 6465SOL    HW220295   1.825   0.465   5.339 -2.0239 -0.6433  1.5247
 6466SOL     OW20296   0.813   2.316   6.347  0.7204  0.2208  0.0283
 6466SOL    HW120297   0.745   2.246   6.327 -0.3450  0.8429  1.3089
 6466SOL    HW220298   0.885   2.278   6.405  0.2755  0.1206  0.5167
 6467SOL     OW20299   4.215   4.784   4.053 -0.3112  0.1277  0.5020
 6467SOL    HW120300   4.263   4.740   3.977 -1.7742 -1.8318  0.6310
 6467SOL    HW220301   4.118   4.795   4.029 -0.1445  2.6584  0.7960
 6468SOL     OW20302   3.248   0.691   2.488  0.0112  0.0944 -0.0507
 6468SOL    HW120303   3.208   0.751   2.558 -1.4642 -1.4413  0.4757
 6468SOL    HW220304   3.340   0.664   2.516  0.7098  2.0586 -0.2965
 6469SOL     OW20305   4.565   1.853   3.101  0.1987 -0.6675  0.0514
 6469SOL    HW120306   4.518   1.892   3.180  0.1367 -0.5025 -0.0649
 6469SOL    HW220307   4.575   1.924   3.030  1.1641 -0.5347  0.3068
 6470SOL     OW20308   3.455   4.015   1.819  0.3507  0.0087  0.5606
 6470SOL    HW120309   3.540   4.016   1.766 -0.2237 -0.4681 -0.4033
 6470SOL    HW220310   3.394   4.085   1.784 -0.6216 -1.2843 -0.4299
 6471SOL     OW20311   4.551   0.973   4.680  0.0793  0.3493 -0.3868
 6471SOL    HW120312   4.524   0.877   4.693  1.1362  0.4388  4.2051
 6471SOL    HW220313   4.482   1.032   4.721  0.9182  1.3916 -0.4490
 6472SOL     OW20314   4.321   4.647   0.350  0.5803  0.2854  0.1683
 6472SOL    HW120315   4.275   4.736   0.350  1.2454  0.6393 -0.0546
 6472SOL    HW220316   4.322   4.610   0.258 -0.3010 -0.2862  0.3748
 6473SOL     OW20317   2.085   0.210   4.382  0.1396 -0.3499 -0.4032
 6473SOL    HW120318   2.098   0.111   4.385 -1.3452 -0.5635 -0.1764
 6473SOL    HW220319   2.007   0.232   4.323  1.1219  0.7765 -1.3365
 6474SOL     OW20320   5.939   2.427   3.735  0.0832 -0.3865  0.2371
 6474SOL    HW120321   5.973   2.401   3.825 -1.9310  1.4508  1.6227
 6474SOL    HW220322   5.956   2.524   3.719  0.2067 -0.6242 -1.2992
 6475SOL     OW20323   2.062   4.920   6.231  0.3080  0.1256  0.3782
 6475SOL    HW120324   2.054   4.947   6.135 -1.3344  0.3954  0.5572
 6475SOL    HW220325   2.062   5.002   6.289  0.5534 -0.0630  0.6452
 6476SOL     OW20326   2.594   3.410   0.430  0.5562 -0.3083 -0.0325
 6476SOL    HW120327   2.691   3.397   0.451  0.4264  0.2046  0.9388
 6476SOL    HW220328   2.557   3.485   0.486 -0.5350 -0.8502  0.0053
 6477SOL     OW20329   6.255   1.777   0.084 -0.3932 -0.3685 -0.1938
 6477SOL    HW120330   6.169   1.828   0.085 -0.0650  0.1904 -0.0624
 6477SOL    HW220331   6.313   1.810   0.009  0.7640  1.0651  1.2692
 6478SOL     OW20332   0.592   6.000   5.041  0.2274 -0.3746 -0.0846
 6478SOL    HW120333   0.549   6.006   4.951 -1.3917  0.4241  0.7174
 6478SOL    HW220334   0.687   6.033   5.034 -0.7325  2.4810 -0.9557
 6479SOL     OW20335   3.089   3.019   2.413  0.1746 -0.4070  0.7519
 6479SOL    HW120336   3.089   3.045   2.317 -1.3719 -1.5533  0.3913
 6479SOL    HW220337   3.030   3.081   2.464 -0.3740 -0.8231  0.6299
 6480SOL     OW20338   6.889   0.920   2.107  0.3040 -0.3567 -0.1702
 6480SOL    HW120339   6.946   0.964   2.038 -2.5338  2.1332 -1.1613
 6480SOL    HW220340   6.890   0.974   2.191 -1.3799  0.3901 -0.5891
 6481SOL     OW20341   6.956   4.636   6.048  0.1346  0.5970  0.0190
 6481SOL    HW120342   6.950   4.687   5.962  1.3770 -2.2828 -1.9167
 6481SOL    HW220343   6.948   4.538   6.030  2.0788 -0.2474  2.9703
 6482SOL     OW20344   1.325   3.326   2.014 -0.2903 -0.8284 -0.0061
 6482SOL    HW120345   1.372   3.248   1.974  1.5861  0.0534  0.3427
 6482SOL    HW220346   1.341   3.407   1.957 -0.9883 -0.3986  0.3937
 6483SOL     OW20347   4.913   5.006   3.577 -0.1817 -0.4075 -0.9161
 6483SOL    HW120348   4.917   4.937   3.504  0.3278 -1.0683 -0.2834
 6483SOL    HW220349   4.906   4.960   3.666  1.6986  0.2765 -0.3442
 6484SOL     OW20350   3.367   0.059   2.061  0.6054  0.7860  0.2555
 6484SOL    HW120351   3.319  -0.021   2.023  1.6048  0.5485 -0.5557
 6484SOL    HW220352   3.402   0.116   1.986  1.1069  1.2405  0.8259
 6485SOL     OW20353   3.754   2.819   5.331 -0.0705 -0.2819  0.5088
 6485SOL    HW120354   3.798   2.843   5.417 -1.5018 -1.9218  1.7784
 6485SOL    HW220355   3.659   2.850   5.333 -0.3771 -1.1424 -0.0939
 6486SOL     OW20356   5.757   3.832   4.777  0.0858 -0.9851 -0.5148
 6486SOL    HW120357   5.843   3.880   4.792 -0.2572 -0.3643 -0.5399
 6486SOL    HW220358   5.683   3.877   4.827 -0.3007 -1.2872 -0.7978
 6487SOL     OW20359   5.520   5.542   2.201 -0.5776  0.1992 -0.1666
 6487SOL    HW120360   5.536   5.582   2.291 -2.8470  1.3071 -0.1774
 6487SOL    HW220361   5.549   5.446   2.201 -0.9329  0.0497  1.8823
 6488SOL     OW20362   3.405   6.737   6.954  0.3675 -0.1314 -0.3092
 6488SOL    HW120363   3.329   6.728   6.890  1.8646 -1.1305 -2.0278
 6488SOL    HW220364   3.481   6.785   6.910  0.9589  0.3655  1.1833
 6489SOL     OW20365   4.562   1.349   6.509 -0.3545 -0.1034 -0.3999
 6489SOL    HW120366   4.574   1.273   6.573 -4.4987  0.0411  0.8793
 6489SOL    HW220367   4.578   1.317   6.416 -1.4560 -2.4782  0.1502
 6490SOL     OW20368   1.860   4.034   0.830 -0.1299 -0.0935 -0.1986
 6490SOL    HW120369   1.868   4.124   0.873  0.1986  0.8071 -2.0548
 6490SOL    HW220370   1.951   3.997   0.812 -0.2313  0.2180 -1.4265
 6491SOL     OW20371   6.299   6.519   5.159 -0.2621  1.1352  0.1198
 6491SOL    HW120372   6.309   6.525   5.059 -1.1541  0.7466  0.0054
 6491SOL    HW220373   6.237   6.591   5.190  1.9786  2.9356  0.7251
 6492SOL     OW20374   2.092   0.348   0.994 -0.0929  0.6040 -0.2401
 6492SOL    HW120375   2.127   0.321   1.083 -1.2843 -0.2791 -0.0183
 6492SOL    HW220376   2.167   0.385   0.939  0.6834  1.0675  1.0723
 6493SOL     OW20377   1.578   5.621   3.734 -0.6969  0.0956  0.1123
 6493SOL    HW120378   1.577   5.585   3.641  2.0475 -2.5450  0.9335
 6493SOL    HW220379   1.488   5.658   3.757 -2.3822 -2.0440 -2.5054
 6494SOL     OW20380   1.838   3.272   0.964 -0.7605 -0.0739 -0.2595
 6494SOL    HW120381   1.820   3.180   0.928  0.7277 -0.2607 -0.5985
 6494SOL    HW220382   1.897   3.322   0.900  2.9436 -0.8067  2.2783
 6495SOL     OW20383   6.188   1.449   2.977 -0.2298 -0.2892 -0.1046
 6495SOL    HW120384   6.149   1.380   2.915  0.5693 -2.5905  1.7842
 6495SOL    HW220385   6.269   1.490   2.936 -0.1071 -1.2796 -0.8830
 6496SOL     OW20386   0.744   4.507   3.785  0.1880 -0.3348 -0.7617
 6496SOL    HW120387   0.695   4.494   3.699 -1.9784 -0.7515  0.4666
 6496SOL    HW220388   0.681   4.541   3.854  1.9923  0.4531  0.5602
 6497SOL     OW20389   1.126   6.026   5.651 -0.4158 -0.6601 -0.0086
 6497SOL    HW120390   1.060   6.007   5.578 -0.1065 -2.0472  0.0503
 6497SOL    HW220391   1.214   5.986   5.627 -0.1070 -0.4690  0.7901
 6498SOL     OW20392   5.343   6.759   4.645 -0.1375 -0.6493  0.6252
 6498SOL    HW120393   5.291   6.711   4.575  1.0394 -1.3571  0.2174
 6498SOL    HW220394   5.353   6.855   4.620  0.4435 -0.9387 -0.2960
 6499SOL     OW20395   2.706   5.556   5.972  0.3435 -0.3226  0.3593
 6499SOL    HW120396   2.739   5.588   5.884 -0.1377 -0.9952 -0.0700
 6499SOL    HW220397   2.784   5.536   6.031  0.6657  0.1475  0.0984
 6500SOL     OW20398   0.101   3.139   6.307 -0.2621  0.3529  0.2284
 6500SOL    HW120399   0.005   3.157   6.330 -0.7321 -0.6583 -0.8422
 6500SOL    HW220400   0.119   3.041   6.312  0.5128  0.4570 -0.3121
 6501SOL     OW20401   1.347   2.429   6.102 -0.2045  0.1204  0.7898
 6501SOL    HW120402   1.311   2.376   6.178 -0.7254  1.3022  1.3948
 6501SOL    HW220403   1.273   2.448   6.037  0.2857 -1.0914 -0.1705
 6502SOL     OW20404   2.594   5.471   2.145  0.2008  0.2524  0.4692
 6502SOL    HW120405   2.550   5.511   2.065  1.1363  1.8762  0.7244
 6502SOL    HW220406   2.528   5.418   2.197 -1.2861  2.0955  0.5205
 6503SOL     OW20407   6.846   2.668   1.137  0.0191 -0.3263 -0.3316
 6503SOL    HW120408   6.796   2.693   1.054 -0.9644  0.0809  0.3658
 6503SOL    HW220409   6.944   2.671   1.119 -0.1759 -0.0760 -1.4264
 6504SOL     OW20410   1.110   3.070   4.102  0.1695 -0.1651 -0.3974
 6504SOL    HW120411   1.094   3.126   4.021  2.6018 -0.3337 -1.0728
 6504SOL    HW220412   1.058   2.984   4.095 -1.5521  0.8512 -0.5637
 6505SOL     OW20413   0.753   2.367   1.282 -0.3106  0.1001 -0.3097
 6505SOL    HW120414   0.741   2.306   1.204 -0.1307  0.6249 -0.7532
 6505SOL    HW220415   0.669   2.367   1.338 -0.8130  0.4872 -1.0511
 6506SOL     OW20416   4.984   6.736   4.314 -0.2884 -0.8770 -0.4969
 6506SOL    HW120417   4.888   6.762   4.317  0.0135  0.3209 -0.7134
 6506SOL    HW220418   5.004   6.695   4.225 -0.9708 -2.7633  0.1715
 6507SOL     OW20419   3.276   0.753   0.924 -0.2313 -0.4292 -0.2503
 6507SOL    HW120420   3.205   0.697   0.882 -0.1582 -1.6727  1.1978
 6507SOL    HW220421   3.360   0.700   0.932 -0.1087 -0.0804  1.0064
 6508SOL     OW20422   1.759   1.350   4.982  0.6785  0.0391 -0.0514
 6508SOL    HW120423   1.747   1.359   5.080  0.6870 -2.2783  0.2331
 6508SOL    HW220424   1.672   1.324   4.939  1.0138 -0.5463 -0.3989
 6509SOL     OW20425   2.858   6.659   1.638  0.2637  0.5080  0.0103
 6509SOL    HW120426   2.945   6.690   1.598  1.1860 -1.9033 -0.0413
 6509SOL    HW220427   2.836   6.569   1.601 -0.0284 -0.8494  3.2046
 6510SOL     OW20428   3.556   0.602   2.123  0.1450  0.2407  0.0262
 6510SOL    HW120429   3.612   0.519   2.113  0.9424  0.6175  1.1177
 6510SOL    HW220430   3.608   0.670   2.175 -0.5723  1.3605 -0.7032
 6511SOL     OW20431   1.350   4.765   5.616 -0.4199 -0.1316  0.5417
 6511SOL    HW120432   1.287   4.841   5.605 -0.0748 -0.0716 -1.2842
 6511SOL    HW220433   1.419   4.768   5.544 -0.5335 -2.3083  0.2689
 6512SOL     OW20434   4.487   0.055   0.485 -0.1283  0.0045 -0.4771
 6512SOL    HW120435   4.498   0.149   0.516  1.7771 -0.1813 -0.4979
 6512SOL    HW220436   4.407   0.049   0.424 -0.2116  1.6184 -0.5519
 6513SOL     OW20437   2.726   5.551   4.926  0.2054  0.0091  0.4130
 6513SOL    HW120438   2.691   5.554   4.832  0.0028 -1.3070  0.4226
 6513SOL    HW220439   2.714   5.640   4.969  1.4751  1.0275 -1.2137
 6514SOL     OW20440   0.498   5.271   6.217  0.0753  0.4586  0.3491
 6514SOL    HW120441   0.459   5.269   6.125  0.5148  1.7885  0.1235
 6514SOL    HW220442   0.564   5.196   6.226  0.3182  0.5456 -0.5492
 6515SOL     OW20443   3.010   2.448   0.198  0.2409  0.0382 -0.5524
 6515SOL    HW120444   3.025   2.415   0.105 -0.0879 -0.8954 -0.2861
 6515SOL    HW220445   3.095   2.438   0.251  0.5394  0.9327 -0.8524
 6516SOL     OW20446   1.170   3.013   5.007 -0.2036  0.0918 -0.1078
 6516SOL    HW120447   1.071   3.003   4.997 -0.3582 -0.6607  1.6922
 6516SOL    HW220448   1.213   3.008   4.917 -1.7404 -0.2688 -0.8674
 6517SOL     OW20449   3.052   5.382   3.263  0.2582 -0.1403 -0.3849
 6517SOL    HW120450   3.041   5.481   3.253  0.1766 -0.0896  0.1773
 6517SOL    HW220451   3.042   5.357   3.359 -1.4819 -0.8957 -0.7183
 6518SOL     OW20452   6.393   4.494   3.695  0.3348 -0.4917  0.2463
 6518SOL    HW120453   6.399   4.394   3.696 -1.5484 -0.6542 -0.1195
 6518SOL    HW220454   6.415   4.527   3.603  0.9564 -0.5572  0.3666
 6519SOL     OW20455   0.670   3.184   4.646 -0.3568  0.2319 -0.7937
 6519SOL    HW120456   0.651   3.264   4.703  1.4795  1.8070 -2.2622
 6519SOL    HW220457   0.586   3.158   4.596 -1.4313  0.0821  1.0163
 6520SOL     OW20458   3.301   4.092   4.955  0.3606 -0.7939 -0.5517
 6520SOL    HW120459   3.378   4.156   4.952  0.1842 -0.5427  0.2395
 6520SOL    HW220460   3.234   4.123   5.022 -1.2588 -0.0903 -2.3858
 6521SOL     OW20461   4.853   6.012   0.542  0.0644  0.4717  0.0739
 6521SOL    HW120462   4.813   6.037   0.454 -0.9038  1.1581  0.6846
 6521SOL    HW220463   4.865   6.094   0.598 -0.9785 -0.1255  1.2379
 6522SOL     OW20464   3.022   4.016   0.163  0.1471 -0.1559 -0.8794
 6522SOL    HW120465   3.076   4.063   0.233  0.2116  1.3788 -1.9014
 6522SOL    HW220466   2.936   3.985   0.203  0.3932  0.2613  0.0047
 6523SOL     OW20467   6.263   0.691   1.197 -0.4978 -0.1814  0.2591
 6523SOL    HW120468   6.262   0.591   1.199  1.0113 -0.2089  0.2590
 6523SOL    HW220469   6.273   0.723   1.103 -1.2306 -0.0107  0.2300
 6524SOL     OW20470   4.557   0.334   3.568 -0.4009  0.3529  0.3353
 6524SOL    HW120471   4.588   0.290   3.653 -0.5217 -0.5971 -0.0927
 6524SOL    HW220472   4.633   0.382   3.526  0.1748 -0.7869  0.0162
 6525SOL     OW20473   1.250   5.663   2.869 -0.1229 -0.3378 -0.2220
 6525SOL    HW120474   1.268   5.609   2.951  0.6878 -0.1993 -0.3033
 6525SOL    HW220475   1.153   5.657   2.846 -0.1951 -1.0749  0.2461
 6526SOL     OW20476   4.980   2.436   0.783 -0.0385 -0.4647 -0.3863
 6526SOL    HW120477   5.046   2.486   0.837 -0.0042 -0.5721 -0.3276
 6526SOL    HW220478   5.022   2.406   0.697 -0.8334  2.0266 -1.7496
 6527SOL     OW20479   3.444   4.814   5.207  0.3387  0.4733 -0.3027
 6527SOL    HW120480   3.442   4.877   5.285 -0.2846  1.6017 -1.2005
 6527SOL    HW220481   3.454   4.720   5.240 -0.4579  0.8806  1.1549
 6528SOL     OW20482   2.192   4.710   0.729 -0.2574 -0.5452 -0.4598
 6528SOL    HW120483   2.288   4.735   0.736 -0.2104 -1.0282  0.8436
 6528SOL    HW220484   2.172   4.635   0.791 -1.4486 -0.5589 -0.8293
 6529SOL     OW20485   3.703   6.075   6.977  0.4894  0.0104  0.2359
 6529SOL    HW120486   3.620   6.130   6.967  1.0108  0.9876  1.1961
 6529SOL    HW220487   3.696   5.995   6.917  0.5610  2.1019 -2.8002
 6530SOL     OW20488   3.434   6.428   5.031  0.1643 -0.3525 -0.5184
 6530SOL    HW120489   3.453   6.399   4.938 -0.5104 -0.0128 -0.7672
 6530SOL    HW220490   3.395   6.351   5.083  2.3581 -1.1467  0.0809
 6531SOL     OW20491   0.805   3.150   1.924  0.1367  0.0883 -0.4080
 6531SOL    HW120492   0.819   3.102   2.011 -1.1254  0.6384  0.1373
 6531SOL    HW220493   0.883   3.209   1.906 -0.2366  1.1682  1.2071
 6532SOL     OW20494   2.667   3.331   5.416 -0.5831 -0.7512 -0.2343
 6532SOL    HW120495   2.577   3.316   5.458 -0.0079  1.0133  1.8076
 6532SOL    HW220496   2.735   3.348   5.487  0.6660  1.4646 -1.8189
 6533SOL     OW20497   1.395   4.805   6.815  0.1867  0.2945 -0.6557
 6533SOL    HW120498   1.451   4.767   6.741 -1.5194 -0.2907 -1.6902
 6533SOL    HW220499   1.320   4.742   6.836 -0.6979  1.5273 -0.0191
 6534SOL     OW20500   3.749   2.417   1.424 -0.1326  0.2429  0.4123
 6534SOL    HW120501   3.838   2.419   1.468 -0.9992  0.1793  2.2320
 6534SOL    HW220502   3.757   2.455   1.331  1.8418 -0.1888  0.3643
 6535SOL     OW20503   0.574   5.918   5.797 -0.4893  0.9327  0.2467
 6535SOL    HW120504   0.495   5.966   5.759 -0.6860  1.5835  1.4174
 6535SOL    HW220505   0.553   5.821   5.808 -0.0514  0.4776 -2.2598
 6536SOL     OW20506   6.498   6.240   5.895 -0.1178 -0.4136 -0.1933
 6536SOL    HW120507   6.589   6.277   5.915 -0.1960 -0.1654 -0.2912
 6536SOL    HW220508   6.495   6.209   5.800 -0.1764 -0.2970 -0.2299
 6537SOL     OW20509   6.531   1.214   0.439 -0.3965 -0.1974 -0.7458
 6537SOL    HW120510   6.446   1.267   0.446 -0.4127 -0.2338 -0.6734
 6537SOL    HW220511   6.534   1.145   0.511  0.0128  0.2527 -0.3306
 6538SOL     OW20512   0.535   2.776   4.177  0.0403  0.1562 -0.0587
 6538SOL    HW120513   0.605   2.835   4.217  0.2906 -0.0718 -0.1571
 6538SOL    HW220514   0.468   2.832   4.129  1.1942  0.2880 -1.6143
 6539SOL     OW20515   6.558   5.185   6.299  0.5449 -0.1346 -0.3949
 6539SOL    HW120516   6.598   5.097   6.325  1.3615  0.5561  0.7486
 6539SOL    HW220517   6.464   5.171   6.268 -0.0120 -1.1933  1.6208
 6540SOL     OW20518   6.476   6.263   5.587 -0.0569  0.1396  0.0235
 6540SOL    HW120519   6.479   6.352   5.544  1.2301 -0.3721 -0.9968
 6540SOL    HW220520   6.382   6.244   5.619  0.0094  2.5958  1.9549
 6541SOL     OW20521   2.760   1.731   4.582 -0.3803  0.1199 -0.0229
 6541SOL    HW120522   2.834   1.796   4.564 -1.9619  1.0935 -4.2271
 6541SOL    HW220523   2.704   1.763   4.658 -0.0725  2.7963 -0.8358
 6542SOL     OW20524   3.117   1.974   0.001 -0.2140 -0.0125 -0.6140
 6542SOL    HW120525   3.033   2.018   0.033 -0.7581  0.2756 -2.3033
 6542SOL    HW220526   3.195   2.033   0.021 -0.3174 -0.4850  1.3754
 6543SOL     OW20527   5.243   2.844   1.273 -0.6423  0.0095  0.1815
 6543SOL    HW120528   5.227   2.938   1.302 -0.6546  0.1459 -0.2651
 6543SOL    HW220529   5.238   2.783   1.353 -2.8843  0.1032  0.1834
 6544SOL     OW20530   5.172   0.271   0.569  0.0412 -0.7203 -0.0567
 6544SOL    HW120531   5.244   0.256   0.636  0.3593 -1.2191 -0.5101
 6544SOL    HW220532   5.083   0.255   0.611  0.2884 -2.0903 -0.0397
 6545SOL     OW20533   6.605   5.465   5.966  0.4983  0.0510  0.2356
 6545SOL    HW120534   6.604   5.552   5.918  1.5636 -1.0861 -2.0273
 6545SOL    HW220535   6.654   5.397   5.911  0.6287 -1.7313  2.3778
 6546SOL     OW20536   0.565   2.914   6.913 -0.7387 -0.3837 -0.2753
 6546SOL    HW120537   0.571   2.977   6.991 -1.2253 -0.8594  0.1596
 6546SOL    HW220538   0.653   2.909   6.866 -0.7088  0.6699 -0.3598
 6547SOL     OW20539   2.053   0.038   6.601  0.1863 -0.7040  0.0261
 6547SOL    HW120540   2.086   0.001   6.514  0.8277  0.0299 -0.0479
 6547SOL    HW220541   2.030  -0.038   6.662 -0.4914 -1.2260 -0.8545
 6548SOL     OW20542   4.683   1.905   4.540  0.1577 -0.0911  0.2003
 6548SOL    HW120543   4.586   1.908   4.515  0.0675 -0.4041  0.5062
 6548SOL    HW220544   4.710   1.811   4.558  0.7901 -0.1374 -0.9105
 6549SOL     OW20545   1.314   6.387   1.823 -0.2577 -0.2653  0.3291
 6549SOL    HW120546   1.321   6.455   1.896 -0.8976 -0.3107  0.4383
 6549SOL    HW220547   1.314   6.433   1.734 -2.0038  0.0118  0.4323
 6550SOL     OW20548   3.181   4.987   6.338  0.0150  0.1812  0.2557
 6550SOL    HW120549   3.216   4.899   6.370  0.7127  0.5825  0.6169
 6550SOL    HW220550   3.138   4.975   6.248  2.0006 -0.1845 -0.7206
 6551SOL     OW20551   6.487   0.935   0.578  0.2729 -0.5616  0.2660
 6551SOL    HW120552   6.573   0.911   0.533 -0.5886 -1.6874 -0.8616
 6551SOL    HW220553   6.502   0.948   0.676  1.6194 -1.2736  0.1658
 6552SOL     OW20554   4.598   0.618   5.333  0.1597  0.4190 -0.7211
 6552SOL    HW120555   4.628   0.642   5.426  1.6242 -0.8733 -0.8187
 6552SOL    HW220556   4.667   0.648   5.267  0.1170 -0.4515 -1.1844
 6553SOL     OW20557   6.922   4.384   0.578 -0.3466  0.1600 -0.2561
 6553SOL    HW120558   7.003   4.395   0.635 -1.3742 -0.5901  1.4350
 6553SOL    HW220559   6.945   4.328   0.498  1.4650  2.3935 -1.4195
 6554SOL     OW20560   2.962   1.670   0.092 -0.1877 -0.0516 -0.5005
 6554SOL    HW120561   3.047   1.636   0.131 -0.3124  0.8020  0.5482
 6554SOL    HW220562   2.982   1.716   0.005  0.4203  0.1507 -0.2589
 6555SOL     OW20563   1.692   6.676   5.773 -0.0770 -0.0787  0.3306
 6555SOL    HW120564   1.599   6.646   5.754  0.2947 -0.3040 -1.2632
 6555SOL    HW220565   1.739   6.606   5.827 -0.8732  0.1244  1.3119
 6556SOL     OW20566   3.870   5.807   2.530  0.0470  0.2882  0.0480
 6556SOL    HW120567   3.776   5.800   2.495 -0.0881  1.0402  0.2578
 6556SOL    HW220568   3.869   5.814   2.629  0.4144 -1.3713  0.2121
 6557SOL     OW20569   2.324   0.990   6.852  0.5217  0.0219  0.1394
 6557SOL    HW120570   2.309   0.935   6.770  3.1048 -2.4543  1.1571
 6557SOL    HW220571   2.236   1.021   6.889 -1.1500 -3.5069 -0.5000
 6558SOL     OW20572   6.273   2.405   2.127 -0.0908 -0.0994  0.6283
 6558SOL    HW120573   6.296   2.373   2.035  1.8664  1.0922  0.6387
 6558SOL    HW220574   6.234   2.330   2.180 -0.0758 -1.1372 -0.7724
 6559SOL     OW20575   1.498   3.795   3.358  0.4508 -0.4086  0.0779
 6559SOL    HW120576   1.407   3.778   3.320  1.1848 -1.5183 -1.2591
 6559SOL    HW220577   1.490   3.815   3.455 -1.2747  0.1308 -0.1403
 6560SOL     OW20578   1.950   2.112   0.330 -0.0227  0.2098 -0.3176
 6560SOL    HW120579   1.988   2.094   0.420  0.3538 -0.3165 -0.5753
 6560SOL    HW220580   1.936   2.210   0.318 -0.2948  0.2591  0.3959
 6561SOL     OW20581   3.149   3.139   3.775 -0.6125 -0.0018 -0.1124
 6561SOL    HW120582   3.190   3.188   3.698 -0.8734  0.9326  0.3239
 6561SOL    HW220583   3.199   3.053   3.791  0.3904  0.5124 -0.3757
 6562SOL     OW20584   4.680   3.238   0.773 -1.1319  0.0095 -0.2665
 6562SOL    HW120585   4.663   3.336   0.785 -1.9906 -0.0609 -0.8422
 6562SOL    HW220586   4.778   3.220   0.782 -0.7497  1.1632 -1.6846
 6563SOL     OW20587   5.071   1.719   0.390  0.2286 -0.3894  0.2367
 6563SOL    HW120588   5.025   1.808   0.402 -1.5227 -1.4313  1.9500
 6563SOL    HW220589   5.086   1.702   0.293 -0.6534  1.1904 -0.2202
 6564SOL     OW20590   0.230   2.313   6.809 -0.1448  0.0294  0.0748
 6564SOL    HW120591   0.257   2.252   6.735  0.0444  2.7505 -2.2723
 6564SOL    HW220592   0.309   2.366   6.839 -0.8415  1.1074  0.0577
 6565SOL     OW20593   5.042   1.576   5.977 -0.4888 -0.2714 -0.3462
 6565SOL    HW120594   5.124   1.631   5.987 -0.1458 -0.6371 -1.0614
 6565SOL    HW220595   4.968   1.633   5.942  0.0650 -0.3966 -1.7907
 6566SOL     OW20596   4.617   2.386   3.067  0.1169  0.5275  0.2792
 6566SOL    HW120597   4.648   2.319   3.000  1.5403  3.1054 -1.7731
 6566SOL    HW220598   4.526   2.419   3.042 -0.0769  0.2586  0.6134
 6567SOL     OW20599   3.367   2.910   1.280 -0.0502 -0.0538  0.0512
 6567SOL    HW120600   3.317   2.879   1.361  1.6721 -0.2021  1.1096
 6567SOL    HW220601   3.455   2.949   1.308 -0.1114  1.4286 -1.6331
 6568SOL     OW20602   0.333   6.285   4.991  0.4309  0.1589 -1.0857
 6568SOL    HW120603   0.405   6.296   4.922 -0.8803  0.6985 -2.4227
 6568SOL    HW220604   0.286   6.198   4.977 -0.7054  0.8563 -1.7492
 6569SOL     OW20605   2.258   5.273   1.477 -0.6146 -0.4935  0.4161
 6569SOL    HW120606   2.174   5.224   1.502  0.6852 -1.1999  4.1472
 6569SOL    HW220607   2.274   5.347   1.543  0.8598  0.7239 -1.2252
 6570SOL     OW20608   2.307   5.611   0.791 -0.5776 -0.3204  0.3955
 6570SOL    HW120609   2.404   5.608   0.818 -0.3007  0.7040 -0.4004
 6570SOL    HW220610   2.296   5.566   0.702 -0.6011  0.6484 -0.1035
 6571SOL     OW20611   0.414   6.831   6.622 -0.1679  0.3728 -0.1748
 6571SOL    HW120612   0.341   6.900   6.629 -0.6436 -0.2235  0.8218
 6571SOL    HW220613   0.376   6.747   6.582  0.3752  0.6179 -1.2395
 6572SOL     OW20614   2.672   5.605   5.676 -0.1800 -0.7998  0.0561
 6572SOL    HW120615   2.673   5.700   5.706 -4.0823 -0.5288 -0.2133
 6572SOL    HW220616   2.708   5.599   5.583 -0.6304  0.5697 -0.2275
 6573SOL     OW20617   2.454   6.758   2.412  0.2857  0.2394 -0.3255
 6573SOL    HW120618   2.399   6.732   2.333 -0.4837 -1.2760  0.6621
 6573SOL    HW220619   2.402   6.820   2.470  0.8595  1.3709 -0.9874
 6574SOL     OW20620   3.393   3.812   3.990 -0.1408 -0.6109 -0.1944
 6574SOL    HW120621   3.430   3.845   3.903 -1.2318  1.1136 -0.0686
 6574SOL    HW220622   3.453   3.841   4.064  0.3226 -1.2954 -0.3008
 6575SOL     OW20623   5.341   0.948   0.463  0.2929  0.0675  0.8532
 6575SOL    HW120624   5.411   1.013   0.435  0.9092  0.3160  2.8444
 6575SOL    HW220625   5.251   0.983   0.438  0.6345  1.5921  1.6633
 6576SOL     OW20626   2.013   5.034   3.342  0.6373 -0.2523  0.1256
 6576SOL    HW120627   2.036   5.127   3.312 -1.9882 -0.4290 -2.9613
 6576SOL    HW220628   2.076   4.969   3.298  2.9272 -0.0598  2.8262
 6577SOL     OW20629   1.851   2.161   5.539 -0.0681 -0.2875  0.4329
 6577SOL    HW120630   1.877   2.250   5.576 -2.8741  1.1142 -0.6052
 6577SOL    HW220631   1.806   2.107   5.610 -1.4356  0.5783  0.2669
 6578SOL     OW20632   3.205   1.606   2.143 -0.0124 -0.4196  0.0096
 6578SOL    HW120633   3.212   1.630   2.047  0.0398  0.9869  0.3358
 6578SOL    HW220634   3.282   1.548   2.169  0.3393 -0.2551 -0.6450
 6579SOL     OW20635   2.116   3.888   5.606 -0.3324 -0.0714 -0.0414
 6579SOL    HW120636   2.147   3.983   5.593 -1.9299  0.6980  1.3763
 6579SOL    HW220637   2.195   3.827   5.604  0.5911  1.0594 -2.5731
 6580SOL     OW20638   2.227   4.154   3.511  0.3116  0.0214  0.0629
 6580SOL    HW120639   2.265   4.129   3.600 -1.4336 -0.4069  0.7291
 6580SOL    HW220640   2.135   4.116   3.502 -0.0237  1.0895 -1.4312
 6581SOL     OW20641   3.751   1.196   1.911  0.2644 -0.4553  0.1536
 6581SOL    HW120642   3.750   1.263   1.837  0.1466  0.7327  1.2101
 6581SOL    HW220643   3.757   1.104   1.872  0.3186  0.1482 -1.3213
 6582SOL     OW20644   5.485   4.986   3.674 -0.6653 -0.2318 -0.2654
 6582SOL    HW120645   5.417   4.913   3.688 -0.4329 -0.5061 -0.5429
 6582SOL    HW220646   5.440   5.075   3.680 -0.7887 -0.3553  1.0336
 6583SOL     OW20647   2.291   6.714   5.090  0.1502 -0.3964 -0.5421
 6583SOL    HW120648   2.250   6.635   5.135 -1.9071  0.4674 -0.7496
 6583SOL    HW220649   2.246   6.797   5.122 -0.0900  0.3942 -2.7684
 6584SOL     OW20650   5.344   1.405   2.011 -0.0069 -0.2518 -0.2892
 6584SOL    HW120651   5.257   1.455   2.014 -0.1159 -0.4815  1.0097
 6584SOL    HW220652   5.385   1.403   2.103  2.0063  0.9330 -1.0999
 6585SOL     OW20653   0.356   1.507   3.894 -0.1916 -0.0093 -0.0716
 6585SOL    HW120654   0.374   1.604   3.879 -0.5203  0.7382  3.5127
 6585SOL    HW220655   0.258   1.491   3.893 -0.1561 -0.2295 -0.1328
 6586SOL     OW20656   5.961   6.558   3.293  0.0339 -0.1489 -0.2215
 6586SOL    HW120657   5.884   6.514   3.339 -0.4312 -0.0529 -0.8877
 6586SOL    HW220658   5.964   6.655   3.318 -0.0373 -0.1642 -0.1565
 6587SOL     OW20659   2.953   1.015   2.152 -0.3203  0.2371  1.3654
 6587SOL    HW120660   3.043   1.057   2.140  0.0941 -0.8691  0.3806
 6587SOL    HW220661   2.960   0.943   2.221  0.5651 -2.4266 -1.2429
 6588SOL     OW20662   2.386   6.263   0.114  0.1103 -0.2249  0.0855
 6588SOL    HW120663   2.481   6.233   0.127 -0.3274 -1.0002  1.8733
 6588SOL    HW220664   2.347   6.287   0.203 -1.4115 -0.0297 -0.6074
 6589SOL     OW20665   3.224   4.193   0.300  0.1033  0.0987 -0.1367
 6589SOL    HW120666   3.210   4.160   0.394 -0.0012  0.3826 -0.0502
 6589SOL    HW220667   3.241   4.291   0.302  0.1929  0.0888 -0.4092
 6590SOL     OW20668   3.862   3.786   2.545 -0.3229 -0.2736  0.4227
 6590SOL    HW120669   3.814   3.825   2.466 -1.3263 -0.6859  0.8144
 6590SOL    HW220670   3.931   3.720   2.513 -0.6620 -0.3705 -0.1165
 6591SOL     OW20671   6.521   5.535   2.834  0.3140 -0.0104 -0.1113
 6591SOL    HW120672   6.432   5.575   2.856 -0.9224 -1.8759 -1.4021
 6591SOL    HW220673   6.574   5.601   2.780  0.1570  1.4785  1.4578
 6592SOL     OW20674   0.156   1.996   3.822  0.4158  0.4672 -0.2445
 6592SOL    HW120675   0.112   1.925   3.876  1.0070  0.3650  0.1093
 6592SOL    HW220676   0.213   2.053   3.881  0.2025  1.0343 -0.5784
 6593SOL     OW20677   3.026   5.443   4.505 -0.0911 -0.4413 -0.1718
 6593SOL    HW120678   3.066   5.365   4.553 -0.4173 -0.2543  0.4163
 6593SOL    HW220679   3.096   5.490   4.451  0.9675  1.0053  2.2955
 6594SOL     OW20680   1.542   6.204   4.423 -0.3681 -0.3108  0.0315
 6594SOL    HW120681   1.472   6.133   4.413 -0.3865 -0.4288  0.9042
 6594SOL    HW220682   1.629   6.162   4.450  0.0758 -0.1722 -1.1346
 6595SOL     OW20683   4.620   4.283   2.871  0.1963  0.1802  0.7708
 6595SOL    HW120684   4.664   4.205   2.916 -0.7572 -0.8890 -0.0976
 6595SOL    HW220685   4.604   4.355   2.939  1.2557 -0.2866  1.5511
 6596SOL     OW20686   2.155   2.497   4.310  0.6502  0.1031  0.2687
 6596SOL    HW120687   2.124   2.418   4.362  2.2993 -0.2782  0.7214
 6596SOL    HW220688   2.113   2.580   4.346 -1.5930 -0.5830 -0.6138
 6597SOL     OW20689   6.301   3.740   2.339 -0.2974 -0.0712  0.1051
 6597SOL    HW120690   6.368   3.702   2.276 -0.0517  0.9770 -0.2972
 6597SOL    HW220691   6.256   3.819   2.296 -1.1668 -0.2216  0.6999
 6598SOL     OW20692   2.732   1.399   1.790 -0.3081  0.2935  0.4463
 6598SOL    HW120693   2.774   1.396   1.881  0.7623 -0.4983 -0.0463
 6598SOL    HW220694   2.644   1.351   1.792  1.1335 -2.6125  0.4108
 6599SOL     OW20695   5.965   3.272   0.589 -0.1019  0.2065  0.0731
 6599SOL    HW120696   5.918   3.339   0.531 -0.6460  0.8559  1.2472
 6599SOL    HW220697   6.064   3.287   0.583 -0.0633 -0.4483 -1.5325
 6600SOL     OW20698   0.026   0.070   6.764  0.1086 -0.2990  0.5643
 6600SOL    HW120699   0.123   0.093   6.771  0.5105 -1.7456 -0.0379
 6600SOL    HW220700  -0.007   0.038   6.853  0.8942 -2.3792  0.1531
 6601SOL     OW20701   6.093   3.815   0.770 -0.5314 -0.1659  0.0396
 6601SOL    HW120702   6.058   3.858   0.687  2.3947  1.9706 -0.2425
 6601SOL    HW220703   6.035   3.838   0.847  0.0895  3.2697 -0.3705
 6602SOL     OW20704   4.626   3.699   0.479  0.9174  0.8843  0.0711
 6602SOL    HW120705   4.725   3.685   0.474  1.0294  1.7039 -0.1802
 6602SOL    HW220706   4.604   3.792   0.452 -0.0090  0.4522 -0.7373
 6603SOL     OW20707   4.889   6.216   0.716 -0.2859 -0.1001 -0.3134
 6603SOL    HW120708   4.848   6.302   0.685 -2.1267 -0.6705  0.3957
 6603SOL    HW220709   4.826   6.170   0.779  0.4615 -2.1598 -0.9725
 6604SOL     OW20710   0.958   5.700   5.842 -0.6065  0.2596  0.0699
 6604SOL    HW120711   0.873   5.683   5.792 -0.1869  0.2386 -0.6437
 6604SOL    HW220712   0.944   5.677   5.939 -1.7818  1.4341  0.2089
 6605SOL     OW20713   0.236   5.734   0.914 -0.1436  0.3220  0.5084
 6605SOL    HW120714   0.281   5.729   1.003 -1.8011  0.6359  1.3999
 6605SOL    HW220715   0.204   5.827   0.898  0.7799  0.4490 -0.7765
 6606SOL     OW20716   4.690   3.199   6.233  0.4859  0.0407 -0.1671
 6606SOL    HW120717   4.739   3.265   6.290  0.8956  0.6716 -1.2323
 6606SOL    HW220718   4.756   3.148   6.178 -0.0539  1.8522 -2.6522
 6607SOL     OW20719   3.512   1.085   5.556  0.2023 -0.3846 -0.3310
 6607SOL    HW120720   3.580   1.033   5.503 -0.7640 -3.0846  0.8767
 6607SOL    HW220721   3.420   1.057   5.529 -0.3709  0.7021  0.4240
 6608SOL     OW20722   1.089   4.931   0.047  0.1777  0.6194 -0.0940
 6608SOL    HW120723   1.075   5.029   0.036  0.1686  0.8090  1.3959
 6608SOL    HW220724   1.001   4.886   0.063  0.2878  0.5186  0.2389
 6609SOL     OW20725   1.348   5.475   0.912  0.3823  0.1160  0.1699
 6609SOL    HW120726   1.416   5.514   0.851 -1.0863  1.8552 -0.4204
 6609SOL    HW220727   1.360   5.375   0.915  3.3734  0.4001  0.6795
 6610SOL     OW20728   2.831   2.245   3.734 -0.1143 -0.0616 -0.2184
 6610SOL    HW120729   2.871   2.228   3.825 -1.2291 -0.8495  0.1437
 6610SOL    HW220730   2.764   2.174   3.714 -1.2112  1.1375 -0.8939
 6611SOL     OW20731   4.790   4.469   5.644  0.0850  0.2478 -0.7742
 6611SOL    HW120732   4.696   4.436   5.632  0.4343 -0.7272 -0.9680
 6611SOL    HW220733   4.848   4.392   5.669  0.5165  1.1281  1.1788
 6612SOL     OW20734   3.358   6.027   4.109  0.3723  0.0374 -0.0318
 6612SOL    HW120735   3.414   6.063   4.183  3.7971  1.2395 -2.8801
 6612SOL    HW220736   3.355   5.927   4.114  1.7104  0.0195  0.9985
 6613SOL     OW20737   5.411   6.926   1.065 -0.1849 -0.1369 -0.1594
 6613SOL    HW120738   5.376   6.846   1.113 -0.6065 -1.7669 -3.0022
 6613SOL    HW220739   5.389   6.920   0.968  2.0639  2.1753 -0.9280
 6614SOL     OW20740   3.430   4.919   0.969  0.0695 -0.0684 -0.7334
 6614SOL    HW120741   3.391   4.934   0.878  0.4983  0.7811 -0.7882
 6614SOL    HW220742   3.494   4.842   0.965 -0.7172 -0.7283 -0.8970
 6615SOL     OW20743   5.455   5.102   0.851 -0.0980  0.7662  0.3522
 6615SOL    HW120744   5.522   5.146   0.791 -0.3413  1.9963  0.9685
 6615SOL    HW220745   5.363   5.120   0.817 -0.3220  2.6912  1.8337
 6616SOL     OW20746   0.070   5.133   0.860 -0.3405 -0.0392 -0.2278
 6616SOL    HW120747   0.072   5.225   0.901  0.2535 -0.6873  1.2729
 6616SOL    HW220748   0.015   5.072   0.917  1.3156 -1.2088  0.2096
 6617SOL     OW20749   0.631   5.659   6.206  0.4943 -0.3818 -0.1979
 6617SOL    HW120750   0.635   5.668   6.306  2.3207 -0.5302 -0.2243
 6617SOL    HW220751   0.541   5.627   6.179 -1.1067  2.5215  1.1637
 6618SOL     OW20752   2.259   0.261   2.888  0.2505  0.4174 -0.0564
 6618SOL    HW120753   2.229   0.354   2.911 -1.9651 -0.7123  2.1502
 6618SOL    HW220754   2.346   0.242   2.934  1.2397  1.6399 -1.3155
 6619SOL     OW20755   1.190   4.680   0.920 -0.1819 -0.1549 -0.1126
 6619SOL    HW120756   1.126   4.609   0.891  0.9551 -1.6324  0.8123
 6619SOL    HW220757   1.283   4.644   0.915  0.5154  1.6241 -0.5435
 6620SOL     OW20758   5.936   4.174   0.643  0.2068 -0.4727  0.1316
 6620SOL    HW120759   5.847   4.209   0.615  0.1710 -0.5036  0.2068
 6620SOL    HW220760   5.924   4.088   0.693  0.3941 -1.3902 -1.3340
 6621SOL     OW20761   1.498   1.965   6.140 -0.7452 -0.1515  0.1311
 6621SOL    HW120762   1.412   1.936   6.096  0.3280 -1.2596 -1.3218
 6621SOL    HW220763   1.568   1.981   6.070 -0.1867  2.3791  1.1753
 6622SOL     OW20764   6.243   4.617   6.969  0.3751  0.1314  0.4116
 6622SOL    HW120765   6.311   4.548   6.943 -0.9301  0.0885 -3.5281
 6622SOL    HW220766   6.282   4.708   6.956  0.2592  0.1194 -0.0121
 6623SOL     OW20767   1.159   2.660   3.344  0.1222 -0.8183  0.0483
 6623SOL    HW120768   1.232   2.643   3.411 -0.0079 -0.1646  0.3677
 6623SOL    HW220769   1.189   2.631   3.253  1.1915  0.3872 -0.0114
 6624SOL     OW20770   5.461   6.676   3.982 -0.7467 -0.1799 -0.4998
 6624SOL    HW120771   5.439   6.613   4.056  1.5911 -0.0952  0.3524
 6624SOL    HW220772   5.549   6.652   3.941 -1.9034 -0.1486 -3.2469
 6625SOL     OW20773   6.730   5.604   6.777  0.0286  0.0096  0.2407
 6625SOL    HW120774   6.826   5.587   6.755 -0.1869 -1.3497  0.2642
 6625SOL    HW220775   6.672   5.538   6.728 -0.9751  1.3751 -0.4807
 6626SOL     OW20776   1.143   5.416   1.348  0.7888 -0.2457  0.1030
 6626SOL    HW120777   1.057   5.464   1.333  0.5492 -0.5554  0.4586
 6626SOL    HW220778   1.164   5.417   1.446  0.0831 -2.0436  0.3041
 6627SOL     OW20779   1.315   2.171   4.237  0.0139 -0.5382 -0.5858
 6627SOL    HW120780   1.411   2.172   4.266 -0.6135 -1.3791  1.7621
 6627SOL    HW220781   1.293   2.082   4.197  0.0794 -0.5373 -0.6237
 6628SOL     OW20782   1.767   2.066   1.712  0.5985 -0.1238 -0.0761
 6628SOL    HW120783   1.845   2.040   1.769  2.4765  1.3693 -1.8129
 6628SOL    HW220784   1.762   2.004   1.633  0.9684  0.6781 -0.7382
 6629SOL     OW20785   6.596   4.827   3.506  0.2291 -0.6302  0.1189
 6629SOL    HW120786   6.688   4.790   3.494  0.7768 -0.2615  2.5810
 6629SOL    HW220787   6.563   4.864   3.419  2.7284 -0.0076 -0.6477
 6630SOL     OW20788   0.273   2.062   2.077  0.1613 -0.2933 -0.1440
 6630SOL    HW120789   0.324   2.143   2.106  0.0290 -0.3558  0.2713
 6630SOL    HW220790   0.327   2.012   2.009  0.6514 -0.3580  0.2867
 6631SOL     OW20791   3.121   6.136   0.425 -0.3846  0.9258 -0.4728
 6631SOL    HW120792   3.052   6.076   0.466 -0.4292  0.4826 -1.1758
 6631SOL    HW220793   3.211   6.092   0.433  0.2086  2.3726  2.2657
 6632SOL     OW20794   3.771   4.106   3.219 -0.0828  0.6648  0.7749
 6632SOL    HW120795   3.732   4.193   3.189 -1.0797  0.5138  1.5612
 6632SOL    HW220796   3.790   4.049   3.139  1.9799  2.1361  0.1360
 6633SOL     OW20797   1.302   6.999   2.243 -0.4049 -0.1665 -0.0688
 6633SOL    HW120798   1.256   7.049   2.170  0.0824 -0.0945 -0.3306
 6633SOL    HW220799   1.338   7.064   2.310  0.0136 -0.1736 -0.2822
 6634SOL     OW20800   5.766   3.159   5.102  0.1595 -0.4249 -0.0419
 6634SOL    HW120801   5.707   3.078   5.105  0.0639 -0.4027 -1.1446
 6634SOL    HW220802   5.856   3.135   5.139 -0.5452 -0.4190  1.8016
 6635SOL     OW20803   4.943   2.171   0.896  0.1518 -0.5288  0.0558
 6635SOL    HW120804   4.983   2.106   0.831  1.1895 -0.2089  0.3567
 6635SOL    HW220805   4.934   2.261   0.852 -0.1968 -0.5867  0.0057
 6636SOL     OW20806   2.139   3.690   4.693 -0.2398 -0.2666 -0.1354
 6636SOL    HW120807   2.066   3.748   4.730 -0.8884 -0.6595 -0.7713
 6636SOL    HW220808   2.162   3.620   4.760 -0.4857 -0.1758  0.0471
 6637SOL     OW20809   4.201   3.081   5.392  0.0865  0.1596 -0.1657
 6637SOL    HW120810   4.157   2.997   5.359  0.0828 -0.5224  1.4908
 6637SOL    HW220811   4.172   3.099   5.486 -1.0280  2.8089 -0.9048
 6638SOL     OW20812   5.765   6.253   3.084  0.0993 -0.1563  0.3962
 6638SOL    HW120813   5.707   6.309   3.142  1.9343  1.6871  0.5773
 6638SOL    HW220814   5.856   6.294   3.078  0.6580 -1.5325 -1.9315
 6639SOL     OW20815   0.765   6.874   6.872 -0.4140 -0.0143  0.2906
 6639SOL    HW120816   0.850   6.923   6.854 -0.4124 -0.2993 -0.5557
 6639SOL    HW220817   0.783   6.794   6.930 -0.4112  0.9380  1.6372
 6640SOL     OW20818   5.515   5.736   1.973 -0.6965  0.2094  0.5495
 6640SOL    HW120819   5.514   5.829   2.009  1.1575  0.5018 -0.0194
 6640SOL    HW220820   5.499   5.670   2.047 -0.2857  0.9176  1.2731
 6641SOL     OW20821   4.576   6.037   5.181 -0.4168 -0.7289 -0.0379
 6641SOL    HW120822   4.525   6.120   5.158 -0.8820 -0.4923  1.6680
 6641SOL    HW220823   4.583   6.029   5.280  2.4910 -1.0119 -0.1752
 6642SOL     OW20824   1.860   6.052   0.434 -0.2579 -0.5178  0.9147
 6642SOL    HW120825   1.845   5.969   0.381 -0.9405 -0.0559  0.3668
 6642SOL    HW220826   1.958   6.073   0.437 -0.2855  0.3032 -1.5361
 6643SOL     OW20827   4.692   0.976   3.973  0.0930 -0.2628 -0.2944
 6643SOL    HW120828   4.703   1.011   4.065  2.0311  0.8233 -0.8790
 6643SOL    HW220829   4.651   1.046   3.915 -0.0712 -0.5343 -0.5083
 6644SOL     OW20830   5.475   5.250   6.754  0.0513 -0.1726  0.0852
 6644SOL    HW120831   5.563   5.203   6.758 -0.4711 -1.3279 -1.2540
 6644SOL    HW220832   5.459   5.283   6.661 -1.0818 -0.3027  0.2193
 6645SOL     OW20833   0.683   3.055   1.089  0.4748 -0.7702  0.5127
 6645SOL    HW120834   0.760   3.087   1.144 -0.7854 -0.1311  2.0154
 6645SOL    HW220835   0.599   3.097   1.123 -0.5757 -1.5856 -0.9519
 6646SOL     OW20836   2.240   5.809   6.626 -0.0210 -0.5577 -0.0957
 6646SOL    HW120837   2.275   5.791   6.534  0.9000 -1.5776  0.4356
 6646SOL    HW220838   2.256   5.730   6.684  1.0957  0.7282  1.4404
 6647SOL     OW20839   2.323   4.752   4.384  0.6670  0.2564 -0.5150
 6647SOL    HW120840   2.382   4.816   4.432 -1.6712  0.5751  2.1463
 6647SOL    HW220841   2.302   4.675   4.444 -0.1119 -0.8200 -2.0999
 6648SOL     OW20842   1.112   4.359   4.583  0.3359  0.0092  0.1008
 6648SOL    HW120843   1.200   4.388   4.545  0.2207  0.0042 -0.1701
 6648SOL    HW220844   1.128   4.306   4.666  0.5336  1.2336  0.8774
 6649SOL     OW20845   6.995   2.580   4.947  0.4539  0.6899  0.5261
 6649SOL    HW120846   7.079   2.603   4.996 -0.3440 -1.0403  2.8320
 6649SOL    HW220847   6.916   2.590   5.008 -0.7608 -0.1663 -0.8292
 6650SOL     OW20848   5.626   2.105   3.562  0.3355  0.3498  0.1008
 6650SOL    HW120849   5.575   2.023   3.534  2.0525 -0.0123 -2.2859
 6650SOL    HW220850   5.683   2.136   3.486  3.0604  1.2008  2.3458
 6651SOL     OW20851   5.017   2.282   2.889 -0.0302 -0.1269 -0.0747
 6651SOL    HW120852   5.078   2.298   2.811 -0.0957 -2.3539 -0.6439
 6651SOL    HW220853   5.070   2.279   2.973  0.2243  0.9146 -0.1857
 6652SOL     OW20854   2.911   0.597   3.169  0.3315 -0.7498 -0.4470
 6652SOL    HW120855   2.925   0.687   3.210  1.9077 -0.4305 -1.5916
 6652SOL    HW220856   2.840   0.548   3.220 -3.3582  2.4688 -1.9581
 6653SOL     OW20857   5.582   2.962   2.129  0.4919 -0.6240  0.1571
 6653SOL    HW120858   5.499   2.925   2.089 -0.3546 -0.6623  1.8399
 6653SOL    HW220859   5.637   2.887   2.167  0.8542 -0.5228 -0.1689
 6654SOL     OW20860   5.967   0.449   1.596 -0.1770  0.5740  0.3517
 6654SOL    HW120861   6.034   0.380   1.623 -0.4631 -0.4700 -1.4654
 6654SOL    HW220862   5.882   0.435   1.647 -0.1402 -0.2646  0.1984
 6655SOL     OW20863   6.589   4.139   2.757  0.0307  0.1900  0.6923
 6655SOL    HW120864   6.563   4.235   2.760 -2.9097 -0.5320  3.0195
 6655SOL    HW220865   6.671   4.125   2.813  0.5066  1.3109  0.3071
 6656SOL     OW20866   4.335   0.928   2.240  0.0306 -0.2154  0.4237
 6656SOL    HW120867   4.397   0.856   2.272 -0.2028  0.2900  2.0791
 6656SOL    HW220868   4.365   1.016   2.275  0.5142  0.6151 -1.8799
 6657SOL     OW20869   4.984   1.984   0.436 -0.0020 -0.2860 -0.2593
 6657SOL    HW120870   4.999   2.062   0.375  0.9612  0.2165  0.5886
 6657SOL    HW220871   4.898   1.996   0.486 -1.2384 -1.1066 -2.0696
 6658SOL     OW20872   3.753   4.777   5.805  0.0657  0.5853  0.0174
 6658SOL    HW120873   3.737   4.680   5.787  2.4693  0.2328 -0.5199
 6658SOL    HW220874   3.798   4.818   5.726 -1.0290  2.1972  0.1882
 6659SOL     OW20875   0.875   2.509   3.684 -0.2316 -0.4246  0.1354
 6659SOL    HW120876   0.797   2.565   3.658  0.7441  1.0629  0.2900
 6659SOL    HW220877   0.880   2.429   3.624 -1.5101 -0.2283 -0.2576
 6660SOL     OW20878   2.043   4.343   3.091  0.9486 -0.1726 -0.9964
 6660SOL    HW120879   2.119   4.283   3.115  1.1268  0.2556 -0.4867
 6660SOL    HW220880   1.969   4.288   3.050  0.6416 -0.9134  0.4803
 6661SOL     OW20881   4.176   1.779   1.071 -0.5810 -0.1559  1.1487
 6661SOL    HW120882   4.149   1.702   1.128  1.6877 -1.3347  0.7423
 6661SOL    HW220883   4.276   1.786   1.069 -0.7000  2.3845  0.6008
 6662SOL     OW20884   2.661   3.658   5.652 -0.1618  0.6651 -0.7531
 6662SOL    HW120885   2.756   3.638   5.631 -0.0370  0.8538 -0.3749
 6662SOL    HW220886   2.603   3.583   5.619  0.3715 -0.8319  1.4867
 6663SOL     OW20887   3.209   5.551   5.460  0.3939  0.1172  0.1049
 6663SOL    HW120888   3.153   5.488   5.405 -1.0508  1.1892  0.2785
 6663SOL    HW220889   3.280   5.591   5.402  0.4141 -0.5884 -0.3673
 6664SOL     OW20890   1.289   3.704   4.387  0.8358 -0.3215 -0.0013
 6664SOL    HW120891   1.343   3.633   4.343 -0.5512 -1.2277 -0.2963
 6664SOL    HW220892   1.192   3.688   4.370  0.4618  1.3471  0.3883
 6665SOL     OW20893   1.375   3.884   3.597  0.6400  0.4357  0.8829
 6665SOL    HW120894   1.367   3.973   3.552 -2.6087 -0.6939 -1.1338
 6665SOL    HW220895   1.305   3.875   3.667 -0.4383 -1.1962 -0.3282
 6666SOL     OW20896   3.425   2.013   2.024 -0.3313 -0.4207 -0.0807
 6666SOL    HW120897   3.449   2.079   1.953 -0.0294  2.1947  2.2899
 6666SOL    HW220898   3.501   1.951   2.040  1.1978  1.5418  0.6387
 6667SOL     OW20899   6.362   4.898   6.259  0.4978 -0.5167  0.6116
 6667SOL    HW120900   6.295   4.973   6.257  1.4847  0.3938  0.5789
 6667SOL    HW220901   6.369   4.863   6.352  1.8407  1.1708  1.2119
 6668SOL     OW20902   2.778   2.058   1.949  0.5770 -0.2656 -0.4234
 6668SOL    HW120903   2.807   2.016   2.035  0.8060 -0.1432 -0.4422
 6668SOL    HW220904   2.839   2.133   1.925 -0.0659  0.3315 -0.1959
 6669SOL     OW20905   2.435   4.391   2.587 -0.4316 -0.3147 -0.5644
 6669SOL    HW120906   2.475   4.312   2.542  1.8686  0.7832 -0.5803
 6669SOL    HW220907   2.378   4.441   2.521 -1.0607 -1.3665 -0.8392
 6670SOL     OW20908   6.056   6.241   1.309 -0.1689 -0.2213  0.4465
 6670SOL    HW120909   6.027   6.187   1.387  0.1303 -1.0945 -0.0345
 6670SOL    HW220910   6.150   6.217   1.284 -0.0301  0.5182  0.2249
 6671SOL     OW20911   1.511   6.653   4.331 -0.1314  0.5516  0.0523
 6671SOL    HW120912   1.576   6.591   4.376  0.4289  0.6779 -0.5528
 6671SOL    HW220913   1.497   6.734   4.388 -0.6285  0.0181  0.7050
 6672SOL     OW20914   0.047   0.630   6.427  0.0181 -0.0261  0.3927
 6672SOL    HW120915   0.118   0.639   6.497 -0.4122  0.2152  0.8027
 6672SOL    HW220916  -0.042   0.616   6.471 -0.2991  0.3980 -0.0964
 6673SOL     OW20917   6.368   6.764   0.420  0.8163 -0.7902  0.0843
 6673SOL    HW120918   6.351   6.857   0.387 -1.0984 -1.4387 -0.9209
 6673SOL    HW220919   6.304   6.743   0.494  2.4177 -0.7364  1.5337
 6674SOL     OW20920   3.051   5.253   5.438  0.3871 -0.1487  0.1025
 6674SOL    HW120921   3.090   5.188   5.373  0.5144  0.4985 -0.4798
 6674SOL    HW220922   3.096   5.242   5.527  2.4607  1.0387 -0.7122
 6675SOL     OW20923   2.595   5.331   1.023 -0.3233  0.5713  0.6017
 6675SOL    HW120924   2.568   5.374   1.109  0.5952 -2.1570  2.3869
 6675SOL    HW220925   2.547   5.244   1.012 -0.9812  1.1685 -2.0918
 6676SOL     OW20926   0.735   1.565   4.675 -0.4285 -0.4623 -0.2921
 6676SOL    HW120927   0.752   1.642   4.737  0.3121 -0.4521 -0.4957
 6676SOL    HW220928   0.639   1.563   4.651 -0.4483  0.4486 -0.3323
 6677SOL     OW20929   2.523   5.201   5.488 -0.4317  0.7311 -0.0887
 6677SOL    HW120930   2.478   5.153   5.413  0.0414  1.0159 -0.5555
 6677SOL    HW220931   2.468   5.281   5.515 -0.2365  1.0492 -0.6253
 6678SOL     OW20932   0.770   6.248   2.487  0.3132 -0.6316  0.2802
 6678SOL    HW120933   0.851   6.239   2.544 -1.1780 -1.2403  2.4558
 6678SOL    HW220934   0.775   6.333   2.435  1.9594 -0.2398  1.0143
 6679SOL     OW20935   3.373   3.559   1.204  0.4269 -0.0055 -0.4503
 6679SOL    HW120936   3.305   3.630   1.224  0.0342 -0.0538 -1.5714
 6679SOL    HW220937   3.340   3.471   1.237  0.5490  0.1899  0.2080
 6680SOL     OW20938   0.234   4.882   1.396  0.5297 -0.0317  0.4327
 6680SOL    HW120939   0.240   4.790   1.436 -1.0777 -0.6316 -0.6100
 6680SOL    HW220940   0.225   4.875   1.297  2.5959  1.3676  0.0839
 6681SOL     OW20941   1.725   0.186   3.198  0.3854 -0.1332  0.1184
 6681SOL    HW120942   1.652   0.240   3.155 -0.9360 -1.3219  0.7881
 6681SOL    HW220943   1.714   0.188   3.297  2.1821  0.8829  0.3317
 6682SOL     OW20944   3.667   2.488   0.057 -0.3278 -0.0505  0.3089
 6682SOL    HW120945   3.701   2.533   0.140 -1.1191  1.6628 -0.2382
 6682SOL    HW220946   3.683   2.548  -0.022 -0.4946 -1.2145 -0.6367
 6683SOL     OW20947   3.513   5.413   2.694  0.4507  0.5260  0.1710
 6683SOL    HW120948   3.608   5.413   2.664  0.4527 -0.7321  0.1516
 6683SOL    HW220949   3.462   5.481   2.641  1.8890  3.3524  2.1305
 6684SOL     OW20950   2.221   6.241   4.584  0.0386  0.3603  0.5263
 6684SOL    HW120951   2.149   6.275   4.524  0.8128 -1.1739 -1.3647
 6684SOL    HW220952   2.231   6.142   4.573  2.5372  0.5340  0.5474
 6685SOL     OW20953   6.052   0.660   4.055  0.2321  0.5835 -0.6170
 6685SOL    HW120954   6.029   0.606   3.974  1.2112 -1.3799  0.3539
 6685SOL    HW220955   5.972   0.666   4.115 -0.3620  1.6698 -1.4580
 6686SOL     OW20956   0.335   2.104   6.600  0.1250  0.4049  0.2174
 6686SOL    HW120957   0.367   2.020   6.557  1.8356  0.0867  1.9701
 6686SOL    HW220958   0.261   2.144   6.545 -0.2655 -1.8471 -1.0054
 6687SOL     OW20959   6.223   1.171   3.602  0.7820 -0.6656 -0.9886
 6687SOL    HW120960   6.157   1.240   3.573  0.7648 -0.3186 -0.1286
 6687SOL    HW220961   6.214   1.091   3.543 -1.2087 -1.1022 -0.1601
 6688SOL     OW20962   2.598   5.814   2.983 -0.4806 -0.0502  0.2008
 6688SOL    HW120963   2.518   5.759   2.958  1.0780 -2.0412 -0.5917
 6688SOL    HW220964   2.601   5.825   3.083 -0.3681 -2.1916  0.4719
 6689SOL     OW20965   5.816   0.610   5.849 -0.4599 -0.6170  0.3064
 6689SOL    HW120966   5.719   0.608   5.827 -0.2247  1.1965 -1.1813
 6689SOL    HW220967   5.844   0.704   5.868  1.6734 -0.4110 -2.9560
 6690SOL     OW20968   3.476   1.336   0.857 -0.1383  0.1187  0.4362
 6690SOL    HW120969   3.397   1.393   0.880 -0.3427  0.6088 -1.3184
 6690SOL    HW220970   3.546   1.348   0.927 -1.2918  0.2945  1.6054
 6691SOL     OW20971   6.921   2.548   6.282 -0.2466 -0.9002  0.2331
 6691SOL    HW120972   6.889   2.642   6.286  0.0778 -0.6238 -2.0005
 6691SOL    HW220973   6.918   2.507   6.373  1.4281  1.8491  1.6586
 6692SOL     OW20974   5.754   1.921   0.214 -1.1753  0.2856 -0.4128
 6692SOL    HW120975   5.753   1.956   0.121 -1.9746  1.5585  0.0417
 6692SOL    HW220976   5.745   1.822   0.213 -1.3197  0.2973 -1.6809
 6693SOL     OW20977   4.206   6.114   0.451  0.0899  0.5068  0.0886
 6693SOL    HW120978   4.179   6.207   0.476  0.7668  0.3235  1.5853
 6693SOL    HW220979   4.218   6.059   0.534 -0.6374 -1.0266 -0.7728
 6694SOL     OW20980   3.108   6.094   6.869  0.4754  0.3485  0.2167
 6694SOL    HW120981   3.137   6.164   6.805  0.9347 -1.0043 -1.1204
 6694SOL    HW220982   3.153   6.109   6.957  2.3472  0.4572 -0.7091
 6695SOL     OW20983   6.335   5.196   3.074  0.6617 -0.2980  0.4471
 6695SOL    HW120984   6.423   5.233   3.041 -0.0263  1.1268  0.1395
 6695SOL    HW220985   6.270   5.193   2.999  0.1629 -0.4845  0.8802
 6696SOL     OW20986   1.295   3.873   2.639  0.2166  0.2411 -0.0369
 6696SOL    HW120987   1.281   3.876   2.540 -1.0881 -0.3102  0.1110
 6696SOL    HW220988   1.206   3.873   2.685  0.7703 -0.7009  1.0919
 6697SOL     OW20989   4.489   2.092   0.112  0.7424 -0.4621  0.0678
 6697SOL    HW120990   4.494   2.149   0.030 -0.2923 -0.6431 -0.1424
 6697SOL    HW220991   4.580   2.056   0.134  0.8481 -1.4548 -1.7682
 6698SOL     OW20992   2.526   2.576   5.704  0.2613 -0.3836  0.6312
 6698SOL    HW120993   2.489   2.483   5.698 -0.5350 -0.0768  0.7418
 6698SOL    HW220994   2.481   2.626   5.777 -1.9865  1.2575 -1.6916
 6699SOL     OW20995   6.464   6.483   1.258  0.3472 -0.8288  0.4808
 6699SOL    HW120996   6.499   6.566   1.301 -2.8635  0.5604  0.6392
 6699SOL    HW220997   6.409   6.431   1.324 -0.7721 -1.1108 -0.6396
 6700SOL     OW20998   4.472   0.266   6.816 -0.0510 -0.2394 -0.3220
 6700SOL    HW120999   4.462   0.343   6.879  0.9674 -0.2516 -0.1312
 6700SOL    HW221000   4.481   0.181   6.869  1.1791 -0.2072 -0.4458
 6701SOL     OW21001   4.399   2.425   1.280  0.1324 -0.3303 -0.2271
 6701SOL    HW121002   4.352   2.371   1.210 -2.5399  0.7993  0.5783
 6701SOL    HW221003   4.404   2.521   1.251  0.8851 -0.2133  0.2507
 6702SOL     OW21004   3.974   2.560   1.341 -0.0176 -0.7043  0.2135
 6702SOL    HW121005   3.999   2.484   1.281  1.3171  0.4081 -0.7199
 6702SOL    HW221006   4.023   2.642   1.312 -2.4222  0.8801  0.3422
 6703SOL     OW21007   5.328   5.918   2.282 -0.3029 -0.4117 -0.4512
 6703SOL    HW121008   5.244   5.869   2.307 -0.3263 -0.6190 -0.9193
 6703SOL    HW221009   5.314   6.016   2.295 -0.4377 -0.4847 -0.0243
 6704SOL     OW21010   1.214   2.988   3.775  0.3315 -0.3016 -0.0155
 6704SOL    HW121011   1.239   2.967   3.680 -0.2481  1.8155 -0.6793
 6704SOL    HW221012   1.252   3.077   3.801 -1.8891  0.4819  0.7509
 6705SOL     OW21013   0.665   1.588   2.310  0.0264  0.0836 -0.0313
 6705SOL    HW121014   0.709   1.607   2.222  2.3905 -2.7922  0.3525
 6705SOL    HW221015   0.703   1.649   2.379 -1.1183  1.6824 -0.7438
 6706SOL     OW21016   3.733   0.183   0.882  0.0797 -0.2407  0.2430
 6706SOL    HW121017   3.638   0.204   0.907  0.2927  0.7332  0.2670
 6706SOL    HW221018   3.755   0.089   0.911 -1.1878 -0.8490 -0.6835
 6707SOL     OW21019   6.150   3.633   4.915  0.8418 -0.4136  0.3233
 6707SOL    HW121020   6.134   3.604   5.010 -0.6135 -0.4620  0.0864
 6707SOL    HW221021   6.069   3.612   4.860  1.8122 -0.7517 -1.0350
 6708SOL     OW21022   2.067   5.596   6.893  0.0841 -0.1276  0.4005
 6708SOL    HW121023   1.981   5.546   6.895 -0.7597  1.2303 -0.1665
 6708SOL    HW221024   2.106   5.600   6.985 -1.1685  0.3926  0.9333
 6709SOL     OW21025   2.903   1.085   2.663  0.0574  0.4030  1.0740
 6709SOL    HW121026   3.000   1.107   2.673  0.1346  1.8753 -1.9607
 6709SOL    HW221027   2.892   0.986   2.654  1.5959  0.3477 -0.8528
 6710SOL     OW21028   4.945   1.706   3.534 -0.0736  0.2236 -0.1097
 6710SOL    HW121029   4.938   1.623   3.590 -0.3596  1.5396  1.8869
 6710SOL    HW221030   4.860   1.719   3.483  0.0908 -0.8445 -0.6908
 6711SOL     OW21031   1.891   6.664   3.907  0.3185  0.3842 -0.4038
 6711SOL    HW121032   1.858   6.661   4.001 -1.2407  0.3579 -0.9237
 6711SOL    HW221033   1.918   6.572   3.878  0.2518  0.2899 -0.1626
 6712SOL     OW21034   6.028   1.616   3.108 -0.1405 -0.1471 -0.1537
 6712SOL    HW121035   5.939   1.573   3.089  0.0113 -0.6963  0.3707
 6712SOL    HW221036   6.101   1.559   3.071 -0.0393  0.9908 -1.8505
 6713SOL     OW21037   1.387   0.900   4.506 -0.3460 -0.1781 -0.6377
 6713SOL    HW121038   1.408   0.907   4.604  0.2566 -0.0722 -0.7718
 6713SOL    HW221039   1.395   0.804   4.478  1.4241  0.0479 -0.9996
 6714SOL     OW21040   1.419   6.171   3.305  0.6173 -0.1554 -0.8394
 6714SOL    HW121041   1.519   6.177   3.306  0.5761  0.4969  0.0934
 6714SOL    HW221042   1.387   6.129   3.390  0.1119 -0.7208 -1.3011
 6715SOL     OW21043   2.855   1.453   5.700 -0.4576 -0.0650  0.4401
 6715SOL    HW121044   2.869   1.543   5.660  1.7066  0.5255  2.3483
 6715SOL    HW221045   2.798   1.398   5.639 -0.5509  2.0476 -1.4935
 6716SOL     OW21046   6.072   0.981   6.670 -0.3428 -0.5659 -0.3239
 6716SOL    HW121047   6.089   0.931   6.584  1.2970  1.5571 -1.3304
 6716SOL    HW221048   5.992   1.040   6.659  0.1963  0.1241 -0.6213
 6717SOL     OW21049   6.483   4.884   3.259 -0.3501  0.3747 -0.4301
 6717SOL    HW121050   6.531   4.969   3.238 -0.2430  0.0868 -1.3877
 6717SOL    HW221051   6.384   4.896   3.247 -0.6299  1.1163  2.0354
 6718SOL     OW21052   2.666   3.499   6.070 -0.1247 -0.5868 -0.1015
 6718SOL    HW121053   2.619   3.498   5.982 -0.4102 -1.4750  0.0562
 6718SOL    HW221054   2.675   3.594   6.102  0.3505 -0.2230 -1.2697
 6719SOL     OW21055   5.033   0.823   4.185 -0.1920 -0.0790  0.0278
 6719SOL    HW121056   5.098   0.868   4.247  0.6268  0.9205 -1.4897
 6719SOL    HW221057   4.941   0.856   4.204  0.1498  0.7969  0.2073
 6720SOL     OW21058   5.734   6.468   3.417  0.3050 -0.8429 -0.5623
 6720SOL    HW121059   5.680   6.487   3.499  1.3446 -2.5344  0.5721
 6720SOL    HW221060   5.676   6.424   3.349 -0.1280 -1.1899  0.0186
 6721SOL     OW21061   6.706   5.103   3.618 -0.2917  0.4616  0.0128
 6721SOL    HW121062   6.694   5.147   3.707  2.2986 -2.6976  2.1447
 6721SOL    HW221063   6.644   5.025   3.610 -0.5561  0.7604 -1.0346
 6722SOL     OW21064   0.762   2.891   4.299  0.0383 -0.2608  0.4388
 6722SOL    HW121065   0.763   2.791   4.309 -2.0885 -0.2751  0.9772
 6722SOL    HW221066   0.812   2.932   4.375  0.4034 -0.8992  0.5512
 6723SOL     OW21067   0.092   5.518   3.868  0.2600 -0.0014 -0.1922
 6723SOL    HW121068   0.161   5.564   3.814  1.3434 -0.2712  0.9076
 6723SOL    HW221069   0.134   5.443   3.919 -0.6171  0.4762  1.3099
 6724SOL     OW21070   2.305   5.053   5.774  0.1455 -0.2214 -0.1577
 6724SOL    HW121071   2.322   5.103   5.858 -1.2351 -0.5569  0.3632
 6724SOL    HW221072   2.343   5.102   5.696  0.8467  0.4348  0.5924
 6725SOL     OW21073   1.050   1.803   6.673  0.4324 -0.3964 -0.2938
 6725SOL    HW121074   1.082   1.772   6.763  1.8080  1.9979  0.1192
 6725SOL    HW221075   1.128   1.835   6.619 -0.7498  1.6343 -0.9055
 6726SOL     OW21076   1.899   6.067   5.127 -0.2737  0.5330 -0.3173
 6726SOL    HW121077   1.923   6.136   5.196 -0.6751  0.3896 -0.0297
 6726SOL    HW221078   1.961   5.989   5.136 -0.9314  0.0942  0.5311
 6727SOL     OW21079   4.401   3.059   1.656 -0.4085  0.5637 -0.5875
 6727SOL    HW121080   4.474   3.043   1.723 -0.7554 -0.9326 -0.5378
 6727SOL    HW221081   4.406   3.154   1.623  1.4446  0.5459 -0.4550
 6728SOL     OW21082   6.677   1.638   0.192  0.1828 -0.3695  0.7238
 6728SOL    HW121083   6.767   1.664   0.156 -0.6691  1.4354 -0.2583
 6728SOL    HW221084   6.655   1.695   0.272 -1.9533  2.6871 -1.7875
 6729SOL     OW21085   2.325   2.931   6.612 -0.2569 -0.1430 -0.0536
 6729SOL    HW121086   2.285   3.023   6.614 -0.5737 -0.2688 -0.4628
 6729SOL    HW221087   2.410   2.931   6.664 -0.7060  0.1633  0.7112
 6730SOL     OW21088   5.812   4.953   3.298 -0.4040 -0.0738 -0.1229
 6730SOL    HW121089   5.757   4.870   3.311 -0.3249 -0.4283 -1.8141
 6730SOL    HW221090   5.751   5.030   3.281 -0.4447 -0.5585 -2.4961
 6731SOL     OW21091   6.717   5.371   6.230  0.0381 -0.1337  0.2461
 6731SOL    HW121092   6.659   5.299   6.268  1.9714 -1.2373  1.2777
 6731SOL    HW221093   6.684   5.395   6.139 -2.4299 -0.1731  1.0521
 6732SOL     OW21094   0.229   4.072   3.230 -0.0274  0.3238 -0.0583
 6732SOL    HW121095   0.228   4.080   3.330  0.2362 -0.8810  0.0604
 6732SOL    HW221096   0.323   4.062   3.199 -0.2006 -0.6586 -0.2900
 6733SOL     OW21097   3.017   6.149   0.187  0.0775 -0.2934  0.0656
 6733SOL    HW121098   3.026   6.144   0.286 -0.8595  0.5620  0.2186
 6733SOL    HW221099   2.946   6.085   0.156  1.6031 -1.8847 -0.2937
 6734SOL     OW21100   5.897   6.239   4.394 -0.0717 -0.6367  0.1509
 6734SOL    HW121101   5.902   6.225   4.493 -0.6401  0.9038  0.4321
 6734SOL    HW221102   5.970   6.187   4.349 -0.8513 -2.7711  1.1835
 6735SOL     OW21103   4.086   5.271   6.262  0.2083 -0.6400  0.3825
 6735SOL    HW121104   4.134   5.286   6.176  0.4000 -0.2561  0.5580
 6735SOL    HW221105   4.149   5.283   6.339 -0.0158 -0.7607  0.5900
 6736SOL     OW21106   5.093   5.219   3.438  0.1174  0.1993  0.1811
 6736SOL    HW121107   5.180   5.202   3.391  0.6750  0.0003  1.2479
 6736SOL    HW221108   5.111   5.234   3.535 -1.3521 -3.7038  1.2206
 6737SOL     OW21109   5.827   0.012   0.133 -0.1984  0.3124 -0.2127
 6737SOL    HW121110   5.863   0.020   0.226  0.0671 -0.3112 -0.2548
 6737SOL    HW221111   5.744  -0.044   0.134  0.2292 -0.3333 -0.4498
 6738SOL     OW21112   2.346   0.162   2.242 -0.2537  1.1030  0.3099
 6738SOL    HW121113   2.275   0.224   2.275  1.0296  2.4878  0.6153
 6738SOL    HW221114   2.420   0.216   2.201  0.8480 -0.2410  0.4587
 6739SOL     OW21115   4.514   5.094   5.974  0.2340 -0.5617 -0.2307
 6739SOL    HW121116   4.432   5.054   5.934 -0.4314 -1.9636  2.3398
 6739SOL    HW221117   4.527   5.059   6.067  2.5339  1.3241  0.2643
 6740SOL     OW21118   5.043   6.598   3.482  0.0409  0.3232 -0.6292
 6740SOL    HW121119   5.003   6.556   3.400 -0.3997 -0.4329 -0.0432
 6740SOL    HW221120   5.133   6.635   3.460 -0.1345  0.2655 -1.4911
 6741SOL     OW21121   1.230   3.698   3.323 -0.1153  0.8049  0.4120
 6741SOL    HW121122   1.172   3.728   3.398  1.5961  0.9012  1.7534
 6741SOL    HW221123   1.182   3.713   3.236 -1.3526  2.5831  1.3315
 6742SOL     OW21124   5.162   6.386   4.573  0.4821  0.4348 -0.0177
 6742SOL    HW121125   5.131   6.292   4.559  0.4155  0.4435  0.0663
 6742SOL    HW221126   5.192   6.398   4.668 -0.1301  0.6726  0.1507
 6743SOL     OW21127   4.397   2.424   4.061 -0.1583  0.3506  0.3592
 6743SOL    HW121128   4.448   2.509   4.076 -0.7527  1.1428 -1.7383
 6743SOL    HW221129   4.442   2.349   4.110  0.7905  1.7158  1.6702
 6744SOL     OW21130   2.601   3.263   1.757 -0.3619  0.5406  0.3391
 6744SOL    HW121131   2.699   3.274   1.744 -0.0162 -0.1575  2.0627
 6744SOL    HW221132   2.582   3.246   1.854 -1.9468 -1.8538 -0.3193
 6745SOL     OW21133   3.976   0.356   0.689  0.0666 -0.3478 -0.3339
 6745SOL    HW121134   3.936   0.331   0.777  1.0029  0.8779  0.4662
 6745SOL    HW221135   4.042   0.286   0.662 -1.0211 -1.2986 -0.6403
 6746SOL     OW21136   5.553   3.346   6.113 -0.2344  0.0021 -0.0209
 6746SOL    HW121137   5.518   3.352   6.019  0.7514  0.3755 -0.3765
 6746SOL    HW221138   5.532   3.431   6.161 -2.1661 -0.7898  0.6323
 6747SOL     OW21139   5.411   5.972   4.159 -0.2238  0.0031  0.8751
 6747SOL    HW121140   5.501   5.941   4.190 -0.1315 -0.1403  0.4654
 6747SOL    HW221141   5.341   5.910   4.194  0.0194 -1.1363 -0.5514
 6748SOL     OW21142   0.012   4.817   0.702 -0.2417  0.5517  0.5536
 6748SOL    HW121143  -0.054   4.773   0.641 -0.2072 -0.9020  1.5125
 6748SOL    HW221144   0.094   4.841   0.651 -1.3152  2.0364 -0.5712
 6749SOL     OW21145   1.394   1.964   6.577  0.0829  0.1157 -0.0435
 6749SOL    HW121146   1.488   1.997   6.585  0.2205 -0.0647 -0.8474
 6749SOL    HW221147   1.386   1.874   6.618  0.2203  0.1983  0.1649
 6750SOL     OW21148   5.711   0.509   5.002  0.2996 -0.3398 -0.0455
 6750SOL    HW121149   5.750   0.446   4.934 -0.1819  0.0697 -0.7112
 6750SOL    HW221150   5.612   0.513   4.990  0.5136  2.2567 -1.5138
 6751SOL     OW21151   2.243   2.874   2.575  0.6615 -0.2118 -0.5314
 6751SOL    HW121152   2.221   2.954   2.630  1.3567  0.3683 -1.0710
 6751SOL    HW221153   2.206   2.885   2.482  0.5822 -0.6043 -0.5485
 6752SOL     OW21154   0.096   4.026   4.578  0.0003  0.1095 -0.3812
 6752SOL    HW121155   0.095   3.964   4.500 -1.0411 -0.0887 -0.2273
 6752SOL    HW221156   0.087   4.120   4.546  2.0760  0.2691 -0.6512
 6753SOL     OW21157   2.191   3.537   5.448 -0.6063  0.2219 -0.0990
 6753SOL    HW121158   2.267   3.473   5.456 -2.0672 -1.6719 -0.6560
 6753SOL    HW221159   2.226   3.630   5.434  1.5699 -0.4359  0.6716
 6754SOL     OW21160   6.643   2.081   1.754  0.1875 -0.0710 -0.0977
 6754SOL    HW121161   6.551   2.043   1.748 -0.3079  1.2787 -1.4413
 6754SOL    HW221162   6.646   2.171   1.710  2.5313 -0.8013 -1.6463
 6755SOL     OW21163   4.724   5.595   6.425  0.1804 -0.2039 -0.0295
 6755SOL    HW121164   4.631   5.563   6.443 -0.2737  0.4200 -1.1690
 6755SOL    HW221165   4.777   5.521   6.384  0.3842 -0.7451  1.1599
 6756SOL     OW21166   5.642   4.542   6.541 -0.6053 -0.5321  0.0419
 6756SOL    HW121167   5.607   4.452   6.515  1.1838 -0.6243 -2.3152
 6756SOL    HW221168   5.664   4.594   6.459 -2.3376  2.4412  1.3205
 6757SOL     OW21169   0.004   0.261   5.170  0.2755  0.2609  0.4087
 6757SOL    HW121170  -0.084   0.254   5.218 -0.6776  1.5195 -1.0703
 6757SOL    HW221171   0.004   0.342   5.112  2.1106 -0.1860 -0.2771
 6758SOL     OW21172   4.496   2.223   5.165 -0.0231  0.6090 -0.3259
 6758SOL    HW121173   4.577   2.190   5.117 -0.9983 -1.4407 -0.6110
 6758SOL    HW221174   4.472   2.314   5.130  0.0553 -0.2527 -2.7713
 6759SOL     OW21175   5.175   5.590   3.859 -0.6661 -0.0233  0.0131
 6759SOL    HW121176   5.187   5.590   3.959 -0.9359  0.7513  0.0531
 6759SOL    HW221177   5.221   5.669   3.820 -0.6604 -0.2639 -0.4648
 6760SOL     OW21178   4.657   2.794   5.133  0.0427  0.3138 -0.1626
 6760SOL    HW121179   4.644   2.813   5.036 -1.6566  1.0775  0.1729
 6760SOL    HW221180   4.611   2.709   5.157  2.2017 -0.9919 -0.3814
 6761SOL     OW21181   4.368   0.658   2.504  0.0358  0.2999  0.3433
 6761SOL    HW121182   4.358   0.582   2.568 -0.2390  1.3669  1.6102
 6761SOL    HW221183   4.448   0.643   2.446  0.1065 -0.8440  0.7220
 6762SOL     OW21184   0.089   5.171   6.817 -0.1111  0.0185 -0.0584
 6762SOL    HW121185   0.137   5.188   6.731 -0.6525  1.6592 -0.0684
 6762SOL    HW221186   0.081   5.072   6.832  1.8083 -0.2917 -0.8428
 6763SOL     OW21187   0.803   1.672   2.874  0.3594  0.0144 -0.7033
 6763SOL    HW121188   0.888   1.707   2.914  0.4781 -0.0440 -0.9031
 6763SOL    HW221189   0.823   1.590   2.821 -0.1187 -1.1886  0.9049
 6764SOL     OW21190   5.739   5.441   5.295  0.1590  0.3285 -0.3100
 6764SOL    HW121191   5.684   5.397   5.224  0.0670  1.1387 -0.7530
 6764SOL    HW221192   5.709   5.409   5.385 -1.5303  1.2609 -0.4945
 6765SOL     OW21193   4.108   3.419   4.269 -0.0140  0.3812 -0.2444
 6765SOL    HW121194   4.135   3.406   4.365 -0.4108  1.1712 -0.0165
 6765SOL    HW221195   4.042   3.348   4.243 -0.2194  0.4061  0.1938
 6766SOL     OW21196   1.855   0.585   1.394 -0.6054  0.6149 -0.1759
 6766SOL    HW121197   1.910   0.665   1.417 -0.4642  0.7617 -1.0140
 6766SOL    HW221198   1.886   0.546   1.307 -0.7459 -0.2813  0.1602
 6767SOL     OW21199   3.488   6.513   6.062  0.9261  0.6379 -0.8631
 6767SOL    HW121200   3.567   6.514   6.001  0.3334 -1.4259 -1.7591
 6767SOL    HW221201   3.478   6.422   6.103 -0.7350  0.9600 -0.4459
 6768SOL     OW21202   2.178   4.349   0.184  0.1704 -0.1360  0.1398
 6768SOL    HW121203   2.099   4.337   0.244 -0.1807 -1.6664 -0.6097
 6768SOL    HW221204   2.226   4.262   0.173 -0.1171 -0.0438 -2.2694
 6769SOL     OW21205   2.322   3.868   1.019 -0.0798 -0.1471  0.1894
 6769SOL    HW121206   2.266   3.799   1.064 -0.8355 -0.0374 -0.5701
 6769SOL    HW221207   2.310   3.956   1.064 -1.0179  0.0140 -0.3659
 6770SOL     OW21208   1.225   0.749   5.329  0.1783 -0.4765 -0.6522
 6770SOL    HW121209   1.291   0.816   5.294  1.5657  0.0010  2.5594
 6770SOL    HW221210   1.272   0.685   5.390 -2.3237  0.1591  2.1728
 6771SOL     OW21211   3.354   2.120   5.153 -0.7763 -0.8011 -0.3101
 6771SOL    HW121212   3.302   2.206   5.155 -2.6535 -1.9120  1.2601
 6771SOL    HW221213   3.372   2.095   5.057 -1.3029  0.6938 -0.8298
 6772SOL     OW21214   1.322   6.529   1.101  0.2157 -0.1171  0.2991
 6772SOL    HW121215   1.243   6.477   1.133 -0.3042 -0.1881 -1.0067
 6772SOL    HW221216   1.369   6.571   1.178 -2.7892  2.3776  0.9916
 6773SOL     OW21217   1.407   3.950   1.743  0.5116  0.2935  0.0108
 6773SOL    HW121218   1.315   3.927   1.773  0.9593 -0.1645  1.0573
 6773SOL    HW221219   1.425   3.906   1.654 -0.3499  0.5846 -0.3178
 6774SOL     OW21220   6.560   0.415   3.494 -0.2324  0.1401 -0.3525
 6774SOL    HW121221   6.522   0.507   3.499  0.7732  0.5633 -0.2211
 6774SOL    HW221222   6.566   0.376   3.586  1.1189  0.7119 -0.1704
 6775SOL     OW21223   6.932   6.960   6.985 -0.0226  0.2996  0.3349
 6775SOL    HW121224   6.905   6.864   6.977 -2.1392  0.9358 -0.9323
 6775SOL    HW221225   6.917   6.991   7.078 -0.6109 -0.2498  0.4303
 6776SOL     OW21226   0.146   6.156   4.441 -0.3341 -0.3472 -0.2439
 6776SOL    HW121227   0.133   6.183   4.536  0.9148 -0.3287 -0.0587
 6776SOL    HW221228   0.198   6.070   4.438  1.7604  0.8738 -0.9134
 6777SOL     OW21229   4.706   3.252   5.930 -0.3534 -0.5153  0.7194
 6777SOL    HW121230   4.799   3.266   5.965  0.6723 -2.8997 -0.8446
 6777SOL    HW221231   4.687   3.155   5.923 -2.3572 -0.0882 -0.6136
 6778SOL     OW21232   4.755   6.594   0.161  0.6040 -0.1421  0.2493
 6778SOL    HW121233   4.734   6.648   0.080 -0.2958 -1.2924 -0.3059
 6778SOL    HW221234   4.757   6.654   0.241 -2.8472  0.4282  0.0632
 6779SOL     OW21235   1.552   3.406   4.780  0.0921 -0.0928  0.2708
 6779SOL    HW121236   1.594   3.318   4.757  0.4803  0.4882 -1.4546
 6779SOL    HW221237   1.596   3.478   4.726 -2.0172  0.7755 -0.3978
 6780SOL     OW21238   0.859   1.586   5.499  0.2042  0.1771 -0.3050
 6780SOL    HW121239   0.772   1.631   5.520  0.0966  0.2672 -0.9232
 6780SOL    HW221240   0.853   1.540   5.410  1.0723  0.9504 -0.7851
 6781SOL     OW21241   0.648   3.011   4.965  0.1722  0.2207 -0.2964
 6781SOL    HW121242   0.609   3.096   4.930  0.6247 -0.0804 -1.5920
 6781SOL    HW221243   0.581   2.937   4.956  0.1897  0.2009 -0.2646
 6782SOL     OW21244   5.516   6.495   0.265  0.0408 -0.6756  0.0260
 6782SOL    HW121245   5.555   6.416   0.311  0.7181 -1.1439 -1.3143
 6782SOL    HW221246   5.416   6.493   0.275 -0.0171 -2.1174 -0.6338
 6783SOL     OW21247   4.786   2.903   1.621  0.1996  0.0789  0.1897
 6783SOL    HW121248   4.711   2.857   1.668  2.3492 -1.9758  1.8142
 6783SOL    HW221249   4.853   2.934   1.688  2.4023 -1.1267 -1.3370
 6784SOL     OW21250   6.285   3.492   5.339 -0.4450  0.3611 -0.0137
 6784SOL    HW121251   6.302   3.511   5.436  0.4838 -2.2587  0.4363
 6784SOL    HW221252   6.370   3.503   5.288 -0.9468  1.7882 -0.5773
 6785SOL     OW21253   5.034   5.931   2.351  0.4086 -0.5169  0.0688
 6785SOL    HW121254   5.047   5.918   2.252 -0.7389 -0.0562 -0.1656
 6785SOL    HW221255   5.015   5.843   2.394 -1.6875 -0.4334 -0.5744
 6786SOL     OW21256   3.544   3.502   2.591  0.2087  0.4464 -0.6480
 6786SOL    HW121257   3.585   3.552   2.667 -0.9576 -0.4351  0.6117
 6786SOL    HW221258   3.562   3.550   2.506  1.6487  1.4047  0.1583
 6787SOL     OW21259   1.576   6.614   1.380 -0.2230 -0.4214 -0.1827
 6787SOL    HW121260   1.595   6.641   1.475  0.3111 -0.1922 -0.3566
 6787SOL    HW221261   1.544   6.693   1.329  1.9774  0.0831 -0.8671
 6788SOL     OW21262   2.435   5.651   5.158  0.5246  0.1272  0.3185
 6788SOL    HW121263   2.472   5.647   5.065  2.1371  1.8659  0.8276
 6788SOL    HW221264   2.343   5.611   5.159 -0.1673  1.4383 -2.3579
 6789SOL     OW21265   1.067   5.004   2.015 -0.0764 -0.0878  0.6298
 6789SOL    HW121266   1.124   5.074   1.972 -0.3642  0.4420  1.0968
 6789SOL    HW221267   0.988   4.985   1.956  0.1794 -0.2637  0.3442
 6790SOL     OW21268   2.307   2.758   3.888  0.1673 -0.5096  0.0447
 6790SOL    HW121269   2.272   2.823   3.955 -0.6984 -2.7941  1.9450
 6790SOL    HW221270   2.392   2.718   3.921  0.1514 -1.0862 -0.5896
 6791SOL     OW21271   5.137   2.656   6.874 -0.1731  0.1351  0.5233
 6791SOL    HW121272   5.177   2.583   6.931  0.7080  0.2803  0.1112
 6791SOL    HW221273   5.160   2.639   6.778  1.1443  1.6126  0.5389
 6792SOL     OW21274   5.630   0.260   6.518  0.4160  0.2698  0.2367
 6792SOL    HW121275   5.535   0.288   6.537 -0.7154 -2.7691 -0.3637
 6792SOL    HW221276   5.663   0.203   6.593  0.5741 -1.3248 -1.0162
 6793SOL     OW21277   1.672   4.906   3.529  0.4367 -0.0173  0.3911
 6793SOL    HW121278   1.612   4.864   3.598 -0.9156  2.0897  0.5868
 6793SOL    HW221279   1.767   4.893   3.556  0.1597 -3.0713  0.3072
 6794SOL     OW21280   5.066   5.256   2.491  0.2224 -0.2585  0.4103
 6794SOL    HW121281   5.077   5.318   2.569  1.5925  0.1291 -0.0608
 6794SOL    HW221282   5.029   5.306   2.413 -0.3998 -0.4624  0.5722
 6795SOL     OW21283   5.104   5.553   4.357  0.0619  0.2051  0.5781
 6795SOL    HW121284   5.167   5.558   4.434 -0.4844 -0.5294  1.0867
 6795SOL    HW221285   5.056   5.641   4.346 -0.0700  0.2185  1.2569
 6796SOL     OW21286   2.210   5.501   5.113  0.2560 -0.6913 -0.1223
 6796SOL    HW121287   2.173   5.466   5.199 -3.4762  3.6396  0.4059
 6796SOL    HW221288   2.151   5.473   5.037  0.3502  0.0006 -0.4611
 6797SOL     OW21289   6.713   1.374   0.257  0.1857  0.2240  0.0101
 6797SOL    HW121290   6.646   1.338   0.322  0.4989  0.4246  0.4464
 6797SOL    HW221291   6.680   1.461   0.221 -0.3773 -0.2795 -0.7338
 6798SOL     OW21292   6.070   5.276   1.909  0.4210 -0.4642  0.1836
 6798SOL    HW121293   5.998   5.290   1.976 -0.4607 -1.2294 -0.5607
 6798SOL    HW221294   6.128   5.199   1.937 -0.4170 -1.2928 -0.2714
 6799SOL     OW21295   1.417   2.262   3.269 -0.0211  0.0989 -0.0401
 6799SOL    HW121296   1.509   2.294   3.292 -0.5275  1.0837  0.6713
 6799SOL    HW221297   1.357   2.273   3.347 -0.4898 -1.6588 -0.1113
 6800SOL     OW21298   1.707   6.106   2.249 -0.2242 -0.1650 -0.3724
 6800SOL    HW121299   1.639   6.179   2.251 -0.8177 -0.7194  0.1048
 6800SOL    HW221300   1.798   6.145   2.258 -0.6291  0.3872  2.3932
 6801SOL     OW21301   4.201   4.038   1.750  0.6095  0.3708  0.3523
 6801SOL    HW121302   4.287   4.088   1.759  0.2884  1.0724 -0.3105
 6801SOL    HW221303   4.127   4.103   1.732  0.2663 -0.3684 -1.0577
 6802SOL     OW21304   5.047   3.652   5.584 -0.4045  0.4735 -0.0368
 6802SOL    HW121305   4.968   3.656   5.523  0.6047  0.6682 -1.3883
 6802SOL    HW221306   5.016   3.640   5.678 -2.0262  0.4569 -0.5391
 6803SOL     OW21307   5.552   5.977   0.775 -0.3695  0.3562  0.5244
 6803SOL    HW121308   5.483   5.944   0.711 -0.0973 -0.0321  0.4302
 6803SOL    HW221309   5.509   5.998   0.863 -0.5183 -0.3848  0.6325
 6804SOL     OW21310   3.704   5.709   3.214  0.0828  0.3004 -0.0814
 6804SOL    HW121311   3.687   5.803   3.186  0.5785  0.0517 -1.2707
 6804SOL    HW221312   3.619   5.669   3.249  0.2210  1.6673  2.0219
 6805SOL     OW21313   1.517   0.363   5.333 -0.0153 -0.5837 -0.0221
 6805SOL    HW121314   1.434   0.332   5.285 -0.1304 -0.1216 -0.1272
 6805SOL    HW221315   1.540   0.455   5.303  0.0696 -0.3947  0.6096
 6806SOL     OW21316   0.192   2.709   1.674 -0.3911 -0.7973  0.6479
 6806SOL    HW121317   0.125   2.635   1.677 -1.9862  0.5130 -0.2058
 6806SOL    HW221318   0.233   2.722   1.764 -3.3210  0.0490  1.9882
 6807SOL     OW21319   0.564   3.853   3.600 -1.1234  0.0547  0.1039
 6807SOL    HW121320   0.483   3.841   3.543  0.1745  0.4303 -1.9131
 6807SOL    HW221321   0.637   3.792   3.569  0.2261  1.5527  0.1681
 6808SOL     OW21322   4.873   0.696   2.079 -0.0733  0.1206 -0.0404
 6808SOL    HW121323   4.840   0.719   1.987 -2.3223 -2.3968  0.0434
 6808SOL    HW221324   4.951   0.754   2.100 -0.5223  1.9838 -2.8397
 6809SOL     OW21325   2.326   4.259   2.841 -0.5765 -0.3466 -0.6144
 6809SOL    HW121326   2.355   4.307   2.924  0.0516 -1.8784  0.0959
 6809SOL    HW221327   2.361   4.308   2.761 -1.4481  1.3276 -0.0319
 6810SOL     OW21328   4.972   2.495   5.542  0.5683 -0.1982  0.0377
 6810SOL    HW121329   4.913   2.538   5.609  1.7772  1.3449  0.1606
 6810SOL    HW221330   4.971   2.548   5.457  0.2395 -1.2796 -0.6567
 6811SOL     OW21331   5.479   4.095   3.984 -0.4975 -0.1981 -1.0540
 6811SOL    HW121332   5.431   4.168   3.936  0.4502  0.7690 -0.5928
 6811SOL    HW221333   5.575   4.093   3.953 -0.6965 -1.7813 -1.6376
 6812SOL     OW21334   3.203   4.082   3.689 -0.2998 -0.3066 -0.0926
 6812SOL    HW121335   3.194   4.166   3.743 -1.2813 -1.0242  0.8997
 6812SOL    HW221336   3.299   4.071   3.661 -0.1083  0.9954 -0.0195
 6813SOL     OW21337   4.167   5.784   0.361  0.0569 -0.6686 -0.6887
 6813SOL    HW121338   4.110   5.864   0.375  1.8285  0.7226 -1.1186
 6813SOL    HW221339   4.202   5.752   0.449  0.2556 -0.2649 -0.6186
 6814SOL     OW21340   4.411   6.002   2.208  0.4619 -0.5417  0.1405
 6814SOL    HW121341   4.436   6.034   2.299 -0.9921 -0.9337  0.7150
 6814SOL    HW221342   4.378   5.908   2.214 -0.4302 -0.2952 -0.6509
 6815SOL     OW21343   2.271   6.021   0.058  0.3868 -0.9493  0.3747
 6815SOL    HW121344   2.296   6.000  -0.037  1.6820  0.6194  0.3173
 6815SOL    HW221345   2.322   6.102   0.088 -0.1369 -1.3118  2.3601
 6816SOL     OW21346   3.480   5.303   1.738 -0.1967 -0.0486 -0.2648
 6816SOL    HW121347   3.512   5.395   1.718  0.2566 -0.2305 -0.3900
 6816SOL    HW221348   3.383   5.295   1.715 -0.3585  0.5322  0.2004
 6817SOL     OW21349   2.868   6.719   2.143 -0.1527 -0.4627  0.1565
 6817SOL    HW121350   2.811   6.797   2.116  0.9653 -0.2932 -1.9443
 6817SOL    HW221351   2.813   6.655   2.198 -1.3753  1.2770  1.0495
 6818SOL     OW21352   0.530   0.477   4.650 -0.7509  0.9165  0.4773
 6818SOL    HW121353   0.444   0.427   4.653  1.0823 -2.7154 -1.3482
 6818SOL    HW221354   0.552   0.499   4.555  1.1980 -0.0271  0.6554
 6819SOL     OW21355   0.840   1.088   4.357  0.0090  0.4221  0.8386
 6819SOL    HW121356   0.915   1.128   4.306 -0.0579  0.6643  0.9281
 6819SOL    HW221357   0.872   1.059   4.447  1.1429 -3.6495 -0.6524
 6820SOL     OW21358   1.193   2.422   1.460  0.4747 -0.4852 -0.1376
 6820SOL    HW121359   1.243   2.338   1.485  0.2510 -0.1483  1.5537
 6820SOL    HW221360   1.157   2.465   1.542  0.5356  1.2701 -0.9850
 6821SOL     OW21361   5.008   0.930   0.662 -0.1161  0.2384 -0.4954
 6821SOL    HW121362   4.924   0.971   0.696  0.8922  1.5109  0.6028
 6821SOL    HW221363   5.012   0.834   0.688 -0.5843  0.5345  0.7225
 6822SOL     OW21364   3.292   4.588   1.322 -0.1884 -0.0630 -0.3405
 6822SOL    HW121365   3.326   4.498   1.294 -0.4017 -0.0356 -0.6980
 6822SOL    HW221366   3.292   4.594   1.422 -0.5365 -0.6068 -0.2990
 6823SOL     OW21367   4.613   5.561   4.133 -0.0893 -0.8986 -0.4820
 6823SOL    HW121368   4.696   5.508   4.116 -0.1732 -0.7325 -1.5199
 6823SOL    HW221369   4.621   5.610   4.219  1.1918 -0.3255 -0.8962
 6824SOL     OW21370   4.970   1.925   2.008 -1.1956  0.1201  0.2965
 6824SOL    HW121371   4.975   2.005   1.948  0.4209 -1.1643 -1.4163
 6824SOL    HW221372   4.948   1.844   1.953  2.2316 -1.4377  0.9951
 6825SOL     OW21373   1.319   6.583   2.909 -0.3483  0.6797  0.0292
 6825SOL    HW121374   1.385   6.653   2.935 -0.2330  0.6479 -0.1739
 6825SOL    HW221375   1.239   6.626   2.867  0.3021  0.6035 -1.3102
 6826SOL     OW21376   2.568   3.753   6.140 -0.6097 -0.6875 -0.1354
 6826SOL    HW121377   2.565   3.792   6.048 -0.4614 -0.9838 -0.2649
 6826SOL    HW221378   2.475   3.726   6.167 -0.9162  0.7661  0.3963
 6827SOL     OW21379   3.253   1.148   0.354 -0.1058 -0.2745  0.2188
 6827SOL    HW121380   3.287   1.178   0.443  0.2707  3.3568 -1.0019
 6827SOL    HW221381   3.313   1.077   0.318  2.5481  1.5244  0.8522
 6828SOL     OW21382   6.045   6.104   4.673 -0.4551 -0.3072 -0.6587
 6828SOL    HW121383   6.028   6.006   4.686 -3.5154 -0.0981 -2.3075
 6828SOL    HW221384   5.958   6.154   4.675  0.9163  2.2719 -0.9655
 6829SOL     OW21385   6.449   0.685   3.981  0.1906  0.1862  0.4389
 6829SOL    HW121386   6.382   0.727   4.042  0.2257 -0.3079  0.8292
 6829SOL    HW221387   6.539   0.687   4.025  0.1438 -0.5339  0.5849
 6830SOL     OW21388   5.696   2.074   2.004  0.6099  0.1289  0.1109
 6830SOL    HW121389   5.703   2.051   2.101  4.6618  0.3960  0.0637
 6830SOL    HW221390   5.784   2.109   1.972 -0.8885  1.0737 -3.4620
 6831SOL     OW21391   6.985   5.774   2.310  0.3073 -0.6492  0.5640
 6831SOL    HW121392   6.904   5.721   2.334 -0.3845  0.2898  0.4004
 6831SOL    HW221393   6.957   5.852   2.253  1.3549 -0.4162  0.3562
 6832SOL     OW21394   4.295   4.971   6.164  0.1130 -0.3858  0.3941
 6832SOL    HW121395   4.269   4.954   6.069 -1.0254 -1.7494  0.9087
 6832SOL    HW221396   4.361   4.902   6.194  0.9779  0.4348  0.4114
 6833SOL     OW21397   0.959   5.513   4.817  0.0844 -0.5806 -1.0082
 6833SOL    HW121398   1.009   5.427   4.807 -0.2310 -0.8770 -0.1142
 6833SOL    HW221399   1.020   5.590   4.798  0.4987 -0.9831 -1.3141
 6834SOL     OW21400   3.587   2.991   3.944  0.6921  0.0685 -0.2508
 6834SOL    HW121401   3.581   2.925   3.869  1.4235  0.2986 -0.5196
 6834SOL    HW221402   3.557   2.948   4.029  1.2300 -0.6340 -0.4074
 6835SOL     OW21403   4.274   0.922   0.180 -0.5005 -0.0910 -0.0254
 6835SOL    HW121404   4.365   0.902   0.214 -0.5186  1.1902  0.8824
 6835SOL    HW221405   4.266   1.020   0.162 -1.4462 -0.3039 -0.8706
 6836SOL     OW21406   6.010   5.629   6.708  0.0605 -0.4162 -0.0147
 6836SOL    HW121407   6.031   5.674   6.795  1.1173  0.2043 -0.5602
 6836SOL    HW221408   5.919   5.589   6.712  0.5640 -1.5214  1.8290
 6837SOL     OW21409   2.530   6.701   3.524 -0.7453  0.5985 -0.2893
 6837SOL    HW121410   2.524   6.783   3.466  0.7372 -0.3476 -1.9140
 6837SOL    HW221411   2.438   6.670   3.549 -1.3297  2.9368  0.7061
 6838SOL     OW21412   0.773   4.322   6.261 -0.4821 -0.7993 -0.5218
 6838SOL    HW121413   0.818   4.361   6.342 -0.2511  0.0321 -1.0413
 6838SOL    HW221414   0.838   4.317   6.186 -0.2018 -3.1604 -0.2106
 6839SOL     OW21415   1.389   0.984   5.330 -0.2871  0.1134 -0.2116
 6839SOL    HW121416   1.307   1.023   5.290 -0.5787 -0.7614 -0.4935
 6839SOL    HW221417   1.470   1.026   5.289 -0.5629  1.7471  0.8173
 6840SOL     OW21418   5.470   1.363   2.684  0.0998 -0.0219 -0.0462
 6840SOL    HW121419   5.526   1.431   2.636 -1.2977  0.0291 -1.7091
 6840SOL    HW221420   5.473   1.380   2.782  0.9157  1.5449 -0.3147
 6841SOL     OW21421   4.640   4.939   0.750  0.2291  0.2251  0.1201
 6841SOL    HW121422   4.693   4.854   0.743 -0.8340 -0.5882  1.3282
 6841SOL    HW221423   4.551   4.919   0.792 -0.5633  1.7435 -0.7576
 6842SOL     OW21424   0.407   3.451   0.966 -0.0289  0.0802  0.4131
 6842SOL    HW121425   0.383   3.473   1.061  0.3739  0.4814  0.4279
 6842SOL    HW221426   0.330   3.404   0.922 -0.0278 -0.5741  1.0869
 6843SOL     OW21427   1.350   3.418   4.032  0.6970 -0.6442  0.0869
 6843SOL    HW121428   1.283   3.480   3.991  1.2308 -0.1635 -0.0790
 6843SOL    HW221429   1.348   3.331   3.983 -1.3282 -1.4476  1.4549
 6844SOL     OW21430   3.588   4.465   1.369  0.0236 -0.0993  0.6647
 6844SOL    HW121431   3.517   4.418   1.317  0.4127  0.1122 -0.0714
 6844SOL    HW221432   3.548   4.508   1.449 -0.9823  1.4161 -0.5942
 6845SOL     OW21433   0.307   2.885   0.335 -0.3682  0.2097 -0.0902
 6845SOL    HW121434   0.311   2.811   0.402 -0.7304 -2.2068 -2.5609
 6845SOL    HW221435   0.214   2.921   0.331  0.0296  1.6510  1.8546
 6846SOL     OW21436   1.665   0.978   0.103  0.2838  0.4489 -0.0227
 6846SOL    HW121437   1.605   1.058   0.097 -0.7538 -0.2580  0.6258
 6846SOL    HW221438   1.625   0.911   0.165  0.3618 -1.2484 -1.7186
 6847SOL     OW21439   0.559   3.113   0.122  0.1896  0.2313  0.2969
 6847SOL    HW121440   0.489   3.178   0.150  1.5423  2.8375 -1.9039
 6847SOL    HW221441   0.629   3.107   0.192 -1.3153 -1.1412  1.7787
 6848SOL     OW21442   4.694   0.109   0.291 -0.1378 -0.5391 -0.6264
 6848SOL    HW121443   4.608   0.081   0.333 -1.1412  2.3240 -0.5598
 6848SOL    HW221444   4.770   0.089   0.353 -1.1434  0.0756  0.8557
 6849SOL     OW21445   0.103   1.499   5.537 -0.2288  0.0614 -0.0396
 6849SOL    HW121446   0.177   1.561   5.565  0.6894 -1.2975  0.6852
 6849SOL    HW221447   0.130   1.405   5.556 -1.7593 -0.5508 -0.7222
 6850SOL     OW21448   6.252   3.477   3.803  0.0398  0.1065 -0.1243
 6850SOL    HW121449   6.280   3.572   3.790  1.2176 -0.2605 -0.3771
 6850SOL    HW221450   6.313   3.432   3.868 -0.1041 -0.6569 -0.4931
 6851SOL     OW21451   1.530   2.096   0.969  0.6345 -0.0218  0.9097
 6851SOL    HW121452   1.532   2.179   0.914 -0.1345  0.1150  1.0831
 6851SOL    HW221453   1.619   2.051   0.964  0.9207  0.5805  0.4656
 6852SOL     OW21454   2.426   3.387   1.128 -0.5159 -0.2564  0.3550
 6852SOL    HW121455   2.419   3.440   1.212 -0.0479  0.3387  0.0282
 6852SOL    HW221456   2.356   3.418   1.063  0.0887  0.3278 -0.0275
 6853SOL     OW21457   2.326   6.490   3.251 -0.2724 -0.4512 -1.1120
 6853SOL    HW121458   2.381   6.537   3.182 -2.0374  2.3793 -0.7925
 6853SOL    HW221459   2.363   6.399   3.268  3.4921  0.7824 -1.7772
 6854SOL     OW21460   6.058   2.559   6.752  0.0790 -0.0455 -0.1345
 6854SOL    HW121461   5.968   2.598   6.772 -1.1335 -1.2483 -2.7255
 6854SOL    HW221462   6.129   2.627   6.771 -1.3590  1.0535  1.6552
 6855SOL     OW21463   6.640   3.915   2.569  0.2393 -0.5238  0.2267
 6855SOL    HW121464   6.601   4.000   2.604  0.3208 -0.3097 -0.1956
 6855SOL    HW221465   6.679   3.931   2.478 -1.5185 -1.4580 -0.7509
 6856SOL     OW21466   4.152   6.680   3.423  0.2692 -0.2414  0.2454
 6856SOL    HW121467   4.220   6.726   3.366 -1.5780  1.1674 -0.9511
 6856SOL    HW221468   4.092   6.625   3.366 -2.0308  1.7222  0.5902
 6857SOL     OW21469   5.505   2.283   1.743 -0.1873  0.5052 -0.1590
 6857SOL    HW121470   5.463   2.227   1.816 -0.4120 -0.2766 -0.8707
 6857SOL    HW221471   5.576   2.341   1.783  0.9081 -1.1716  0.4355
 6858SOL     OW21472   1.076   6.653   2.758  1.0858  0.1231 -0.6608
 6858SOL    HW121473   1.063   6.721   2.686  0.1471  2.0178  1.2087
 6858SOL    HW221474   1.051   6.692   2.846  1.6066 -2.3187  0.6580
 6859SOL     OW21475   1.954   2.758   1.722 -0.9336  0.1066 -0.2147
 6859SOL    HW121476   2.034   2.817   1.725 -0.7616 -0.1324 -0.0396
 6859SOL    HW221477   1.942   2.723   1.629 -0.5704 -0.2133 -0.1433
 6860SOL     OW21478   6.860   3.552   2.959  0.0295  0.4678  0.3401
 6860SOL    HW121479   6.820   3.495   3.030  0.0271  0.4728  0.3432
 6860SOL    HW221480   6.841   3.648   2.979 -0.6082  0.4307 -0.0540
 6861SOL     OW21481   1.339   3.010   5.245  0.3654 -0.0018 -0.4835
 6861SOL    HW121482   1.278   2.988   5.169 -1.9727  0.7395  1.0630
 6861SOL    HW221483   1.402   3.082   5.217 -0.4020  0.2042 -1.7568
 6862SOL     OW21484   0.945   2.252   0.852  0.2140 -0.1625  0.4749
 6862SOL    HW121485   0.958   2.158   0.818 -1.7134 -0.0357 -0.7663
 6862SOL    HW221486   0.945   2.315   0.774 -0.4053  0.6419  1.1164
 6863SOL     OW21487   1.727   3.739   2.732 -0.1308 -0.3102  0.4197
 6863SOL    HW121488   1.822   3.751   2.704 -0.4543 -0.3282 -0.7586
 6863SOL    HW221489   1.669   3.728   2.650 -1.1085 -0.5512  1.1197
 6864SOL     OW21490   2.168   3.356   5.166  0.0238  0.1412 -0.1504
 6864SOL    HW121491   2.179   3.259   5.185  2.0410  0.4643  0.7029
 6864SOL    HW221492   2.170   3.407   5.252  0.0139  1.0009 -0.6466
 6865SOL     OW21493   6.800   0.593   6.558  0.1951 -0.2621  0.2162
 6865SOL    HW121494   6.747   0.675   6.578  0.1824 -0.3636  0.6194
 6865SOL    HW221495   6.776   0.521   6.624  1.5735  0.0232  1.0700
 6866SOL     OW21496   3.268   5.431   4.922 -0.1779  0.1142 -0.3492
 6866SOL    HW121497   3.301   5.337   4.909 -1.8776 -0.5976  0.1311
 6866SOL    HW221498   3.315   5.492   4.859  1.3409 -0.9700 -0.3149
 6867SOL     OW21499   5.747   6.428   5.955  0.3608 -0.0243 -0.9818
 6867SOL    HW121500   5.665   6.467   5.997  1.2065  0.6555  0.0974
 6867SOL    HW221501   5.772   6.344   6.003 -1.2051 -1.7699 -3.0236
 6868SOL     OW21502   5.906   0.236   6.773  0.2995  0.4083  0.0996
 6868SOL    HW121503   5.980   0.277   6.720  0.9174 -1.5779 -0.6710
 6868SOL    HW221504   5.854   0.173   6.714  0.2879 -0.9981  1.5476
 6869SOL     OW21505   3.192   6.165   4.583  0.1128  0.2726  0.0822
 6869SOL    HW121506   3.275   6.152   4.638 -0.3269 -0.7062  0.5352
 6869SOL    HW221507   3.115   6.183   4.644 -0.2103  0.1054 -0.2733
 6870SOL     OW21508   3.140   1.741   6.374  0.0135 -0.8264 -0.0300
 6870SOL    HW121509   3.065   1.790   6.419 -0.3578 -2.2196  0.9442
 6870SOL    HW221510   3.103   1.665   6.320  0.6690 -0.9796 -0.2738
 6871SOL     OW21511   4.230   2.841   6.701 -0.0218 -0.3235 -0.2689
 6871SOL    HW121512   4.217   2.746   6.729  0.1220 -0.0386  0.8153
 6871SOL    HW221513   4.308   2.847   6.639  0.0297 -0.8980 -0.2676
 6872SOL     OW21514   5.778   2.766   2.202  0.4757  0.1680 -0.1542
 6872SOL    HW121515   5.865   2.774   2.252 -0.4193 -0.1793  1.5529
 6872SOL    HW221516   5.724   2.691   2.241  0.0364 -0.6607 -2.2111
 6873SOL     OW21517   5.434   1.061   5.487  0.1811 -0.1743 -0.4461
 6873SOL    HW121518   5.420   0.986   5.421 -1.7746  0.0328 -0.3185
 6873SOL    HW221519   5.445   1.147   5.438  0.2627 -0.2375 -0.5396
 6874SOL     OW21520   0.197   5.375   0.115  0.1605  0.0332 -0.7163
 6874SOL    HW121521   0.214   5.451   0.178 -0.8363 -0.2404 -0.0842
 6874SOL    HW221522   0.284   5.342   0.078  0.8141 -0.0585  0.8251
 6875SOL     OW21523   0.311   4.367   5.312 -0.3944  0.0880 -0.0383
 6875SOL    HW121524   0.285   4.307   5.237  0.7791  0.7294 -0.9785
 6875SOL    HW221525   0.354   4.449   5.276 -2.9140  2.0825  1.1356
 6876SOL     OW21526   1.616   4.682   0.382  0.9310  0.0869  1.0198
 6876SOL    HW121527   1.685   4.610   0.392  1.0636 -0.1215 -0.9892
 6876SOL    HW221528   1.598   4.698   0.285 -0.5960  1.3636  1.4664
 6877SOL     OW21529   1.544   1.595   6.343  0.2424 -0.5162  0.1215
 6877SOL    HW121530   1.459   1.629   6.302  0.5017 -1.8697 -1.6606
 6877SOL    HW221531   1.594   1.671   6.385 -0.8304  0.6522 -0.6484
 6878SOL     OW21532   3.226   0.339   0.230  0.3750  0.3027  0.4161
 6878SOL    HW121533   3.134   0.378   0.231  0.2271 -0.0448  0.9620
 6878SOL    HW221534   3.258   0.330   0.136 -0.4704 -0.3135  0.1808
 6879SOL     OW21535   4.089   2.378   6.240  0.1548 -0.0283  0.4068
 6879SOL    HW121536   4.100   2.452   6.174 -1.0413  1.0618  1.3734
 6879SOL    HW221537   4.012   2.321   6.213  0.4840 -0.3694  0.1747
 6880SOL     OW21538   1.515   2.342   5.886  0.1758  0.0955  0.3121
 6880SOL    HW121539   1.597   2.298   5.924 -0.9588 -1.8445  0.6095
 6880SOL    HW221540   1.453   2.366   5.961 -0.3208 -0.1021 -0.0382
 6881SOL     OW21541   0.963   5.839   4.208  0.5397  0.5251  0.0371
 6881SOL    HW121542   0.930   5.795   4.291 -1.0441  0.9947 -0.3003
 6881SOL    HW221543   1.018   5.919   4.231  2.5256 -0.9405  0.6377
 6882SOL     OW21544   3.523   1.222   2.073  0.1308  0.2855  0.4054
 6882SOL    HW121545   3.597   1.210   2.007  0.1740  1.5612  0.1794
 6882SOL    HW221546   3.523   1.146   2.138  1.5167  0.1630  0.3015
 6883SOL     OW21547   1.578   1.124   5.190 -0.1681 -0.2711  0.1687
 6883SOL    HW121548   1.647   1.168   5.249 -0.8918  1.3882 -0.1442
 6883SOL    HW221549   1.617   1.110   5.099  0.2779 -0.8891  0.4469
 6884SOL     OW21550   3.644   6.583   2.028  0.7506  0.0427  0.1073
 6884SOL    HW121551   3.575   6.613   2.094  0.7045  0.6009 -0.1859
 6884SOL    HW221552   3.599   6.537   1.951  0.8435 -1.0146  0.6838
 6885SOL     OW21553   3.110   2.979   3.446 -0.3784 -0.2162 -0.2737
 6885SOL    HW121554   3.040   3.050   3.456  0.6533  0.7472  0.3572
 6885SOL    HW221555   3.163   2.974   3.531  0.3825 -0.8579 -0.7821
 6886SOL     OW21556   0.589   4.422   1.026  0.0512 -0.6866 -0.1304
 6886SOL    HW121557   0.507   4.410   0.969 -0.3191  1.1302 -0.0433
 6886SOL    HW221558   0.669   4.429   0.968 -0.0608 -0.8532 -0.3080
 6887SOL     OW21559   1.822   2.270   3.661  0.2315 -0.2159 -0.2447
 6887SOL    HW121560   1.834   2.290   3.564 -1.6750  1.6573 -0.1492
 6887SOL    HW221561   1.725   2.266   3.682  0.6174  0.2422  1.7618
 6888SOL     OW21562   1.640   5.376   6.569  0.0152 -0.0922 -0.6391
 6888SOL    HW121563   1.576   5.307   6.602 -0.5056  0.2527 -0.9042
 6888SOL    HW221564   1.640   5.376   6.469  2.2352 -1.7458 -0.7332
 6889SOL     OW21565   2.161   2.641   2.420 -0.3589 -0.1956  0.0166
 6889SOL    HW121566   2.186   2.716   2.481 -1.1107  0.3804 -0.3665
 6889SOL    HW221567   2.115   2.569   2.473 -0.8525  0.2233  0.1707
 6890SOL     OW21568   2.071   6.864   3.456  0.2268 -0.1398  0.0818
 6890SOL    HW121569   2.019   6.821   3.382  0.4484 -0.9753  0.3991
 6890SOL    HW221570   2.022   6.851   3.542  0.3198  0.2095  0.1876
 6891SOL     OW21571   0.835   5.358   5.232 -0.0982 -0.1516 -0.2617
 6891SOL    HW121572   0.815   5.274   5.281 -0.1401  0.3558  0.6086
 6891SOL    HW221573   0.933   5.361   5.209  0.1274  0.0769  0.7062
 6892SOL     OW21574   1.850   2.230   3.367 -0.0301  0.1433  0.1192
 6892SOL    HW121575   1.948   2.238   3.381  0.0665 -2.0850  1.0153
 6892SOL    HW221576   1.827   2.138   3.334 -2.1353 -0.9798  4.0396
 6893SOL     OW21577   3.940   5.804   3.976 -0.1751 -0.2954  0.6346
 6893SOL    HW121578   3.864   5.864   3.953 -1.2041 -2.0012 -0.6250
 6893SOL    HW221579   3.998   5.790   3.896  1.6865  1.1863  1.6385
 6894SOL     OW21580   5.024   6.094   3.553 -0.4808  0.6688 -0.2655
 6894SOL    HW121581   5.090   6.168   3.564  2.9495 -2.0089 -0.8175
 6894SOL    HW221582   5.026   6.035   3.633 -1.9775  0.3183 -0.4613
 6895SOL     OW21583   0.391   3.545   3.384  0.5135  0.2931 -0.1724
 6895SOL    HW121584   0.294   3.559   3.405  0.2930 -0.9223 -0.3326
 6895SOL    HW221585   0.408   3.573   3.290  0.5590  1.5225  0.1851
 6896SOL     OW21586   6.962   2.913   0.193  0.2011  0.2482 -0.5835
 6896SOL    HW121587   6.907   2.891   0.274 -0.4333  0.7473 -0.8718
 6896SOL    HW221588   7.000   3.006   0.203 -0.9514  0.8307 -1.4216
 6897SOL     OW21589   1.781   6.282   0.572  0.1450  0.3190  0.3929
 6897SOL    HW121590   1.704   6.264   0.633 -0.7371  1.1713 -0.4206
 6897SOL    HW221591   1.788   6.208   0.505  1.0409 -0.5569  1.4376
 6898SOL     OW21592   0.035   2.419   4.220 -0.6587  0.6109 -0.0440
 6898SOL    HW121593   0.121   2.454   4.183 -1.6555  2.3103 -0.8583
 6898SOL    HW221594  -0.011   2.364   4.149 -0.6476  0.4283  0.0906
 6899SOL     OW21595   1.240   0.174   6.884 -0.3723 -0.3327  0.2184
 6899SOL    HW121596   1.256   0.092   6.940  0.3423  0.7658  1.6960
 6899SOL    HW221597   1.315   0.183   6.818 -1.9914 -2.4729 -2.0881
 6900SOL     OW21598   5.990   2.290   4.868  0.1211  0.3161  0.0052
 6900SOL    HW121599   5.976   2.259   4.961 -1.8434  0.8854 -0.0481
 6900SOL    HW221600   6.015   2.213   4.810 -0.2157 -0.3291  0.7062
 6901SOL     OW21601   4.530   6.797   0.390 -0.2507 -0.2670 -0.0954
 6901SOL    HW121602   4.533   6.872   0.457  0.9701 -0.1790 -0.2322
 6901SOL    HW221603   4.492   6.715   0.433 -1.3553  0.3451  0.1297
 6902SOL     OW21604   4.016   1.843   1.849 -0.3328  0.1271 -0.0376
 6902SOL    HW121605   3.951   1.792   1.793 -0.7733  0.4307  0.1914
 6902SOL    HW221606   4.006   1.816   1.945  0.3210 -0.2871 -0.0728
 6903SOL     OW21607   4.909   0.920   3.051  0.9501 -0.2756 -0.3357
 6903SOL    HW121608   4.896   0.992   2.983  0.8348 -0.5429 -0.5936
 6903SOL    HW221609   4.884   0.832   3.013  1.5000 -0.5149 -0.1575
 6904SOL     OW21610   2.405   1.811   1.876 -0.7617  0.1841  0.0479
 6904SOL    HW121611   2.407   1.911   1.877  0.1504  0.1936 -1.0427
 6904SOL    HW221612   2.450   1.777   1.793 -0.5447 -1.1482  0.6837
 6905SOL     OW21613   3.355   3.361   6.623 -0.5565 -0.3294 -0.3741
 6905SOL    HW121614   3.424   3.430   6.599  0.5033 -1.4164 -0.5244
 6905SOL    HW221615   3.286   3.402   6.682 -1.3023  1.5238 -2.3919
 6906SOL     OW21616   3.482   5.064   3.216 -0.2573  0.6794 -0.3375
 6906SOL    HW121617   3.421   5.039   3.141 -0.2909  1.5130 -0.5970
 6906SOL    HW221618   3.559   5.000   3.219 -0.2770  0.6114 -1.0531
 6907SOL     OW21619   5.910   4.525   1.709  0.1486  0.1618  0.4875
 6907SOL    HW121620   5.868   4.563   1.627  0.3820 -0.4262  0.0886
 6907SOL    HW221621   5.978   4.456   1.683 -2.3833 -2.8264  1.1938
 6908SOL     OW21622   3.131   3.889   0.909  1.0169  0.1205  0.1064
 6908SOL    HW121623   3.127   3.803   0.959  0.1763  0.1457  0.0916
 6908SOL    HW221624   3.057   3.949   0.939  0.6709  0.2489 -0.9630
 6909SOL     OW21625   3.241   6.971   5.428  0.0188 -0.0076 -0.6754
 6909SOL    HW121626   3.288   6.911   5.362 -1.8296 -3.0905  0.6002
 6909SOL    HW221627   3.302   6.989   5.505  0.6730 -0.0962 -1.1619
 6910SOL     OW21628   4.728   5.708   2.442  0.3692  0.5862 -0.4691
 6910SOL    HW121629   4.695   5.735   2.533  0.2341 -0.1939 -0.2809
 6910SOL    HW221630   4.828   5.708   2.442  0.4745 -2.4981  0.6829
 6911SOL     OW21631   3.673   1.716   1.898  0.1692  0.1424  0.3775
 6911SOL    HW121632   3.668   1.794   1.961  0.4536 -0.1575  0.7757
 6911SOL    HW221633   3.626   1.739   1.813 -2.8517 -0.4501  1.7403
 6912SOL     OW21634   0.911   5.598   1.965  0.0373  0.4784 -0.0283
 6912SOL    HW121635   1.002   5.585   1.925 -0.4145 -1.0243 -0.5967
 6912SOL    HW221636   0.915   5.675   2.030  1.5703  0.7982 -0.4515
 6913SOL     OW21637   0.609   5.351   1.990  0.3937 -0.1259 -0.0819
 6913SOL    HW121638   0.636   5.309   1.903 -1.1015 -1.2217 -0.0479
 6913SOL    HW221639   0.510   5.364   1.991  0.2532 -1.0897  1.8516
 6914SOL     OW21640   4.294   4.541   6.599 -0.5091 -0.3304  0.4198
 6914SOL    HW121641   4.254   4.460   6.557 -1.4111 -0.4486  1.4656
 6914SOL    HW221642   4.325   4.604   6.527 -1.3661 -0.8370 -0.4157
 6915SOL     OW21643   6.814   3.688   3.575  0.3234 -0.7461  0.5021
 6915SOL    HW121644   6.805   3.773   3.627  0.0090 -1.4503  1.6505
 6915SOL    HW221645   6.763   3.695   3.490  1.0416  0.5327  0.1456
 6916SOL     OW21646   5.260   3.219   2.481 -0.0290 -0.4419  0.4064
 6916SOL    HW121647   5.227   3.188   2.392 -0.6675 -1.7439  1.0687
 6916SOL    HW221648   5.360   3.227   2.479 -0.0838  0.1328 -0.5893
 6917SOL     OW21649   0.103   6.500   3.900  0.6140  0.3696 -0.1721
 6917SOL    HW121650   0.107   6.401   3.915  0.0057  0.3254 -0.2400
 6917SOL    HW221651   0.042   6.541   3.968 -1.9997  0.2042 -2.2431
 6918SOL     OW21652   5.180   2.126   1.113  0.2927 -0.5493 -0.5094
 6918SOL    HW121653   5.118   2.058   1.072  0.4121 -0.6071 -0.5936
 6918SOL    HW221654   5.245   2.080   1.173  0.5221 -0.5375 -0.7453
 6919SOL     OW21655   2.424   6.231   0.942  0.0633  0.1662 -0.3546
 6919SOL    HW121656   2.482   6.284   0.880 -2.6366  1.1196 -2.2712
 6919SOL    HW221657   2.367   6.294   0.995  0.5949 -0.7334  1.3249
 6920SOL     OW21658   1.798   3.061   3.423  0.4285 -0.3408 -0.9792
 6920SOL    HW121659   1.700   3.073   3.406  0.4454  1.5050 -0.1005
 6920SOL    HW221660   1.846   3.049   3.336 -0.3562  0.8706 -1.6039
 6921SOL     OW21661   3.600   1.655   2.206 -0.2602 -0.0708  0.6216
 6921SOL    HW121662   3.589   1.687   2.300 -2.5957  2.0091 -0.2296
 6921SOL    HW221663   3.606   1.734   2.145  0.2100 -1.3702 -1.0776
 6922SOL     OW21664   1.662   3.947   3.581 -0.1094  0.1480 -0.1206
 6922SOL    HW121665   1.659   4.047   3.577 -1.3062  0.1100 -3.6247
 6922SOL    HW221666   1.582   3.913   3.631 -1.1573  0.9564 -1.1812
 6923SOL     OW21667   6.881   5.102   0.636  0.1316  0.1260  0.2168
 6923SOL    HW121668   6.817   5.115   0.711 -1.3949  1.0505 -1.1709
 6923SOL    HW221669   6.963   5.055   0.669 -0.9062 -0.3747  2.2176
 6924SOL     OW21670   3.290   5.002   1.226 -0.2829  0.3301 -0.3545
 6924SOL    HW121671   3.246   4.913   1.223  0.1796  0.1069 -0.6473
 6924SOL    HW221672   3.321   5.027   1.134  0.5900  0.2856 -0.0745
 6925SOL     OW21673   0.833   5.657   2.364  0.1202 -0.1840  0.0737
 6925SOL    HW121674   0.808   5.751   2.339  1.4658 -0.7177 -4.0012
 6925SOL    HW221675   0.927   5.656   2.398 -0.3655  0.0328  1.5130
 6926SOL     OW21676   3.066   4.056   4.798 -0.0594  0.0529 -0.3538
 6926SOL    HW121677   3.014   4.130   4.840 -0.4035 -0.5231  0.2673
 6926SOL    HW221678   3.152   4.043   4.848 -0.3322 -0.4350  0.0034
 6927SOL     OW21679   2.954   2.208   3.995  0.0582  0.1791 -0.3633
 6927SOL    HW121680   3.021   2.190   4.067 -0.8451 -2.4039 -0.0398
 6927SOL    HW221681   2.885   2.273   4.028 -0.1934 -0.7606  1.0545
 6928SOL     OW21682   2.289   2.726   4.717  0.5407 -0.3123 -0.4055
 6928SOL    HW121683   2.302   2.697   4.812  1.3942 -1.1553 -0.7557
 6928SOL    HW221684   2.308   2.648   4.657 -0.5550  0.0545 -1.2497
 6929SOL     OW21685   3.833   5.859   2.798 -0.4125  0.3036 -0.5703
 6929SOL    HW121686   3.748   5.821   2.834 -0.6666  0.4713 -0.9815
 6929SOL    HW221687   3.892   5.888   2.873 -1.4765  1.8627 -0.2871
 6930SOL     OW21688   6.450   2.771   1.436 -0.0123 -0.1115  0.8704
 6930SOL    HW121689   6.533   2.749   1.386 -1.0047 -0.4305 -0.7055
 6930SOL    HW221690   6.447   2.720   1.521  1.2274 -0.3674  0.7716
 6931SOL     OW21691   6.104   5.362   0.348  0.2221  0.1074  0.0327
 6931SOL    HW121692   6.120   5.358   0.446  0.0732  1.9113  0.1555
 6931SOL    HW221693   6.036   5.293   0.323  1.2775 -1.3088  0.9477
 6932SOL     OW21694   0.352   3.826   2.897  0.3223 -0.2132  0.4128
 6932SOL    HW121695   0.445   3.861   2.909 -0.0053  1.4524 -1.4399
 6932SOL    HW221696   0.353   3.748   2.833  0.4306 -0.1035  0.2818
 6933SOL     OW21697   1.193   5.154   3.824  0.4171 -0.5334 -0.1368
 6933SOL    HW121698   1.144   5.211   3.890  1.4957  0.2091  0.0521
 6933SOL    HW221699   1.254   5.092   3.873  1.3979  0.1834 -0.4178
 6934SOL     OW21700   1.264   2.258   6.972 -0.5191 -0.1397 -0.2145
 6934SOL    HW121701   1.338   2.279   7.037 -0.4699 -1.4239  0.1789
 6934SOL    HW221702   1.202   2.191   7.013 -0.5673 -0.8692 -1.4393
 6935SOL     OW21703   1.526   4.215   2.631  0.2454  0.0243  0.2004
 6935SOL    HW121704   1.586   4.250   2.703  0.6068  1.0078 -0.5488
 6935SOL    HW221705   1.472   4.291   2.593  1.2266 -0.1527 -1.6547
 6936SOL     OW21706   5.369   4.707   2.423 -0.1952  0.1374 -0.4364
 6936SOL    HW121707   5.449   4.683   2.477 -0.7503  1.0425  0.8485
 6936SOL    HW221708   5.332   4.625   2.379  0.9419 -0.4235 -0.3765
 6937SOL     OW21709   0.381   5.309   3.410  0.4998 -0.2193 -0.5536
 6937SOL    HW121710   0.391   5.394   3.359 -0.0398 -0.4420 -1.0437
 6937SOL    HW221711   0.466   5.289   3.458  0.9917  0.0463 -1.2915
 6938SOL     OW21712   1.463   0.709   0.724  0.4333  0.1631  0.3557
 6938SOL    HW121713   1.456   0.627   0.781  0.8165 -0.2139 -0.1328
 6938SOL    HW221714   1.422   0.690   0.634  0.2526  0.6022  0.3436
 6939SOL     OW21715   2.513   1.796   0.183 -0.8723 -0.1631  0.1630
 6939SOL    HW121716   2.613   1.796   0.175 -0.8801  0.7266 -0.0299
 6939SOL    HW221717   2.487   1.834   0.272 -1.0738  2.2509 -0.8425
 6940SOL     OW21718   6.692   3.466   6.391  0.6265 -0.8942  0.1390
 6940SOL    HW121719   6.723   3.375   6.364  0.5154 -0.6081 -1.0304
 6940SOL    HW221720   6.685   3.524   6.309  0.9429  0.2405  0.8940
 6941SOL     OW21721   4.912   3.055   6.147 -0.1052 -0.2202 -0.4142
 6941SOL    HW121722   4.953   3.045   6.238 -1.1953 -3.1640 -0.1340
 6941SOL    HW221723   4.942   2.979   6.089  2.0262  2.4955 -3.2527
 6942SOL     OW21724   6.882   2.403   3.514 -0.0325  0.0549 -0.5722
 6942SOL    HW121725   6.881   2.318   3.567 -2.4859  1.3769  1.7892
 6942SOL    HW221726   6.972   2.446   3.522  0.2230 -0.6993  1.1027
 6943SOL     OW21727   6.338   1.598   2.549 -0.2842  0.1077  0.5531
 6943SOL    HW121728   6.399   1.572   2.474 -1.0095  0.1021 -0.0436
 6943SOL    HW221729   6.248   1.556   2.535 -0.7845  1.0649  0.7986
 6944SOL     OW21730   6.821   5.086   6.068  0.0571 -0.7097 -0.5554
 6944SOL    HW121731   6.813   5.028   5.987  0.3667 -1.0078 -0.3721
 6944SOL    HW221732   6.729   5.112   6.099 -0.0613 -0.4055 -1.1295
 6945SOL     OW21733   3.346   3.253   6.238  0.3671 -0.1339 -0.4942
 6945SOL    HW121734   3.314   3.173   6.187 -1.0789 -0.0197  0.1740
 6945SOL    HW221735   3.270   3.319   6.246  1.0543  0.5694  0.3866
 6946SOL     OW21736   4.827   1.999   2.233  0.2790  0.0068 -0.4585
 6946SOL    HW121737   4.813   2.095   2.255  0.3461  0.0167 -0.4588
 6946SOL    HW221738   4.887   1.991   2.154 -2.0403  0.0559 -2.3459
 6947SOL     OW21739   0.004   1.730   3.856 -0.2061 -0.1493 -0.2186
 6947SOL    HW121740  -0.085   1.770   3.835 -0.1310  0.1437  0.0212
 6947SOL    HW221741   0.036   1.676   3.778 -0.1119  0.6022 -0.7090
 6948SOL     OW21742   0.236   1.179   3.761 -0.3137 -0.3558 -0.8383
 6948SOL    HW121743   0.183   1.228   3.830 -1.4541 -1.2638 -1.0382
 6948SOL    HW221744   0.257   1.241   3.685  1.0845  0.6942  0.3490
 6949SOL     OW21745   6.130   1.088   6.018 -0.0987  0.1953  0.0394
 6949SOL    HW121746   6.130   0.989   6.024 -1.4364  0.2151  0.6251
 6949SOL    HW221747   6.159   1.116   5.926  0.3858 -0.7233 -0.0911
 6950SOL     OW21748   6.763   5.693   5.448  0.8556 -0.8301  0.6987
 6950SOL    HW121749   6.763   5.732   5.355  0.9060  1.1191  1.4676
 6950SOL    HW221750   6.669   5.687   5.481  0.9430  0.1845  1.1688
 6951SOL     OW21751   5.623   4.541   0.674  0.1042  0.3344 -0.0994
 6951SOL    HW121752   5.603   4.493   0.589 -1.7509 -2.6127  1.7871
 6951SOL    HW221753   5.552   4.609   0.692  0.6385  1.1408 -0.9748
 6952SOL     OW21754   0.276   2.458   4.066 -0.2611 -0.5363  0.3666
 6952SOL    HW121755   0.214   2.481   3.991 -1.9058  0.0988  1.8362
 6952SOL    HW221756   0.370   2.483   4.041 -0.6240 -1.1002 -1.7461
 6953SOL     OW21757   4.552   2.853   6.784 -0.0135  0.0314 -0.0606
 6953SOL    HW121758   4.500   2.896   6.710  0.1790 -0.2977 -0.3939
 6953SOL    HW221759   4.649   2.873   6.771  0.1305 -0.9129 -0.5035
 6954SOL     OW21760   1.402   0.868   1.487 -0.2348  0.6932  0.1003
 6954SOL    HW121761   1.375   0.820   1.404  1.7731  0.2854 -0.3617
 6954SOL    HW221762   1.376   0.814   1.567 -0.1913  0.0135 -0.3396
 6955SOL     OW21763   2.832   6.395   6.559 -0.8168  0.5646 -0.2127
 6955SOL    HW121764   2.924   6.422   6.531 -0.6768 -0.1994 -0.5070
 6955SOL    HW221765   2.829   6.386   6.659 -0.5608  0.5460 -0.2064
 6956SOL     OW21766   3.702   4.606   5.375  0.2623 -0.0247  0.3623
 6956SOL    HW121767   3.769   4.676   5.350  0.9541 -1.1011 -0.9348
 6956SOL    HW221768   3.626   4.648   5.425 -0.2393  1.9868 -1.9331
 6957SOL     OW21769   6.291   6.308   0.840  0.7444  0.1354  0.1813
 6957SOL    HW121770   6.258   6.225   0.884 -0.7395 -0.2523 -1.5701
 6957SOL    HW221771   6.368   6.287   0.781  0.8965  0.1519  0.3736
 6958SOL     OW21772   2.461   5.101   3.806  0.0579 -0.4572  0.5701
 6958SOL    HW121773   2.489   5.120   3.711  2.2219  0.1400  1.2742
 6958SOL    HW221774   2.376   5.149   3.825  1.2899  2.1816 -0.1269
 6959SOL     OW21775   1.433   5.395   2.656  0.0638  0.5248  0.8029
 6959SOL    HW121776   1.422   5.322   2.723  0.5548 -1.1435 -0.8535
 6959SOL    HW221777   1.481   5.472   2.698  2.8085 -1.5181  1.7128
 6960SOL     OW21778   2.316   4.946   0.373  0.0368 -0.1895  0.2566
 6960SOL    HW121779   2.369   5.026   0.401 -1.2531  0.6935  0.2476
 6960SOL    HW221780   2.347   4.917   0.282  0.4329  0.3726  0.2023
 6961SOL     OW21781   4.733   1.649   4.653 -0.0093 -0.3126  0.7251
 6961SOL    HW121782   4.805   1.587   4.621  1.2227  2.7927 -3.5846
 6961SOL    HW221783   4.644   1.605   4.644  0.9194 -2.0385 -0.6398
 6962SOL     OW21784   6.998   3.311   1.017  0.1506 -0.0229 -0.2753
 6962SOL    HW121785   6.915   3.319   0.962  0.1898  0.8196 -0.2209
 6962SOL    HW221786   7.011   3.215   1.044 -2.7428  0.2327  2.6971
 6963SOL     OW21787   1.491   3.442   5.288 -0.0043  0.1080 -0.5234
 6963SOL    HW121788   1.473   3.520   5.228 -1.5434  0.2022  0.0183
 6963SOL    HW221789   1.418   3.374   5.277  1.7265 -1.7022 -1.6205
 6964SOL     OW21790   1.647   4.077   4.957 -0.1957 -0.4582 -0.2104
 6964SOL    HW121791   1.712   4.089   4.881  0.1281 -0.5162  0.0552
 6964SOL    HW221792   1.622   3.981   4.964 -0.7968 -0.3409 -0.7085
 6965SOL     OW21793   2.706   6.894   0.253 -0.1495  0.2237 -0.1650
 6965SOL    HW121794   2.639   6.820   0.242  1.5528 -1.4992  0.4990
 6965SOL    HW221795   2.690   6.941   0.339 -0.5694 -0.1128 -0.0578
 6966SOL     OW21796   3.321   0.915   3.887  0.2599 -0.5444  0.5663
 6966SOL    HW121797   3.416   0.917   3.919  0.3504 -1.4680  0.3915
 6966SOL    HW221798   3.304   0.829   3.839 -0.9614 -0.8685  1.5067
 6967SOL     OW21799   2.332   2.792   2.819 -0.3881  0.3871  0.0963
 6967SOL    HW121800   2.325   2.791   2.719  0.0602  0.3736  0.0614
 6967SOL    HW221801   2.256   2.845   2.857  1.1715  3.2540 -0.4432
 6968SOL     OW21802   0.580   1.327   2.292  0.1873  0.1976 -0.5223
 6968SOL    HW121803   0.663   1.302   2.241  0.5065  2.2326 -1.1151
 6968SOL    HW221804   0.588   1.422   2.323 -1.4557  0.0677  0.4142
 6969SOL     OW21805   6.316   6.562   3.486  0.2650 -0.2107  0.0430
 6969SOL    HW121806   6.415   6.573   3.479  0.3306 -0.6387  0.2909
 6969SOL    HW221807   6.280   6.522   3.402 -0.0278  2.1547 -1.0421
 6970SOL     OW21808   3.859   3.577   6.647  0.2605  0.3865 -0.1514
 6970SOL    HW121809   3.958   3.591   6.645  0.8282 -2.8713 -1.7808
 6970SOL    HW221810   3.827   3.577   6.742  2.6589 -2.8220  0.8140
 6971SOL     OW21811   5.747   2.644   1.568 -0.3405  0.3315  0.3476
 6971SOL    HW121812   5.687   2.592   1.507 -0.8985  0.8259  0.4641
 6971SOL    HW221813   5.701   2.660   1.655  1.3834 -2.5705  1.9410
 6972SOL     OW21814   5.726   4.939   2.379 -0.6531 -0.3550 -0.4754
 6972SOL    HW121815   5.687   4.962   2.291 -1.6178  0.3073  0.1113
 6972SOL    HW221816   5.789   4.862   2.369 -2.9360 -2.2266 -1.2811
 6973SOL     OW21817   2.027   0.766   2.029 -0.1095 -0.1303 -0.0961
 6973SOL    HW121818   2.029   0.767   1.929 -0.4087 -3.4723 -0.2639
 6973SOL    HW221819   2.004   0.857   2.063 -0.2013  1.0636 -3.0415
 6974SOL     OW21820   3.636   3.621   1.575  0.0159  0.1906 -0.0468
 6974SOL    HW121821   3.637   3.593   1.478 -2.4862  1.7483 -0.6019
 6974SOL    HW221822   3.699   3.698   1.588 -0.8701  1.0792 -0.8473
 6975SOL     OW21823   0.543   1.369   4.850 -0.5495 -0.0310  0.1667
 6975SOL    HW121824   0.553   1.276   4.815 -0.5025 -0.4586  1.2716
 6975SOL    HW221825   0.566   1.434   4.778  0.4595 -0.8808 -0.3142
 6976SOL     OW21826   5.081   0.737   4.560 -0.4837 -0.2671 -0.1455
 6976SOL    HW121827   5.013   0.664   4.551 -0.5811 -0.1567 -0.3162
 6976SOL    HW221828   5.064   0.788   4.644  0.3155 -1.1867  0.6007
 6977SOL     OW21829   6.792   4.983   6.664  0.2123  0.2385 -0.6401
 6977SOL    HW121830   6.860   5.029   6.607  0.6345  0.2845 -0.1110
 6977SOL    HW221831   6.815   4.887   6.674  1.3670  0.6477  1.1833
 6978SOL     OW21832   1.593   2.973   1.103  0.1529  0.0947 -0.2951
 6978SOL    HW121833   1.498   2.967   1.074  0.5201 -0.2982 -1.4766
 6978SOL    HW221834   1.646   3.023   1.033  0.0396  4.3016  2.2750
 6979SOL     OW21835   1.478   2.700   0.695  0.4246  0.4088 -0.0099
 6979SOL    HW121836   1.390   2.655   0.685  1.1908 -1.2238  0.2010
 6979SOL    HW221837   1.522   2.670   0.779  0.5968  2.2895  0.6158
 6980SOL     OW21838   3.955   1.167   4.879  0.4431 -0.3916  0.6398
 6980SOL    HW121839   3.931   1.241   4.816 -0.2285 -1.2863 -0.1755
 6980SOL    HW221840   4.041   1.189   4.925  0.3424  0.8128  0.2818
 6981SOL     OW21841   3.327   0.399   6.372  0.4679  0.5215  0.1540
 6981SOL    HW121842   3.339   0.442   6.283  0.7524 -0.4197 -0.2691
 6981SOL    HW221843   3.283   0.310   6.361 -1.3405  1.2369  1.1348
 6982SOL     OW21844   0.275   5.748   2.604 -0.1819  0.0381 -0.2206
 6982SOL    HW121845   0.339   5.781   2.674  0.3271  0.6584 -0.9651
 6982SOL    HW221846   0.312   5.664   2.563 -0.1627  0.0347 -0.1964
 6983SOL     OW21847   5.857   3.957   3.281  0.1340 -0.0725 -0.3280
 6983SOL    HW121848   5.793   3.881   3.267  0.4394 -0.3998  0.0060
 6983SOL    HW221849   5.816   4.042   3.248 -0.1817 -0.3966 -0.7774
 6984SOL     OW21850   1.982   4.318   6.735 -0.3789  0.9597 -0.2518
 6984SOL    HW121851   2.053   4.383   6.708  0.3406  0.5157  0.4905
 6984SOL    HW221852   1.975   4.317   6.835  1.4104 -1.8427 -0.0223
 6985SOL     OW21853   4.474   1.497   4.986 -0.2772 -0.2937  0.0557
 6985SOL    HW121854   4.569   1.491   5.015 -0.2820  0.5941  0.2791
 6985SOL    HW221855   4.451   1.593   4.969 -1.6301 -0.2939  1.6732
 6986SOL     OW21856   6.520   6.680   6.870 -0.2245 -0.0228  0.8330
 6986SOL    HW121857   6.497   6.777   6.864  0.9144  0.1996 -0.3830
 6986SOL    HW221858   6.487   6.643   6.957 -1.4487  1.2326  0.9251
 6987SOL     OW21859   4.081   6.828   2.853  0.3124 -0.2192 -0.7864
 6987SOL    HW121860   4.148   6.889   2.811 -0.7381 -0.4282 -2.8586
 6987SOL    HW221861   3.991   6.843   2.812 -1.4738  1.4219  3.2336
 6988SOL     OW21862   4.719   0.810   2.716  0.7289 -0.2012  0.5565
 6988SOL    HW121863   4.664   0.727   2.726 -0.0710 -0.0803 -2.1302
 6988SOL    HW221864   4.815   0.785   2.703  0.3311 -0.8251 -1.4559
 6989SOL     OW21865   1.533   6.182   4.130 -0.8162  0.1193 -0.1904
 6989SOL    HW121866   1.598   6.242   4.083 -1.3714 -0.0444 -1.1916
 6989SOL    HW221867   1.549   6.187   4.229  1.5025 -0.8140 -0.4591
 6990SOL     OW21868   1.199   5.709   5.569 -0.3159 -0.1071 -0.4935
 6990SOL    HW121869   1.179   5.675   5.661 -2.6301  3.2357  0.4202
 6990SOL    HW221870   1.246   5.797   5.575 -0.7134  0.3017 -2.5359
 6991SOL     OW21871   5.314   1.286   4.355 -0.0082 -0.0521  0.0613
 6991SOL    HW121872   5.226   1.307   4.313  0.9187  1.2439 -1.3645
 6991SOL    HW221873   5.323   1.334   4.442 -1.2048 -1.2623  0.8908
 6992SOL     OW21874   5.118   4.198   5.311 -0.7513 -0.4191 -0.2188
 6992SOL    HW121875   5.128   4.100   5.328  0.4708 -0.3247 -0.2997
 6992SOL    HW221876   5.105   4.246   5.398  0.2229 -0.4926 -0.0270
 6993SOL     OW21877   4.961   0.115   4.742  0.2954  0.1612  0.0943
 6993SOL    HW121878   4.966   0.064   4.828  0.3893 -0.9773 -0.5675
 6993SOL    HW221879   5.004   0.062   4.669 -0.6025  0.6864 -0.8487
 6994SOL     OW21880   6.522   4.142   1.304  1.0544 -0.6465  1.1569
 6994SOL    HW121881   6.512   4.121   1.401 -0.4571 -1.8251  0.7878
 6994SOL    HW221882   6.528   4.056   1.252  3.4033 -0.0468  0.3072
 6995SOL     OW21883   2.241   1.905   5.007 -0.0385  0.0346  0.1549
 6995SOL    HW121884   2.180   1.959   5.065  1.7240  2.4852 -0.1114
 6995SOL    HW221885   2.190   1.870   4.928 -1.3483  1.0453  0.5232
 6996SOL     OW21886   4.192   2.537   0.856 -0.1958  0.7704  0.2291
 6996SOL    HW121887   4.278   2.588   0.864  0.7696 -0.4845 -1.4573
 6996SOL    HW221888   4.136   2.579   0.784 -0.4889  0.8833  0.5205
 6997SOL     OW21889   5.249   0.304   6.205  0.1914  0.0780  0.2367
 6997SOL    HW121890   5.192   0.385   6.223 -0.8301 -0.5658 -0.0078
 6997SOL    HW221891   5.193   0.222   6.215  0.3692 -0.4867 -2.6862
 6998SOL     OW21892   5.307   2.513   2.050  0.1926  0.2584 -0.2904
 6998SOL    HW121893   5.356   2.516   2.136 -0.3982 -1.5188  0.1545
 6998SOL    HW221894   5.233   2.580   2.051  0.3130  0.3859  0.5161
 6999SOL     OW21895   3.154   3.262   0.586 -0.3757  0.5406 -0.1363
 6999SOL    HW121896   3.237   3.319   0.589 -0.4628  0.6497  0.3944
 6999SOL    HW221897   3.150   3.205   0.669  0.3433 -1.1534 -1.2087
 7000SOL     OW21898   3.587   1.587   1.040  0.3906 -0.6046 -0.0075
 7000SOL    HW121899   3.589   1.615   0.943  0.4465 -1.6926 -0.3330
 7000SOL    HW221900   3.502   1.620   1.081  0.7822  0.6733 -0.1577
 7001SOL     OW21901   2.159   3.751   5.050  0.0437  0.9861  0.0992
 7001SOL    HW121902   2.159   3.795   5.140 -2.9643  0.0807  0.6673
 7001SOL    HW221903   2.184   3.818   4.980  1.3108  2.0079  1.4691
 7002SOL     OW21904   0.884   2.097   6.119  0.0022 -0.3768 -0.1790
 7002SOL    HW121905   0.914   2.054   6.204 -1.1293  0.4594  0.6614
 7002SOL    HW221906   0.785   2.088   6.110  0.0769 -0.2550 -1.3113
 7003SOL     OW21907   3.583   0.624   6.350  0.3775 -0.2385 -0.2636
 7003SOL    HW121908   3.586   0.524   6.346  0.1739 -0.2216 -1.0196
 7003SOL    HW221909   3.610   0.655   6.441  0.7593 -0.9688 -0.1247
 7004SOL     OW21910   2.421   2.923   0.526 -0.2557  0.2337 -0.3427
 7004SOL    HW121911   2.478   2.979   0.466  0.6223 -2.1952 -1.9438
 7004SOL    HW221912   2.478   2.883   0.598 -0.6111  0.4232  0.0434
 7005SOL     OW21913   5.314   3.469   2.935  0.1716 -0.4734 -0.5822
 7005SOL    HW121914   5.272   3.551   2.974  1.1787  0.0040 -0.4648
 7005SOL    HW221915   5.328   3.482   2.837  2.9421  0.7096 -0.1249
 7006SOL     OW21916   4.793   4.173   0.032  0.2158 -0.5564 -0.4961
 7006SOL    HW121917   4.771   4.136  -0.058 -0.0044 -1.0686 -0.2437
 7006SOL    HW221918   4.798   4.273   0.028  0.0673 -0.5697 -1.0423
 7007SOL     OW21919   4.323   4.904   2.595  0.7120 -0.3923  0.8834
 7007SOL    HW121920   4.227   4.878   2.608  0.3151  0.8379  0.5761
 7007SOL    HW221921   4.364   4.925   2.684  0.2429  0.5249  0.9029
 7008SOL     OW21922   2.389   4.049   5.927 -0.1724 -0.0417 -0.2279
 7008SOL    HW121923   2.473   4.047   5.981  0.0624 -0.9252 -0.6107
 7008SOL    HW221924   2.412   4.034   5.831 -0.8794 -1.7120 -0.1732
 7009SOL     OW21925   4.235   5.707   6.227  0.1740  0.6347 -0.4273
 7009SOL    HW121926   4.304   5.638   6.202 -0.8611  0.0928 -1.9554
 7009SOL    HW221927   4.154   5.661   6.264  0.3919  1.2341  0.8516
 7010SOL     OW21928   6.616   5.866   4.869  0.3161  0.1017  0.2947
 7010SOL    HW121929   6.580   5.829   4.954 -1.0162  0.4527 -0.0875
 7010SOL    HW221930   6.559   5.943   4.839  0.8824  0.1252 -0.7901
 7011SOL     OW21931   6.430   2.541   4.262 -0.5578  0.6010 -0.3578
 7011SOL    HW121932   6.356   2.514   4.323 -2.6373  1.4428 -2.3695
 7011SOL    HW221933   6.496   2.467   4.254 -1.0311 -0.0959  1.6634
 7012SOL     OW21934   0.047   1.557   6.578 -0.5789  0.7057 -0.0790
 7012SOL    HW121935   0.108   1.634   6.557 -0.6845  1.1264  1.0738
 7012SOL    HW221936  -0.035   1.564   6.522  1.1874 -0.9481 -3.1055
 7013SOL     OW21937   4.636   4.591   2.740 -0.0542  0.4129 -0.1786
 7013SOL    HW121938   4.605   4.537   2.818  0.4717 -1.4316 -1.1837
 7013SOL    HW221939   4.558   4.615   2.682 -0.4152  1.6070  0.7689
 7014SOL     OW21940   2.240   4.099   1.119  0.6592 -0.3478 -0.0223
 7014SOL    HW121941   2.257   4.178   1.061  0.1673  0.0886  0.4221
 7014SOL    HW221942   2.289   4.109   1.205  1.2991 -0.9436 -0.3008
 7015SOL     OW21943   0.283   1.800   2.762  0.1780 -0.4752  0.0767
 7015SOL    HW121944   0.217   1.821   2.690  0.6334 -1.2028 -0.5755
 7015SOL    HW221945   0.237   1.796   2.850 -0.5907 -0.6669 -0.3307
 7016SOL     OW21946   0.655   3.587   3.447  0.2073 -0.1512 -0.5612
 7016SOL    HW121947   0.564   3.559   3.414 -0.3365 -0.0793  0.8001
 7016SOL    HW221948   0.704   3.507   3.481 -0.5600  0.1962  1.4850
 7017SOL     OW21949   2.501   4.535   5.491  0.5184 -0.0273  0.0310
 7017SOL    HW121950   2.551   4.520   5.576  0.6481 -1.8361 -0.3107
 7017SOL    HW221951   2.522   4.626   5.455 -0.1734  1.0953  2.3148
 7018SOL     OW21952   5.131   1.306   1.356  0.1413  0.3886  0.5577
 7018SOL    HW121953   5.056   1.344   1.411 -0.5412 -1.1699  0.7444
 7018SOL    HW221954   5.191   1.251   1.414  0.8414  0.7539  0.1981
 7019SOL     OW21955   2.946   3.394   3.329  0.0721 -0.1659  0.6738
 7019SOL    HW121956   2.935   3.404   3.230 -1.4114  0.1478  0.8360
 7019SOL    HW221957   2.907   3.306   3.358  0.5036 -0.2584  0.9898
 7020SOL     OW21958   0.843   6.918   3.122 -0.1149  0.6072  0.2987
 7020SOL    HW121959   0.795   6.877   3.044 -1.0851 -1.0060  1.6817
 7020SOL    HW221960   0.779   6.935   3.196  0.7791  2.2001  0.7476
 7021SOL     OW21961   4.926   3.623   4.652  0.3011 -0.1102  0.1659
 7021SOL    HW121962   4.916   3.547   4.716 -0.0370 -0.4008 -0.2263
 7021SOL    HW221963   4.978   3.592   4.572 -2.2459 -0.7969 -1.3522
 7022SOL     OW21964   6.003   3.025   5.744  0.2095  0.6722 -0.1040
 7022SOL    HW121965   5.905   3.042   5.749 -0.3350 -1.9179 -0.5171
 7022SOL    HW221966   6.030   3.015   5.648  0.4277 -0.6951  0.0819
 7023SOL     OW21967   1.843   1.540   4.566 -0.4798 -0.0528 -0.4603
 7023SOL    HW121968   1.786   1.475   4.615 -0.9022  0.7219  0.0990
 7023SOL    HW221969   1.818   1.634   4.593  2.6523  0.3039  1.6748
 7024SOL     OW21970   2.770   1.836   0.495 -0.4169 -0.1741  0.2617
 7024SOL    HW121971   2.811   1.747   0.515 -1.0079 -0.7932 -1.1662
 7024SOL    HW221972   2.779   1.856   0.398 -0.3165  1.3378  0.5572
 7025SOL     OW21973   3.234   3.498   5.014  0.2919 -0.0379 -0.1500
 7025SOL    HW121974   3.182   3.486   5.099  0.2829  0.3076 -0.1044
 7025SOL    HW221975   3.204   3.582   4.969  0.4560 -0.1039 -0.3813
 7026SOL     OW21976   1.116   5.033   3.558  0.0924 -0.2826  0.3442
 7026SOL    HW121977   1.143   5.060   3.651 -0.2952 -1.1032  0.7054
 7026SOL    HW221978   1.064   4.947   3.562 -1.1835  0.4261 -0.4926
 7027SOL     OW21979   6.978   1.600   3.249  0.0720  0.6530 -0.1240
 7027SOL    HW121980   7.047   1.602   3.177  1.1246  0.4963  0.8439
 7027SOL    HW221981   6.969   1.692   3.289 -0.3048  0.6784 -0.2630
 7028SOL     OW21982   4.348   0.361   2.365  0.3068  0.0065 -0.5254
 7028SOL    HW121983   4.409   0.432   2.332  1.9804 -1.7366 -1.3355
 7028SOL    HW221984   4.399   0.296   2.422 -1.5104  0.2839  1.5474
 7029SOL     OW21985   0.077   3.391   5.314  0.2113  0.4472  0.1830
 7029SOL    HW121986   0.069   3.291   5.316 -0.9150  0.5290  0.6644
 7029SOL    HW221987   0.126   3.422   5.395  1.6867  0.2273 -0.5804
 7030SOL     OW21988   5.345   0.504   2.568  0.3446  0.1907 -0.6672
 7030SOL    HW121989   5.406   0.427   2.583  0.7547  0.9105  1.8772
 7030SOL    HW221990   5.262   0.472   2.522  1.7842 -1.1257 -2.5130
 7031SOL     OW21991   6.454   3.302   5.565  0.1003  0.0744  0.4990
 7031SOL    HW121992   6.513   3.363   5.513  0.7371 -1.1989 -0.3365
 7031SOL    HW221993   6.461   3.322   5.662 -0.5915  2.0645  0.1926
 7032SOL     OW21994   2.586   5.172   5.080 -0.0280 -0.1303  0.3130
 7032SOL    HW121995   2.618   5.085   5.041  0.4343 -0.8012  2.0953
 7032SOL    HW221996   2.664   5.232   5.095 -0.2750  0.3612 -0.3389
 7033SOL     OW21997   2.488   2.707   1.316 -0.0526 -0.3545 -0.1800
 7033SOL    HW121998   2.548   2.633   1.347 -1.0129 -1.1586 -0.1758
 7033SOL    HW221999   2.538   2.794   1.317  0.4564 -0.6034  2.0612
 7034SOL     OW22000   1.109   0.828   5.553 -0.2005  0.1242 -0.4635
 7034SOL    HW122001   1.030   0.772   5.531  0.3879 -0.4845 -1.0634
 7034SOL    HW222002   1.173   0.828   5.476  0.4539  0.4791  0.0658
 7035SOL     OW22003   0.497   0.475   0.062 -0.3062  0.8610 -0.3827
 7035SOL    HW122004   0.545   0.546   0.012  1.8940  1.6039  2.5317
 7035SOL    HW222005   0.414   0.513   0.102  1.0232  2.0131  1.4335
 7036SOL     OW22006   5.124   6.098   0.614 -0.6536 -0.4634 -0.0732
 7036SOL    HW122007   5.153   6.037   0.688  1.7892  0.3012 -0.3056
 7036SOL    HW222008   5.050   6.156   0.646 -0.7855 -1.2886  1.2177
 7037SOL     OW22009   1.981   4.672   6.306 -0.1581 -0.6744  0.0021
 7037SOL    HW122010   2.045   4.614   6.257 -1.0532 -0.5604 -1.3602
 7037SOL    HW222011   2.017   4.765   6.313 -0.1804 -0.5978 -0.8077
 7038SOL     OW22012   4.388   0.536   4.846  0.1203  0.8266  0.0628
 7038SOL    HW122013   4.452   0.480   4.794 -1.7712 -0.3299 -1.1317
 7038SOL    HW222014   4.419   0.543   4.941  1.3355 -0.7376 -0.1912
 7039SOL     OW22015   4.317   6.989   3.601 -0.3537  0.2310  0.6249
 7039SOL    HW122016   4.316   6.898   3.560 -2.0253 -0.2532  1.6216
 7039SOL    HW222017   4.376   6.989   3.682 -1.0989 -0.2586  1.1826
 7040SOL     OW22018   2.348   4.008   0.507 -0.3725 -0.1349  0.4464
 7040SOL    HW122019   2.258   3.974   0.480 -0.6017  0.5876  0.3033
 7040SOL    HW222020   2.407   4.017   0.427  0.0256 -1.1630  0.6082
 7041SOL     OW22021   4.185   0.725   1.038  0.2832  0.2088 -0.3307
 7041SOL    HW122022   4.279   0.760   1.045 -0.1199  1.8713 -2.4711
 7041SOL    HW222023   4.126   0.776   1.100  0.1475  1.7946 -1.7018
 7042SOL     OW22024   4.817   6.035   4.989 -0.2530  0.0762 -0.5577
 7042SOL    HW122025   4.732   6.021   4.938 -0.4792 -0.3284 -0.0877
 7042SOL    HW222026   4.895   6.023   4.929 -0.5198 -0.1130 -0.8728
 7043SOL     OW22027   3.689   5.315   4.615 -1.0371  0.2535  0.0023
 7043SOL    HW122028   3.637   5.386   4.663  0.0545 -0.6062  2.6121
 7043SOL    HW222029   3.759   5.358   4.557 -0.5232  1.3432  1.3775
 7044SOL     OW22030   1.095   3.949   3.732  0.7071  0.1867 -0.0340
 7044SOL    HW122031   1.072   4.046   3.727  1.9328  0.4980  0.0540
 7044SOL    HW222032   1.132   3.928   3.822  0.4288 -0.3693 -0.0453
 7045SOL     OW22033   5.293   4.448   3.207  0.1562 -0.5620  0.2073
 7045SOL    HW122034   5.241   4.531   3.227  0.6599 -0.0653 -0.5267
 7045SOL    HW222035   5.328   4.411   3.293 -0.2601 -0.1484  0.5683
 7046SOL     OW22036   5.136   1.325   3.030 -0.0576  0.0441  0.2189
 7046SOL    HW122037   5.080   1.247   3.057 -0.8367  0.7709  0.7671
 7046SOL    HW222038   5.082   1.409   3.038  0.8482  0.6701 -0.0820
 7047SOL     OW22039   1.034   4.141   6.993  0.3359  0.1095  0.0998
 7047SOL    HW122040   1.037   4.044   6.968 -0.7818 -0.0072  0.3414
 7047SOL    HW222041   1.113   4.163   7.051  0.2652 -0.8234  0.5729
 7048SOL     OW22042   0.033   3.903   4.084  0.6953 -0.5559  0.3242
 7048SOL    HW122043   0.065   3.998   4.084  1.3163 -0.7245 -0.9840
 7048SOL    HW222044  -0.063   3.900   4.059  0.4696 -0.2252  1.1430
 7049SOL     OW22045   1.314   3.516   6.236  0.0172 -0.3445 -0.0972
 7049SOL    HW122046   1.359   3.510   6.147  0.7364 -1.2744  0.3093
 7049SOL    HW222047   1.271   3.428   6.258  0.3890 -0.3276  0.7404
 7050SOL     OW22048   0.537   3.788   5.822  0.1357  0.0728  0.0844
 7050SOL    HW122049   0.566   3.696   5.850 -0.1306 -0.1837 -0.4622
 7050SOL    HW222050   0.614   3.837   5.782  0.7217  0.7209  1.9123
 7051SOL     OW22051   0.855   5.379   2.268  0.0219  0.8556  0.6183
 7051SOL    HW122052   0.837   5.474   2.294 -0.6806  1.1286 -0.7808
 7051SOL    HW222053   0.850   5.321   2.350  1.4014  2.1228  1.6589
 7052SOL     OW22054   4.049   1.446   1.433 -0.4280  0.0688  0.2352
 7052SOL    HW122055   4.140   1.471   1.466  0.4606 -1.8260 -0.6458
 7052SOL    HW222056   4.043   1.347   1.424 -2.1362  0.2432 -0.9892
 7053SOL     OW22057   1.262   3.901   5.928 -0.1945  0.3310 -0.1537
 7053SOL    HW122058   1.293   3.989   5.965 -0.8845 -0.0245  1.3266
 7053SOL    HW222059   1.189   3.917   5.862  0.4117  0.9278 -0.6962
 7054SOL     OW22060   3.742   0.973   6.687  0.2423 -0.0737  0.1458
 7054SOL    HW122061   3.699   0.969   6.597 -0.5789 -0.1658  0.5339
 7054SOL    HW222062   3.709   1.053   6.737 -0.9226 -1.1341  1.1535
 7055SOL     OW22063   3.004   1.275   0.686 -0.7612  0.5650 -0.1713
 7055SOL    HW122064   3.037   1.185   0.714 -1.0012  0.9347  1.3752
 7055SOL    HW222065   3.013   1.284   0.587  2.5439  0.1266 -0.0305
 7056SOL     OW22066   4.333   6.779   1.071 -0.7873 -0.0124 -0.2307
 7056SOL    HW122067   4.416   6.787   1.127 -1.5362  0.0201  0.9089
 7056SOL    HW222068   4.253   6.807   1.125 -1.8408 -2.2705 -0.4961
 7057SOL     OW22069   5.379   0.320   4.483 -0.1290  0.3859 -0.2337
 7057SOL    HW122070   5.351   0.410   4.518  1.1555  0.6119  0.2784
 7057SOL    HW222071   5.415   0.330   4.391 -1.1735  0.1726 -0.6885
 7058SOL     OW22072   4.316   6.214   3.149 -1.2094 -0.3951  0.0066
 7058SOL    HW122073   4.347   6.257   3.235  0.3744 -2.5410  0.5838
 7058SOL    HW222074   4.270   6.283   3.093 -0.5241  1.5633  1.7053
 7059SOL     OW22075   6.111   3.836   1.566  0.0213 -0.6807 -0.2575
 7059SOL    HW122076   6.158   3.925   1.570  0.5219 -0.8343 -1.8795
 7059SOL    HW222077   6.023   3.843   1.612  0.1193  0.6112 -0.2190
 7060SOL     OW22078   6.849   1.155   1.402  0.4083  0.1565  0.1342
 7060SOL    HW122079   6.880   1.249   1.410  0.8892 -0.1598  2.7455
 7060SOL    HW222080   6.867   1.106   1.487  0.3041 -2.3573 -1.1814
 7061SOL     OW22081   1.524   4.718   4.077  0.1966 -0.1789  0.0628
 7061SOL    HW122082   1.599   4.762   4.028  0.9959 -1.1138  0.3942
 7061SOL    HW222083   1.554   4.696   4.170 -0.9194  0.5549  0.6184
 7062SOL     OW22084   3.925   3.235   2.709  0.4570 -0.4226 -0.8739
 7062SOL    HW122085   3.836   3.229   2.754  1.6302 -2.6391  1.3757
 7062SOL    HW222086   3.991   3.278   2.771  1.6946 -1.7850 -1.1943
 7063SOL     OW22087   6.949   1.298   4.701  0.1022 -0.4050 -0.3172
 7063SOL    HW122088   6.969   1.377   4.758 -2.2110  0.6698 -0.8752
 7063SOL    HW222089   6.903   1.228   4.755 -0.7688  0.0051 -0.5105
 7064SOL     OW22090   4.884   6.037   4.466 -0.3207 -0.2300 -0.5871
 7064SOL    HW122091   4.879   5.945   4.427  1.4537 -1.1303  1.1331
 7064SOL    HW222092   4.970   6.080   4.440  0.3057 -0.3500  1.1583
 7065SOL     OW22093   4.921   5.815   0.696  0.1006 -0.4201  0.5545
 7065SOL    HW122094   4.919   5.839   0.793  0.5893 -1.1235  0.7508
 7065SOL    HW222095   4.881   5.888   0.642  0.5690  0.3353  1.2163
 7066SOL     OW22096   5.859   0.100   5.888  0.1204 -0.0811  0.2740
 7066SOL    HW122097   5.839   0.183   5.836  1.7977  0.3728  0.2964
 7066SOL    HW222098   5.800   0.096   5.969 -2.4846 -0.7634 -1.5140
 7067SOL     OW22099   3.216   0.826   3.099 -0.0527 -0.6885 -0.8984
 7067SOL    HW122100   3.186   0.895   3.034 -0.6620  0.5532  0.6187
 7067SOL    HW222101   3.145   0.813   3.168  1.0569 -1.0374  0.2118
 7068SOL     OW22102   6.622   5.819   0.579  0.5589 -0.3197  0.2663
 7068SOL    HW122103   6.652   5.724   0.587 -0.0157 -0.5318 -0.0384
 7068SOL    HW222104   6.652   5.856   0.492 -2.1824 -1.3510 -1.2646
 7069SOL     OW22105   3.291   0.831   4.512 -0.5751 -0.6972  0.0772
 7069SOL    HW122106   3.229   0.754   4.497 -0.2975 -0.9176  0.0496
 7069SOL    HW222107   3.348   0.813   4.592 -2.6682  0.8680  2.0399
 7070SOL     OW22108   5.658   4.512   0.013 -0.5345  0.1667 -0.7039
 7070SOL    HW122109   5.746   4.561   0.012  0.2922 -1.0508  1.9624
 7070SOL    HW222110   5.667   4.428  -0.041  0.6270 -0.8878  1.0264
 7071SOL     OW22111   3.511   5.932   2.091  0.3931 -0.6818  0.2834
 7071SOL    HW122112   3.561   5.970   2.013  0.1293  0.5626  0.7015
 7071SOL    HW222113   3.498   5.834   2.077 -1.3942 -0.2067 -2.2270
 7072SOL     OW22114   5.318   3.171   6.071 -0.0828 -0.1804  0.2009
 7072SOL    HW122115   5.321   3.076   6.101 -1.2819 -0.2242  0.2212
 7072SOL    HW222116   5.403   3.217   6.097  0.4482 -1.2057  0.3047
 7073SOL     OW22117   1.405   1.403   1.941 -0.1004 -0.4273  0.3532
 7073SOL    HW122118   1.351   1.482   1.910 -1.2530 -0.3832  2.3249
 7073SOL    HW222119   1.390   1.327   1.878 -3.4284 -0.7621  1.3658
 7074SOL     OW22120   1.237   3.065   0.568 -0.1199  0.3963  0.2322
 7074SOL    HW122121   1.289   3.025   0.492 -1.2201  0.2169 -0.4487
 7074SOL    HW222122   1.300   3.092   0.641  0.9468  0.4786 -0.6957
 7075SOL     OW22123   0.320   0.249   0.719 -0.5353  0.4912  0.4014
 7075SOL    HW122124   0.277   0.290   0.639 -0.1649  0.0248 -0.0485
 7075SOL    HW222125   0.250   0.225   0.787 -1.0176 -0.4556 -0.4073
 7076SOL     OW22126   5.994   2.074   0.630  0.4618 -0.3882 -0.0922
 7076SOL    HW122127   5.948   2.069   0.719 -2.4560  1.9580 -1.2805
 7076SOL    HW222128   5.926   2.071   0.557  2.0889  3.1608 -2.0516
 7077SOL     OW22129   4.670   4.975   2.915  0.4295  0.5759 -0.6137
 7077SOL    HW122130   4.618   5.051   2.953 -0.6813 -0.3342 -0.2352
 7077SOL    HW222131   4.658   4.972   2.816 -0.4111  0.2890 -0.5178
 7078SOL     OW22132   0.759   3.114   2.844 -0.5452 -0.1751 -0.1526
 7078SOL    HW122133   0.805   3.045   2.899 -0.8804  0.1906  0.6008
 7078SOL    HW222134   0.669   3.080   2.816 -0.2831 -0.4488 -0.6696
 7079SOL     OW22135   1.994   6.590   0.468  0.1484  0.9102  0.0862
 7079SOL    HW122136   2.010   6.554   0.560 -0.4593 -1.2922 -0.5969
 7079SOL    HW222137   1.908   6.641   0.466 -0.3702  0.0689  0.5259
 7080SOL     OW22138   5.592   0.574   6.917  0.1524 -0.1933 -0.5885
 7080SOL    HW122139   5.516   0.586   6.982  1.8572  0.6407  1.3523
 7080SOL    HW222140   5.630   0.483   6.928 -0.9465 -0.8651 -2.0546
 7081SOL     OW22141   2.241   2.956   4.102  0.1303  0.4046  0.0698
 7081SOL    HW122142   2.289   2.929   4.185 -0.7975  1.2178  0.9088
 7081SOL    HW222143   2.148   2.919   4.104 -0.6152  2.1938  0.4677
 7082SOL     OW22144   2.196   5.681   4.860  0.4442  0.1752  0.2934
 7082SOL    HW122145   2.213   5.767   4.910 -0.3095  0.6912 -0.3070
 7082SOL    HW222146   2.282   5.632   4.848  1.0287  1.2312 -0.0311
 7083SOL     OW22147   5.906   0.019   2.119  0.0697 -0.1884 -0.4905
 7083SOL    HW122148   5.863  -0.046   2.055 -0.4699 -1.1282  0.7898
 7083SOL    HW222149   5.909  -0.021   2.210 -1.5720  2.1195  0.6742
 7084SOL     OW22150   1.286   5.572   4.301  0.1343  0.6619  0.6083
 7084SOL    HW122151   1.319   5.504   4.236 -0.2742  1.3455 -0.3576
 7084SOL    HW222152   1.332   5.659   4.284  0.2989  0.7557  1.5028
 7085SOL     OW22153   6.531   4.106   4.382  0.2534 -0.2698  0.5307
 7085SOL    HW122154   6.607   4.049   4.413  0.5126  0.2906  0.9348
 7085SOL    HW222155   6.450   4.049   4.372  1.0190 -1.1443 -1.1550
 7086SOL     OW22156   3.389   6.551   0.302 -0.2117  0.7893 -0.5463
 7086SOL    HW122157   3.401   6.523   0.207  2.1074 -0.1383 -0.0581
 7086SOL    HW222158   3.298   6.524   0.334 -0.1937 -1.0044 -1.8403
 7087SOL     OW22159   1.287   5.376   6.345  0.0531 -0.2565  0.8532
 7087SOL    HW122160   1.319   5.287   6.379 -1.5053 -0.5200  1.7448
 7087SOL    HW222161   1.288   5.442   6.421  0.4417  0.2787  0.3868
 7088SOL     OW22162   5.223   2.280   6.358  0.1100  0.3908  0.2382
 7088SOL    HW122163   5.126   2.269   6.339  0.0544  0.5882  0.3983
 7088SOL    HW222164   5.277   2.242   6.283 -0.0624 -1.0388  0.8070
 7089SOL     OW22165   3.427   3.677   6.344  0.0563  0.8034  0.1578
 7089SOL    HW122166   3.485   3.622   6.406 -1.4069 -0.6211  0.3396
 7089SOL    HW222167   3.451   3.656   6.250 -0.2683  0.0442  0.2297
 7090SOL     OW22168   4.266   5.719   0.595 -0.3444 -0.0095 -0.0035
 7090SOL    HW122169   4.251   5.623   0.617  1.4712 -0.7190 -1.5607
 7090SOL    HW222170   4.354   5.748   0.633 -1.0835  1.2100  0.8516
 7091SOL     OW22171   1.417   2.779   2.160  0.1398  1.5056  0.2073
 7091SOL    HW122172   1.494   2.813   2.214  1.0185 -2.1115  1.4992
 7091SOL    HW222173   1.443   2.776   2.063  1.6805  0.4224  0.6079
 7092SOL     OW22174   1.219   2.914   5.710  0.1102  0.0346 -0.3029
 7092SOL    HW122175   1.256   2.946   5.623 -0.0465 -0.5551 -0.5875
 7092SOL    HW222176   1.149   2.978   5.742  1.3022  1.1331  0.2096
 7093SOL     OW22177   4.440   4.414   5.990  0.3417 -0.4474 -0.1604
 7093SOL    HW122178   4.435   4.348   6.065  0.1198 -0.3534 -0.0916
 7093SOL    HW222179   4.398   4.375   5.908  0.8636 -0.6706 -0.3251
 7094SOL     OW22180   3.807   5.757   5.031 -0.4891  0.0314 -0.5177
 7094SOL    HW122181   3.716   5.767   5.070 -1.0814  2.6178 -2.3222
 7094SOL    HW222182   3.872   5.734   5.104 -2.2039  0.3046  1.1688
 7095SOL     OW22183   3.971   6.083   1.125  0.8382  0.3464  0.2779
 7095SOL    HW122184   4.012   6.005   1.173  0.7245 -0.2300 -0.5461
 7095SOL    HW222185   3.874   6.091   1.150  0.2134 -1.2500 -1.3989
 7096SOL     OW22186   3.511   0.547   5.949 -0.1182  0.7835  0.1246
 7096SOL    HW122187   3.471   0.467   5.906 -1.9176  1.5290  0.3091
 7096SOL    HW222188   3.596   0.571   5.903 -0.0834 -0.6078 -0.5870
 7097SOL     OW22189   0.771   3.520   3.727 -0.7429  0.5927  0.2473
 7097SOL    HW122190   0.870   3.531   3.733 -0.5692  0.2210 -1.4689
 7097SOL    HW222191   0.738   3.472   3.808  0.7617 -1.0440 -0.0425
 7098SOL     OW22192   2.388   5.116   6.979  0.2854  0.1700  0.0646
 7098SOL    HW122193   2.301   5.117   6.930  0.1340  0.1857  0.3354
 7098SOL    HW222194   2.447   5.188   6.943 -0.4358  1.2678  0.9977
 7099SOL     OW22195   3.195   6.583   2.238  0.0576  0.5622 -0.1450
 7099SOL    HW122196   3.249   6.546   2.314  1.0332  0.4803 -0.8583
 7099SOL    HW222197   3.141   6.661   2.270 -2.8136 -1.9230  1.6660
 7100SOL     OW22198   1.504   5.882   5.922 -0.0953  0.0794 -0.6455
 7100SOL    HW122199   1.411   5.846   5.930 -0.5186  1.3280  0.5038
 7100SOL    HW222200   1.501   5.976   5.888  0.6717  0.4580  0.2916
 7101SOL     OW22201   4.972   1.166   4.977  0.0205 -0.4149 -0.0593
 7101SOL    HW122202   5.025   1.123   5.051 -1.3405 -2.2004 -0.0422
 7101SOL    HW222203   4.878   1.132   4.980 -0.1401 -0.3459 -2.4683
 7102SOL     OW22204   4.042   0.893   5.304 -0.0168 -0.5428 -0.0863
 7102SOL    HW122205   4.101   0.861   5.378 -1.4473 -0.9661  0.9069
 7102SOL    HW222206   4.020   0.989   5.318 -3.4994 -1.4952  2.4139
 7103SOL     OW22207   4.628   1.869   6.607  0.3165  0.0303  0.0992
 7103SOL    HW122208   4.632   1.809   6.686 -2.4869  0.5322  0.7271
 7103SOL    HW222209   4.538   1.863   6.564  1.0225  1.4175 -1.7601
 7104SOL     OW22210   2.069   2.405   0.523  0.0401  0.5344  0.8695
 7104SOL    HW122211   2.033   2.386   0.432 -2.7504 -0.1741  2.0116
 7104SOL    HW222212   2.093   2.319   0.569  0.9949  0.8501  0.9765
 7105SOL     OW22213   6.636   6.199   2.546 -0.4842 -0.4861  0.0232
 7105SOL    HW122214   6.566   6.260   2.580  0.3139 -0.1840  1.1848
 7105SOL    HW222215   6.725   6.245   2.549 -0.2095 -0.8760 -1.3636
 7106SOL     OW22216   4.855   3.169   4.663 -0.2158  0.3535 -0.0198
 7106SOL    HW122217   4.780   3.230   4.691 -0.8051 -0.8751  1.2009
 7106SOL    HW222218   4.940   3.220   4.660 -0.7644  1.3343  0.5766
 7107SOL     OW22219   4.636   5.258   6.794  0.0440 -0.2437  0.0504
 7107SOL    HW122220   4.715   5.315   6.773 -1.0224  0.4813 -2.3579
 7107SOL    HW222221   4.650   5.166   6.756 -0.5672  0.1293 -1.1258
 7108SOL     OW22222   0.713   0.739   3.894 -0.1412  0.1327 -0.2377
 7108SOL    HW122223   0.705   0.645   3.929  0.7856 -0.7478 -2.1891
 7108SOL    HW222224   0.630   0.790   3.916 -0.1238 -0.7100  2.0004
 7109SOL     OW22225   1.028   2.795   0.408  0.1956 -0.4014 -0.6756
 7109SOL    HW122226   1.039   2.702   0.375 -0.0287 -1.3392  1.6593
 7109SOL    HW222227   1.056   2.799   0.504 -2.9435  1.1135  0.3057
 7110SOL     OW22228   5.384   5.425   0.822 -0.3909  0.6268 -0.2359
 7110SOL    HW122229   5.414   5.516   0.849  0.7612  0.9667 -2.4351
 7110SOL    HW222230   5.462   5.362   0.823 -0.7961  0.1080 -0.4789
 7111SOL     OW22231   5.932   4.001   2.538  0.9146 -0.1963  0.2463
 7111SOL    HW122232   5.868   4.036   2.607 -2.0129 -2.7454 -0.9294
 7111SOL    HW222233   6.020   3.980   2.581 -0.1328  0.2551  2.7518
 7112SOL     OW22234   2.738   1.367   6.136 -0.4582 -0.3565 -0.3140
 7112SOL    HW122235   2.730   1.267   6.130  0.8998 -0.6027  1.1585
 7112SOL    HW222236   2.802   1.390   6.210  0.1846  1.5728 -1.4099
 7113SOL     OW22237   0.929   3.968   2.078  0.2170  0.1638  0.0057
 7113SOL    HW122238   0.927   3.873   2.110 -0.7695  0.6069  1.3437
 7113SOL    HW222239   0.836   4.003   2.069  0.4470  0.2793 -2.8837
 7114SOL     OW22240   0.463   4.291   2.940  0.2225  0.2691 -0.2260
 7114SOL    HW122241   0.525   4.228   2.892 -0.7245 -0.4584 -0.5229
 7114SOL    HW222242   0.371   4.253   2.940  0.2948 -0.1666  2.8705
 7115SOL     OW22243   3.995   3.930   2.257  0.1412 -0.6742  0.4764
 7115SOL    HW122244   4.058   3.927   2.335  0.7280 -0.7543  0.0063
 7115SOL    HW222245   4.046   3.957   2.175 -1.1260  3.2495  0.7931
 7116SOL     OW22246   1.947   0.552   6.155  0.2672 -0.1221 -0.0558
 7116SOL    HW122247   1.993   0.641   6.152  2.7490 -1.2876  1.1218
 7116SOL    HW222248   1.861   0.561   6.206  0.6617  1.5004  0.3671
 7117SOL     OW22249   1.890   2.364   0.251  0.1332  0.3437  0.3178
 7117SOL    HW122250   1.969   2.408   0.209  1.2065 -0.0773  1.8360
 7117SOL    HW222251   1.834   2.433   0.298  0.5328  0.4100  0.6983
 7118SOL     OW22252   5.554   1.831   3.147  0.3339  0.3237 -0.1281
 7118SOL    HW122253   5.604   1.906   3.189 -0.4614  1.5807 -1.3467
 7118SOL    HW222254   5.460   1.860   3.127 -0.1710 -1.1859 -0.0986
 7119SOL     OW22255   6.664   0.955   4.277 -0.2582 -0.1163 -0.2689
 7119SOL    HW122256   6.608   1.026   4.235  0.8772  2.2022  1.8816
 7119SOL    HW222257   6.629   0.935   4.369  2.4342  1.6416  1.2777
 7120SOL     OW22258   6.587   4.623   5.860  0.0681 -0.3051 -0.3225
 7120SOL    HW122259   6.604   4.565   5.780 -2.5011  0.3667 -1.4491
 7120SOL    HW222260   6.544   4.708   5.831  0.3255  0.5667  1.6862
 7121SOL     OW22261   1.420   2.276   2.759 -0.6822 -0.2764  0.2476
 7121SOL    HW122262   1.395   2.213   2.833 -0.4511  0.6249  1.1187
 7121SOL    HW222263   1.494   2.336   2.790 -3.0590  2.6444  0.6773
 7122SOL     OW22264   6.144   6.241   6.288 -0.0355 -0.2217 -0.2378
 7122SOL    HW122265   6.241   6.223   6.305  0.1508  1.2868  0.5092
 7122SOL    HW222266   6.118   6.325   6.335 -1.4042  0.0637 -1.4466
 7123SOL     OW22267   1.503   3.174   2.851  0.6689 -0.3450  0.1238
 7123SOL    HW122268   1.572   3.129   2.908 -2.1155 -2.8022  1.8214
 7123SOL    HW222269   1.510   3.273   2.863  2.1658 -0.6492  2.3339
 7124SOL     OW22270   2.039   5.819   1.294  0.2885  0.2628  0.0400
 7124SOL    HW122271   2.094   5.849   1.216  0.9259 -0.7724  0.0635
 7124SOL    HW222272   2.098   5.808   1.374  0.2863 -1.7948 -0.1772
 7125SOL     OW22273   2.009   1.921   2.849  0.2299 -0.1259  0.1699
 7125SOL    HW122274   2.015   2.001   2.908  2.1203 -1.0659  1.3432
 7125SOL    HW222275   2.083   1.923   2.782  1.4543 -1.7281  1.3854
 7126SOL     OW22276   3.426   3.825   1.573  0.7536  0.0892 -0.2574
 7126SOL    HW122277   3.417   3.891   1.647  1.4154 -0.7202  0.5656
 7126SOL    HW222278   3.479   3.747   1.604  0.0218 -0.8255 -1.2225
 7127SOL     OW22279   0.187   6.425   3.207  0.4734  0.1037 -0.3612
 7127SOL    HW122280   0.199   6.347   3.146 -0.3395 -0.9031  0.7116
 7127SOL    HW222281   0.091   6.432   3.234  0.8019  0.5682  0.7457
 7128SOL     OW22282   0.561   6.077   6.824  0.4015 -0.2721 -0.0649
 7128SOL    HW122283   0.657   6.054   6.809  0.5645  1.7496 -2.9310
 7128SOL    HW222284   0.505   6.029   6.757 -0.4848 -0.5794  0.8788
 7129SOL     OW22285   1.804   2.199   1.027  0.5831 -0.1080 -0.3054
 7129SOL    HW122286   1.784   2.101   1.020 -1.7962  0.3218 -0.5045
 7129SOL    HW222287   1.870   2.214   1.100 -0.0204 -1.7775  0.6532
 7130SOL     OW22288   1.708   5.948   3.634 -0.7585 -0.6539  0.5373
 7130SOL    HW122289   1.704   5.950   3.534 -1.2435 -0.7146  0.5541
 7130SOL    HW222290   1.657   6.026   3.671 -1.4947 -1.2298  0.7560
 7131SOL     OW22291   3.534   3.476   4.692 -0.3966 -0.5684 -0.1668
 7131SOL    HW122292   3.485   3.555   4.729 -0.2552 -0.6547  0.2055
 7131SOL    HW222293   3.624   3.468   4.736  0.0805 -0.2420 -1.0399
 7132SOL     OW22294   4.492   5.175   0.404  0.3561  0.4733  0.7115
 7132SOL    HW122295   4.481   5.268   0.440  1.9162  1.3160 -0.8436
 7132SOL    HW222296   4.558   5.176   0.329 -0.1339 -1.7974  0.1842
 7133SOL     OW22297   1.950   4.744   1.644  0.3182 -0.1869 -0.0411
 7133SOL    HW122298   1.965   4.824   1.586  0.7767 -0.2800 -0.0567
 7133SOL    HW222299   2.028   4.732   1.706  1.1051 -1.6260 -1.2420
 7134SOL     OW22300   2.529   4.570   4.698 -0.0527 -0.2544 -0.3690
 7134SOL    HW122301   2.454   4.507   4.715  0.1376 -0.6312 -0.9047
 7134SOL    HW222302   2.562   4.559   4.605 -0.4387  1.0907 -0.6866
 7135SOL     OW22303   5.114   0.777   2.179  0.6563  0.1199 -0.2854
 7135SOL    HW122304   5.177   0.755   2.104 -0.5063  0.8079 -1.5240
 7135SOL    HW222305   5.126   0.873   2.204 -0.7649  0.6550 -1.4727
 7136SOL     OW22306   6.292   0.590   0.706 -0.0104 -0.5438  0.0229
 7136SOL    HW122307   6.339   0.636   0.630  1.1304 -2.9753 -0.8699
 7136SOL    HW222308   6.193   0.593   0.690  0.0961  0.6635 -0.5281
 7137SOL     OW22309   2.611   6.105   2.971 -0.0427 -0.2135  0.1822
 7137SOL    HW122310   2.674   6.093   3.048  0.1928 -0.9452 -0.1152
 7137SOL    HW222311   2.560   6.020   2.956  0.7761 -0.4792 -1.2173
 7138SOL     OW22312   4.772   5.472   4.843  0.1364  0.8350  0.1301
 7138SOL    HW122313   4.675   5.469   4.817 -0.1680 -0.0355  1.2457
 7138SOL    HW222314   4.828   5.434   4.770 -0.6481 -1.1630  0.4993
 7139SOL     OW22315   4.990   5.424   6.305  0.2034 -0.3851 -0.2582
 7139SOL    HW122316   5.087   5.443   6.315  0.4682 -2.1243  0.9549
 7139SOL    HW222317   4.971   5.392   6.212  0.6674  0.4713 -0.6611
 7140SOL     OW22318   5.784   4.066   3.991 -1.0178  0.0497 -0.6614
 7140SOL    HW122319   5.831   3.984   4.023  1.4937  2.1591  1.6336
 7140SOL    HW222320   5.838   4.110   3.920  0.0433  1.8754  1.1554
 7141SOL     OW22321   5.938   2.938   1.676  0.2010  0.0065 -0.0556
 7141SOL    HW122322   5.860   2.972   1.728  0.0439 -0.2320 -0.1318
 7141SOL    HW222323   5.906   2.908   1.586  0.3492 -0.2724 -0.0143
 7142SOL     OW22324   6.021   3.733   3.244  0.4607 -0.1434  0.3546
 7142SOL    HW122325   6.110   3.755   3.202  0.6815  0.5494  1.1443
 7142SOL    HW222326   5.962   3.814   3.240  1.0700  0.5226  2.8014
 7143SOL     OW22327   6.594   6.631   0.312  0.1341  0.0294 -0.1466
 7143SOL    HW122328   6.677   6.630   0.367  1.0346  0.4131 -1.4445
 7143SOL    HW222329   6.522   6.681   0.361  1.3327  1.5812  0.1108
 7144SOL     OW22330   0.450   5.504   2.598  0.1628 -0.5620 -0.1420
 7144SOL    HW122331   0.538   5.483   2.555  0.2695 -0.6939  0.1374
 7144SOL    HW222332   0.377   5.461   2.545  0.1968  0.1797 -0.8101
 7145SOL     OW22333   4.111   3.679   4.363 -0.6002 -0.0903 -0.8239
 7145SOL    HW122334   4.154   3.610   4.304  0.3616 -1.8404  1.7041
 7145SOL    HW222335   4.150   3.672   4.455 -1.2510  3.2079 -0.1724
 7146SOL     OW22336   4.638   1.273   0.659 -0.8329  0.1390  0.4389
 7146SOL    HW122337   4.624   1.181   0.621 -1.0283 -0.0929  1.0525
 7146SOL    HW222338   4.735   1.294   0.660 -0.7971 -0.0041  0.1606
 7147SOL     OW22339   6.182   0.288   3.804 -0.6849  0.0074  0.0289
 7147SOL    HW122340   6.254   0.336   3.854 -0.2307 -1.4815  0.8749
 7147SOL    HW222341   6.158   0.340   3.722  2.9097 -0.4440 -1.5070
 7148SOL     OW22342   2.647   4.861   1.950  0.3643 -0.8578 -0.1628
 7148SOL    HW122343   2.722   4.920   1.919  1.5853 -1.0555  2.1704
 7148SOL    HW222344   2.680   4.767   1.957 -0.5181 -1.1930 -0.3935
 7149SOL     OW22345   5.386   0.808   6.121  0.0212  0.1282  0.2280
 7149SOL    HW122346   5.435   0.877   6.068 -0.5011  2.6891  2.8435
 7149SOL    HW222347   5.300   0.846   6.154 -0.4015 -1.8750  1.6177
 7150SOL     OW22348   3.459   1.693   4.234 -0.5330  0.0884  0.0925
 7150SOL    HW122349   3.500   1.732   4.316 -1.3763  2.1068 -0.3672
 7150SOL    HW222350   3.529   1.646   4.181 -0.1572 -2.1155  2.3566
 7151SOL     OW22351   0.025   5.327   5.793 -0.2727  0.7132  0.3139
 7151SOL    HW122352   0.007   5.403   5.729  1.4645  0.2294 -0.8416
 7151SOL    HW222353   0.114   5.286   5.771 -0.8654 -1.2436  1.3531
 7152SOL     OW22354   4.845   1.519   5.388 -0.1221 -0.1871  0.1720
 7152SOL    HW122355   4.887   1.606   5.360 -0.0262 -0.1219  0.5125
 7152SOL    HW222356   4.901   1.476   5.459 -0.2370 -0.4676  0.0949
 7153SOL     OW22357   1.399   5.130   6.411 -0.1071 -0.0833  0.0317
 7153SOL    HW122358   1.488   5.126   6.364  0.3147  0.9277  0.7051
 7153SOL    HW222359   1.338   5.061   6.373  1.0499 -0.9675 -0.2854
 7154SOL     OW22360   1.795   0.285   0.463 -0.2522 -0.0855  0.2669
 7154SOL    HW122361   1.811   0.380   0.490  2.3042 -0.0934 -0.8315
 7154SOL    HW222362   1.720   0.281   0.397  0.3187  1.3631 -0.5163
 7155SOL     OW22363   5.476   3.972   2.626 -0.4307 -0.4227  0.1309
 7155SOL    HW122364   5.387   3.989   2.584 -1.1383  0.3425  1.8496
 7155SOL    HW222365   5.484   3.874   2.647  0.0908 -0.8972 -1.9946
 7156SOL     OW22366   1.787   2.569   0.417  0.5706  0.1066 -0.1063
 7156SOL    HW122367   1.760   2.653   0.463 -0.5494  0.4317 -1.3175
 7156SOL    HW222368   1.760   2.490   0.472 -0.5420  0.4965 -0.0767
 7157SOL     OW22369   4.435   1.524   3.703  0.0304 -0.1761 -0.4031
 7157SOL    HW122370   4.405   1.613   3.735 -0.7760 -0.7077  0.3747
 7157SOL    HW222371   4.382   1.498   3.622  0.5099  0.1956 -0.8410
 7158SOL     OW22372   4.577   6.438   1.325 -0.6335 -0.1439 -0.0637
 7158SOL    HW122373   4.526   6.443   1.411 -1.8011  1.4612 -0.7956
 7158SOL    HW222374   4.671   6.407   1.343 -0.7861  0.3826  1.8099
 7159SOL     OW22375   6.709   4.584   4.972 -0.2040  0.0192 -0.0087
 7159SOL    HW122376   6.679   4.671   5.012 -1.1956 -0.0780 -0.5098
 7159SOL    HW222377   6.789   4.600   4.913  0.2358  0.4227  0.6769
 7160SOL     OW22378   1.445   3.849   1.495 -0.9466  0.3098  0.0879
 7160SOL    HW122379   1.365   3.876   1.441 -0.5184  0.8543 -0.2783
 7160SOL    HW222380   1.528   3.881   1.450 -0.5502  0.2434  0.7623
 7161SOL     OW22381   3.816   3.377   3.818 -0.4717  0.3951 -0.1350
 7161SOL    HW122382   3.757   3.396   3.896 -1.6854  0.4791 -1.0614
 7161SOL    HW222383   3.788   3.292   3.774  0.7414 -0.1033 -0.0025
 7162SOL     OW22384   3.708   3.192   3.648 -0.8839  0.2390 -0.2504
 7162SOL    HW122385   3.629   3.238   3.608 -0.2576  0.4479 -1.3087
 7162SOL    HW222386   3.698   3.093   3.637 -0.0005  0.3210 -2.4977
 7163SOL     OW22387   3.348   3.515   2.281  0.1810 -0.2626  0.1409
 7163SOL    HW122388   3.383   3.445   2.219  1.6790  0.9093 -0.4106
 7163SOL    HW222389   3.419   3.584   2.297 -0.3963 -0.1345  2.6190
 7164SOL     OW22390   5.163   1.348   6.148 -0.2706 -0.1560  0.1853
 7164SOL    HW122391   5.118   1.350   6.237  0.2857 -0.0398  0.4690
 7164SOL    HW222392   5.135   1.428   6.094  1.2552  1.1453  1.2028
 7165SOL     OW22393   2.050   3.777   3.994 -0.3961 -0.2188 -0.4430
 7165SOL    HW122394   2.123   3.842   4.017  0.7362 -1.1671 -1.2266
 7165SOL    HW222395   1.964   3.807   4.035  0.5481  0.6255  1.0140
 7166SOL     OW22396   5.732   5.491   5.787  0.1209  0.6035  0.2032
 7166SOL    HW122397   5.811   5.431   5.770 -0.2469 -0.2607  1.4106
 7166SOL    HW222398   5.691   5.517   5.700  0.8126 -0.1990 -0.3802
 7167SOL     OW22399   2.950   5.930   3.437  0.3687 -0.1547 -0.5166
 7167SOL    HW122400   2.927   5.835   3.416 -1.2990  0.3871 -1.3453
 7167SOL    HW222401   3.030   5.958   3.384  1.6002 -1.4056  0.6042
 7168SOL     OW22402   6.211   2.936   0.454 -0.2304  0.3139  0.4598
 7168SOL    HW122403   6.124   2.978   0.480 -0.3842 -1.9328  4.3835
 7168SOL    HW222404   6.193   2.847   0.412  0.2232  0.8181 -0.8667
 7169SOL     OW22405   4.063   1.671   0.735  0.2983  0.0540 -0.3769
 7169SOL    HW122406   4.033   1.759   0.699  1.3356  0.9703  0.8893
 7169SOL    HW222407   4.158   1.655   0.707 -0.0745 -0.9753 -1.1135
 7170SOL     OW22408   2.670   2.369   0.732  0.1712  0.1916 -0.0705
 7170SOL    HW122409   2.593   2.394   0.791  0.0912  1.1290 -0.5383
 7170SOL    HW222410   2.755   2.375   0.783  0.0276  0.2168  0.1657
 7171SOL     OW22411   5.257   5.438   0.412  0.2978  0.3624  0.4984
 7171SOL    HW122412   5.183   5.497   0.379 -0.0696  1.0092  2.3473
 7171SOL    HW222413   5.320   5.492   0.468  1.8602 -0.3214 -0.5232
 7172SOL     OW22414   0.059   4.112   3.804 -0.4885  0.2794  0.0551
 7172SOL    HW122415   0.108   4.142   3.723  1.2874 -1.7459  0.2936
 7172SOL    HW222416   0.064   4.182   3.875  0.5230  0.8396 -0.5580
 7173SOL     OW22417   5.546   6.355   3.247 -0.5938  0.0522 -0.1342
 7173SOL    HW122418   5.496   6.281   3.203 -2.3315  2.3434 -2.3359
 7173SOL    HW222419   5.481   6.420   3.287  0.7455  1.4500 -0.1153
 7174SOL     OW22420   0.624   6.070   2.986  0.3573  0.5577  0.0580
 7174SOL    HW122421   0.545   6.032   2.938  0.0555  0.6617  0.4673
 7174SOL    HW222422   0.705   6.015   2.964  0.3371  0.9289 -0.9884
 7175SOL     OW22423   0.079   1.693   0.920  0.1038 -0.0519  0.2163
 7175SOL    HW122424   0.116   1.621   0.979  1.2517  1.0236  0.8606
 7175SOL    HW222425   0.143   1.711   0.845 -0.1094  0.3843  0.1354
 7176SOL     OW22426   6.118   1.453   5.852 -0.2362  0.3183 -0.8392
 7176SOL    HW122427   6.067   1.530   5.889 -1.4987 -0.2050 -1.4166
 7176SOL    HW222428   6.135   1.386   5.924 -1.5849 -0.1290 -0.9219
 7177SOL     OW22429   6.761   3.026   6.999  0.6216 -0.2670 -0.5549
 7177SOL    HW122430   6.826   3.084   7.048 -0.8666 -0.4154  1.7408
 7177SOL    HW222431   6.811   2.950   6.956  2.3491  1.5929 -2.0390
 7178SOL     OW22432   5.523   4.262   5.011 -0.0407 -0.6387  0.6256
 7178SOL    HW122433   5.508   4.346   4.958  1.7730 -0.0550  0.9644
 7178SOL    HW222434   5.435   4.219   5.029 -0.9028  0.3827 -0.8433
 7179SOL     OW22435   3.657   0.817   4.330 -0.1246  0.6578  0.6126
 7179SOL    HW122436   3.610   0.747   4.384  0.4880  0.3466  0.7494
 7179SOL    HW222437   3.665   0.901   4.385 -1.5945  1.1299  0.1575
 7180SOL     OW22438   5.375   0.191   0.756 -0.0579  0.0498 -0.1354
 7180SOL    HW122439   5.456   0.181   0.814 -1.2453 -1.6682  1.3340
 7180SOL    HW222440   5.309   0.252   0.801 -0.0983  0.4668 -0.7430
 7181SOL     OW22441   0.758   1.212   1.895  0.1508 -0.0643 -0.3591
 7181SOL    HW122442   0.775   1.225   1.992  2.2716 -1.5788 -0.4642
 7181SOL    HW222443   0.779   1.118   1.869 -1.1705  0.0679 -2.1548
 7182SOL     OW22444   5.495   4.898   6.727  0.5139  0.1140 -0.5184
 7182SOL    HW122445   5.464   4.861   6.814  1.0407 -0.1659 -0.4460
 7182SOL    HW222446   5.566   4.966   6.743 -0.5513  1.2841 -0.6416
 7183SOL     OW22447   1.395   5.974   2.757 -0.4923 -0.2129 -0.1579
 7183SOL    HW122448   1.428   6.010   2.843 -0.8605 -1.1422  0.3864
 7183SOL    HW222449   1.408   6.042   2.685  1.7326 -0.1989  0.1966
 7184SOL     OW22450   5.228   6.535   5.297 -0.2848  0.3923  0.3056
 7184SOL    HW122451   5.140   6.516   5.340 -1.0349  0.7914 -0.9766
 7184SOL    HW222452   5.234   6.632   5.275  1.1007  0.6561  1.6442
 7185SOL     OW22453   4.819   3.859   6.973 -0.3072  0.7349 -0.5503
 7185SOL    HW122454   4.792   3.941   6.923  1.0310  1.7082  0.2632
 7185SOL    HW222455   4.882   3.805   6.918  2.1035  2.4039  0.4412
 7186SOL     OW22456   1.260   2.198   4.953 -0.2941  0.4733 -0.0787
 7186SOL    HW122457   1.331   2.246   4.902 -0.1094  0.9803  0.6433
 7186SOL    HW222458   1.234   2.251   5.034  0.0233 -0.6944  0.8289
 7187SOL     OW22459   2.308   1.499   5.637 -0.0389  0.3941 -0.2311
 7187SOL    HW122460   2.314   1.422   5.572 -0.5628 -0.3241  0.5604
 7187SOL    HW222461   2.369   1.481   5.714 -0.7501  0.4053  0.3345
 7188SOL     OW22462   4.381   0.218   4.206 -0.2683 -0.1646  0.2430
 7188SOL    HW122463   4.446   0.174   4.268  0.0344  1.0122  0.7874
 7188SOL    HW222464   4.291   0.174   4.216 -0.3339  0.2860  1.8506
 7189SOL     OW22465   0.788   1.841   2.159  0.3953  0.2098 -0.2169
 7189SOL    HW122466   0.874   1.841   2.209 -0.4184 -0.9666  1.2550
 7189SOL    HW222467   0.776   1.929   2.113  1.9785  0.6832  0.2155
 7190SOL     OW22468   0.404   2.910   6.435 -0.4236 -0.5670  0.5163
 7190SOL    HW122469   0.503   2.902   6.427 -0.6262 -2.9748 -0.3219
 7190SOL    HW222470   0.373   2.863   6.518 -0.9637 -0.9460  0.1090
 7191SOL     OW22471   6.930   6.583   6.561 -0.2805  0.1491 -0.0288
 7191SOL    HW122472   6.887   6.542   6.642 -0.3474  0.0521 -0.1141
 7191SOL    HW222473   6.957   6.677   6.582 -0.7995  0.3072 -0.0693
 7192SOL     OW22474   1.998   2.291   2.422 -0.2702  0.1861  0.2825
 7192SOL    HW122475   2.067   2.282   2.350  1.5232  0.9648  1.8270
 7192SOL    HW222476   1.969   2.201   2.452 -0.2747 -0.1509 -0.6846
 7193SOL     OW22477   5.144   5.771   5.999 -0.6503 -0.6098  0.1942
 7193SOL    HW122478   5.149   5.854   6.055 -0.8743  0.5728 -1.4758
 7193SOL    HW222479   5.220   5.770   5.934 -0.8484 -1.5445 -0.0279
 7194SOL     OW22480   1.905   1.634   6.087 -0.0226  0.6240  0.7060
 7194SOL    HW122481   1.962   1.709   6.120  0.8077 -0.0520  0.8458
 7194SOL    HW222482   1.952   1.586   6.013  0.1032 -0.6236  1.5470
 7195SOL     OW22483   0.734   2.132   3.692  0.0845  0.4561 -0.1116
 7195SOL    HW122484   0.829   2.141   3.722 -0.2595 -1.7278  1.9498
 7195SOL    HW222485   0.732   2.081   3.606  0.7766  0.8636 -0.3831
 7196SOL     OW22486   0.666   6.784   5.381  0.3035  0.4195 -0.2057
 7196SOL    HW122487   0.634   6.878   5.373 -0.4349  0.1292 -0.7638
 7196SOL    HW222488   0.623   6.739   5.459 -1.5719 -0.2995 -1.5676
 7197SOL     OW22489   0.988   3.509   0.091  0.2622 -0.1919  0.1815
 7197SOL    HW122490   1.027   3.560   0.014 -1.1200 -1.0722 -1.1573
 7197SOL    HW222491   0.971   3.414   0.063 -0.6118 -0.4406  1.4642
 7198SOL     OW22492   0.386   5.380   4.692 -0.3224  0.4642  0.0761
 7198SOL    HW122493   0.395   5.401   4.594 -0.1057  0.4453  0.0909
 7198SOL    HW222494   0.311   5.316   4.705  0.9905 -1.2636 -0.3430
 7199SOL     OW22495   4.553   4.474   3.437  0.0501 -0.1582 -0.0978
 7199SOL    HW122496   4.477   4.536   3.417 -0.8352 -0.8517  1.0390
 7199SOL    HW222497   4.635   4.506   3.389 -0.6921  1.1781 -0.5303
 7200SOL     OW22498   5.243   1.527   1.709  0.0195  0.5534  0.0614
 7200SOL    HW122499   5.341   1.505   1.706  0.1877  0.6907  2.4586
 7200SOL    HW222500   5.232   1.624   1.732 -0.7464  1.4561 -3.5550
 7201SOL     OW22501   6.929   5.943   6.224 -0.1351 -0.2222 -0.3711
 7201SOL    HW122502   6.934   5.843   6.228  0.7037 -0.1587  0.6399
 7201SOL    HW222503   6.868   5.970   6.150  2.8555 -1.4205 -3.5349
 7202SOL     OW22504   4.221   1.508   3.534  0.5054  0.2971 -0.4231
 7202SOL    HW122505   4.133   1.556   3.543  0.0264 -0.6040 -0.1255
 7202SOL    HW222506   4.273   1.549   3.460 -1.7659 -1.4909 -3.2110
 7203SOL     OW22507   3.799   2.840   6.409  0.5971  0.4590 -0.2262
 7203SOL    HW122508   3.877   2.779   6.395  0.0354 -0.5977  1.0298
 7203SOL    HW222509   3.757   2.820   6.497 -0.9685  1.1465 -0.7806
 7204SOL     OW22510   5.649   1.968   4.235  0.1539  0.0707 -0.6439
 7204SOL    HW122511   5.591   2.043   4.203 -0.3561  0.5646  1.3100
 7204SOL    HW222512   5.690   1.921   4.156 -2.6800 -0.1451 -2.1056
 7205SOL     OW22513   5.353   4.286   1.498  0.1835 -0.7541  0.6875
 7205SOL    HW122514   5.397   4.320   1.415 -2.7675  1.0415 -0.2708
 7205SOL    HW222515   5.270   4.236   1.475 -2.5015  2.5107  2.5051
 7206SOL     OW22516   2.828   5.355   3.701 -0.6302  0.4854 -0.1807
 7206SOL    HW122517   2.783   5.287   3.759  0.5005  1.4296  1.9025
 7206SOL    HW222518   2.759   5.407   3.651 -1.5949 -0.8749 -0.3343
 7207SOL     OW22519   2.473   1.996   3.204  0.1401 -0.5497  0.5136
 7207SOL    HW122520   2.430   2.017   3.116  0.4028 -0.9693  0.2828
 7207SOL    HW222521   2.402   1.977   3.272 -0.0809  0.2605  0.5252
 7208SOL     OW22522   3.202   0.468   5.825  0.3392  0.4612 -0.1829
 7208SOL    HW122523   3.185   0.440   5.919  1.2197  0.7181  0.0588
 7208SOL    HW222524   3.290   0.431   5.795 -0.5910 -0.8684 -1.4100
 7209SOL     OW22525   1.865   1.456   3.925  0.0551  0.4594  0.3828
 7209SOL    HW122526   1.917   1.528   3.880 -1.7123  2.1064  0.8293
 7209SOL    HW222527   1.780   1.494   3.961  0.5167 -1.1525  3.5424
 7210SOL     OW22528   0.079   4.619   5.363 -0.7578 -0.2530  0.0395
 7210SOL    HW122529   0.154   4.613   5.430 -0.5730  0.3694 -0.1048
 7210SOL    HW222530   0.062   4.528   5.324 -0.4697 -0.5102  0.4989
 7211SOL     OW22531   0.533   1.936   6.117  0.0856  0.1808  0.6208
 7211SOL    HW122532   0.608   1.872   6.100 -2.1301 -2.1634 -1.1942
 7211SOL    HW222533   0.525   1.998   6.039 -2.4488 -2.5201 -1.5000
 7212SOL     OW22534   3.874   0.951   4.986  0.5706 -0.4860 -0.0039
 7212SOL    HW122535   3.962   0.922   5.021  0.2717 -0.4309  0.8207
 7212SOL    HW222536   3.886   1.032   4.928  1.0690 -0.5539 -0.0001
 7213SOL     OW22537   5.992   2.674   2.979 -0.4834 -0.0524  0.4511
 7213SOL    HW122538   6.013   2.751   3.040  2.0460 -0.3077 -0.0127
 7213SOL    HW222539   5.962   2.596   3.034 -1.6257  0.7670  1.0478
 7214SOL     OW22540   6.038   6.218   5.861  0.0774 -0.4541  0.5560
 7214SOL    HW122541   5.989   6.199   5.946  2.6829 -1.3772  1.9812
 7214SOL    HW222542   6.094   6.300   5.872 -1.6763  1.1121 -1.3351
 7215SOL     OW22543   4.166   4.692   3.227  0.2078  0.1138 -0.0111
 7215SOL    HW122544   4.169   4.669   3.130  1.4527 -0.1852  0.0770
 7215SOL    HW222545   4.093   4.759   3.244 -1.6975 -1.6752 -0.7220
 7216SOL     OW22546   3.815   0.932   1.793  0.0446 -0.1911  0.5837
 7216SOL    HW122547   3.754   0.852   1.796 -0.4144  0.1617  0.7140
 7216SOL    HW222548   3.841   0.950   1.698  2.0390 -1.9038  0.7251
 7217SOL     OW22549   1.456   6.473   6.756 -0.2620 -0.1516  0.1692
 7217SOL    HW122550   1.452   6.394   6.694  1.2392 -0.8031  0.8440
 7217SOL    HW222551   1.459   6.440   6.851  0.4013  0.7038  0.4591
 7218SOL     OW22552   4.307   4.235   5.827  0.0494  0.0587 -0.1815
 7218SOL    HW122553   4.307   4.135   5.835 -2.3627 -0.1326 -1.5312
 7218SOL    HW222554   4.294   4.260   5.731  4.1049  1.7910 -0.4849
 7219SOL     OW22555   0.223   4.555   4.729  0.1622 -0.4984  0.5106
 7219SOL    HW122556   0.322   4.566   4.740  0.8550 -0.3095 -4.0003
 7219SOL    HW222557   0.193   4.475   4.781  1.8662  1.2661  4.6950
 7220SOL     OW22558   6.352   3.573   6.234  0.9017  0.1223 -0.1512
 7220SOL    HW122559   6.307   3.515   6.167  1.1264  0.4163 -0.5622
 7220SOL    HW222560   6.292   3.648   6.260  0.2347 -0.8084  1.1012
 7221SOL     OW22561   6.863   5.407   4.053  0.1638  0.0225 -0.1416
 7221SOL    HW122562   6.846   5.311   4.032 -0.3281  0.2961 -1.0573
 7221SOL    HW222563   6.951   5.416   4.098 -0.1231 -0.9418  0.6616
 7222SOL     OW22564   1.956   6.391   0.290  0.3020  0.2075 -0.4017
 7222SOL    HW122565   1.983   6.462   0.355  0.8116 -0.5889  0.2968
 7222SOL    HW222566   1.862   6.362   0.310  0.0179  0.8241 -0.8254
 7223SOL     OW22567   3.558   2.739   0.439  0.4537  0.2538 -0.2776
 7223SOL    HW122568   3.637   2.794   0.414  0.4718  0.3945  0.0771
 7223SOL    HW222569   3.588   2.657   0.487  0.3590  0.5748  0.3380
 7224SOL     OW22570   0.215   4.902   5.486 -0.3525 -0.2916 -0.1111
 7224SOL    HW122571   0.229   4.886   5.583 -1.0456 -1.1332 -0.1327
 7224SOL    HW222572   0.251   4.825   5.434  0.0759  0.1832 -0.5339
 7225SOL     OW22573   6.326   1.124   5.285  0.2272 -0.1961 -0.8001
 7225SOL    HW122574   6.337   1.213   5.329  2.4653 -0.0994 -1.4012
 7225SOL    HW222575   6.385   1.057   5.331  0.7167 -0.6732 -2.0778
 7226SOL     OW22576   4.328   4.821   0.671 -0.1463  0.4907  0.2067
 7226SOL    HW122577   4.333   4.865   0.582 -2.2114  0.6645  0.1255
 7226SOL    HW222578   4.318   4.722   0.659 -1.0847  0.5752  0.1927
 7227SOL     OW22579   3.471   4.979   4.516  0.4294 -0.1048 -0.0402
 7227SOL    HW122580   3.546   5.014   4.572  0.6598 -0.9829  0.2206
 7227SOL    HW222581   3.497   4.981   4.419  0.4683  0.3544 -0.0216
 7228SOL     OW22582   3.736   5.249   3.767 -0.0358  0.3120 -0.4944
 7228SOL    HW122583   3.637   5.262   3.768 -0.0144  0.4762 -0.4384
 7228SOL    HW222584   3.780   5.329   3.726  0.1359  0.6664  0.3637
 7229SOL     OW22585   6.814   0.491   5.570 -0.0593  0.5072  0.2841
 7229SOL    HW122586   6.906   0.497   5.610  0.0395 -0.4389  0.2256
 7229SOL    HW222587   6.816   0.526   5.476  0.8103 -1.6910 -0.5828
 7230SOL     OW22588   2.134   6.262   1.462  0.0053  0.4479  0.0158
 7230SOL    HW122589   2.190   6.341   1.483  0.7052 -0.5382  2.1591
 7230SOL    HW222590   2.138   6.197   1.538 -1.8542 -0.9092 -0.9602
 7231SOL     OW22591   4.306   2.475   5.379 -0.3390  0.2901 -0.1143
 7231SOL    HW122592   4.249   2.511   5.304 -0.1918  1.1689  0.1753
 7231SOL    HW222593   4.383   2.537   5.394  0.4652 -0.6669 -0.2162
 7232SOL     OW22594   4.669   4.519   6.705 -0.0748  0.2745  0.0442
 7232SOL    HW122595   4.594   4.509   6.770  0.0847 -1.5550 -0.0018
 7232SOL    HW222596   4.704   4.612   6.708  0.2216  0.1517  2.9109
 7233SOL     OW22597   4.615   5.120   5.235  0.2725 -0.0552 -0.0591
 7233SOL    HW122598   4.584   5.025   5.233  1.6276 -0.4924 -0.9868
 7233SOL    HW222599   4.543   5.179   5.196  0.0764 -0.8917 -0.9988
 7234SOL     OW22600   0.566   6.615   4.711 -0.1378 -0.0527 -0.2135
 7234SOL    HW122601   0.502   6.601   4.786  2.0823  0.0821  1.8092
 7234SOL    HW222602   0.525   6.580   4.626 -2.0692 -1.7712  1.3058
 7235SOL     OW22603   4.654   5.886   4.621  0.2823 -0.0470  0.2901
 7235SOL    HW122604   4.669   5.981   4.648  0.7514  0.0583 -0.3155
 7235SOL    HW222605   4.735   5.832   4.642  1.0726  0.2499 -1.7809
 7236SOL     OW22606   1.255   2.880   4.522  0.5512  0.4897  0.1982
 7236SOL    HW122607   1.266   2.895   4.424  1.3864  2.2623  0.5234
 7236SOL    HW222608   1.343   2.856   4.562  0.7889  2.3327  0.8797
 7237SOL     OW22609   2.512   0.207   5.929 -0.1568 -0.5487 -0.1566
 7237SOL    HW122610   2.495   0.129   5.869  1.3610  0.1702 -1.6266
 7237SOL    HW222611   2.580   0.181   5.998 -0.4916 -0.8419  0.0639
 7238SOL     OW22612   5.623   2.488   0.590  0.4286  0.1595  0.6089
 7238SOL    HW122613   5.641   2.417   0.658 -0.9076  1.3849  2.3355
 7238SOL    HW222614   5.684   2.566   0.605  1.0336 -0.0869 -0.4743
 7239SOL     OW22615   0.367   3.045   4.185  0.4266  0.2679 -0.5576
 7239SOL    HW122616   0.273   3.037   4.219  1.8024 -2.8511  3.2213
 7239SOL    HW222617   0.427   3.071   4.260  2.8031  1.3756 -2.7026
 7240SOL     OW22618   0.817   4.483   5.253  0.1777 -0.0824 -0.0624
 7240SOL    HW122619   0.854   4.460   5.343  1.4261  0.4700 -0.4077
 7240SOL    HW222620   0.883   4.456   5.183 -0.0080  1.0397 -0.6986
 7241SOL     OW22621   5.369   6.156   3.171  0.0157  0.0837  0.1550
 7241SOL    HW122622   5.336   6.113   3.087  2.2273 -0.1603 -0.6515
 7241SOL    HW222623   5.416   6.088   3.227  2.0332  1.0069 -0.3226
 7242SOL     OW22624   3.486   6.678   1.182 -0.0907 -0.9818 -0.1509
 7242SOL    HW122625   3.402   6.673   1.127 -0.6579 -1.2973  0.7254
 7242SOL    HW222626   3.564   6.691   1.121 -0.6852 -1.4593 -1.0455
 7243SOL     OW22627   1.208   2.571   6.384  0.0198 -0.0533 -0.3175
 7243SOL    HW122628   1.297   2.546   6.422 -0.2358  0.3762  0.5760
 7243SOL    HW222629   1.165   2.640   6.442 -0.8510 -0.1814 -0.8026
 7244SOL     OW22630   4.442   5.670   3.963  0.3676 -0.3783  0.0044
 7244SOL    HW122631   4.452   5.769   3.965 -0.8040 -0.2365 -0.7122
 7244SOL    HW222632   4.518   5.628   4.013  0.7659  0.8777  0.4845
 7245SOL     OW22633   4.562   3.941   1.375  0.1289  0.2241 -0.8939
 7245SOL    HW122634   4.475   3.983   1.349 -0.1520  0.5687  0.5223
 7245SOL    HW222635   4.551   3.894   1.462  1.7671  1.7469  0.2058
 7246SOL     OW22636   6.354   3.044   5.562 -0.0917  0.6023  0.1313
 7246SOL    HW122637   6.351   3.143   5.571  2.9596  1.0291 -2.0486
 7246SOL    HW222638   6.428   3.018   5.499 -0.3463 -3.1045  1.1236
 7247SOL     OW22639   4.181   5.217   2.109 -0.4674  0.5028  0.2438
 7247SOL    HW122640   4.177   5.297   2.169  0.9460 -0.2231  1.3643
 7247SOL    HW222641   4.235   5.239   2.028 -2.0223  1.3514 -0.6265
 7248SOL     OW22642   4.978   4.868   1.837 -0.5154 -0.5337  0.5617
 7248SOL    HW122643   4.888   4.843   1.871 -1.2290  0.3522 -0.5667
 7248SOL    HW222644   4.970   4.951   1.781  0.5025 -2.0163 -1.9528
 7249SOL     OW22645   3.443   1.133   6.589 -0.3168  0.5361  0.4564
 7249SOL    HW122646   3.490   1.212   6.549 -1.7065  0.5614 -1.2420
 7249SOL    HW222647   3.434   1.146   6.687  0.9437  1.7023  0.4462
 7250SOL     OW22648   1.419   2.970   6.895  0.6291 -0.6819  0.0993
 7250SOL    HW122649   1.326   3.005   6.882  0.6853 -0.7863 -0.5979
 7250SOL    HW222650   1.420   2.871   6.881  0.9283 -0.6177 -0.3356
 7251SOL     OW22651   6.183   6.403   3.273  0.4388  0.2902  0.3678
 7251SOL    HW122652   6.226   6.469   3.212 -1.6701  0.7398 -0.7045
 7251SOL    HW222653   6.096   6.439   3.306 -0.0798 -1.3569  0.9035
 7252SOL     OW22654   0.309   6.987   5.429  0.0986  0.6061 -0.2239
 7252SOL    HW122655   0.284   6.890   5.428  1.5123  0.1312  1.7600
 7252SOL    HW222656   0.328   7.015   5.523  0.4198  2.6333 -0.8425
 7253SOL     OW22657   2.227   5.357   0.308  0.2706 -0.5725  0.2628
 7253SOL    HW122658   2.157   5.287   0.298  0.3188 -0.7232  0.9127
 7253SOL    HW222659   2.313   5.323   0.270  1.0571 -2.0632  3.0352
 7254SOL     OW22660   0.460   5.662   5.847  0.7585 -0.1539  0.2104
 7254SOL    HW122661   0.381   5.689   5.792  0.0247  0.0553  1.3430
 7254SOL    HW222662   0.433   5.590   5.911  1.0738  0.9888  1.6780
 7255SOL     OW22663   2.394   6.434   4.993 -0.4080 -0.8079 -0.1830
 7255SOL    HW122664   2.336   6.499   4.945 -0.8748 -1.3367 -0.3411
 7255SOL    HW222665   2.413   6.467   5.085 -1.9802 -1.1996  0.3126
 7256SOL     OW22666   0.475   1.172   2.759 -0.0834  0.2022  0.3921
 7256SOL    HW122667   0.539   1.188   2.684  0.4832 -1.2515  0.5344
 7256SOL    HW222668   0.453   1.075   2.764 -1.7944  0.5718  0.7837
 7257SOL     OW22669   4.000   4.786   0.432 -0.2528 -0.1626  0.2724
 7257SOL    HW122670   4.041   4.708   0.479  2.2781  0.7269 -0.3281
 7257SOL    HW222671   3.969   4.853   0.500 -0.4151 -0.6935  0.7287
 7258SOL     OW22672   0.354   6.573   4.894 -0.5411 -0.2343 -0.0912
 7258SOL    HW122673   0.306   6.657   4.917  0.3081  0.5379 -1.0594
 7258SOL    HW222674   0.354   6.512   4.973 -1.1152  0.6891  0.6421
 7259SOL     OW22675   6.721   1.857   0.706  0.0087  0.1244  0.2521
 7259SOL    HW122676   6.711   1.953   0.682 -1.9112 -0.4870 -1.7355
 7259SOL    HW222677   6.683   1.841   0.797  1.8126  1.4639  1.2998
 7260SOL     OW22678   4.965   4.181   0.709 -0.1874  0.1195  0.3304
 7260SOL    HW122679   4.919   4.263   0.675 -1.2015 -0.4204  0.3455
 7260SOL    HW222680   4.940   4.103   0.651 -1.4759 -0.7046  1.9314
 7261SOL     OW22681   5.285   5.137   3.256  0.5265  0.1971 -0.2266
 7261SOL    HW122682   5.342   5.057   3.275  0.5220 -0.2969 -2.0369
 7261SOL    HW222683   5.342   5.213   3.224  0.3372  0.2313 -0.4901
 7262SOL     OW22684   4.718   6.920   1.730 -0.3925 -0.1949  0.1742
 7262SOL    HW122685   4.810   6.919   1.691  0.6303 -1.0764  2.4250
 7262SOL    HW222686   4.664   6.845   1.692 -0.8031  1.2932 -2.3852
 7263SOL     OW22687   2.476   5.416   6.379  0.4503 -0.3176 -0.2776
 7263SOL    HW122688   2.511   5.502   6.417 -1.4146 -0.0843  1.0054
 7263SOL    HW222689   2.389   5.432   6.333  0.5932 -1.3537 -0.9427
 7264SOL     OW22690   3.410   3.741   4.357  0.6888 -0.1110  0.0201
 7264SOL    HW122691   3.467   3.684   4.415  0.2961 -1.0171 -0.4623
 7264SOL    HW222692   3.467   3.788   4.289  1.0531  0.3642  0.6426
 7265SOL     OW22693   0.996   1.257   1.027  0.1420 -0.4406 -0.0176
 7265SOL    HW122694   1.069   1.190   1.011 -0.1651 -0.9212  0.5664
 7265SOL    HW222695   1.018   1.342   0.980  2.0430  0.0931  1.6926
 7266SOL     OW22696   4.430   2.879   5.440  0.1390 -0.1050 -0.7520
 7266SOL    HW122697   4.447   2.964   5.390  0.3874  0.5650  0.4489
 7266SOL    HW222698   4.341   2.842   5.411  0.7073 -0.2761 -2.3991
 7267SOL     OW22699   6.880   2.174   6.682 -0.6114  0.3399 -0.2264
 7267SOL    HW122700   6.931   2.092   6.656  0.3919  1.5232 -2.1846
 7267SOL    HW222701   6.885   2.186   6.781  3.0811  0.4700 -0.3145
 7268SOL     OW22702   0.436   0.925   0.073  0.4735 -0.2583 -0.2304
 7268SOL    HW122703   0.483   1.006   0.109 -1.2677  0.9315 -0.5002
 7268SOL    HW222704   0.487   0.843   0.098  2.8713  0.9474 -0.8199
 7269SOL     OW22705   3.429   3.300   5.748  0.6450  0.5524 -0.3848
 7269SOL    HW122706   3.449   3.310   5.846  2.2597 -0.6774 -0.5496
 7269SOL    HW222707   3.430   3.203   5.724 -0.5598  0.7859 -1.4899
 7270SOL     OW22708   5.989   6.026   2.149  0.1206  0.4446 -0.5632
 7270SOL    HW122709   6.074   5.988   2.112  0.2767  0.4816 -0.2453
 7270SOL    HW222710   5.942   5.957   2.204  0.9639  1.0401  0.9440
 7271SOL     OW22711   2.471   6.155   4.370 -0.3964  1.0875 -0.7181
 7271SOL    HW122712   2.486   6.184   4.465  1.4746  1.9628 -1.2227
 7271SOL    HW222713   2.465   6.236   4.312 -3.3409  0.6361 -1.1828
 7272SOL     OW22714   2.983   4.293   5.316 -0.5349 -0.1709 -0.3863
 7272SOL    HW122715   2.904   4.238   5.342 -1.4553  0.7276 -1.2055
 7272SOL    HW222716   2.954   4.368   5.257  0.8599  0.4987 -0.2702
 7273SOL     OW22717   5.862   6.212   6.466  0.1347  0.0581 -0.6341
 7273SOL    HW122718   5.899   6.125   6.432  1.2083  0.4605 -0.5181
 7273SOL    HW222719   5.840   6.202   6.563  1.0154  0.1484 -0.4204
 7274SOL     OW22720   3.641   6.418   4.313  0.1199 -0.0170  0.2428
 7274SOL    HW122721   3.659   6.500   4.260  0.3701  0.2617  0.7439
 7274SOL    HW222722   3.566   6.366   4.272  0.3176  0.1834 -0.3792
 7275SOL     OW22723   5.097   5.537   6.906 -0.0730 -0.1927  0.0702
 7275SOL    HW122724   5.179   5.495   6.945 -0.6775  1.0794  3.0008
 7275SOL    HW222725   5.020   5.523   6.968 -1.5758  0.5565 -1.5400
 7276SOL     OW22726   6.856   2.971   2.729 -0.7129  0.4693 -0.3910
 7276SOL    HW122727   6.877   3.016   2.642 -0.5983 -2.6798 -2.1257
 7276SOL    HW222728   6.776   2.913   2.718 -0.6783 -0.0095  1.6244
 7277SOL     OW22729   3.987   6.483   3.333 -0.0633 -0.1537  0.5825
 7277SOL    HW122730   3.954   6.416   3.399  1.8556 -1.6491  0.1102
 7277SOL    HW222731   3.952   6.459   3.242 -1.2820  0.8903  0.7525
 7278SOL     OW22732   4.807   4.465   6.363 -0.7630  0.1215  0.2975
 7278SOL    HW122733   4.786   4.493   6.457 -3.0706  1.8283 -0.6202
 7278SOL    HW222734   4.732   4.409   6.328 -0.3158  0.1740 -0.7682
 7279SOL     OW22735   0.526   5.863   1.410 -0.3432 -0.2433 -0.1313
 7279SOL    HW122736   0.568   5.786   1.458  0.7155  0.3253 -0.1245
 7279SOL    HW222737   0.562   5.868   1.317 -0.8163 -0.0714 -0.3125
 7280SOL     OW22738   5.494   5.244   2.279  0.1543 -0.7215  0.8255
 7280SOL    HW122739   5.394   5.242   2.274  0.1605 -0.2209  0.3865
 7280SOL    HW222740   5.524   5.207   2.367 -0.4051 -1.1390  0.8414
 7281SOL     OW22741   5.827   3.646   2.593 -0.0527 -0.2159 -0.3542
 7281SOL    HW122742   5.804   3.721   2.531  1.0722 -0.8071 -1.5367
 7281SOL    HW222743   5.906   3.671   2.648 -0.0920 -0.2796 -0.2676
 7282SOL     OW22744   1.040   2.331   4.756 -0.4126 -0.1761 -0.1903
 7282SOL    HW122745   1.121   2.337   4.816 -0.2704  0.4519 -0.4389
 7282SOL    HW222746   0.981   2.257   4.788 -1.2161  1.2251  1.8271
 7283SOL     OW22747   4.358   4.240   0.462  0.0244 -0.5618 -0.5551
 7283SOL    HW122748   4.395   4.240   0.369  0.4209 -1.2778 -0.4028
 7283SOL    HW222749   4.368   4.149   0.501 -1.8848 -0.7790 -0.4968
 7284SOL     OW22750   5.817   6.009   3.665 -0.5177 -0.2171 -0.0360
 7284SOL    HW122751   5.783   5.943   3.597  2.0535 -0.0316 -1.6140
 7284SOL    HW222752   5.915   5.998   3.675 -0.6222  0.7242  2.7147
 7285SOL     OW22753   5.364   3.949   0.694  0.0698  0.1196  0.3008
 7285SOL    HW122754   5.332   3.910   0.781 -1.6790  0.5679 -0.1019
 7285SOL    HW222755   5.455   3.988   0.707  1.1831 -2.5172  1.1535
 7286SOL     OW22756   0.581   3.888   4.664 -0.0212 -0.6018  0.1699
 7286SOL    HW122757   0.661   3.948   4.660  0.9038 -1.8211 -0.3028
 7286SOL    HW222758   0.499   3.942   4.686  0.6079  0.9752 -1.1468
 7287SOL     OW22759   3.468   4.642   1.034 -0.2961  0.3584  0.3474
 7287SOL    HW122760   3.530   4.671   1.107 -0.3222 -0.5102  0.7276
 7287SOL    HW222761   3.483   4.546   1.014 -1.3532  0.1887  0.2861
 7288SOL     OW22762   3.039   6.712   1.303 -0.6520  0.2357 -0.0596
 7288SOL    HW122763   3.091   6.643   1.353  0.3503  1.1167  0.1423
 7288SOL    HW222764   2.952   6.672   1.273  0.8895 -1.9288 -2.1196
 7289SOL     OW22765   4.090   1.344   4.342 -0.2336  0.1078  0.5018
 7289SOL    HW122766   4.171   1.403   4.348 -0.5616  0.5415  0.7006
 7289SOL    HW222767   4.028   1.381   4.272 -0.0204 -0.5206 -0.0266
 7290SOL     OW22768   5.289   0.137   4.791  0.1343  0.0007  0.4077
 7290SOL    HW122769   5.301   0.230   4.827  0.5840  0.0574  0.1085
 7290SOL    HW222770   5.191   0.116   4.787 -0.0150  0.7679 -0.2794
 7291SOL     OW22771   0.564   6.304   5.827 -0.3955  0.1842  0.5822
 7291SOL    HW122772   0.591   6.376   5.763 -0.8746 -0.6568 -0.6154
 7291SOL    HW222773   0.494   6.338   5.889 -1.2033  0.5418 -0.4941
 7292SOL     OW22774   4.370   2.500   1.549 -0.0357  0.5588 -0.0951
 7292SOL    HW122775   4.375   2.467   1.455 -1.7053 -1.0059  0.3004
 7292SOL    HW222776   4.287   2.464   1.592 -1.0689  3.8871  0.9944
 7293SOL     OW22777   4.261   0.361   3.307 -0.0821 -0.4099  0.2920
 7293SOL    HW122778   4.213   0.446   3.287 -1.4537 -1.0199  0.8152
 7293SOL    HW222779   4.278   0.354   3.406  0.4926 -0.4990  0.1879
 7294SOL     OW22780   4.183   6.755   5.872  0.1373  0.2102  0.2516
 7294SOL    HW122781   4.093   6.794   5.852  0.3484  0.6488  0.1345
 7294SOL    HW222782   4.212   6.698   5.796 -1.2183 -2.1595  1.4180
 7295SOL     OW22783   5.425   2.657   1.862 -0.1921  0.2759  0.8571
 7295SOL    HW122784   5.414   2.604   1.946  2.4098 -0.3949  0.8596
 7295SOL    HW222785   5.359   2.626   1.794 -0.3840 -1.2553  1.6976
 7296SOL     OW22786   0.969   3.317   4.673 -0.2438  0.1769  0.2550
 7296SOL    HW122787   1.064   3.345   4.660 -0.5733  1.1234 -0.2501
 7296SOL    HW222788   0.930   3.368   4.750 -0.8249  1.0614 -0.6077
 7297SOL     OW22789   5.560   0.205   4.689 -0.6892 -0.1795  0.2362
 7297SOL    HW122790   5.541   0.283   4.629 -0.1162 -0.9362 -0.9567
 7297SOL    HW222791   5.473   0.163   4.716 -0.9507  0.0522 -0.2252
 7298SOL     OW22792   6.389   0.888   1.621 -0.0588 -0.1564  0.3299
 7298SOL    HW122793   6.478   0.846   1.604  0.3927  0.7684  0.3814
 7298SOL    HW222794   6.323   0.857   1.552  0.8352  0.7825 -0.9953
 7299SOL     OW22795   2.620   6.466   3.551  0.0093 -0.2593 -0.6775
 7299SOL    HW122796   2.696   6.472   3.616 -0.6938 -1.5672  0.3283
 7299SOL    HW222797   2.581   6.557   3.537 -0.2956 -0.0124  1.3675
 7300SOL     OW22798   2.078   3.848   6.136 -0.0259  0.1339 -0.4268
 7300SOL    HW122799   2.054   3.842   6.039 -1.0095 -0.1154 -0.1806
 7300SOL    HW222800   1.996   3.834   6.191  0.6557 -0.5209  0.4558
 7301SOL     OW22801   1.706   4.498   6.639  0.0371  0.3959  0.0026
 7301SOL    HW122802   1.804   4.506   6.657  0.3514  0.6046 -1.7110
 7301SOL    HW222803   1.691   4.438   6.561 -1.1470  1.0295 -0.2781
 7302SOL     OW22804   4.851   1.762   0.707  0.2263  0.0870 -0.6365
 7302SOL    HW122805   4.808   1.798   0.625  1.4198 -0.7114 -1.6425
 7302SOL    HW222806   4.780   1.740   0.775 -0.6722  2.2694 -0.7769
 7303SOL     OW22807   6.093   1.958   2.053 -0.3385  0.0525 -0.6684
 7303SOL    HW122808   6.000   1.936   2.025  0.7547 -2.1753 -2.8270
 7303SOL    HW222809   6.123   1.893   2.123  0.1043 -0.1859 -1.0785
 7304SOL     OW22810   6.727   4.417   3.971  0.0207  0.2568  0.1983
 7304SOL    HW122811   6.714   4.322   3.941 -0.6956  0.7869 -1.2736
 7304SOL    HW222812   6.800   4.459   3.918  1.8056 -0.0518  2.3003
 7305SOL     OW22813   4.924   2.709   3.920 -0.4628  0.0787 -0.1442
 7305SOL    HW122814   4.886   2.617   3.915  0.4271 -0.2217 -2.7862
 7305SOL    HW222815   5.024   2.705   3.915 -0.3244  1.1563  1.1117
 7306SOL     OW22816   3.086   4.538   5.637 -0.0015 -0.6024  0.4748
 7306SOL    HW122817   3.053   4.565   5.728  1.0090  2.0687  0.1376
 7306SOL    HW222818   3.018   4.562   5.568  0.5687  0.3725  0.2408
 7307SOL     OW22819   3.401   4.230   1.613  0.3496  0.0828 -0.4119
 7307SOL    HW122820   3.407   4.327   1.635 -0.5830  0.1816 -0.5307
 7307SOL    HW222821   3.312   4.211   1.571 -0.9159 -1.3993  2.6252
 7308SOL     OW22822   3.232   1.154   3.782  0.5757  0.2928 -0.2603
 7308SOL    HW122823   3.253   1.060   3.810  0.8882  0.5423  0.3551
 7308SOL    HW222824   3.155   1.188   3.836  1.3257  0.8567  0.4797
 7309SOL     OW22825   3.876   6.120   1.941  0.2440  0.2580  0.8601
 7309SOL    HW122826   3.963   6.105   1.893 -0.8413  1.2089 -1.6219
 7309SOL    HW222827   3.842   6.212   1.921 -2.4584 -0.8630 -0.2974
 7310SOL     OW22828   6.153   6.486   6.873  0.7598 -0.4481  1.0170
 7310SOL    HW122829   6.160   6.523   6.966  0.1865  0.7493  0.5933
 7310SOL    HW222830   6.070   6.519   6.830  1.2650 -0.6050 -0.1065
 7311SOL     OW22831   3.273   5.231   5.176  0.1931 -0.0096 -0.5385
 7311SOL    HW122832   3.276   5.204   5.080 -0.2067 -0.9455 -0.3007
 7311SOL    HW222833   3.236   5.156   5.231 -0.3271  0.8065  0.2513
 7312SOL     OW22834   3.492   3.831   5.228  0.4221 -0.3622 -0.0628
 7312SOL    HW122835   3.515   3.840   5.131 -0.0038  0.9682 -0.0631
 7312SOL    HW222836   3.418   3.895   5.251 -1.9161 -2.9952  0.3991
 7313SOL     OW22837   5.281   1.770   2.446  0.0620 -0.3391  0.3380
 7313SOL    HW122838   5.223   1.803   2.371 -0.5001 -2.8319 -0.4422
 7313SOL    HW222839   5.252   1.812   2.532  0.9850  2.9192 -0.7943
 7314SOL     OW22840   2.647   5.906   6.869  0.0796 -0.3322  0.2343
 7314SOL    HW122841   2.684   5.856   6.791  2.3281 -0.7105  1.4726
 7314SOL    HW222842   2.549   5.920   6.855  0.4444 -0.1219 -2.7468
 7315SOL     OW22843   5.440   4.276   1.763 -0.8982 -0.4535 -0.0297
 7315SOL    HW122844   5.389   4.290   1.678  0.0959 -2.0150 -0.9314
 7315SOL    HW222845   5.538   4.277   1.743 -0.6636 -1.3048  1.0153
 7316SOL     OW22846   2.545   1.506   4.461  0.6271 -0.3142 -0.2710
 7316SOL    HW122847   2.612   1.439   4.430  1.1828 -0.2811  0.8137
 7316SOL    HW222848   2.592   1.582   4.506 -0.1778 -1.1204  2.1201
 7317SOL     OW22849   6.142   6.652   0.108 -0.3264 -0.3638 -0.9298
 7317SOL    HW122850   6.068   6.630   0.171 -0.0406  0.0337 -0.4507
 7317SOL    HW222851   6.139   6.749   0.086  0.9706 -0.0044  0.3111
 7318SOL     OW22852   1.566   4.058   4.327 -0.3004  0.0757  0.5799
 7318SOL    HW122853   1.620   3.977   4.304  0.7808  0.4224  1.7902
 7318SOL    HW222854   1.473   4.030   4.350 -0.3406 -0.6600 -0.4152
 7319SOL     OW22855   6.069   2.471   2.376  0.4702 -0.1034  0.1816
 7319SOL    HW122856   6.061   2.374   2.355  2.9107 -0.7109  1.6855
 7319SOL    HW222857   6.121   2.516   2.303 -1.8142  0.4450 -1.2159
 7320SOL     OW22858   5.605   5.194   3.326 -0.2378  0.3775  0.2680
 7320SOL    HW122859   5.576   5.218   3.234 -1.0616 -0.8845  0.1854
 7320SOL    HW222860   5.595   5.274   3.386 -1.2002  0.7574 -0.3848
 7321SOL     OW22861   6.380   6.789   6.497 -0.1857  0.8135 -0.0960
 7321SOL    HW122862   6.365   6.802   6.399 -0.9656 -1.1716 -0.3032
 7321SOL    HW222863   6.393   6.692   6.515 -0.4409  1.1037  1.8193
 7322SOL     OW22864   6.553   3.915   5.315  0.9815 -0.0235 -0.8186
 7322SOL    HW122865   6.622   3.965   5.367 -0.3791  1.9435 -0.7833
 7322SOL    HW222866   6.577   3.914   5.219  0.8802  1.0647 -0.8738
 7323SOL     OW22867   6.578   4.334   1.059 -0.3403 -0.1415  0.1527
 7323SOL    HW122868   6.561   4.305   1.153 -0.0300  0.4533  0.3961
 7323SOL    HW222869   6.518   4.282   0.997  0.2887 -1.3749  0.5498
 7324SOL     OW22870   4.058   0.264   5.378  0.3167  0.5152  0.1082
 7324SOL    HW122871   3.985   0.332   5.376  0.4353  0.7094  1.5461
 7324SOL    HW222872   4.145   0.308   5.399  0.4863 -0.0117  0.5429
 7325SOL     OW22873   3.926   6.004   0.400  0.1959 -0.3627  0.6045
 7325SOL    HW122874   3.857   6.011   0.473 -2.2526 -0.6772 -1.5135
 7325SOL    HW222875   3.935   6.093   0.355  0.8912 -0.4299  0.6091
 7326SOL     OW22876   5.859   3.070   2.713 -0.4490  0.3150 -0.5297
 7326SOL    HW122877   5.945   3.075   2.662  0.2761  0.3691  0.6719
 7326SOL    HW222878   5.784   3.051   2.649  0.4895 -0.0928 -1.5470
 7327SOL     OW22879   2.475   4.478   4.017  0.3952 -0.3781  0.1732
 7327SOL    HW122880   2.473   4.467   4.117  0.1849  0.1592  0.2307
 7327SOL    HW222881   2.413   4.412   3.975  0.1450 -0.3056  0.4273
 7328SOL     OW22882   1.223   5.234   5.561  0.0324  0.6910  0.4188
 7328SOL    HW122883   1.252   5.168   5.492 -0.7431  0.7933 -0.0083
 7328SOL    HW222884   1.300   5.254   5.622  0.0916 -1.1505  1.0099
 7329SOL     OW22885   5.582   2.581   3.088 -0.0351 -0.0516 -0.1829
 7329SOL    HW122886   5.653   2.521   3.051  0.3581  0.0263  0.4197
 7329SOL    HW222887   5.493   2.535   3.082  0.3964 -1.1528  1.2084
 7330SOL     OW22888   1.777   6.426   2.993  0.0452  0.1730 -0.4574
 7330SOL    HW122889   1.806   6.358   2.926 -0.4274 -0.1203 -0.3653
 7330SOL    HW222890   1.847   6.497   3.000  0.8525 -0.6351 -0.0886
 7331SOL     OW22891   3.505   5.095   6.601 -0.0876  0.0279 -0.2908
 7331SOL    HW122892   3.486   5.178   6.549  4.5217  2.0408  0.7623
 7331SOL    HW222893   3.495   5.115   6.699  0.7225 -0.7834 -0.0371
 7332SOL     OW22894   6.524   5.222   5.070 -0.1117 -0.0167 -0.6770
 7332SOL    HW122895   6.533   5.272   5.156 -0.7858 -0.7867 -0.1460
 7332SOL    HW222896   6.611   5.226   5.021  0.2203  0.6123 -0.0654
 7333SOL     OW22897   2.504   0.249   1.735 -0.3221 -0.3899  0.0160
 7333SOL    HW122898   2.441   0.305   1.788 -2.5051 -1.5627 -1.2308
 7333SOL    HW222899   2.543   0.178   1.793  0.3622  0.6929  0.9331
 7334SOL     OW22900   6.674   4.916   6.366 -0.3241  0.0323  0.0047
 7334SOL    HW122901   6.591   4.901   6.419 -0.2762 -0.5163 -0.0676
 7334SOL    HW222902   6.710   4.827   6.336  0.6036  0.2297  0.5177
 7335SOL     OW22903   2.164   6.299   5.545 -0.4404 -0.0892  0.2957
 7335SOL    HW122904   2.124   6.364   5.609  1.4779  0.2666  1.2149
 7335SOL    HW222905   2.246   6.258   5.586  0.4470 -0.3811 -1.6570
 7336SOL     OW22906   6.866   6.323   4.628  0.0744 -0.4042  0.3072
 7336SOL    HW122907   6.820   6.239   4.599  0.1327 -1.8434  3.8686
 7336SOL    HW222908   6.959   6.302   4.659  0.2483  1.0428  0.8809
 7337SOL     OW22909   0.880   4.433   4.424  0.4141  0.4379 -0.4687
 7337SOL    HW122910   0.962   4.399   4.470  0.6062 -1.0574 -1.8490
 7337SOL    HW222911   0.799   4.405   4.476  0.5831 -2.0658 -1.4366
 7338SOL     OW22912   3.330   4.079   1.197  0.1445  0.1713 -0.0512
 7338SOL    HW122913   3.322   4.006   1.265  0.5113 -0.3893 -0.6027
 7338SOL    HW222914   3.395   4.052   1.126  0.7994  1.3096  0.0838
 7339SOL     OW22915   5.678   0.417   3.612  0.1694 -0.3377 -0.0100
 7339SOL    HW122916   5.651   0.506   3.649 -3.7160 -2.0859  2.0087
 7339SOL    HW222917   5.734   0.368   3.679  0.4478 -0.2641 -0.1859
 7340SOL     OW22918   4.172   1.159   2.375 -0.0540 -0.2023  0.2514
 7340SOL    HW122919   4.144   1.163   2.279 -2.3054 -0.9271  0.8304
 7340SOL    HW222920   4.131   1.235   2.425  1.9607  0.7916  0.4846
 7341SOL     OW22921   4.755   0.297   4.684  0.0310  0.1859 -0.1944
 7341SOL    HW122922   4.803   0.211   4.698  1.4391  0.7270 -1.4249
 7341SOL    HW222923   4.658   0.279   4.669  0.6242 -1.4768 -2.7882
 7342SOL     OW22924   1.806   2.551   6.029  0.1299  0.1339  0.3797
 7342SOL    HW122925   1.728   2.566   6.089  0.8721 -0.1361  1.4309
 7342SOL    HW222926   1.859   2.473   6.062  1.7622  1.2939  0.6563
 7343SOL     OW22927   2.139   0.552   2.442  0.1357 -0.2612 -0.4092
 7343SOL    HW122928   2.061   0.503   2.481  0.6878  0.5805  1.9091
 7343SOL    HW222929   2.210   0.562   2.511  1.2756  1.1727 -1.7110
 7344SOL     OW22930   2.254   5.388   2.130 -0.4929 -0.1696  0.7310
 7344SOL    HW122931   2.229   5.321   2.060 -0.2171  1.2957 -0.8341
 7344SOL    HW222932   2.325   5.349   2.189  3.9860  0.4654 -3.5732
 7345SOL     OW22933   2.728   0.178   6.101  0.1388 -0.2847  0.3097
 7345SOL    HW122934   2.739   0.248   6.172  0.9363 -0.2145  0.1231
 7345SOL    HW222935   2.813   0.169   6.050 -0.2619 -0.7227 -0.2895
 7346SOL     OW22936   3.096   3.835   5.275 -0.0875  0.6290  0.0538
 7346SOL    HW122937   3.024   3.857   5.211 -0.3856  0.1533  0.2186
 7346SOL    HW222938   3.119   3.738   5.268 -0.1084  0.5773  0.6495
 7347SOL     OW22939   3.358   6.667   4.004  0.2702 -0.0070 -0.2177
 7347SOL    HW122940   3.306   6.601   4.058 -1.0085  0.0594 -1.3179
 7347SOL    HW222941   3.384   6.744   4.061 -1.5222  0.3229  0.1989
 7348SOL     OW22942   3.769   5.070   0.215 -0.6058  0.3519 -0.0874
 7348SOL    HW122943   3.697   5.000   0.207  0.6087 -0.9032 -0.3723
 7348SOL    HW222944   3.800   5.075   0.310 -1.0457  0.9105  0.0394
 7349SOL     OW22945   4.718   5.237   5.463 -0.2416  0.2138 -0.6778
 7349SOL    HW122946   4.709   5.187   5.549  0.1455  0.9403 -0.2002
 7349SOL    HW222947   4.672   5.187   5.390 -1.3313  0.0158  0.1182
 7350SOL     OW22948   3.085   0.450   3.038  0.4591 -0.2226  0.0472
 7350SOL    HW122949   3.040   0.510   3.105  1.3055  0.3466  0.1296
 7350SOL    HW222950   3.129   0.507   2.968  0.2716 -0.7934 -0.5380
 7351SOL     OW22951   6.635   1.114   2.561  0.3546 -0.4130  0.5441
 7351SOL    HW122952   6.612   1.048   2.633  1.7481 -0.8696  0.6072
 7351SOL    HW222953   6.573   1.102   2.484 -0.5792 -0.5349  1.2871
 7352SOL     OW22954   6.851   3.087   1.211 -0.0317  0.0654 -0.2092
 7352SOL    HW122955   6.924   3.085   1.279 -1.2694  0.0629  1.1746
 7352SOL    HW222956   6.791   3.166   1.229  0.1480  0.6145 -1.8960
 7353SOL     OW22957   1.971   0.457   3.624  0.2563  0.4585 -0.2094
 7353SOL    HW122958   1.929   0.398   3.554 -0.4571 -0.2264  0.7705
 7353SOL    HW222959   1.989   0.547   3.585  0.8051 -0.2064 -1.5709
 7354SOL     OW22960   0.082   4.975   4.753 -0.5200  0.2457  0.0242
 7354SOL    HW122961  -0.008   4.941   4.782  0.5006 -0.0884  3.2578
 7354SOL    HW222962   0.149   4.901   4.764  0.0716  0.1482 -3.3912
 7355SOL     OW22963   6.984   5.286   5.409 -0.2868 -0.0883  0.0083
 7355SOL    HW122964   7.067   5.259   5.458 -0.6921 -1.7052 -0.1476
 7355SOL    HW222965   7.007   5.355   5.341  1.1174 -1.1869 -0.6853
 7356SOL     OW22966   3.567   5.510   4.772  0.1245 -0.5951  0.0273
 7356SOL    HW122967   3.571   5.480   4.868  2.0159 -1.6370 -0.3236
 7356SOL    HW222968   3.493   5.577   4.761  1.1183  1.0926  2.6462
 7357SOL     OW22969   3.702   4.675   6.725  0.0820  0.7522  0.0291
 7357SOL    HW122970   3.732   4.736   6.798 -1.8727  3.1817 -1.0657
 7357SOL    HW222971   3.708   4.580   6.757  1.8715  1.5526  2.3137
 7358SOL     OW22972   2.655   4.344   1.352 -0.4322 -0.5599 -0.3734
 7358SOL    HW122973   2.651   4.412   1.424 -1.9152 -1.0757  0.0629
 7358SOL    HW222974   2.579   4.359   1.288  0.2662 -0.7293 -1.2592
 7359SOL     OW22975   6.774   0.033   3.266 -0.0633  0.6112  0.1795
 7359SOL    HW122976   6.702  -0.018   3.219  0.2965  0.2007  0.0624
 7359SOL    HW222977   6.778   0.004   3.362  0.6639 -0.1716 -0.0757
 7360SOL     OW22978   1.670   1.724   1.153 -0.1645  0.0052 -0.5727
 7360SOL    HW122979   1.575   1.754   1.163  0.4488  1.9145  0.1156
 7360SOL    HW222980   1.674   1.646   1.091 -2.0153  0.9223 -1.9783
 7361SOL     OW22981   2.194   6.230   5.065  0.4003 -0.1527  0.4011
 7361SOL    HW122982   2.154   6.185   4.985 -1.0231 -0.1466  1.0821
 7361SOL    HW222983   2.267   6.293   5.035 -1.3935  1.3195 -1.1225
 7362SOL     OW22984   4.553   5.707   3.321  0.5310 -0.0929 -0.3680
 7362SOL    HW122985   4.455   5.685   3.331  0.4692  1.2294  3.2655
 7362SOL    HW222986   4.608   5.632   3.358  0.7941  0.1442 -0.2748
 7363SOL     OW22987   1.508   1.360   4.869  0.3052 -0.6627  0.3063
 7363SOL    HW122988   1.452   1.287   4.907  0.6065  0.0982  2.2952
 7363SOL    HW222989   1.449   1.432   4.832 -0.0230 -0.5764  0.9894
 7364SOL     OW22990   5.548   0.282   5.710 -0.1387  0.8323  0.6078
 7364SOL    HW122991   5.643   0.252   5.699 -0.5448 -0.3640  0.2500
 7364SOL    HW222992   5.508   0.236   5.789 -1.3194 -1.0480 -1.0016
 7365SOL     OW22993   3.131   3.555   5.281 -0.2514  0.1419  0.1598
 7365SOL    HW122994   3.042   3.525   5.316  0.7641  1.3708  4.4314
 7365SOL    HW222995   3.200   3.484   5.298  0.0364  0.1872 -0.7831
 7366SOL     OW22996   6.683   0.725   4.117 -0.3860 -0.0697  0.0965
 7366SOL    HW122997   6.778   0.710   4.147  0.4468 -1.0729 -2.7017
 7366SOL    HW222998   6.650   0.812   4.152  2.4996  1.5321 -0.8385
 7367SOL     OW22999   5.592   0.881   2.678  0.1817  0.0999 -0.0237
 7367SOL    HW123000   5.669   0.945   2.679  0.7003 -0.5028  0.8570
 7367SOL    HW223001   5.506   0.931   2.689  0.5421  0.6823  0.1718
 7368SOL     OW23002   4.563   2.727   0.466 -0.3523  0.4360  0.3891
 7368SOL    HW123003   4.632   2.667   0.506 -0.7474 -0.0902  0.2846
 7368SOL    HW223004   4.476   2.678   0.457 -0.8412  1.1908  0.8295
 7369SOL     OW23005   6.326   4.964   1.865 -0.2096 -0.2744  0.1642
 7369SOL    HW123006   6.315   5.017   1.949 -1.6751  0.1593 -0.2699
 7369SOL    HW223007   6.342   5.026   1.788  0.0770 -0.5990 -0.0420
 7370SOL     OW23008   4.833   6.300   5.097  0.0635  0.6258  0.0379
 7370SOL    HW123009   4.859   6.206   5.121 -0.6985  0.8967  2.1764
 7370SOL    HW223010   4.736   6.303   5.076 -0.0753  1.0348  0.7087
 7371SOL     OW23011   3.210   2.295   6.522 -0.0230  0.4696 -0.4859
 7371SOL    HW123012   3.230   2.376   6.468  1.5735 -0.1911 -0.9400
 7371SOL    HW223013   3.156   2.231   6.468  1.3120 -0.0567 -1.2529
 7372SOL     OW23014   6.566   4.421   0.446  0.4203 -0.4705 -0.3703
 7372SOL    HW123015   6.583   4.471   0.362  1.1454 -0.7387 -0.3856
 7372SOL    HW223016   6.501   4.472   0.502 -1.2586 -1.0089 -1.7430
 7373SOL     OW23017   0.612   0.914   6.120  0.0377  0.3045  0.0393
 7373SOL    HW123018   0.630   0.969   6.039  0.4901 -0.9667 -0.7634
 7373SOL    HW223019   0.514   0.918   6.142  0.3050  2.8007  1.0832
 7374SOL     OW23020   0.560   0.772   0.254 -0.2999  0.1277  0.3534
 7374SOL    HW123021   0.508   0.842   0.304  1.6971  1.1499  1.1466
 7374SOL    HW223022   0.536   0.682   0.289  0.0821  0.7300  2.3423
 7375SOL     OW23023   5.661   0.128   2.809  0.0104 -0.4830 -0.2799
 7375SOL    HW123024   5.626   0.035   2.806  2.3946 -1.4766  0.7266
 7375SOL    HW223025   5.701   0.146   2.899  1.8006  0.6379 -1.2495
 7376SOL     OW23026   4.387   4.768   4.599  0.0575 -0.1445  0.0649
 7376SOL    HW123027   4.315   4.832   4.574 -0.1241 -0.6207 -0.6992
 7376SOL    HW223028   4.381   4.687   4.540  0.1517 -0.9592  1.1303
 7377SOL     OW23029   2.996   0.561   3.822  0.4758  0.7485  0.0522
 7377SOL    HW123030   2.942   0.520   3.749 -0.4313  0.9689  0.5902
 7377SOL    HW223031   2.970   0.522   3.910  1.1538  0.8986  0.3277
 7378SOL     OW23032   6.983   6.904   2.076  0.3931 -0.2346  0.7097
 7378SOL    HW123033   6.995   6.833   2.146 -1.4365 -1.4632 -0.1252
 7378SOL    HW223034   7.005   6.993   2.115  1.5725 -1.1085  2.1658
 7379SOL     OW23035   6.067   4.855   2.213  0.1845  0.5281  0.5337
 7379SOL    HW123036   6.026   4.830   2.301 -1.9238  0.6944 -0.3305
 7379SOL    HW223037   5.994   4.867   2.145  1.7994 -0.2936 -1.4333
 7380SOL     OW23038   4.375   4.238   5.330 -0.3465  0.3457 -0.0335
 7380SOL    HW123039   4.338   4.146   5.342 -0.3511  0.5914  2.2490
 7380SOL    HW223040   4.318   4.288   5.265 -2.1793 -0.2996  0.9877
 7381SOL     OW23041   2.060   2.198   6.974 -0.7071  0.3044  0.0217
 7381SOL    HW123042   1.960   2.197   6.979 -0.9507  2.4342 -2.3210
 7381SOL    HW223043   2.090   2.152   6.890  0.3065 -0.3245  0.7067
 7382SOL     OW23044   2.932   3.668   6.779 -0.1193 -0.4637 -0.0938
 7382SOL    HW123045   2.869   3.682   6.704 -0.4718  1.1732  0.4672
 7382SOL    HW223046   2.883   3.674   6.866  0.1751 -2.8803  0.3047
 7383SOL     OW23047   4.156   2.054   5.965  0.7614  0.0267  0.2345
 7383SOL    HW123048   4.199   2.142   5.941  1.2638 -0.3352 -0.2212
 7383SOL    HW223049   4.084   2.070   6.032  0.8323  0.7938  0.1440
 7384SOL     OW23050   0.479   4.544   4.793 -0.1039  0.4726 -0.4229
 7384SOL    HW123051   0.563   4.544   4.738  0.8152 -0.5221  0.8917
 7384SOL    HW223052   0.481   4.621   4.857  0.0035  0.2194 -0.1191
 7385SOL     OW23053   3.193   6.964   4.065 -0.1499 -0.0650 -0.0644
 7385SOL    HW123054   3.127   6.925   4.000 -0.5407 -0.8308  0.7770
 7385SOL    HW223055   3.246   6.890   4.107 -2.3949 -0.0073  3.1840
 7386SOL     OW23056   3.211   3.143   2.160 -0.7117 -0.1981 -0.3099
 7386SOL    HW123057   3.240   3.050   2.179 -0.5371 -0.0610  0.1112
 7386SOL    HW223058   3.119   3.142   2.121 -0.8889 -0.5142  0.1167
 7387SOL     OW23059   4.151   4.355   6.498 -0.2176  0.5961  0.1564
 7387SOL    HW123060   4.163   4.261   6.528  2.6053  1.0876  0.8014
 7387SOL    HW223061   4.138   4.357   6.399  2.0281 -0.3932 -0.2079
 7388SOL     OW23062   1.380   4.841   1.783 -0.0595  0.6324  0.6207
 7388SOL    HW123063   1.404   4.931   1.819  0.6654 -0.1233  2.1106
 7388SOL    HW223064   1.366   4.777   1.859  0.1846 -0.7065 -0.4209
 7389SOL     OW23065   3.098   4.068   0.531  0.7230 -0.8702 -0.1252
 7389SOL    HW123066   3.009   4.107   0.556  1.4150  0.3911  0.4534
 7389SOL    HW223067   3.100   3.972   0.559 -0.9185 -1.2974 -1.3409
 7390SOL     OW23068   3.600   0.673   3.914  0.2740  0.2408  0.4877
 7390SOL    HW123069   3.561   0.637   3.999  0.5497 -1.1416  0.0569
 7390SOL    HW223070   3.602   0.773   3.918 -4.4361  0.5569  0.0333
 7391SOL     OW23071   5.387   5.735   6.561  0.1161  0.4431  0.2415
 7391SOL    HW123072   5.309   5.674   6.574  1.7837 -2.0155 -0.5948
 7391SOL    HW223073   5.377   5.783   6.473  0.3084 -1.1613 -0.6968
 7392SOL     OW23074   2.330   0.278   5.212 -0.0263 -0.5584  0.1676
 7392SOL    HW123075   2.241   0.252   5.175 -0.6220 -1.3821  2.0447
 7392SOL    HW223076   2.403   0.239   5.155 -0.8073  0.6049 -1.7182
 7393SOL     OW23077   3.252   2.872   1.889  0.3145 -0.2417 -0.0179
 7393SOL    HW123078   3.349   2.846   1.884  0.1703 -0.9832  0.7827
 7393SOL    HW223079   3.216   2.848   1.979 -0.5895  0.1506 -0.2643
 7394SOL     OW23080   5.637   6.040   5.067 -0.1512 -1.0689  0.0415
 7394SOL    HW123081   5.609   6.078   5.156  1.0621 -0.3720  0.1511
 7394SOL    HW223082   5.579   6.078   4.995  1.0246  1.0992  0.1453
 7395SOL     OW23083   5.331   1.925   0.342  0.9116 -0.1974  0.3319
 7395SOL    HW123084   5.237   1.890   0.340  0.2383  1.3800 -2.5786
 7395SOL    HW223085   5.394   1.850   0.362 -0.9229 -1.1371  3.2619
 7396SOL     OW23086   0.873   1.314   3.584 -0.5036 -0.2414  0.0699
 7396SOL    HW123087   0.932   1.284   3.660  0.4159  1.3728  0.0505
 7396SOL    HW223088   0.802   1.374   3.619 -0.7948 -0.4212 -0.2084
 7397SOL     OW23089   4.379   6.830   0.101 -1.4961  1.1423 -0.2981
 7397SOL    HW123090   4.325   6.748   0.079 -0.0096 -0.4438  1.5892
 7397SOL    HW223091   4.403   6.829   0.198  3.9068  0.3348 -1.3192
 7398SOL     OW23092   0.907   1.926   0.813 -0.3486  0.5581  0.0181
 7398SOL    HW123093   0.916   1.848   0.750  2.2360  1.2661 -0.6087
 7398SOL    HW223094   0.833   1.985   0.782 -2.8670 -1.9024  0.8898
 7399SOL     OW23095   6.851   6.251   1.814  0.1003  0.1747 -0.0181
 7399SOL    HW123096   6.772   6.312   1.814 -0.5806 -0.5945 -2.4054
 7399SOL    HW223097   6.934   6.304   1.829 -0.4499  1.7840 -2.1953
 7400SOL     OW23098   0.874   0.989   6.617  0.0816  0.5630 -0.3380
 7400SOL    HW123099   0.870   1.028   6.525 -1.7059 -2.2127 -1.5816
 7400SOL    HW223100   0.791   1.011   6.667 -0.2664 -0.3283 -0.5023
 7401SOL     OW23101   5.471   3.120   6.964 -0.3081 -0.2051  0.2063
 7401SOL    HW123102   5.562   3.161   6.968 -0.0064 -0.8881  0.4508
 7401SOL    HW223103   5.414   3.174   6.902  0.3214  0.1044 -0.1218
 7402SOL     OW23104   3.849   0.674   0.092 -0.0698  0.2943  0.0136
 7402SOL    HW123105   3.854   0.719   0.003  1.6652 -0.3988 -0.2683
 7402SOL    HW223106   3.889   0.732   0.162  0.4638 -0.0248 -0.0243
 7403SOL     OW23107   3.525   2.833   6.953 -0.1350 -0.4808  0.3733
 7403SOL    HW123108   3.491   2.791   7.038 -1.2658 -1.4625 -0.5320
 7403SOL    HW223109   3.500   2.930   6.952 -0.0498 -0.4370  1.1742
 7404SOL     OW23110   5.685   5.221   1.001  0.2512  0.2227  0.0388
 7404SOL    HW123111   5.687   5.283   0.923 -0.3475  0.5167  0.2555
 7404SOL    HW223112   5.622   5.146   0.982 -1.8358  1.5987  1.2015
 7405SOL     OW23113   3.071   0.885   5.276  0.1952 -0.3052 -0.3640
 7405SOL    HW123114   2.990   0.886   5.217  1.0224 -0.1890 -1.5400
 7405SOL    HW223115   3.043   0.872   5.371 -1.2117 -0.0361 -0.7187
 7406SOL     OW23116   1.790   6.112   6.638  0.2320  0.1950 -0.3769
 7406SOL    HW123117   1.882   6.108   6.677  0.0307 -0.4847  0.0449
 7406SOL    HW223118   1.792   6.083   6.543  0.4732  0.3116 -0.4068
 7407SOL     OW23119   5.833   6.203   2.429 -0.0589 -0.2172 -0.2761
 7407SOL    HW123120   5.907   6.152   2.474  1.4145  0.7382 -1.5106
 7407SOL    HW223121   5.868   6.244   2.345 -0.8020  3.8101  1.1790
 7408SOL     OW23122   4.568   6.052   5.459 -0.7337 -0.5332  0.0195
 7408SOL    HW123123   4.498   6.122   5.476 -0.4829 -0.1817 -0.3516
 7408SOL    HW223124   4.605   6.019   5.546 -2.2105 -1.6094  0.2712
 7409SOL     OW23125   0.794   3.939   6.182  0.5665 -0.2811 -0.0631
 7409SOL    HW123126   0.870   3.876   6.163  1.7718  1.3188 -0.7479
 7409SOL    HW223127   0.752   3.915   6.269  1.5726 -1.4775  0.1256
 7410SOL     OW23128   1.955   0.826   1.459  0.4192  0.2822  0.0495
 7410SOL    HW123129   2.055   0.830   1.459  0.4002  1.2946 -0.9653
 7410SOL    HW223130   1.920   0.864   1.373 -0.8640  0.5723  0.6739
 7411SOL     OW23131   4.778   3.244   0.094 -0.7669  0.0888  0.4591
 7411SOL    HW123132   4.739   3.215   0.181 -1.6394 -1.5154 -0.4070
 7411SOL    HW223133   4.736   3.191   0.020  1.1976  0.1692 -0.7781
 7412SOL     OW23134   5.581   6.010   2.056 -0.2090 -0.2878 -0.1144
 7412SOL    HW123135   5.605   5.949   2.132 -2.2659 -1.8712 -0.6430
 7412SOL    HW223136   5.664   6.045   2.014  1.0511  1.7646  3.6456
 7413SOL     OW23137   1.128   0.346   1.977 -0.1505 -0.6201 -0.1672
 7413SOL    HW123138   1.077   0.271   2.020  0.5592 -0.8374  0.3183
 7413SOL    HW223139   1.224   0.339   2.002 -0.1369  0.7074  0.2433
 7414SOL     OW23140   4.255   3.909   0.940 -0.6668 -0.0952  0.3799
 7414SOL    HW123141   4.221   3.939   0.850  0.7618 -0.3921 -0.2923
 7414SOL    HW223142   4.231   3.813   0.954 -1.5732  0.1616  0.6817
 7415SOL     OW23143   0.675   1.928   1.604 -0.0710  0.5235  0.0554
 7415SOL    HW123144   0.717   1.984   1.675 -0.0201 -0.2221  0.6238
 7415SOL    HW223145   0.609   1.983   1.552 -0.8059  0.8399  1.2823
 7416SOL     OW23146   5.256   2.056   6.767 -0.4197  0.2614 -0.2308
 7416SOL    HW123147   5.290   1.999   6.841 -1.5010  1.3275  1.1588
 7416SOL    HW223148   5.330   2.079   6.704  1.3032  1.8837  2.2308
 7417SOL     OW23149   5.659   0.125   1.643 -0.0273 -0.2028 -0.3702
 7417SOL    HW123150   5.699   0.211   1.674 -1.0319  0.5205 -1.0086
 7417SOL    HW223151   5.602   0.086   1.715 -1.0692  0.6524 -0.6902
 7418SOL     OW23152   0.034   3.087   5.344 -0.2411  0.2234  1.3944
 7418SOL    HW123153  -0.057   3.073   5.305  0.8326 -1.4500 -0.7374
 7418SOL    HW223154   0.103   3.054   5.279  1.7914 -1.1524  4.0530
 7419SOL     OW23155   1.890   3.867   5.435  0.1770  0.2369 -0.9789
 7419SOL    HW123156   1.870   3.958   5.398 -0.9788  1.0437  1.3979
 7419SOL    HW223157   1.971   3.872   5.493 -0.2443 -0.0679 -0.3454
 7420SOL     OW23158   0.195   0.737   6.106 -0.1987  0.0892  0.0476
 7420SOL    HW123159   0.121   0.670   6.104 -2.9907  2.8813  1.1814
 7420SOL    HW223160   0.212   0.770   6.013 -0.6236 -0.3354 -0.1848
 7421SOL     OW23161   5.207   4.862   5.750  0.0373 -0.2958 -0.2940
 7421SOL    HW123162   5.180   4.860   5.654 -2.2719  1.5023  0.2438
 7421SOL    HW223163   5.125   4.858   5.808  1.3941 -1.8865  1.6588
 7422SOL     OW23164   3.299   3.429   5.977 -0.3899 -0.5223  0.4200
 7422SOL    HW123165   3.279   3.513   6.027  0.0710 -1.2260  1.8392
 7422SOL    HW223166   3.216   3.374   5.969 -0.2104 -1.0243  1.6657
 7423SOL     OW23167   0.907   3.057   4.909  0.2634  0.0024 -0.0474
 7423SOL    HW123168   0.916   3.147   4.952 -0.0170  0.0063  0.0043
 7423SOL    HW223169   0.821   3.015   4.937 -0.4124  0.4271 -1.3906
 7424SOL     OW23170   0.874   2.541   0.143  0.3040  0.2239  0.1922
 7424SOL    HW123171   0.791   2.565   0.195  0.5904  1.8379 -0.0340
 7424SOL    HW223172   0.954   2.557   0.200  0.5063 -0.5512  0.1305
 7425SOL     OW23173   6.260   2.787   6.817  0.1552  0.2560  0.2032
 7425SOL    HW123174   6.282   2.805   6.721  0.5756 -2.0283 -0.1884
 7425SOL    HW223175   6.344   2.767   6.867 -0.1700  0.3600  0.7949
 7426SOL     OW23176   0.363   6.735   6.905 -0.0355  0.0837 -0.1237
 7426SOL    HW123177   0.382   6.779   6.817 -0.1105  0.2673 -0.0475
 7426SOL    HW223178   0.265   6.714   6.912  0.3877 -2.8773 -1.4646
 7427SOL     OW23179   0.930   2.005   6.871 -0.6856 -0.0615  0.3239
 7427SOL    HW123180   0.899   2.099   6.883  0.3381  0.5425 -1.4228
 7427SOL    HW223181   0.939   1.985   6.774 -1.0761 -2.0542  0.6541
 7428SOL     OW23182   4.424   0.498   2.973 -0.4532 -0.0938 -0.2088
 7428SOL    HW123183   4.440   0.596   2.967 -1.2559  0.3233  2.6519
 7428SOL    HW223184   4.335   0.476   2.933 -0.3379  0.3839 -0.7259
 7429SOL     OW23185   3.177   5.174   3.702  0.3132 -0.4042  0.2224
 7429SOL    HW123186   3.171   5.212   3.794 -4.3777 -0.4300  0.1409
 7429SOL    HW223187   3.175   5.075   3.706  1.3556 -0.4461  0.0658
 7430SOL     OW23188   1.108   0.834   4.487  0.5188 -0.1909  0.2886
 7430SOL    HW123189   1.194   0.882   4.499  0.1965  1.2342 -2.4463
 7430SOL    HW223190   1.091   0.818   4.390 -2.1987 -0.6241  0.7468
 7431SOL     OW23191   6.646   6.681   4.996 -0.0658  0.0530 -0.2378
 7431SOL    HW123192   6.721   6.698   5.060  0.1245 -1.6479  0.0318
 7431SOL    HW223193   6.683   6.660   4.905 -0.2265 -0.2341 -0.2383
 7432SOL     OW23194   4.428   0.850   1.080 -0.3056  0.0355 -0.6082
 7432SOL    HW123195   4.491   0.870   1.004  0.3760  1.8973  0.3905
 7432SOL    HW223196   4.455   0.902   1.161 -2.5969  0.1849  0.1419
 7433SOL     OW23197   6.701   6.215   0.600  0.0593  0.1153  0.3503
 7433SOL    HW123198   6.629   6.160   0.643  0.8040 -0.7463  0.5246
 7433SOL    HW223199   6.790   6.183   0.630  0.5451  0.7810 -0.3337
 7434SOL     OW23200   5.566   5.380   1.207 -0.1015 -0.6928  0.1464
 7434SOL    HW123201   5.639   5.439   1.243 -0.3605 -1.1473  1.4807
 7434SOL    HW223202   5.607   5.308   1.150  0.3941 -0.3254  0.0315
 7435SOL     OW23203   3.298   2.277   0.410 -0.3521 -0.7340  0.0204
 7435SOL    HW123204   3.384   2.238   0.378 -0.5615  0.4935 -2.2704
 7435SOL    HW223205   3.222   2.217   0.385 -0.2760 -1.2727  1.0413
 7436SOL     OW23206   1.405   1.659   0.265 -0.6443 -0.0661  0.2268
 7436SOL    HW123207   1.336   1.598   0.304 -1.0999  0.7039  0.6446
 7436SOL    HW223208   1.363   1.747   0.243 -0.6878 -0.7273 -2.9306
 7437SOL     OW23209   5.379   3.790   0.427 -0.6473 -0.0157 -0.1860
 7437SOL    HW123210   5.317   3.844   0.485  0.7914  1.6386 -0.1140
 7437SOL    HW223211   5.470   3.787   0.469 -0.3398 -1.3740 -0.8918
 7438SOL     OW23212   3.899   2.994   1.993 -0.2186  0.4938  0.1696
 7438SOL    HW123213   3.957   3.075   1.999 -0.8415  1.0611 -1.1768
 7438SOL    HW223214   3.924   2.940   1.913  0.4786 -0.9146  1.2819
 7439SOL     OW23215   2.294   2.688   4.981  0.3476  0.1414 -0.0656
 7439SOL    HW123216   2.319   2.784   4.999 -0.2288  0.0498  1.3318
 7439SOL    HW223217   2.375   2.630   4.992  0.4701  0.3434  0.1075
 7440SOL     OW23218   4.483   0.238   4.696 -0.2593 -0.3843 -0.1501
 7440SOL    HW123219   4.468   0.151   4.650  0.0170  0.4310 -1.8679
 7440SOL    HW223220   4.415   0.250   4.768 -0.3622 -1.9564  0.0396
 7441SOL     OW23221   1.675   0.610   6.973  0.1745  0.0285  0.0201
 7441SOL    HW123222   1.745   0.682   6.978  0.4116 -0.1775 -0.2916
 7441SOL    HW223223   1.673   0.572   6.880  1.9963 -2.3030  0.8548
 7442SOL     OW23224   3.343   1.861   6.484  0.2869  0.2482 -0.2828
 7442SOL    HW123225   3.268   1.824   6.429  0.1700 -0.2101  0.1789
 7442SOL    HW223226   3.305   1.909   6.563  0.4587  0.7515 -0.5057
 7443SOL     OW23227   1.291   4.420   2.341 -0.3269  0.3189 -0.0797
 7443SOL    HW123228   1.204   4.392   2.381  0.5925 -1.6941  0.6326
 7443SOL    HW223229   1.278   4.445   2.245 -2.1430  2.8403  0.7232
 7444SOL     OW23230   5.211   0.995   1.380 -0.3501 -1.0117  0.0727
 7444SOL    HW123231   5.301   0.999   1.337  0.8573 -2.8267  2.1697
 7444SOL    HW223232   5.205   1.067   1.450 -1.0919 -0.0311 -0.9774
 7445SOL     OW23233   6.014   3.621   5.407  0.1123  0.1682  0.0995
 7445SOL    HW123234   5.987   3.652   5.498 -1.4362  0.5213 -0.4399
 7445SOL    HW223235   6.057   3.531   5.414 -0.9127 -0.2737  1.0992
 7446SOL     OW23236   5.009   6.416   1.860 -0.1020  0.5175  0.1359
 7446SOL    HW123237   4.914   6.383   1.857  0.1372 -0.1611 -0.1392
 7446SOL    HW223238   5.070   6.340   1.879  0.3391  1.0777  1.0462
 7447SOL     OW23239   1.926   0.536   1.078  0.2672 -0.0075  0.5626
 7447SOL    HW123240   1.990   0.610   1.061 -1.2813  0.8453 -1.9156
 7447SOL    HW223241   1.964   0.450   1.042 -0.6304  0.8040 -2.5141
 7448SOL     OW23242   1.763   1.513   2.744  0.2670  0.1135  0.6824
 7448SOL    HW123243   1.735   1.607   2.725 -0.4375  0.0643  1.4207
 7448SOL    HW223244   1.761   1.497   2.843  1.2284 -0.4255  0.6239
 7449SOL     OW23245   2.756   3.176   6.804  0.3214 -0.0786 -0.2947
 7449SOL    HW123246   2.773   3.080   6.826 -0.3787 -0.0823  0.2885
 7449SOL    HW223247   2.745   3.187   6.706 -2.9018 -1.1838 -0.1544
 7450SOL     OW23248   4.547   5.960   4.385  0.2637 -0.0192  0.4243
 7450SOL    HW123249   4.554   5.970   4.485  0.1634 -1.7620  0.6364
 7450SOL    HW223250   4.451   5.967   4.358  0.5054  3.5249  0.0105
 7451SOL     OW23251   0.882   5.553   6.070 -0.1758 -0.5289 -0.3561
 7451SOL    HW123252   0.786   5.568   6.094 -0.1120  1.5263 -1.1266
 7451SOL    HW223253   0.904   5.456   6.079 -2.5925 -1.2256 -1.1632
 7452SOL     OW23254   4.880   3.356   1.241 -0.3180 -0.0404  0.1125
 7452SOL    HW123255   4.863   3.368   1.339  1.1565  2.6173  0.1422
 7452SOL    HW223256   4.804   3.394   1.189 -0.7759 -0.8094  0.2102
 7453SOL     OW23257   6.344   2.888   3.089 -0.0964  0.2852  0.1746
 7453SOL    HW123258   6.317   2.925   3.178  1.6771  0.7013  0.5767
 7453SOL    HW223259   6.372   2.793   3.100 -0.6610  0.0843 -0.0994
 7454SOL     OW23260   2.820   5.240   2.355 -0.1331  0.4035 -0.1562
 7454SOL    HW123261   2.869   5.318   2.318  0.0851  0.6753  0.6927
 7454SOL    HW223262   2.818   5.166   2.287 -2.5699  2.0198 -2.0133
 7455SOL     OW23263   1.033   6.785   0.869 -0.4564  0.0371  0.0523
 7455SOL    HW123264   1.082   6.786   0.782  0.5483 -0.7825  0.5967
 7455SOL    HW223265   1.055   6.869   0.920  1.9680 -1.1596  1.1202
 7456SOL     OW23266   0.115   0.772   2.628  0.3706 -0.4791  0.1403
 7456SOL    HW123267   0.035   0.744   2.681  0.2593 -0.8878 -0.2314
 7456SOL    HW223268   0.107   0.868   2.603  0.4064 -0.2946  0.8273
 7457SOL     OW23269   2.326   6.123   6.171 -0.0305  0.2183 -0.2329
 7457SOL    HW123270   2.336   6.222   6.185 -2.5452  0.6583 -1.0574
 7457SOL    HW223271   2.249   6.090   6.226 -0.8326 -0.7813 -1.9058
 7458SOL     OW23272   1.277   0.764   0.973  0.1496 -0.0406  0.1914
 7458SOL    HW123273   1.331   0.750   1.056  1.9542 -1.7793 -1.1700
 7458SOL    HW223274   1.334   0.810   0.904 -0.5144 -0.7446 -0.8500
 7459SOL     OW23275   6.784   1.032   0.574 -0.0504  0.5464 -0.2968
 7459SOL    HW123276   6.850   1.107   0.574 -0.4984  0.9459 -0.7725
 7459SOL    HW223277   6.738   1.029   0.663 -0.7198  1.4559 -0.5986
 7460SOL     OW23278   0.258   6.098   3.662  0.0675  0.2474  0.3056
 7460SOL    HW123279   0.293   6.191   3.674  0.7977 -0.0934  0.9162
 7460SOL    HW223280   0.199   6.094   3.582  2.4415  0.5801 -1.5715
 7461SOL     OW23281   0.158   3.884   4.356  0.3112 -0.1914 -0.3329
 7461SOL    HW123282   0.130   3.889   4.260  1.6391 -1.3400 -0.8121
 7461SOL    HW223283   0.239   3.941   4.370 -0.7088  1.1361  0.4769
 7462SOL     OW23284   6.581   5.417   0.079  0.2537  0.0123 -0.0468
 7462SOL    HW123285   6.624   5.429   0.168 -0.4533 -0.1587  0.3282
 7462SOL    HW223286   6.610   5.330   0.039 -0.6702 -0.6768  0.7473
 7463SOL     OW23287   4.606   2.460   5.944  0.3264  0.2285  0.0269
 7463SOL    HW123288   4.553   2.523   5.887  1.5608  0.6851 -0.6635
 7463SOL    HW223289   4.619   2.374   5.895 -2.1989 -1.0290  1.3561
 7464SOL     OW23290   6.943   1.349   2.330  0.2300 -0.7128  0.1745
 7464SOL    HW123291   6.928   1.372   2.426  1.6316 -0.8044  0.4395
 7464SOL    HW223292   7.018   1.405   2.294 -1.4633  0.6649 -1.4085
 7465SOL     OW23293   3.604   4.020   6.149  0.6800 -0.3551 -0.0886
 7465SOL    HW123294   3.556   3.975   6.224  1.8060  0.4576  1.1382
 7465SOL    HW223295   3.702   3.999   6.154  0.7987 -0.1519 -1.2366
 7466SOL     OW23296   4.178   4.782   5.502  0.1506  0.8800 -0.1092
 7466SOL    HW123297   4.155   4.727   5.583 -0.5584  0.2417 -0.7278
 7466SOL    HW223298   4.259   4.837   5.521 -0.2656  1.0790  1.1907
 7467SOL     OW23299   5.614   3.271   3.522 -0.3045 -0.0240 -0.1739
 7467SOL    HW123300   5.522   3.256   3.560  0.2649 -0.4142  1.1054
 7467SOL    HW223301   5.613   3.352   3.464 -1.5368 -0.2287 -0.4844
 7468SOL     OW23302   6.728   4.067   3.375  0.5761 -0.0490  0.6204
 7468SOL    HW123303   6.643   4.110   3.343  1.3635  1.5269  0.5599
 7468SOL    HW223304   6.730   3.972   3.345 -0.7410  0.1527 -0.1946
 7469SOL     OW23305   0.503   1.580   5.874 -0.2516  0.2728 -0.2138
 7469SOL    HW123306   0.595   1.542   5.862 -0.4028 -0.1495 -0.0442
 7469SOL    HW223307   0.502   1.675   5.841 -0.3345 -0.4387 -2.3974
 7470SOL     OW23308   2.091   5.877   5.203  0.0860  0.5238  0.5395
 7470SOL    HW123309   2.117   5.957   5.257 -0.4884  0.7635  0.4631
 7470SOL    HW223310   2.076   5.799   5.264 -1.2662  0.9746  0.8052
 7471SOL     OW23311   5.619   4.661   2.517 -0.4570  1.0842 -0.0722
 7471SOL    HW123312   5.649   4.566   2.505 -0.6232  1.0146  0.0597
 7471SOL    HW223313   5.620   4.685   2.614 -0.9902  1.0246 -0.0477
 7472SOL     OW23314   6.224   5.411   5.153 -0.2494 -0.1348 -0.0459
 7472SOL    HW123315   6.253   5.326   5.197 -1.6840 -0.9791 -0.6542
 7472SOL    HW223316   6.245   5.406   5.055  0.8868  0.7899  0.1381
 7473SOL     OW23317   0.732   3.516   2.769 -0.0734  0.5157 -0.1873
 7473SOL    HW123318   0.776   3.491   2.683 -0.3631 -0.8928  0.0438
 7473SOL    HW223319   0.633   3.524   2.754 -0.1134  0.3518 -0.0116
 7474SOL     OW23320   3.283   0.548   1.644 -0.2534  0.4391  0.1446
 7474SOL    HW123321   3.227   0.626   1.619 -0.1466  0.4033 -0.2157
 7474SOL    HW223322   3.298   0.548   1.743 -0.8482  0.4716  0.2401
 7475SOL     OW23323   5.952   4.517   2.545 -0.5929  0.4134 -0.2241
 7475SOL    HW123324   5.901   4.476   2.470  0.2247 -1.7938  0.3360
 7475SOL    HW223325   5.910   4.491   2.632 -1.2736  2.5768  0.1470
 7476SOL     OW23326   0.746   4.950   1.348  0.2128 -0.0969  0.0126
 7476SOL    HW123327   0.818   5.014   1.322 -0.6084  0.2255 -1.5441
 7476SOL    HW223328   0.749   4.870   1.289 -0.2661 -0.4170  0.4095
 7477SOL     OW23329   3.187   5.315   2.856  0.1257  0.3398 -0.3372
 7477SOL    HW123330   3.286   5.308   2.865  0.0769  0.5046  0.4140
 7477SOL    HW223331   3.145   5.230   2.889  0.0666 -0.2392 -1.8349
 7478SOL     OW23332   6.137   2.121   1.322  0.4191  0.2206 -0.2626
 7478SOL    HW123333   6.054   2.109   1.376  0.4958  0.1211 -0.1669
 7478SOL    HW223334   6.112   2.145   1.228  0.2830  0.2356 -0.2231
 7479SOL     OW23335   1.013   0.222   2.667  0.2280 -0.5071 -0.5250
 7479SOL    HW123336   1.070   0.301   2.693 -0.7989  0.2265 -0.4564
 7479SOL    HW223337   1.072   0.142   2.653  1.2255  0.1040  0.0343
 7480SOL     OW23338   1.955   5.408   4.265 -0.0003  0.4758 -0.4795
 7480SOL    HW123339   1.988   5.465   4.340  1.6156  0.4072 -1.0927
 7480SOL    HW223340   1.915   5.466   4.195 -0.0685  0.6902 -0.2634
 7481SOL     OW23341   1.923   4.915   1.441 -0.1108 -0.6089 -0.2532
 7481SOL    HW123342   1.825   4.931   1.453 -0.2411 -0.1510 -1.7514
 7481SOL    HW223343   1.936   4.837   1.381  0.4689 -1.0361  0.4131
 7482SOL     OW23344   3.821   3.123   1.725  0.4481 -0.2443  0.4445
 7482SOL    HW123345   3.885   3.132   1.801 -0.8211  0.6074  1.4462
 7482SOL    HW223346   3.776   3.034   1.730  0.2932 -0.1496  0.7573
 7483SOL     OW23347   5.027   0.156   1.965  0.1445 -0.1138  0.5029
 7483SOL    HW123348   4.980   0.158   2.053 -0.0515 -0.8568  0.4189
 7483SOL    HW223349   5.107   0.216   1.969  0.8805 -1.1313  1.6180
 7484SOL     OW23350   6.912   3.373   2.641 -0.0994  0.6923 -0.8465
 7484SOL    HW123351   6.835   3.333   2.592  0.1702  0.3712 -1.0107
 7484SOL    HW223352   6.893   3.374   2.739 -0.6673  1.3923 -0.9564
 7485SOL     OW23353   0.487   6.759   3.405 -0.0405  0.1469 -0.4221
 7485SOL    HW123354   0.532   6.701   3.473 -1.1041 -0.9830 -0.6652
 7485SOL    HW223355   0.449   6.840   3.450  0.3950  0.0662  0.1044
 7486SOL     OW23356   4.361   1.877   6.553  0.0914 -0.0749  0.6946
 7486SOL    HW123357   4.357   1.976   6.569  0.1502 -0.1190  0.9890
 7486SOL    HW223358   4.319   1.856   6.464 -1.1114  0.0771  1.2009
 7487SOL     OW23359   0.370   0.611   2.607  0.8327 -0.4241  0.5866
 7487SOL    HW123360   0.287   0.664   2.588  1.2786  0.1891  0.3179
 7487SOL    HW223361   0.345   0.518   2.633  0.1346 -1.2423 -2.5627
 7488SOL     OW23362   1.834   3.662   1.455  0.2426  0.4990 -0.3185
 7488SOL    HW123363   1.831   3.719   1.372 -0.7672 -0.5860 -1.0674
 7488SOL    HW223364   1.857   3.719   1.534  1.2761  1.5614 -1.3404
 7489SOL     OW23365   6.057   6.689   5.772 -0.0629  0.0326  0.0122
 7489SOL    HW123366   6.141   6.680   5.719  0.2936  0.3706  0.5128
 7489SOL    HW223367   6.019   6.781   5.759 -1.1932 -0.5942 -1.4244
 7490SOL     OW23368   1.530   5.716   1.168 -0.1564  0.1972  0.3766
 7490SOL    HW123369   1.503   5.769   1.088 -0.4607 -0.4337  0.0575
 7490SOL    HW223370   1.462   5.645   1.186  0.5603 -0.4969  0.4138
 7491SOL     OW23371   1.109   4.573   6.871 -0.2009 -0.2388  0.1458
 7491SOL    HW123372   1.206   4.551   6.862 -0.1089  0.4965 -0.8077
 7491SOL    HW223373   1.059   4.543   6.790 -0.4223  1.1194 -0.2514
 7492SOL     OW23374   0.316   3.034   6.032 -0.3632  0.6311 -0.1310
 7492SOL    HW123375   0.342   3.125   6.065 -0.1038  1.1835 -1.7384
 7492SOL    HW223376   0.398   2.979   6.018 -0.5314  0.0685  1.0135
 7493SOL     OW23377   4.572   6.304   5.033  0.3109  0.3152 -0.2282
 7493SOL    HW123378   4.568   6.234   4.961 -0.7600 -1.4511  1.4478
 7493SOL    HW223379   4.486   6.355   5.034 -0.1478 -0.4573  0.5297
 7494SOL     OW23380   3.484   6.343   5.696  0.0531  0.0854 -0.0119
 7494SOL    HW123381   3.470   6.293   5.781  0.5066  0.5482  0.3426
 7494SOL    HW223382   3.568   6.311   5.652 -0.1754 -0.1473 -0.2898
 7495SOL     OW23383   0.500   4.789   1.508 -0.6435 -0.1078  0.3287
 7495SOL    HW123384   0.553   4.756   1.429 -2.0232 -1.3033 -0.1241
 7495SOL    HW223385   0.465   4.880   1.487  0.2814  0.2336  0.1933
 7496SOL     OW23386   1.209   2.302   3.447  0.2233  0.3322 -0.0547
 7496SOL    HW123387   1.113   2.275   3.449  0.8473 -2.1102 -0.0207
 7496SOL    HW223388   1.245   2.304   3.540  0.2720  1.0315 -0.0855
 7497SOL     OW23389   5.242   3.875   1.029 -0.5480 -0.0103 -0.2681
 7497SOL    HW123390   5.174   3.931   1.076 -0.7763 -0.6531  0.1704
 7497SOL    HW223391   5.283   3.811   1.094  1.1222  0.9605 -0.3041
 7498SOL     OW23392   4.630   5.028   4.480 -0.0032 -0.3004 -0.8400
 7498SOL    HW123393   4.666   5.121   4.475 -2.6359  0.7328 -1.9440
 7498SOL    HW223394   4.637   4.995   4.574 -2.6483  2.6016  0.5389
 7499SOL     OW23395   2.293   6.488   1.345 -0.2215  0.2523 -0.2358
 7499SOL    HW123396   2.347   6.547   1.405  1.8224 -0.9807 -0.7510
 7499SOL    HW223397   2.257   6.542   1.269 -1.2456  1.4459  1.0470
 7500SOL     OW23398   0.037   3.930   1.654 -0.0212 -0.7638  0.1291
 7500SOL    HW123399   0.037   3.965   1.748 -1.4209 -0.8625  0.1875
 7500SOL    HW223400   0.112   3.972   1.603  1.0837 -1.0986  1.4186
 7501SOL     OW23401   1.464   5.841   0.927 -0.0126  0.6605  0.5432
 7501SOL    HW123402   1.536   5.890   0.878 -0.6581  1.1355  0.0467
 7501SOL    HW223403   1.399   5.803   0.861 -0.8173  1.1923  1.0089
 7502SOL     OW23404   1.045   2.915   1.034 -0.1150  0.1387 -0.1510
 7502SOL    HW123405   1.046   2.864   1.120 -0.5072 -2.0341 -1.3508
 7502SOL    HW223406   1.011   2.856   0.960  1.7315  1.3666 -2.1283
 7503SOL     OW23407   1.709   1.500   2.173 -0.3367 -0.3537 -0.3155
 7503SOL    HW123408   1.615   1.534   2.186  0.4144  1.9588 -0.4736
 7503SOL    HW223409   1.774   1.575   2.188  1.4682 -1.7413 -0.8581
 7504SOL     OW23410   4.573   3.645   5.547 -0.1929 -0.2099 -0.0913
 7504SOL    HW123411   4.556   3.677   5.640 -0.6477 -1.5578  0.3107
 7504SOL    HW223412   4.660   3.682   5.514 -0.6865  1.4065  0.3282
 7505SOL     OW23413   1.371   4.168   4.979 -0.3612  0.0538  0.0265
 7505SOL    HW123414   1.463   4.156   4.943 -0.5843 -1.2570 -0.1500
 7505SOL    HW223415   1.362   4.121   5.067 -0.9706 -0.2021 -0.1649
 7506SOL     OW23416   5.878   3.569   2.980  0.0377 -0.1294 -0.3245
 7506SOL    HW123417   5.930   3.612   3.054  0.5019 -0.1695 -0.6244
 7506SOL    HW223418   5.904   3.609   2.892  1.9655 -2.3204 -0.8683
 7507SOL     OW23419   6.355   6.069   5.048  0.4734  0.3860 -0.6347
 7507SOL    HW123420   6.428   6.075   5.115 -0.4638  0.9779  0.3620
 7507SOL    HW223421   6.377   6.127   4.969  2.2806 -1.4572 -1.5842
 7508SOL     OW23422   4.585   6.736   5.623  0.1382 -0.3558  1.1474
 7508SOL    HW123423   4.659   6.704   5.682  0.0702 -1.2422  0.7629
 7508SOL    HW223424   4.622   6.795   5.552  0.5313 -1.0569  0.7605
 7509SOL     OW23425   3.365   0.809   2.278 -0.7531  0.2691 -0.3072
 7509SOL    HW123426   3.391   0.739   2.211 -0.8146  0.1835 -0.2412
 7509SOL    HW223427   3.322   0.766   2.356  0.3613  0.2412  0.3203
 7510SOL     OW23428   5.860   2.070   0.910 -0.2546 -0.1710  0.0141
 7510SOL    HW123429   5.836   2.029   0.998 -0.9756  0.9878  0.3845
 7510SOL    HW223430   5.777   2.079   0.855 -0.5424  2.5451  0.7303
 7511SOL     OW23431   1.126   6.988   1.509  0.1891 -0.0233 -0.1336
 7511SOL    HW123432   1.044   7.046   1.509 -0.1271 -0.4554  0.2442
 7511SOL    HW223433   1.115   6.915   1.441 -1.2277 -2.0685  2.0998
 7512SOL     OW23434   2.152   3.870   2.482  0.0081  0.0258  0.5101
 7512SOL    HW123435   2.244   3.881   2.444 -0.3479 -0.6392 -0.5773
 7512SOL    HW223436   2.084   3.881   2.409 -0.7621  0.0452  1.2155
 7513SOL     OW23437   3.046   1.319   1.476  0.3885  0.0242 -0.5043
 7513SOL    HW123438   3.029   1.237   1.422  0.2427  0.8047 -1.6742
 7513SOL    HW223439   2.993   1.314   1.561 -1.8576  0.1590 -1.8166
 7514SOL     OW23440   2.308   5.186   3.041 -0.3778  0.4234  0.2347
 7514SOL    HW123441   2.238   5.173   2.970 -1.7434 -0.3287  1.6526
 7514SOL    HW223442   2.334   5.097   3.079  1.0736  0.7335  0.0156
 7515SOL     OW23443   2.103   6.988   6.306 -0.2050  0.7454 -0.1484
 7515SOL    HW123444   2.037   7.058   6.276 -0.8899 -0.1969 -0.9032
 7515SOL    HW223445   2.060   6.898   6.301  0.5322  0.3027  1.2163
 7516SOL     OW23446   4.426   5.981   3.127  0.6617 -0.0093  0.3923
 7516SOL    HW123447   4.471   5.979   3.216  1.2584 -0.5963  0.0901
 7516SOL    HW223448   4.381   6.069   3.114 -0.7609 -0.4579  1.9031
 7517SOL     OW23449   4.686   0.367   5.332 -0.2531 -0.1522  0.5747
 7517SOL    HW123450   4.652   0.456   5.364  0.2526  0.1729  0.2162
 7517SOL    HW223451   4.731   0.320   5.408  0.8870  0.5906  0.3750
 7518SOL     OW23452   1.415   3.303   0.607 -0.0506  0.3338 -0.4009
 7518SOL    HW123453   1.381   3.263   0.522 -1.0433  0.0219  0.1283
 7518SOL    HW223454   1.349   3.287   0.680  0.6250  0.9121  0.3535
 7519SOL     OW23455   6.506   1.729   3.513 -0.1297  0.0835 -0.4217
 7519SOL    HW123456   6.524   1.645   3.565  1.1137  0.3429 -0.3890
 7519SOL    HW223457   6.589   1.754   3.463 -0.3902  1.4574 -0.1878
 7520SOL     OW23458   0.016   5.097   2.860 -0.6126  0.1291 -0.1940
 7520SOL    HW123459  -0.016   5.139   2.776  0.3907 -0.2700 -0.7942
 7520SOL    HW223460   0.108   5.061   2.847 -0.3727  0.2016  1.1257
 7521SOL     OW23461   3.787   6.051   3.777 -0.6431  0.0865 -0.0666
 7521SOL    HW123462   3.741   6.091   3.856  0.9892  0.9798  0.4704
 7521SOL    HW223463   3.728   6.059   3.697 -2.3997 -0.9966  1.0521
 7522SOL     OW23464   4.282   2.321   5.871  0.1906  0.2215 -0.3416
 7522SOL    HW123465   4.188   2.344   5.846 -0.3653 -2.0072 -0.4774
 7522SOL    HW223466   4.345   2.370   5.811 -0.8607  1.4760 -0.4810
 7523SOL     OW23467   1.741   5.988   2.660  0.5566  0.0848 -0.6262
 7523SOL    HW123468   1.734   5.934   2.744 -1.0302  1.0857 -0.0771
 7523SOL    HW223469   1.735   5.927   2.581 -0.1513 -0.6538 -0.0166
 7524SOL     OW23470   0.929   1.211   1.475 -0.4262  0.3982  0.5230
 7524SOL    HW123471   0.982   1.248   1.551  0.3036  3.2706 -1.2378
 7524SOL    HW223472   0.839   1.254   1.471 -1.2319 -1.1852  0.8734
 7525SOL     OW23473   6.040   4.730   4.564  0.0097 -0.1677 -0.5966
 7525SOL    HW123474   5.981   4.711   4.642  0.4115  0.9635  0.0126
 7525SOL    HW223475   6.022   4.665   4.490 -2.7076  0.7637 -0.8388
 7526SOL     OW23476   0.557   0.910   2.969  0.0298 -0.1564 -0.0992
 7526SOL    HW123477   0.473   0.894   2.917  0.4385 -0.9536 -0.5263
 7526SOL    HW223478   0.609   0.984   2.926 -0.6074  0.5736  0.3639
 7527SOL     OW23479   5.030   0.589   1.260  0.1572 -0.0745  0.4440
 7527SOL    HW123480   5.024   0.539   1.346  1.1853 -0.7149  0.1568
 7527SOL    HW223481   4.944   0.581   1.210  0.3610 -1.7691  0.3064
 7528SOL     OW23482   1.134   0.408   4.966  0.2192  0.4464  0.4343
 7528SOL    HW123483   1.116   0.466   5.045 -1.4004  1.2040 -0.4472
 7528SOL    HW223484   1.114   0.459   4.882  2.5508 -0.1052 -0.5253
 7529SOL     OW23485   2.838   1.413   6.387  0.1216  0.4027  0.5717
 7529SOL    HW123486   2.873   1.402   6.480  1.1437 -0.0325  0.1400
 7529SOL    HW223487   2.913   1.405   6.321 -0.8104 -0.8314 -0.3891
 7530SOL     OW23488   2.473   2.022   5.292  0.4392 -0.7553 -0.0242
 7530SOL    HW123489   2.446   2.117   5.304 -1.4714 -1.1017 -1.2222
 7530SOL    HW223490   2.572   2.014   5.307  1.2809  2.0095 -3.0204
 7531SOL     OW23491   6.492   3.595   3.266  0.4425 -0.7407 -0.3631
 7531SOL    HW123492   6.503   3.524   3.195  0.6232  1.4521 -2.6840
 7531SOL    HW223493   6.414   3.653   3.242 -0.0141 -0.3996  1.7609
 7532SOL     OW23494   6.034   4.753   0.109  0.5342  0.8182  0.0168
 7532SOL    HW123495   5.985   4.682   0.159  1.7680  1.5007  2.3603
 7532SOL    HW223496   6.098   4.710   0.046  1.0444 -0.1996  1.1730
 7533SOL     OW23497   3.229   5.292   6.945 -0.6060  0.4725 -0.3522
 7533SOL    HW123498   3.203   5.347   6.865  0.6301  0.2293 -0.9548
 7533SOL    HW223499   3.158   5.299   7.015 -2.0188  0.2378 -1.6895
 7534SOL     OW23500   0.490   5.124   5.696  0.2602 -0.5807  0.1662
 7534SOL    HW123501   0.584   5.095   5.679  1.4313  2.4491  0.8767
 7534SOL    HW223502   0.470   5.206   5.642 -0.7442  0.8643  2.5584
 7535SOL     OW23503   5.856   1.122   5.614 -0.5576 -0.1890 -0.5517
 7535SOL    HW123504   5.895   1.173   5.537 -0.6244  0.3666 -0.2215
 7535SOL    HW223505   5.862   1.024   5.595  0.0131 -0.0780 -0.9811
 7536SOL     OW23506   4.896   5.724   3.412  0.1016  0.0009 -0.0025
 7536SOL    HW123507   4.834   5.671   3.470  1.1806 -1.0806  0.2017
 7536SOL    HW223508   4.844   5.764   3.335 -0.7509 -1.2897 -0.1281
 7537SOL     OW23509   2.498   6.978   6.839  0.3944  0.2935  0.3211
 7537SOL    HW123510   2.408   6.952   6.874  0.5052  0.5226  0.7939
 7537SOL    HW223511   2.488   7.053   6.774  0.0662 -0.9570 -1.1214
 7538SOL     OW23512   5.095   6.204   5.410  0.0464  0.6813 -0.3690
 7538SOL    HW123513   5.034   6.192   5.489 -0.3244 -1.1311 -0.8750
 7538SOL    HW223514   5.176   6.255   5.438 -0.0629  0.0608  1.2038
 7539SOL     OW23515   0.154   5.990   1.852  0.5814 -0.0582  0.0412
 7539SOL    HW123516   0.145   6.018   1.756  0.3358 -1.3900 -0.3457
 7539SOL    HW223517   0.251   5.983   1.875  0.6879 -1.5110 -0.6911
 7540SOL     OW23518   6.401   0.418   6.492 -0.4380  0.0969  0.1535
 7540SOL    HW123519   6.473   0.349   6.494 -0.0484  0.4402  3.3667
 7540SOL    HW223520   6.411   0.475   6.410  1.4828 -1.3067 -0.6594
 7541SOL     OW23521   1.852   2.717   6.696 -0.1112  0.3142 -0.1685
 7541SOL    HW123522   1.855   2.632   6.644 -1.4802 -0.6391  1.1935
 7541SOL    HW223523   1.936   2.727   6.749 -0.2849 -0.6513  0.3129
 7542SOL     OW23524   5.699   5.935   3.953 -0.0578 -0.3375  0.1880
 7542SOL    HW123525   5.730   5.999   4.024 -1.6541  0.5910  0.0844
 7542SOL    HW223526   5.717   5.974   3.863  1.3104 -1.2041  0.0525
 7543SOL     OW23527   4.152   5.274   1.048 -0.3624  0.2594  0.2983
 7543SOL    HW123528   4.092   5.296   1.125 -0.1423 -0.7627  0.7765
 7543SOL    HW223529   4.186   5.181   1.058  1.0072  0.6901 -0.1734
 7544SOL     OW23530   0.688   3.776   3.244  0.1448 -0.4185  0.2002
 7544SOL    HW123531   0.697   3.714   3.323  1.5009  0.5716  0.8640
 7544SOL    HW223532   0.599   3.761   3.200 -1.2718 -0.0361  2.7381
 7545SOL     OW23533   2.201   4.541   4.564  0.1852  0.3348  0.1644
 7545SOL    HW123534   2.126   4.590   4.608 -0.2534 -0.9646  0.9043
 7545SOL    HW223535   2.253   4.491   4.633 -0.5066 -1.7544 -0.7590
 7546SOL     OW23536   1.191   1.283   0.529 -0.2537  0.0301 -0.2932
 7546SOL    HW123537   1.286   1.310   0.539 -0.4959  1.4823 -1.5197
 7546SOL    HW223538   1.132   1.350   0.574 -0.7429 -0.2385 -0.5221
 7547SOL     OW23539   5.210   3.815   3.528 -0.3193  0.0810  0.4402
 7547SOL    HW123540   5.263   3.795   3.610 -0.5805 -0.1871  0.5456
 7547SOL    HW223541   5.119   3.775   3.537  0.2619 -1.6405 -0.7902
 7548SOL     OW23542   5.841   1.178   3.349  0.2478  0.1979 -0.5194
 7548SOL    HW123543   5.776   1.249   3.376 -0.6262 -1.0142  0.6985
 7548SOL    HW223544   5.863   1.121   3.428  1.9148 -0.1296 -1.1810
 7549SOL     OW23545   0.184   6.851   4.235 -0.1694 -0.6168 -0.3477
 7549SOL    HW123546   0.189   6.908   4.317  1.3686 -2.4343  0.9208
 7549SOL    HW223547   0.102   6.874   4.183 -3.2871 -1.7032  3.5492
 7550SOL     OW23548   4.734   1.935   1.175  0.2229 -0.2138  0.4764
 7550SOL    HW123549   4.822   1.916   1.219 -0.1983 -1.0567  0.9785
 7550SOL    HW223550   4.665   1.873   1.211 -0.2413 -0.6089 -1.0570
 7551SOL     OW23551   3.996   6.166   5.315  0.0703 -0.0267  0.2825
 7551SOL    HW123552   3.902   6.172   5.283 -0.0553  0.2550  0.6971
 7551SOL    HW223553   4.008   6.084   5.370 -0.3468  0.7196  1.5384
 7552SOL     OW23554   6.102   0.494   5.237  0.2937 -0.1307  0.0103
 7552SOL    HW123555   6.107   0.411   5.181  0.3723  0.0259 -0.2183
 7552SOL    HW223556   6.035   0.482   5.310 -2.2079  0.7899 -2.0043
 7553SOL     OW23557   4.923   2.484   5.929  0.3081  0.9416 -0.3007
 7553SOL    HW123558   4.877   2.499   6.017  0.1327 -1.8971  0.1770
 7553SOL    HW223559   5.011   2.440   5.944 -0.0513 -0.2600 -1.5682
 7554SOL     OW23560   0.876   5.715   3.375  0.0369 -0.7533  0.2022
 7554SOL    HW123561   0.804   5.648   3.389  0.6569 -1.1894  1.4066
 7554SOL    HW223562   0.925   5.694   3.290  0.1559 -1.7773  0.5136
 7555SOL     OW23563   3.059   0.223   1.407 -0.1466  0.5531 -0.1361
 7555SOL    HW123564   3.134   0.285   1.382 -1.0757  1.3417 -1.0583
 7555SOL    HW223565   3.063   0.205   1.506 -0.2610  2.6910  0.3267
 7556SOL     OW23566   2.533   0.024   3.008 -0.3685  0.4573  0.3200
 7556SOL    HW123567   2.574   0.073   2.930  0.4426  0.7090  0.8939
 7556SOL    HW223568   2.506   0.090   3.078 -1.2896  0.2468  0.1744
 7557SOL     OW23569   0.780   4.246   0.048 -0.0372 -0.2820 -0.2960
 7557SOL    HW123570   0.842   4.187  -0.004 -1.5124 -2.4017  0.2029
 7557SOL    HW223571   0.833   4.312   0.100  1.6905 -0.9065 -1.1705
 7558SOL     OW23572   5.631   4.013   1.205 -0.5877  0.2534  0.2111
 7558SOL    HW123573   5.620   3.934   1.145 -0.4593 -0.9368  1.7079
 7558SOL    HW223574   5.593   4.094   1.161 -1.8414 -0.8753 -0.8445
 7559SOL     OW23575   6.171   0.782   5.994 -0.4172 -0.0022  0.0788
 7559SOL    HW123576   6.071   0.785   5.994 -0.4176 -0.0238  0.2686
 7559SOL    HW223577   6.203   0.745   5.907 -0.5373  1.1568 -0.4840
 7560SOL     OW23578   6.573   1.690   2.929  0.4017  0.2936  0.3650
 7560SOL    HW123579   6.659   1.722   2.889 -0.1715  1.2816 -0.1179
 7560SOL    HW223580   6.582   1.685   3.029  1.0841  0.1472  0.3020
 7561SOL     OW23581   5.131   1.830   2.233 -0.2685  0.3564 -0.2505
 7561SOL    HW123582   5.164   1.781   2.153 -1.2739 -2.9082  1.1566
 7561SOL    HW223583   5.071   1.904   2.204  1.6284  1.1125 -2.5279
 7562SOL     OW23584   4.620   0.545   2.732 -0.1126 -0.3399  0.9911
 7562SOL    HW123585   4.524   0.520   2.745 -0.9126  1.9336 -0.0553
 7562SOL    HW223586   4.668   0.470   2.686 -1.2788 -1.6358  1.8164
 7563SOL     OW23587   0.315   0.891   1.093  0.2460  0.2980 -0.4478
 7563SOL    HW123588   0.399   0.844   1.064  0.0339 -0.4492  0.1006
 7563SOL    HW223589   0.297   0.868   1.189 -1.4320 -0.8252 -0.9926
 7564SOL     OW23590   5.800   2.117   4.004 -0.4022  0.1967 -0.2232
 7564SOL    HW123591   5.831   2.150   3.915  0.9850  0.6379  0.3997
 7564SOL    HW223592   5.812   2.189   4.072 -0.8604 -0.3482  0.4435
 7565SOL     OW23593   1.166   6.754   2.340 -0.0703  0.2491  0.2504
 7565SOL    HW123594   1.216   6.668   2.337 -0.7165 -0.1064 -0.6613
 7565SOL    HW223595   1.229   6.830   2.323  0.2677 -0.1436 -0.2651
 7566SOL     OW23596   4.377   4.495   0.124  0.4790  0.4179  0.3578
 7566SOL    HW123597   4.388   4.559   0.048  0.1339  0.5281  0.3984
 7566SOL    HW223598   4.375   4.401   0.088 -1.4254  0.5443  0.0182
 7567SOL     OW23599   1.891   6.882   0.895 -0.4018 -0.0043  0.3650
 7567SOL    HW123600   1.990   6.890   0.909 -0.0151  0.2535 -2.1019
 7567SOL    HW223601   1.847   6.968   0.921 -0.1290 -0.4210  2.3271
 7568SOL     OW23602   2.829   6.808   4.523 -0.5273  0.1301  0.0509
 7568SOL    HW123603   2.751   6.751   4.548  0.1851 -1.2647 -0.7433
 7568SOL    HW223604   2.823   6.896   4.569 -1.6361 -0.6112  1.3971
 7569SOL     OW23605   2.776   0.750   3.775 -0.0417 -0.1696 -0.3552
 7569SOL    HW123606   2.802   0.813   3.849  1.0169 -4.2248  3.1046
 7569SOL    HW223607   2.856   0.696   3.748 -0.9288 -0.2661 -3.0596
 7570SOL     OW23608   3.511   5.754   6.537  0.1428  0.2931  0.2504
 7570SOL    HW123609   3.544   5.846   6.518 -0.1088 -0.0143 -2.0415
 7570SOL    HW223610   3.414   5.757   6.561 -0.1857  0.5741 -1.0097
 7571SOL     OW23611   0.194   1.691   5.039 -0.1569 -0.8866 -0.1533
 7571SOL    HW123612   0.241   1.604   5.023  1.1602 -0.9296  3.1928
 7571SOL    HW223613   0.140   1.686   5.123 -1.6411  0.9708 -0.9113
 7572SOL     OW23614   4.620   5.690   4.395  0.1801  0.1442  0.5795
 7572SOL    HW123615   4.578   5.779   4.414 -0.9367  0.0636 -1.2438
 7572SOL    HW223616   4.598   5.627   4.469  0.3829  1.1813  1.5495
 7573SOL     OW23617   2.907   5.925   3.695  0.3516 -0.1010 -0.2275
 7573SOL    HW123618   2.918   5.926   3.595 -1.5255  0.2075 -0.4844
 7573SOL    HW223619   2.987   5.966   3.738  0.7335  0.7605 -1.6749
 7574SOL     OW23620   6.378   4.170   3.868 -0.4909  0.1153 -0.7252
 7574SOL    HW123621   6.389   4.189   3.966  0.2897 -0.9099 -0.6077
 7574SOL    HW223622   6.287   4.133   3.851  0.1670 -1.9706  0.0026
 7575SOL     OW23623   4.682   1.123   1.615  0.1428 -0.0060  0.6160
 7575SOL    HW123624   4.655   1.190   1.546  2.0780  0.4758  0.2682
 7575SOL    HW223625   4.691   1.169   1.704  2.2838  0.4615  0.2201
 7576SOL     OW23626   3.051   3.998   4.524 -0.1107 -0.3061  0.0850
 7576SOL    HW123627   3.059   3.987   4.623 -0.3220  0.9493  0.2585
 7576SOL    HW223628   3.130   3.956   4.480 -0.0591 -0.9582  0.7788
 7577SOL     OW23629   2.825   6.396   0.509 -0.3583 -0.1339  0.8152
 7577SOL    HW123630   2.885   6.325   0.472  0.2884  0.1611  1.2690
 7577SOL    HW223631   2.735   6.357   0.528 -0.4740 -0.4593 -0.3477
 7578SOL     OW23632   3.752   1.534   3.164  0.1769 -0.2065  0.2638
 7578SOL    HW123633   3.803   1.541   3.079 -0.2533  0.2605  0.0326
 7578SOL    HW223634   3.670   1.478   3.150 -0.1379  0.2522  0.2417
 7579SOL     OW23635   6.499   0.524   6.891 -0.6634 -0.2127 -0.3764
 7579SOL    HW123636   6.491   0.617   6.927 -1.3170 -1.2389  2.4192
 7579SOL    HW223637   6.596   0.503   6.876 -0.4749  0.7589 -0.6321
 7580SOL     OW23638   1.987   3.314   4.737 -0.0778 -0.1640 -0.2108
 7580SOL    HW123639   2.053   3.381   4.771 -2.2962  1.5915  0.9185
 7580SOL    HW223640   1.961   3.252   4.812 -0.2433 -0.3945 -0.4587
 7581SOL     OW23641   4.634   0.028   1.460  0.7111 -0.2079 -0.4612
 7581SOL    HW123642   4.712  -0.025   1.425  2.5968  3.1762 -1.9124
 7581SOL    HW223643   4.641   0.036   1.559  2.0728 -0.2367 -0.5381
 7582SOL     OW23644   2.586   1.509   2.050  0.9789 -0.2081  0.1303
 7582SOL    HW123645   2.660   1.564   2.014  1.2537 -0.4710  0.2899
 7582SOL    HW223646   2.504   1.521   1.993  1.6818 -1.3644 -1.1844
 7583SOL     OW23647   0.183   6.938   2.371  0.0631 -0.1791 -0.3640
 7583SOL    HW123648   0.189   7.004   2.296  0.1386  1.2418  0.8384
 7583SOL    HW223649   0.192   6.845   2.335  0.9826  0.5004 -1.9861
 7584SOL     OW23650   0.474   0.122   1.054 -0.3834  0.1331 -0.0229
 7584SOL    HW123651   0.407   0.062   1.011 -0.2854 -0.5557  0.7776
 7584SOL    HW223652   0.566   0.097   1.024 -0.3279 -0.2390  0.4587
 7585SOL     OW23653   0.710   3.994   0.743 -0.2411 -0.1885 -0.4028
 7585SOL    HW123654   0.631   3.985   0.803 -0.9251  0.8509 -1.1122
 7585SOL    HW223655   0.791   3.955   0.788 -0.8778 -0.0739  0.8822
 7586SOL     OW23656   6.005   3.192   1.596 -0.0519 -0.3438 -0.4226
 7586SOL    HW123657   5.987   3.099   1.627 -0.2600 -0.1872 -0.0687
 7586SOL    HW223658   5.925   3.228   1.547 -0.9570  0.5254  1.5670
 7587SOL     OW23659   5.093   2.445   2.286 -0.5983 -0.4368  0.1571
 7587SOL    HW123660   5.138   2.474   2.202 -1.0051  0.5323  0.2599
 7587SOL    HW223661   5.102   2.516   2.355 -2.4570 -0.0904  0.1140
 7588SOL     OW23662   1.995   0.724   4.759  0.3181  0.0092  0.0386
 7588SOL    HW123663   2.070   0.698   4.697  1.7312  0.5949  1.4227
 7588SOL    HW223664   1.908   0.695   4.720  0.9059  2.1043 -3.2142
 7589SOL     OW23665   5.040   0.483   6.929  0.0081 -0.9165 -0.4506
 7589SOL    HW123666   5.112   0.454   6.992 -0.8845  0.5731  1.3278
 7589SOL    HW223667   5.079   0.545   6.860  0.8744 -2.1147 -1.0849
 7590SOL     OW23668   4.568   1.093   0.324 -0.2224  0.5984 -0.2853
 7590SOL    HW123669   4.598   1.186   0.305 -0.0904  0.2967 -1.6168
 7590SOL    HW223670   4.630   1.028   0.281 -1.2318 -0.0751 -0.7776
 7591SOL     OW23671   3.066   3.191   4.725  0.1873 -0.6085 -0.6381
 7591SOL    HW123672   3.019   3.266   4.772  0.1332  0.1741 -1.8931
 7591SOL    HW223673   3.092   3.221   4.633  1.7077 -1.5781 -0.5433
 7592SOL     OW23674   6.356   3.069   5.103 -0.3346  0.6541  0.5415
 7592SOL    HW123675   6.358   3.144   5.037  0.8802  0.0167 -0.1826
 7592SOL    HW223676   6.449   3.045   5.129 -0.6909 -0.6576  0.6865
 7593SOL     OW23677   1.647   2.985   3.997  0.4629 -0.3923 -0.9941
 7593SOL    HW123678   1.632   2.895   3.956 -0.6233 -0.6182 -0.1281
 7593SOL    HW223679   1.568   3.011   4.052  1.5930  0.1935  0.4321
 7594SOL     OW23680   5.728   2.798   5.459  0.1051 -0.1797 -0.5495
 7594SOL    HW123681   5.753   2.881   5.508 -1.2337 -0.6567  1.0373
 7594SOL    HW223682   5.811   2.750   5.430  0.8975  1.6079 -1.3871
 7595SOL     OW23683   2.135   0.422   5.368  0.2900  0.1318 -0.0193
 7595SOL    HW123684   2.210   0.400   5.306 -0.5450  1.7879 -1.7134
 7595SOL    HW223685   2.155   0.507   5.416  0.8524 -1.0553  1.9400
 7596SOL     OW23686   0.873   4.781   2.335  0.3741 -0.3703 -0.0465
 7596SOL    HW123687   0.900   4.872   2.367  2.9472 -1.2190  0.4439
 7596SOL    HW223688   0.916   4.762   2.247 -0.0130 -1.1535 -0.0758
 7597SOL     OW23689   6.589   5.305   4.306  0.3320  0.8924  0.2623
 7597SOL    HW123690   6.527   5.283   4.382 -0.1284  0.0728 -0.3478
 7597SOL    HW223691   6.681   5.317   4.342 -0.2224  2.6292  1.2684
 7598SOL     OW23692   6.434   2.768   2.023 -0.1745  0.5979  0.5574
 7598SOL    HW123693   6.529   2.737   2.022 -0.5534 -0.9486 -3.0952
 7598SOL    HW223694   6.403   2.785   1.929 -2.9034  3.2711  1.7412
 7599SOL     OW23695   2.055   2.464   2.607  0.4741  0.0475 -0.0566
 7599SOL    HW123696   2.042   2.383   2.550 -0.6849 -0.4823  0.9188
 7599SOL    HW223697   1.968   2.489   2.650  0.9181  1.5394  0.0291
 7600SOL     OW23698   3.661   2.853   2.376 -0.2925 -0.2239 -0.5688
 7600SOL    HW123699   3.658   2.759   2.411 -1.5026 -0.3199 -0.8826
 7600SOL    HW223700   3.617   2.914   2.442  0.2338  0.0798 -0.4989
 7601SOL     OW23701   4.404   3.543   6.409 -0.1150 -0.1966  0.4664
 7601SOL    HW123702   4.476   3.482   6.444  0.2058 -0.3559 -0.4468
 7601SOL    HW223703   4.352   3.495   6.338 -0.5804  0.2169  0.5252
 7602SOL     OW23704   5.715   6.571   4.954 -0.1358  0.0921  0.1120
 7602SOL    HW123705   5.790   6.619   5.000  0.0589  0.7220 -0.8124
 7602SOL    HW223706   5.734   6.473   4.953 -0.0670  0.0880  1.2042
 7603SOL     OW23707   5.925   1.662   1.097 -0.3502 -0.0114  0.3741
 7603SOL    HW123708   5.941   1.722   1.175  1.1492 -1.1991  1.0266
 7603SOL    HW223709   5.922   1.567   1.127  0.7905 -0.5434 -1.0457
 7604SOL     OW23710   0.682   4.038   1.111  0.1545  0.5312  0.1457
 7604SOL    HW123711   0.731   4.123   1.092  0.2851 -0.4769 -6.0852
 7604SOL    HW223712   0.748   3.964   1.126  0.9165 -0.1462 -4.8021
 7605SOL     OW23713   3.747   6.537   0.117  0.5487  0.6488 -0.7021
 7605SOL    HW123714   3.809   6.607   0.083  0.2679  0.0294 -2.6149
 7605SOL    HW223715   3.781   6.446   0.091  0.5831  0.0845  1.1799
 7606SOL     OW23716   5.890   3.592   4.784  0.1212 -0.2628 -0.3206
 7606SOL    HW123717   5.842   3.678   4.801 -0.2359 -0.7303  1.1339
 7606SOL    HW223718   5.859   3.523   4.849  0.8835 -1.3218 -1.0468
 7607SOL     OW23719   3.234   4.001   3.426 -0.2655 -0.7668  0.9177
 7607SOL    HW123720   3.305   4.044   3.371 -2.7938  2.6012 -0.0639
 7607SOL    HW223721   3.224   4.050   3.512 -0.5577 -2.0283  1.6336
 7608SOL     OW23722   4.430   4.805   5.671 -0.2938  0.3012 -0.5090
 7608SOL    HW123723   4.405   4.709   5.668 -1.3225  0.4725  1.2436
 7608SOL    HW223724   4.526   4.814   5.697 -0.0672 -0.2499 -1.1447
 7609SOL     OW23725   2.921   2.057   0.991  0.2025  0.0711 -0.3380
 7609SOL    HW123726   2.995   2.052   1.057  0.0776 -1.3045 -0.2660
 7609SOL    HW223727   2.846   1.997   1.020 -1.4174  2.2053  0.1465
 7610SOL     OW23728   5.436   2.882   6.767  0.1728 -0.1955 -0.2366
 7610SOL    HW123729   5.469   2.949   6.833 -0.1726 -0.3810  0.1262
 7610SOL    HW223730   5.336   2.889   6.760  0.1963 -0.2552 -0.6510
 7611SOL     OW23731   3.962   3.101   1.465  0.2387 -0.5075  0.2680
 7611SOL    HW123732   3.899   3.130   1.536 -1.4737 -1.0810 -0.9325
 7611SOL    HW223733   3.957   3.164   1.387 -0.1910 -1.4821 -0.5340
 7612SOL     OW23734   0.606   6.510   5.650  0.0236 -0.2504 -0.3207
 7612SOL    HW123735   0.693   6.558   5.637 -0.7651  1.0773 -1.0204
 7612SOL    HW223736   0.545   6.566   5.706  0.0834 -1.8077  1.3959
 7613SOL     OW23737   3.365   1.386   4.677  0.0523 -0.8513  0.5096
 7613SOL    HW123738   3.359   1.484   4.697 -0.2605 -1.2583  2.6776
 7613SOL    HW223739   3.307   1.365   4.598  1.0317  0.8611 -0.7323
 7614SOL     OW23740   3.581   5.784   5.215 -0.4162  0.0690  0.3186
 7614SOL    HW123741   3.540   5.696   5.242  2.0949 -0.9637  1.0793
 7614SOL    HW223742   3.534   5.858   5.262 -1.2892 -1.0390  1.2739
 7615SOL     OW23743   5.487   3.678   3.817  0.0529 -0.3373  0.1541
 7615SOL    HW123744   5.398   3.714   3.844  0.4244  1.6038 -1.0140
 7615SOL    HW223745   5.550   3.685   3.895 -0.3271  0.0573  0.4352
 7616SOL     OW23746   6.359   5.641   6.287 -0.4797 -0.5826 -0.1708
 7616SOL    HW123747   6.314   5.659   6.374  0.5217 -1.3198  0.5247
 7616SOL    HW223748   6.449   5.601   6.304 -0.3795 -0.9879 -1.5564
 7617SOL     OW23749   2.591   1.066   0.531  0.0691 -0.3949 -0.6902
 7617SOL    HW123750   2.584   1.139   0.464  0.8189  0.4463  0.1158
 7617SOL    HW223751   2.553   0.982   0.493 -3.0799  0.9262 -0.8143
 7618SOL     OW23752   3.284   0.506   3.253  0.3756  0.4291  0.9173
 7618SOL    HW123753   3.215   0.504   3.180  0.3693 -0.2722  0.9437
 7618SOL    HW223754   3.370   0.540   3.216  0.3249  0.2445  0.6227
 7619SOL     OW23755   1.107   4.209   5.609  0.4719  0.7605  0.5930
 7619SOL    HW123756   1.205   4.218   5.627  0.5545  1.6741 -0.2322
 7619SOL    HW223757   1.060   4.292   5.640  0.2147  1.0786 -0.5917
 7620SOL     OW23758   2.526   1.891   4.331  0.0308  0.4315 -0.0017
 7620SOL    HW123759   2.518   1.867   4.428 -2.3537 -0.7078 -0.3862
 7620SOL    HW223760   2.490   1.983   4.316  0.0561  0.4669  0.1542
 7621SOL     OW23761   6.936   5.586   5.044  0.2450  0.4414 -0.4994
 7621SOL    HW123762   6.934   5.557   5.140  0.8247  1.3649 -0.1955
 7621SOL    HW223763   6.943   5.505   4.986 -1.2485 -0.2057  0.1741
 7622SOL     OW23764   6.192   1.105   1.259  0.1665 -0.2972  0.0404
 7622SOL    HW123765   6.267   1.171   1.252 -0.3639  0.2774 -0.3928
 7622SOL    HW223766   6.183   1.075   1.354  0.4946  0.1742  0.2258
 7623SOL     OW23767   2.773   0.300   6.336  0.1349 -0.5397  0.1904
 7623SOL    HW123768   2.713   0.347   6.401 -0.1070  1.1057 -1.1383
 7623SOL    HW223769   2.852   0.263   6.384 -1.2406 -1.5847  1.7842
 7624SOL     OW23770   0.291   2.784   4.845  0.0517 -0.5657  0.1328
 7624SOL    HW123771   0.237   2.867   4.830  0.3873 -0.2056  0.8389
 7624SOL    HW223772   0.281   2.723   4.767 -1.1708 -0.3954  0.1420
 7625SOL     OW23773   3.728   5.253   4.128  0.1771  0.4863 -0.3415
 7625SOL    HW123774   3.670   5.288   4.054 -0.1009  0.4782 -0.1295
 7625SOL    HW223775   3.680   5.264   4.215  0.1328 -0.3238 -0.2613
 7626SOL     OW23776   1.817   2.504   6.531 -0.2611  0.4322  0.1532
 7626SOL    HW123777   1.738   2.483   6.473  0.2470 -0.6376 -0.1680
 7626SOL    HW223778   1.887   2.551   6.478  0.6209 -1.4329 -0.3905
 7627SOL     OW23779   4.337   6.889   1.499  0.0106  0.2250  0.2986
 7627SOL    HW123780   4.418   6.869   1.445  0.6748  0.9200  1.0039
 7627SOL    HW223781   4.258   6.899   1.439  0.2766 -1.2445 -0.3284
 7628SOL     OW23782   2.997   4.506   1.579  0.2659  0.1727 -0.4302
 7628SOL    HW123783   2.921   4.548   1.530 -0.0578 -0.8874 -0.8632
 7628SOL    HW223784   2.976   4.505   1.677 -0.8369 -1.1589 -0.6469
 7629SOL     OW23785   6.496   1.570   6.987 -0.3536  0.1326 -0.4693
 7629SOL    HW123786   6.459   1.503   7.051 -0.5375 -1.3040 -2.0195
 7629SOL    HW223787   6.566   1.625   7.033 -0.5831 -0.7508  0.9928
 7630SOL     OW23788   6.970   4.913   6.344 -0.2699  0.0392 -0.0445
 7630SOL    HW123789   6.938   4.985   6.282  0.7985 -0.9540 -1.7963
 7630SOL    HW223790   6.899   4.842   6.352 -0.6115  0.4101  0.2995
 7631SOL     OW23791   3.202   6.580   6.236  0.3832  0.4683 -0.5725
 7631SOL    HW123792   3.120   6.600   6.182 -0.2495  0.1883  0.2841
 7631SOL    HW223793   3.269   6.534   6.178  0.1696  1.2122 -1.4329
 7632SOL     OW23794   4.379   4.724   6.972  0.4262  0.3651 -0.0149
 7632SOL    HW123795   4.433   4.745   6.890 -0.4596 -0.7192 -0.9132
 7632SOL    HW223796   4.282   4.737   6.952  0.1930 -0.0070  0.8395
 7633SOL     OW23797   4.669   1.453   3.797  0.3427  0.1580  0.0180
 7633SOL    HW123798   4.642   1.359   3.819  0.5437  0.6608  2.8217
 7633SOL    HW223799   4.592   1.502   3.756  0.3919 -1.3150 -1.9764
 7634SOL     OW23800   2.113   2.604   1.871  0.1867 -0.0610 -0.0529
 7634SOL    HW123801   2.050   2.676   1.840  1.1905  0.7902 -0.1673
 7634SOL    HW223802   2.152   2.630   1.959  1.5181  0.1478 -0.6883
 7635SOL     OW23803   3.179   4.775   1.167 -0.1285 -0.1607  0.0903
 7635SOL    HW123804   3.236   4.779   1.085 -0.2152 -1.7615 -0.0807
 7635SOL    HW223805   3.223   4.717   1.236 -1.2681 -0.9893  0.1530
 7636SOL     OW23806   0.636   0.480   5.725  0.3004  0.4956  0.4743
 7636SOL    HW123807   0.647   0.564   5.778  0.7006 -0.5610  2.1167
 7636SOL    HW223808   0.700   0.481   5.648  0.3980  1.6332  0.5547
 7637SOL     OW23809   5.986   3.182   0.989 -0.2799  0.0825 -0.4257
 7637SOL    HW123810   6.042   3.184   1.072  1.4180 -1.4214 -1.4614
 7637SOL    HW223811   5.971   3.275   0.957 -0.0823  0.6244  0.9889
 7638SOL     OW23812   0.785   3.085   1.642 -0.0691 -0.6738  0.3852
 7638SOL    HW123813   0.719   3.011   1.649 -0.1021 -0.5438  1.8265
 7638SOL    HW223814   0.790   3.134   1.729  2.0673 -0.7998  0.3887
 7639SOL     OW23815   6.773   2.455   5.108 -0.0543 -0.0212 -0.0713
 7639SOL    HW123816   6.802   2.416   5.021 -1.0290 -0.6774 -0.1193
 7639SOL    HW223817   6.680   2.424   5.130  1.2462 -2.4689  2.6805
 7640SOL     OW23818   5.046   6.376   0.353  0.7161  0.5530  0.3494
 7640SOL    HW123819   5.034   6.277   0.364  0.2667  0.4694 -0.7408
 7640SOL    HW223820   5.125   6.406   0.406  0.5880 -0.3104  1.0560
 7641SOL     OW23821   6.252   3.714   5.875 -0.2243  0.1346  0.2551
 7641SOL    HW123822   6.327   3.689   5.936 -0.0008  0.0489 -0.0495
 7641SOL    HW223823   6.177   3.753   5.928 -0.1748 -0.2638  0.6257
 7642SOL     OW23824   1.331   2.393   5.678 -0.3302 -0.2916 -0.1864
 7642SOL    HW123825   1.278   2.312   5.655  0.5996 -0.6125 -1.2956
 7642SOL    HW223826   1.386   2.376   5.759  1.5365 -1.6042 -1.6395
 7643SOL     OW23827   6.824   0.619   3.849  0.2477 -0.1719  0.3746
 7643SOL    HW123828   6.748   0.596   3.910 -0.3137 -0.4389 -0.4144
 7643SOL    HW223829   6.792   0.682   3.778  0.4219 -1.3335 -0.7629
 7644SOL     OW23830   2.202   0.718   3.105 -0.2414 -0.1172  0.0553
 7644SOL    HW123831   2.204   0.818   3.103  0.3226 -0.1020  0.8443
 7644SOL    HW223832   2.158   0.683   3.022 -0.4659  0.7834 -0.2079
 7645SOL     OW23833   0.990   0.130   5.882  0.2825 -0.2943  0.3599
 7645SOL    HW123834   1.078   0.167   5.852 -0.3533  0.5457 -0.5080
 7645SOL    HW223835   0.918   0.198   5.867 -0.7499 -1.4969 -0.3071
 7646SOL     OW23836   0.511   2.955   2.945 -0.2162 -0.3043 -0.1316
 7646SOL    HW123837   0.527   2.919   2.853  0.5372  2.8144 -1.3849
 7646SOL    HW223838   0.468   3.046   2.937 -0.7184 -0.2206  2.6609
 7647SOL     OW23839   0.316   6.927   5.802 -0.1507  0.0392  0.5724
 7647SOL    HW123840   0.280   7.012   5.763  1.0133  0.2638 -0.0571
 7647SOL    HW223841   0.267   6.905   5.886 -0.9584  0.9415  0.3463
 7648SOL     OW23842   4.332   5.026   0.825 -0.2110 -0.3743 -0.9506
 7648SOL    HW123843   4.309   4.946   0.770  1.5510 -0.9617 -0.8716
 7648SOL    HW223844   4.399   5.082   0.777 -0.8196  0.6533 -0.6454
 7649SOL     OW23845   5.781   1.831   3.645 -0.2411  0.1096 -0.4530
 7649SOL    HW123846   5.738   1.745   3.616 -1.2422  0.6062 -0.4786
 7649SOL    HW223847   5.711   1.892   3.682  0.1064  1.6771 -2.2236
 7650SOL     OW23848   6.136   5.483   5.775 -0.3947  0.3698 -0.3908
 7650SOL    HW123849   6.158   5.563   5.719  0.1907  1.0331  0.7482
 7650SOL    HW223850   6.137   5.509   5.871 -2.5309 -0.4650 -0.0933
 7651SOL     OW23851   6.784   2.116   1.985 -0.1850 -0.0066 -0.3949
 7651SOL    HW123852   6.777   2.208   2.022  0.5022  0.3927 -1.2112
 7651SOL    HW223853   6.723   2.107   1.906  0.4042  0.0422 -0.8635
 7652SOL     OW23854   4.306   0.268   3.584 -0.5572 -0.4766  0.0813
 7652SOL    HW123855   4.403   0.290   3.578 -0.5062 -1.1357 -2.4712
 7652SOL    HW223856   4.296   0.170   3.602 -0.7133 -0.6407 -0.8428
 7653SOL     OW23857   4.298   0.539   1.275  0.1343  0.3043  0.0870
 7653SOL    HW123858   4.353   0.507   1.198 -0.1836 -0.0741  0.0131
 7653SOL    HW223859   4.353   0.600   1.332  1.5149 -2.0780  1.4612
 7654SOL     OW23860   0.332   4.916   2.598 -0.7525  0.1053 -0.0216
 7654SOL    HW123861   0.285   4.995   2.558 -0.4902  0.7031  0.8265
 7654SOL    HW223862   0.302   4.904   2.693  0.2668  0.0614  0.3002
 7655SOL     OW23863   5.781   0.349   4.771 -0.2236 -0.3045 -0.1936
 7655SOL    HW123864   5.695   0.306   4.743 -0.3450 -0.8015  0.8996
 7655SOL    HW223865   5.851   0.279   4.784  0.3843  0.1096 -1.1783
 7656SOL     OW23866   4.455   2.384   0.214 -0.2122  0.4223 -0.0779
 7656SOL    HW123867   4.496   2.339   0.293 -0.1578  0.7160  0.0620
 7656SOL    HW223868   4.379   2.329   0.179 -0.6195  0.5833  0.5440
 7657SOL     OW23869   1.146   6.760   0.628 -0.3880  0.2200 -0.1656
 7657SOL    HW123870   1.197   6.819   0.566 -1.2039 -0.7629 -1.8256
 7657SOL    HW223871   1.173   6.665   0.613 -1.7592 -0.1873 -0.1335
 7658SOL     OW23872   6.994   5.390   6.908 -0.1448  0.1770 -0.0081
 7658SOL    HW123873   7.070   5.385   6.973  0.6764  0.0521 -0.9679
 7658SOL    HW223874   7.000   5.314   6.843 -0.7400  0.5177 -0.4780
 7659SOL     OW23875   1.877   1.784   1.294 -0.1108 -0.2292  0.3461
 7659SOL    HW123876   1.941   1.711   1.272  1.4846  0.8163  1.3318
 7659SOL    HW223877   1.792   1.769   1.244  0.6663 -1.9709 -0.5637
 7660SOL     OW23878   3.937   1.003   4.402 -0.1595  0.0750  0.2996
 7660SOL    HW123879   3.945   0.969   4.309 -0.9800  0.4167  0.0938
 7660SOL    HW223880   3.841   1.025   4.421 -0.1271 -0.6500  1.4507
 7661SOL     OW23881   5.830   1.098   5.173  0.6060  0.6290  0.2378
 7661SOL    HW123882   5.869   1.150   5.249  1.3993  0.2099  0.1329
 7661SOL    HW223883   5.844   1.000   5.189 -0.9122  0.4294  0.4552
 7662SOL     OW23884   0.648   2.152   5.962  0.1933 -0.6072 -0.0714
 7662SOL    HW123885   0.613   2.241   5.992  0.0263 -0.2764 -1.2125
 7662SOL    HW223886   0.664   2.153   5.864  0.3591 -1.7889 -0.0797
 7663SOL     OW23887   5.697   4.095   2.715 -0.3323  0.9786 -0.3482
 7663SOL    HW123888   5.728   4.046   2.796  1.1750  1.9303 -0.3152
 7663SOL    HW223889   5.605   4.065   2.691 -0.1976 -0.4424  0.7928
 7664SOL     OW23890   6.966   2.008   5.671  1.0225 -0.3401  0.3295
 7664SOL    HW123891   7.054   2.053   5.659 -0.7688  3.1044 -1.1621
 7664SOL    HW223892   6.915   2.052   5.745 -0.0002 -1.3963  0.2893
 7665SOL     OW23893   4.317   1.503   2.234 -1.0859 -0.1187 -0.0928
 7665SOL    HW123894   4.315   1.411   2.197  0.3912 -0.6344  1.0195
 7665SOL    HW223895   4.225   1.542   2.232 -1.8398 -1.8306 -0.0437
 7666SOL     OW23896   3.251   5.510   4.326 -0.2986 -0.3078 -0.5527
 7666SOL    HW123897   3.296   5.425   4.297 -2.3576 -0.6548 -3.0262
 7666SOL    HW223898   3.208   5.554   4.247 -1.0612  1.9957  1.0410
 7667SOL     OW23899   4.060   0.475   3.995  0.1162 -0.4169 -0.3191
 7667SOL    HW123900   4.117   0.461   3.914 -0.5836  2.7135 -1.4745
 7667SOL    HW223901   4.115   0.519   4.067 -0.2256  0.3658 -0.5341
 7668SOL     OW23902   1.948   4.807   0.651 -0.1516 -0.4757 -0.1808
 7668SOL    HW123903   2.043   4.795   0.679  0.3279 -0.5635 -1.7445
 7668SOL    HW223904   1.944   4.851   0.562 -1.6036 -0.1231  0.0196
 7669SOL     OW23905   4.027   0.082   3.595 -0.2782  0.1873 -0.1009
 7669SOL    HW123906   4.105   0.032   3.633 -0.1835  0.4691  0.0799
 7669SOL    HW223907   4.042   0.096   3.497  1.2149  2.5820  0.3839
 7670SOL     OW23908   6.126   6.001   5.148 -0.3251 -0.3399 -0.1077
 7670SOL    HW123909   6.204   6.036   5.096 -0.7522  0.9705  0.0921
 7670SOL    HW223910   6.085   6.076   5.201 -1.4378 -1.0989  0.1374
 7671SOL     OW23911   2.656   4.977   5.582 -0.3952  0.3627 -0.4544
 7671SOL    HW123912   2.615   4.927   5.658 -0.2029  0.5244 -0.2429
 7671SOL    HW223913   2.608   5.064   5.571 -1.1047 -0.1136 -1.1900
 7672SOL     OW23914   6.821   0.041   6.587 -0.0580  0.2943  0.5546
 7672SOL    HW123915   6.904   0.061   6.639 -0.0108  0.9588  0.2337
 7672SOL    HW223916   6.802  -0.057   6.592 -0.6480  0.4698  2.7064
 7673SOL     OW23917   2.310   1.684   4.776 -0.0906  0.2419 -0.3829
 7673SOL    HW123918   2.377   1.724   4.838 -0.2986  0.3112 -0.1988
 7673SOL    HW223919   2.221   1.678   4.822 -0.4645  1.0851 -0.9462
 7674SOL     OW23920   6.328   5.663   5.259 -0.1251 -0.0138  0.3640
 7674SOL    HW123921   6.322   5.642   5.356 -1.0972  1.0199  0.5431
 7674SOL    HW223922   6.273   5.598   5.207 -0.4388  0.0593  0.6031
 7675SOL     OW23923   2.626   4.797   1.184 -0.0489 -0.4491  0.6806
 7675SOL    HW123924   2.629   4.897   1.176 -2.2980 -0.1982  2.0247
 7675SOL    HW223925   2.627   4.756   1.093 -0.9089  0.9110  0.0254
 7676SOL     OW23926   5.259   1.407   4.815  0.6057  0.1709  0.5853
 7676SOL    HW123927   5.224   1.466   4.887  0.9969 -0.3840  1.2477
 7676SOL    HW223928   5.185   1.347   4.782 -0.5875  2.8899 -2.1004
 7677SOL     OW23929   2.066   5.210   6.137  0.1151 -0.9377  0.2805
 7677SOL    HW123930   2.054   5.187   6.233 -1.3988 -0.7457  0.1689
 7677SOL    HW223931   2.005   5.154   6.081  0.3722 -0.4760 -0.4845
 7678SOL     OW23932   5.728   3.426   0.130  0.4476 -0.3687  0.1940
 7678SOL    HW123933   5.754   3.343   0.080 -0.7147 -0.8130  0.3086
 7678SOL    HW223934   5.632   3.421   0.157 -0.0645  1.6007 -0.9892
 7679SOL     OW23935   2.520   5.083   0.853  0.4148 -0.7606 -0.3687
 7679SOL    HW123936   2.498   5.158   0.790  1.1364  0.1949  0.4743
 7679SOL    HW223937   2.510   4.996   0.805  1.4369 -0.0564 -1.9861
 7680SOL     OW23938   2.988   4.628   5.406  0.4763 -0.0763 -0.0161
 7680SOL    HW123939   2.957   4.565   5.336  0.0196 -1.5801  1.4932
 7680SOL    HW223940   2.924   4.705   5.413 -1.8275 -1.9950  1.5269
 7681SOL     OW23941   5.755   3.484   6.617  0.3590 -0.2580 -0.4025
 7681SOL    HW123942   5.772   3.530   6.530  2.0549  0.0792  0.0609
 7681SOL    HW223943   5.737   3.553   6.688 -0.7408 -0.5156 -0.4196
 7682SOL     OW23944   0.918   3.294   5.062 -0.0200  0.3947  0.3468
 7682SOL    HW123945   0.834   3.335   5.098 -0.8042 -0.8634  0.0030
 7682SOL    HW223946   0.971   3.364   5.015 -2.0255  0.7793 -1.4997
 7683SOL     OW23947   2.059   4.360   1.987  0.4464  0.2103 -0.3052
 7683SOL    HW123948   2.056   4.376   1.888 -1.0334 -2.4207 -0.7896
 7683SOL    HW223949   2.149   4.384   2.022  2.4376 -2.3700 -3.0945
 7684SOL     OW23950   1.441   5.678   1.935  0.0786  0.7795  0.1779
 7684SOL    HW123951   1.506   5.737   1.887  1.0260 -1.2909 -1.2450
 7684SOL    HW223952   1.442   5.699   2.032  2.6181  1.0984  0.1352
 7685SOL     OW23953   5.900   3.409   4.568  0.1377  0.0364  0.3474
 7685SOL    HW123954   5.981   3.351   4.579 -1.0875 -1.7087  0.6536
 7685SOL    HW223955   5.885   3.461   4.652  0.0722 -0.8398  0.8950
 7686SOL     OW23956   0.987   3.734   0.616 -0.2606 -0.3621 -0.1879
 7686SOL    HW123957   1.072   3.694   0.581 -1.1420 -1.4707 -1.1926
 7686SOL    HW223958   0.924   3.660   0.640 -0.7768  0.4413  0.9783
 7687SOL     OW23959   2.074   1.941   1.450 -1.2641 -0.0237 -0.0713
 7687SOL    HW123960   2.008   1.934   1.375 -0.6020  0.3898 -0.7144
 7687SOL    HW223961   2.051   1.876   1.522 -2.6397  0.4305 -0.0652
 7688SOL     OW23962   6.280   3.286   2.048  0.3803  0.4255  0.1227
 7688SOL    HW123963   6.270   3.333   1.960 -1.6094  1.6036  0.9189
 7688SOL    HW223964   6.326   3.346   2.113 -0.8342  0.7564  0.7125
 7689SOL     OW23965   4.803   3.003   5.254 -0.1898 -0.0427 -0.2980
 7689SOL    HW123966   4.757   2.926   5.210  2.6529 -0.8334 -2.1833
 7689SOL    HW223967   4.820   3.075   5.186  1.8311 -0.0887  0.0886
 7690SOL     OW23968   3.786   1.324   5.521 -0.1768 -0.4627 -0.1166
 7690SOL    HW123969   3.705   1.316   5.579  0.0972 -0.3554  0.2834
 7690SOL    HW223970   3.844   1.397   5.556  0.2348 -0.7362 -0.2304
 7691SOL     OW23971   1.948   4.273   0.295 -0.5744 -0.2016 -0.1016
 7691SOL    HW123972   1.883   4.198   0.307 -1.9168  0.8359 -0.6126
 7691SOL    HW223973   1.899   4.358   0.275  0.9497  0.6154 -0.6239
 7692SOL     OW23974   2.074   1.306   2.418  0.0708 -0.0207 -0.2369
 7692SOL    HW123975   2.156   1.278   2.467  0.8662  2.0764 -0.2817
 7692SOL    HW223976   2.002   1.330   2.483  0.2734  0.3592 -0.1551
 7693SOL     OW23977   1.662   4.600   1.329  0.3698  0.1406  0.1148
 7693SOL    HW123978   1.686   4.573   1.236  2.6334 -2.4695  1.2925
 7693SOL    HW223979   1.633   4.519   1.381 -2.6764  1.8298  1.2532
 7694SOL     OW23980   1.058   0.651   3.780  0.0853 -0.6153  0.4590
 7694SOL    HW123981   1.121   0.626   3.707 -0.0496 -1.4372  0.6082
 7694SOL    HW223982   0.975   0.594   3.773  0.4203 -1.3013  1.7421
 7695SOL     OW23983   3.827   4.449   6.277 -0.2098  0.2442  0.0572
 7695SOL    HW123984   3.796   4.519   6.342  0.7659  0.8886 -0.1587
 7695SOL    HW223985   3.850   4.492   6.190  1.4176 -0.1854  0.2529
 7696SOL     OW23986   5.610   5.167   6.334  0.2450  0.3057 -1.0999
 7696SOL    HW123987   5.513   5.145   6.326  0.5798 -0.9793 -1.9491
 7696SOL    HW223988   5.647   5.122   6.415  0.1050  0.9493 -0.6705
 7697SOL     OW23989   3.444   4.272   0.986  0.2129 -0.3489 -0.3048
 7697SOL    HW123990   3.446   4.176   0.960 -0.2474  0.2994 -3.1826
 7697SOL    HW223991   3.522   4.320   0.945 -0.7634  0.8686 -0.8284
 7698SOL     OW23992   6.516   3.393   3.589 -0.0285  0.0115 -0.6693
 7698SOL    HW123993   6.601   3.421   3.635 -0.1075  0.3108 -0.6984
 7698SOL    HW223994   6.438   3.428   3.640 -0.1031  1.2722 -1.5919
 7699SOL     OW23995   6.592   4.724   0.735  0.0162  0.3159  0.0377
 7699SOL    HW123996   6.533   4.792   0.691 -0.2627  0.4559  0.6298
 7699SOL    HW223997   6.663   4.696   0.670 -2.2240 -1.8349 -1.6959
 7700SOL     OW23998   6.813   4.490   1.094  0.0581  0.5363 -0.8766
 7700SOL    HW123999   6.737   4.431   1.066  0.4018  0.1908 -1.0957
 7700SOL    HW224000   6.777   4.575   1.132 -0.4774 -0.2357  0.4167
 7701SOL     OW24001   1.495   6.751   1.634 -0.3406 -0.3723 -0.6648
 7701SOL    HW124002   1.485   6.749   1.733 -0.4297  0.8549 -0.6385
 7701SOL    HW224003   1.461   6.838   1.599  2.2091  0.3434 -1.5048
 7702SOL     OW24004   0.632   2.313   0.524 -0.5288  0.0959 -0.7951
 7702SOL    HW124005   0.582   2.339   0.607  0.7775 -2.3672  0.8953
 7702SOL    HW224006   0.655   2.395   0.471 -0.0318  1.9625  2.1003
 7703SOL     OW24007   6.049   0.226   1.011  0.0592  0.1433  0.2130
 7703SOL    HW124008   6.003   0.242   0.924  0.8926  0.1796 -0.2331
 7703SOL    HW224009   6.144   0.257   1.005  0.3924 -0.7123  0.8226
 7704SOL     OW24010   1.379   6.226   6.626 -0.4261  0.6337  0.4488
 7704SOL    HW124011   1.372   6.131   6.596 -0.7005  0.9628 -0.5561
 7704SOL    HW224012   1.346   6.234   6.720 -1.5913 -0.0560  0.1180
 7705SOL     OW24013   5.384   6.374   6.507  0.6046 -0.0720 -0.4614
 7705SOL    HW124014   5.323   6.400   6.432  0.5261  1.1579  0.0161
 7705SOL    HW224015   5.405   6.276   6.500 -0.6815 -0.3180 -1.1634
 7706SOL     OW24016   1.158   4.957   5.692 -0.1695  0.1270 -0.1234
 7706SOL    HW124017   1.115   4.869   5.675  3.1985 -1.1904 -3.0690
 7706SOL    HW224018   1.100   5.030   5.654 -1.6071 -1.1046 -0.3941
 7707SOL     OW24019   1.359   1.504   0.799  0.4860 -0.1566 -0.6812
 7707SOL    HW124020   1.432   1.508   0.867  0.9814 -1.0725 -1.1431
 7707SOL    HW224021   1.399   1.494   0.708 -0.1127  2.2545 -1.2857
 7708SOL     OW24022   0.557   2.984   3.637 -0.5538 -0.0857 -0.4774
 7708SOL    HW124023   0.584   2.973   3.541 -1.1909  1.4466 -0.8670
 7708SOL    HW224024   0.620   2.935   3.696  0.2295 -0.5155 -1.6448
 7709SOL     OW24025   1.174   6.527   5.287 -0.4083  0.1497  0.0042
 7709SOL    HW124026   1.175   6.627   5.288 -0.2119  0.2123 -2.0788
 7709SOL    HW224027   1.107   6.494   5.354 -0.7617  1.6741  0.4528
 7710SOL     OW24028   6.748   1.071   2.997 -0.9060 -0.3910  0.3194
 7710SOL    HW124029   6.834   1.084   3.045 -0.4156 -0.4533 -0.5248
 7710SOL    HW224030   6.706   1.160   2.979 -0.7715 -0.3327  0.2949
 7711SOL     OW24031   5.865   0.347   6.435  0.0513 -0.3377  0.2226
 7711SOL    HW124032   5.872   0.353   6.335  0.6671 -0.4850  0.2489
 7711SOL    HW224033   5.788   0.288   6.459 -0.1156 -0.2828 -0.1647
 7712SOL     OW24034   6.790   2.515   4.105 -0.4971  0.1452  0.2107
 7712SOL    HW124035   6.834   2.436   4.062  0.0028  0.0702  0.8540
 7712SOL    HW224036   6.856   2.563   4.163 -0.7408  1.1564 -0.3284
 7713SOL     OW24037   3.642   5.880   4.010 -0.0412 -0.2214  0.3747
 7713SOL    HW124038   3.615   5.975   3.998  1.5689  0.1212 -0.7018
 7713SOL    HW224039   3.605   5.825   3.934 -0.2550 -0.3180  0.5449
 7714SOL     OW24040   2.052   1.348   1.711 -0.4039  0.2014 -0.1080
 7714SOL    HW124041   2.107   1.264   1.713  0.0970  0.5301 -0.0068
 7714SOL    HW224042   2.024   1.372   1.804 -0.9377 -0.1016 -0.1836
 7715SOL     OW24043   3.985   5.484   2.944 -0.3758  0.1456 -0.2318
 7715SOL    HW124044   3.892   5.470   2.909  0.3441 -0.7134 -1.8887
 7715SOL    HW224045   4.036   5.398   2.938  0.5167  0.5896  0.7373
 7716SOL     OW24046   5.812   5.493   1.898 -0.4389 -0.2314  0.8247
 7716SOL    HW124047   5.749   5.479   1.974 -0.7354  0.7796  0.7788
 7716SOL    HW224048   5.776   5.447   1.816 -0.9254  0.0222  0.8939
 7717SOL     OW24049   3.347   3.792   2.074 -0.2299  0.2941  0.3517
 7717SOL    HW124050   3.279   3.809   2.146  0.3512  2.0914  0.5268
 7717SOL    HW224051   3.320   3.840   1.991 -0.1493 -0.5846 -0.1984
 7718SOL     OW24052   5.223   5.094   4.644  0.0805  0.0288 -0.3622
 7718SOL    HW124053   5.175   5.181   4.651  1.0309  0.4392  2.0269
 7718SOL    HW224054   5.162   5.019   4.671  0.4623  0.4672  1.9194
 7719SOL     OW24055   5.485   4.953   0.158 -0.0109 -0.3283  0.2224
 7719SOL    HW124056   5.503   5.045   0.123 -0.0670 -0.3021  0.2633
 7719SOL    HW224057   5.569   4.916   0.198  0.3073 -0.7280 -0.7732
 7720SOL     OW24058   1.690   0.033   6.132 -0.0641 -0.2091  0.6671
 7720SOL    HW124059   1.649  -0.017   6.056 -1.8375  0.9788  0.7774
 7720SOL    HW224060   1.622   0.044   6.205  1.3602 -0.6468  2.0990
 7721SOL     OW24061   2.020   3.510   1.768 -0.5291 -0.0847 -0.6145
 7721SOL    HW124062   1.924   3.489   1.788 -0.1077 -1.1282  0.4228
 7721SOL    HW224063   2.079   3.463   1.834  0.6396  1.8231 -0.2285
 7722SOL     OW24064   1.586   2.602   6.197 -0.2983  0.4401  0.2027
 7722SOL    HW124065   1.565   2.683   6.253 -0.5223 -0.5097  1.5506
 7722SOL    HW224066   1.506   2.577   6.143  0.1483  1.8036 -1.1729
 7723SOL     OW24067   1.723   1.355   5.691  0.5704 -0.4606 -0.1012
 7723SOL    HW124068   1.821   1.343   5.710  0.6950 -0.3659 -0.6735
 7723SOL    HW224069   1.694   1.445   5.723  0.9653  0.0266 -1.0569
 7724SOL     OW24070   3.255   4.606   1.589 -0.7440  0.0069  0.3273
 7724SOL    HW124071   3.239   4.688   1.644 -0.4009  0.3971 -0.1531
 7724SOL    HW224072   3.168   4.567   1.560 -0.8928  0.6256 -0.0700
 7725SOL     OW24073   3.659   4.438   0.924 -0.0367 -0.6784  0.3931
 7725SOL    HW124074   3.678   4.525   0.879  0.3750 -0.0403  1.7358
 7725SOL    HW224075   3.743   4.383   0.926  0.5473  0.1938  2.2087
 7726SOL     OW24076   3.441   3.453   3.775 -0.3119 -0.4140 -0.3600
 7726SOL    HW124077   3.348   3.486   3.792  0.0635  0.4519  0.0974
 7726SOL    HW224078   3.464   3.381   3.841  0.1405  0.9822  1.0852
 7727SOL     OW24079   5.969   4.968   0.838  0.5536 -0.2452  0.4971
 7727SOL    HW124080   6.021   4.919   0.767  0.0093 -2.1910  1.3877
 7727SOL    HW224081   5.906   4.905   0.883 -0.9897  1.5517  0.9768
 7728SOL     OW24082   4.179   6.400   3.020 -0.2041 -0.0009 -0.3842
 7728SOL    HW124083   4.150   6.484   3.066 -0.8564 -0.8913  0.8703
 7728SOL    HW224084   4.111   6.374   2.952 -2.3977 -1.9319  2.3529
 7729SOL     OW24085   0.849   0.332   6.883 -0.4630  0.4870  0.1286
 7729SOL    HW124086   0.758   0.294   6.870 -0.1488 -0.6385  0.9712
 7729SOL    HW224087   0.884   0.303   6.972  0.1484  2.1080  0.4467
 7730SOL     OW24088   3.779   0.560   5.895  0.5439  0.0735  0.3328
 7730SOL    HW124089   3.834   0.482   5.924  2.0185 -0.3612 -3.1366
 7730SOL    HW224090   3.838   0.639   5.880 -0.1024  0.3177 -1.1214
 7731SOL     OW24091   1.340   2.966   2.758  0.2955 -0.8116  0.1081
 7731SOL    HW124092   1.397   3.039   2.796  0.1301 -0.8669  0.4638
 7731SOL    HW224093   1.397   2.906   2.702  0.3916 -0.2967 -0.3521
 7732SOL     OW24094   4.171   5.160   5.618 -0.1679 -0.0627 -0.0617
 7732SOL    HW124095   4.101   5.174   5.548 -0.0162  0.8822 -0.0320
 7732SOL    HW224096   4.129   5.122   5.701 -0.4616 -0.5058 -0.4061
 7733SOL     OW24097   6.210   1.474   0.848 -0.5227 -0.2165 -0.0205
 7733SOL    HW124098   6.167   1.559   0.816  0.8840  0.8710  0.8429
 7733SOL    HW224099   6.233   1.417   0.769  0.5887  1.2648 -0.8397
 7734SOL     OW24100   3.876   3.996   2.971  0.3090  1.0799 -0.3389
 7734SOL    HW124101   3.942   3.947   2.914 -1.5226 -0.2636 -1.4330
 7734SOL    HW224102   3.820   4.056   2.914  2.0748  4.1352  0.8946
 7735SOL     OW24103   1.981   2.851   5.225 -0.1542 -0.2519 -0.8773
 7735SOL    HW124104   1.928   2.853   5.310 -0.3625 -1.6824 -0.9356
 7735SOL    HW224105   2.008   2.756   5.206  1.0359  0.2326 -1.7093
 7736SOL     OW24106   6.347   3.657   4.720 -0.3621 -0.1229  0.0816
 7736SOL    HW124107   6.282   3.651   4.797 -0.2285 -0.5546  0.1681
 7736SOL    HW224108   6.427   3.601   4.741 -1.5850 -2.6939 -1.5948
 7737SOL     OW24109   3.134   0.282   4.196  0.2101  0.4167  0.4466
 7737SOL    HW124110   3.191   0.288   4.278  0.2636 -0.2191  0.4607
 7737SOL    HW224111   3.187   0.243   4.121 -0.4339 -1.0509  0.7071
 7738SOL     OW24112   3.926   2.858   5.550 -0.6127  0.5557 -0.4950
 7738SOL    HW124113   4.019   2.840   5.517  0.5806  1.5278  2.0384
 7738SOL    HW224114   3.921   2.839   5.648 -1.6081  5.1024  0.5848
 7739SOL     OW24115   2.362   1.241   3.531 -0.1378  0.1469  0.2096
 7739SOL    HW124116   2.426   1.178   3.575  0.0481 -0.1079 -0.4122
 7739SOL    HW224117   2.404   1.279   3.448 -1.0119 -0.5221 -0.5670
 7740SOL     OW24118   2.802   0.617   6.189  0.2056  0.3457 -0.1621
 7740SOL    HW124119   2.783   0.608   6.091  1.2317 -0.3273 -0.3148
 7740SOL    HW224120   2.735   0.564   6.241 -0.6990  1.1719 -0.4498
 7741SOL     OW24121   5.677   3.661   4.203  0.1282 -0.2870 -0.4789
 7741SOL    HW124122   5.753   3.619   4.252  0.7508  0.5402 -0.7173
 7741SOL    HW224123   5.665   3.756   4.234  0.1496  0.0641 -1.4943
 7742SOL     OW24124   4.479   1.236   0.898  0.5183  0.5200 -0.0889
 7742SOL    HW124125   4.526   1.169   0.956  0.7449  0.6397 -0.1326
 7742SOL    HW224126   4.541   1.266   0.825 -0.1140 -0.4666 -1.0806
 7743SOL     OW24127   1.858   3.474   5.778 -0.1097  0.0055 -0.1573
 7743SOL    HW124128   1.808   3.555   5.746 -1.5484 -0.9079 -0.3372
 7743SOL    HW224129   1.877   3.483   5.876 -0.8287  0.3008 -0.0321
 7744SOL     OW24130   2.304   5.300   6.677  0.3627 -0.1303 -0.1979
 7744SOL    HW124131   2.388   5.245   6.671  1.3120  1.2416 -0.0316
 7744SOL    HW224132   2.252   5.274   6.758  1.8832  0.6361  1.0793
 7745SOL     OW24133   6.511   4.520   4.816  0.1303 -0.2217 -0.1952
 7745SOL    HW124134   6.584   4.553   4.877  0.6812 -0.3469 -0.7729
 7745SOL    HW224135   6.456   4.597   4.785  0.7485  0.0303 -0.6839
 7746SOL     OW24136   5.368   2.892   1.974  0.6452 -0.0661  0.0118
 7746SOL    HW124137   5.374   2.802   1.930  0.3339 -0.8520  1.5046
 7746SOL    HW224138   5.273   2.923   1.975  0.3961 -0.7816  1.4546
 7747SOL     OW24139   0.377   4.042   4.718  0.0216  0.2283 -0.2593
 7747SOL    HW124140   0.399   4.135   4.689  1.7969 -0.3178 -0.7414
 7747SOL    HW224141   0.288   4.016   4.680 -0.0423  1.3731 -0.9416
 7748SOL     OW24142   3.867   0.325   2.413 -0.1815 -0.0175 -0.1566
 7748SOL    HW124143   3.892   0.390   2.485 -0.5540 -0.0697  0.0241
 7748SOL    HW224144   3.931   0.249   2.413  0.0744  0.1959 -0.1653
 7749SOL     OW24145   4.821   6.880   1.315  0.5119 -0.6691  0.7325
 7749SOL    HW124146   4.807   6.793   1.362  0.2087 -0.7759  0.4455
 7749SOL    HW224147   4.901   6.872   1.255  0.1419 -0.9332  0.2709
 7750SOL     OW24148   5.372   0.089   6.661  0.3021 -0.0078 -0.3535
 7750SOL    HW124149   5.367  -0.003   6.623  1.3675 -0.7374  1.1611
 7750SOL    HW224150   5.381   0.083   6.761  0.8878  1.7226 -0.2699
 7751SOL     OW24151   4.937   6.468   5.701 -0.8265  0.2848 -0.2796
 7751SOL    HW124152   4.938   6.485   5.602 -0.9047  0.2143 -0.2933
 7751SOL    HW224153   5.030   6.457   5.735 -0.8569 -1.0700 -0.5876
 7752SOL     OW24154   1.443   5.776   2.182 -0.0361  0.3944  0.4891
 7752SOL    HW124155   1.345   5.754   2.178 -0.0226  0.5040 -0.8211
 7752SOL    HW224156   1.455   5.866   2.224 -0.5987  0.8836 -0.3605
 7753SOL     OW24157   2.928   1.220   3.469 -0.0712  0.1742 -0.4780
 7753SOL    HW124158   3.013   1.185   3.429 -0.3124 -1.2111  0.1712
 7753SOL    HW224159   2.942   1.238   3.567 -0.6158 -0.4423 -0.2780
 7754SOL     OW24160   1.041   2.075   3.667  0.6251  0.0284  0.5542
 7754SOL    HW124161   1.099   2.157   3.660  1.2402 -0.3965  0.5802
 7754SOL    HW224162   1.085   2.009   3.727  0.1898 -0.3759  0.4313
 7755SOL     OW24163   2.078   1.092   4.794  0.1131 -0.1397  0.1664
 7755SOL    HW124164   2.142   1.164   4.820 -0.2098  0.6591 -1.1641
 7755SOL    HW224165   2.100   1.008   4.844  1.3946  0.4750  0.6665
 7756SOL     OW24166   5.345   5.446   0.017  0.5950 -0.2870  0.7724
 7756SOL    HW124167   5.399   5.386  -0.041  1.7464 -0.2136  1.7118
 7756SOL    HW224168   5.300   5.393   0.088  0.7517 -0.1670  0.9634
 7757SOL     OW24169   2.674   6.328   3.318 -0.1055 -0.1546  0.2548
 7757SOL    HW124170   2.634   6.366   3.401 -1.8183 -0.5048 -0.3671
 7757SOL    HW224171   2.730   6.397   3.273 -0.3777  0.5098  0.9159
 7758SOL     OW24172   2.869   0.499   6.686 -0.5810 -0.2559 -0.0251
 7758SOL    HW124173   2.779   0.458   6.671 -0.7422 -0.3151  1.0050
 7758SOL    HW224174   2.902   0.474   6.777 -0.5786  1.7104  0.5605
 7759SOL     OW24175   1.668   5.301   2.073  0.0349 -0.2684 -0.2568
 7759SOL    HW124176   1.624   5.357   2.003  1.9573  1.2156 -0.3542
 7759SOL    HW224177   1.714   5.224   2.029 -0.8396 -0.7752 -0.3273
 7760SOL     OW24178   2.721   0.498   5.055  0.7542  0.4232 -0.6293
 7760SOL    HW124179   2.797   0.443   5.090 -0.6636 -3.0340 -2.5345
 7760SOL    HW224180   2.648   0.501   5.124  0.1666 -1.7075 -1.0743
 7761SOL     OW24181   3.480   5.312   6.466 -0.4146  0.0746 -0.2891
 7761SOL    HW124182   3.475   5.408   6.494 -1.4507 -0.3252  0.9928
 7761SOL    HW224183   3.410   5.293   6.398 -0.2015  0.2218 -0.5518
 7762SOL     OW24184   3.640   5.264   0.094  0.2413 -0.4013 -0.1693
 7762SOL    HW124185   3.705   5.210   0.148  0.9141 -0.8252 -1.3803
 7762SOL    HW224186   3.688   5.342   0.052  0.3301 -1.4758 -2.1873
 7763SOL     OW24187   2.022   3.888   2.217 -0.7223 -0.0839  0.2878
 7763SOL    HW124188   2.058   3.819   2.154 -1.0104  0.1955 -0.1941
 7763SOL    HW224189   2.041   3.979   2.180  1.1440  0.1714  1.7172
 7764SOL     OW24190   0.678   1.302   1.411 -0.1994  0.1921 -0.5370
 7764SOL    HW124191   0.609   1.365   1.444 -0.0005  0.7451 -1.1494
 7764SOL    HW224192   0.696   1.320   1.314 -3.5100 -3.7357 -2.1739
 7765SOL     OW24193   4.384   1.889   4.536  0.0434 -0.2349 -0.3399
 7765SOL    HW124194   4.341   1.824   4.597 -0.7648  2.2272  1.8935
 7765SOL    HW224195   4.323   1.908   4.459 -0.7383 -0.4064  0.2222
 7766SOL     OW24196   2.931   5.870   5.701 -0.6077 -0.0869  0.5420
 7766SOL    HW124197   2.878   5.887   5.784  3.1037 -1.8248  3.5922
 7766SOL    HW224198   2.992   5.948   5.684  0.9900 -1.0598  1.5521
 7767SOL     OW24199   5.027   4.200   6.653 -0.2814 -0.3004  0.2827
 7767SOL    HW124200   4.994   4.289   6.684 -0.7295 -0.9365  1.7215
 7767SOL    HW224201   5.087   4.161   6.722  1.4388 -0.3430 -1.1393
 7768SOL     OW24202   2.704   2.093   3.124 -0.2718 -0.0486 -0.1505
 7768SOL    HW124203   2.626   2.038   3.154 -0.7221  0.2819 -0.6902
 7768SOL    HW224204   2.676   2.152   3.049  0.1729  0.9989  0.4787
 7769SOL     OW24205   5.095   5.101   0.890 -0.2804  0.3295  0.6926
 7769SOL    HW124206   5.013   5.151   0.861  0.3478  1.5150  0.9441
 7769SOL    HW224207   5.069   5.032   0.958 -1.0184  0.9166  1.0158
 7770SOL     OW24208   6.392   5.230   6.068  0.1918  0.1956  0.7040
 7770SOL    HW124209   6.452   5.152   6.052 -0.3755 -0.3398  1.1709
 7770SOL    HW224210   6.446   5.315   6.062  1.2914 -0.3275  2.4686
 7771SOL     OW24211   6.523   0.626   2.235 -0.3561  0.0898 -0.1168
 7771SOL    HW124212   6.540   0.529   2.252  0.4878  0.0263 -1.1789
 7771SOL    HW224213   6.588   0.659   2.166  1.8125  2.3006  2.7635
 7772SOL     OW24214   0.497   1.532   6.547  0.1689  0.9614  0.4779
 7772SOL    HW124215   0.427   1.602   6.533 -2.2778 -1.7077 -1.7916
 7772SOL    HW224216   0.474   1.477   6.627 -1.3741 -0.9018 -1.1532
 7773SOL     OW24217   1.483   2.319   0.117  0.0971  0.0667 -0.4634
 7773SOL    HW124218   1.490   2.414   0.147 -1.2127  0.6365 -1.8169
 7773SOL    HW224219   1.574   2.287   0.090  0.4944  1.0926 -0.4170
 7774SOL     OW24220   5.786   3.133   0.762 -0.6325 -0.8721  0.0372
 7774SOL    HW124221   5.857   3.170   0.702 -1.5812  2.1107  0.5722
 7774SOL    HW224222   5.804   3.163   0.856 -1.4489 -1.8953  0.5342
 7775SOL     OW24223   0.614   6.506   2.723  0.5892  0.4970 -0.7176
 7775SOL    HW124224   0.572   6.447   2.654  0.0153 -0.6368  0.5747
 7775SOL    HW224225   0.708   6.476   2.739  0.0685 -0.5668  0.4655
 7776SOL     OW24226   2.967   3.683   0.242  0.3059  0.8827 -0.1514
 7776SOL    HW124227   3.064   3.707   0.247  0.0924  1.4640  2.7289
 7776SOL    HW224228   2.922   3.709   0.327 -2.3965  0.5660 -1.4008
 7777SOL     OW24229   3.837   0.056   4.409 -0.2229 -0.2753  0.5044
 7777SOL    HW124230   3.885  -0.016   4.358  0.0708  0.8959 -0.9419
 7777SOL    HW224231   3.900   0.100   4.473  0.4711  0.6804 -0.7740
 7778SOL     OW24232   2.156   2.951   1.765 -0.2143 -0.3211  0.1636
 7778SOL    HW124233   2.129   3.044   1.789 -1.5633 -0.8854  0.9356
 7778SOL    HW224234   2.206   2.952   1.679  0.7432  1.2345  0.6984
 7779SOL     OW24235   2.141   2.964   5.853  0.7126  0.6111 -0.5709
 7779SOL    HW124236   2.065   2.996   5.795 -0.5047 -0.2718  0.4723
 7779SOL    HW224237   2.159   3.032   5.924 -0.6099 -0.1199  0.5064
 7780SOL     OW24238   1.547   5.456   5.277 -0.2040  0.0232 -0.4972
 7780SOL    HW124239   1.483   5.405   5.219  0.9101  0.5973 -2.2934
 7780SOL    HW224240   1.638   5.416   5.268 -0.0880 -0.2078  1.3278
 7781SOL     OW24241   0.119   0.655   0.407 -0.0781 -0.0064  0.5705
 7781SOL    HW124242   0.055   0.578   0.405  0.1668 -0.2646  1.7314
 7781SOL    HW224243   0.144   0.675   0.502  1.6082  0.0564  0.1404
 7782SOL     OW24244   1.509   5.803   0.390  0.0163  0.0737 -0.6844
 7782SOL    HW124245   1.459   5.890   0.389  2.6919  1.8028  1.6704
 7782SOL    HW224246   1.527   5.776   0.485  1.3295 -1.8083 -1.4103
 7783SOL     OW24247   6.949   0.291   0.205 -0.1857  0.1111  0.0781
 7783SOL    HW124248   6.860   0.289   0.159  0.7603 -1.1911 -1.9023
 7783SOL    HW224249   6.963   0.204   0.253 -0.4159  0.7462  1.3055
 7784SOL     OW24250   2.511   1.933   5.597 -0.4393 -0.2227 -0.3292
 7784SOL    HW124251   2.478   2.023   5.569 -0.1770 -0.4102 -1.2837
 7784SOL    HW224252   2.501   1.869   5.521  3.4948  0.0634 -1.3131
 7785SOL     OW24253   3.460   2.079   2.284  0.1740  0.0211 -0.1073
 7785SOL    HW124254   3.473   2.177   2.300  0.1419 -0.1433  0.9959
 7785SOL    HW224255   3.454   2.062   2.186  2.3111  0.8540 -0.4369
 7786SOL     OW24256   0.862   6.536   4.723 -0.1068  0.1869  0.2008
 7786SOL    HW124257   0.876   6.581   4.811 -0.8555  1.4761 -0.3251
 7786SOL    HW224258   0.773   6.561   4.686  0.5798  0.4416 -1.3718
 7787SOL     OW24259   3.886   6.281   0.313 -0.0467 -0.1081  0.0291
 7787SOL    HW124260   3.941   6.281   0.229  1.2921  2.7348  0.7711
 7787SOL    HW224261   3.817   6.352   0.308  0.1892  0.2544  1.3794
 7788SOL     OW24262   3.139   4.885   2.850 -0.6681 -0.2660 -0.5417
 7788SOL    HW124263   3.072   4.824   2.807 -1.5410  1.0891 -1.1721
 7788SOL    HW224264   3.091   4.957   2.899  0.3439  0.6639 -0.8940
 7789SOL     OW24265   5.908   1.583   1.433 -0.4900 -0.3676  0.1981
 7789SOL    HW124266   5.950   1.617   1.517  2.1643 -0.8513 -0.8529
 7789SOL    HW224267   5.941   1.491   1.413 -2.1201 -0.8043 -0.7231
 7790SOL     OW24268   6.043   1.650   1.649 -0.0145  0.2059 -0.6953
 7790SOL    HW124269   6.050   1.744   1.680  0.2734 -0.3305  1.0130
 7790SOL    HW224270   6.062   1.588   1.726  2.8312 -1.2729 -2.4187
 7791SOL     OW24271   5.720   4.309   1.733 -0.0839  0.2551  0.1356
 7791SOL    HW124272   5.756   4.223   1.697 -0.9813  0.5379 -1.5350
 7791SOL    HW224273   5.778   4.341   1.808  0.6751 -1.4227  0.2940
 7792SOL     OW24274   2.882   0.218   3.567  0.2548  0.1845 -0.2449
 7792SOL    HW124275   2.895   0.188   3.472 -1.0917  2.1121 -1.1135
 7792SOL    HW224276   2.881   0.139   3.627  0.5054 -1.1477 -1.9066
 7793SOL     OW24277   5.382   6.584   2.066  0.3319 -0.8645  0.2202
 7793SOL    HW124278   5.282   6.583   2.054  0.3455  1.2665 -0.5036
 7793SOL    HW224279   5.426   6.569   1.978  0.6301 -0.4382  0.2947
 7794SOL     OW24280   0.165   0.703   3.304  0.2563  0.1135  0.0875
 7794SOL    HW124281   0.111   0.627   3.338 -0.8779  0.5379 -0.7137
 7794SOL    HW224282   0.263   0.681   3.311 -0.0563 -1.4064 -0.1595
 7795SOL     OW24283   3.987   0.723   5.872  0.0919 -0.2974  0.3713
 7795SOL    HW124284   4.030   0.808   5.842  0.1095  0.3325  2.0836
 7795SOL    HW224285   4.051   0.670   5.926  0.4910 -2.0450 -1.7109
 7796SOL     OW24286   4.288   5.708   6.617  0.0737 -0.4658 -0.4247
 7796SOL    HW124287   4.254   5.614   6.617 -0.3273 -0.3237 -0.3649
 7796SOL    HW224288   4.221   5.767   6.571 -0.8611  0.2027  1.6785
 7797SOL     OW24289   0.779   4.060   4.811  0.2766 -0.3014 -0.1881
 7797SOL    HW124290   0.776   4.160   4.802 -0.2085 -0.0266  2.3305
 7797SOL    HW224291   0.872   4.031   4.831  0.0910 -0.1025  1.0519
 7798SOL     OW24292   0.247   4.102   2.905 -0.5266  0.6937  0.2288
 7798SOL    HW124293   0.226   4.014   2.947  2.0982  0.0331  0.3138
 7798SOL    HW224294   0.267   4.089   2.808  0.5506  1.0579  0.3862
 7799SOL     OW24295   0.961   4.458   5.493  0.0178 -0.1995 -0.0591
 7799SOL    HW124296   0.933   4.494   5.582  0.4339  0.9051 -0.3538
 7799SOL    HW224297   1.051   4.496   5.469  2.5999 -4.5947  1.4867
 7800SOL     OW24298   6.282   2.608   3.554 -0.6336  0.2988  0.3810
 7800SOL    HW124299   6.279   2.510   3.574 -0.5804 -0.2136 -1.9431
 7800SOL    HW224300   6.205   2.633   3.496 -0.8748  1.7520  1.2715
 7801SOL     OW24301   1.280   5.814   3.179  0.1661  0.3826 -0.6553
 7801SOL    HW124302   1.185   5.795   3.155  0.4075  1.2218 -2.4168
 7801SOL    HW224303   1.290   5.911   3.203  0.6434  0.3823 -0.8377
 7802SOL     OW24304   5.559   6.785   1.639 -0.1981  1.0571  0.1280
 7802SOL    HW124305   5.625   6.711   1.624  1.4998  2.5593 -0.1234
 7802SOL    HW224306   5.520   6.777   1.730 -0.7857 -0.6851 -0.2436
 7803SOL     OW24307   2.703   0.260   0.634 -0.1124  0.1693  0.0663
 7803SOL    HW124308   2.761   0.200   0.688  0.2495  0.6162  0.1812
 7803SOL    HW224309   2.649   0.205   0.570 -0.0380 -0.3013  0.4022
 7804SOL     OW24310   3.415   1.906   5.286 -0.2328  0.3015  0.2275
 7804SOL    HW124311   3.513   1.905   5.304 -0.2360  0.7578  0.2769
 7804SOL    HW224312   3.392   1.982   5.226 -0.7703  1.1705  1.4871
 7805SOL     OW24313   0.155   1.470   6.267 -0.4369 -1.0869 -0.5474
 7805SOL    HW124314   0.232   1.502   6.213 -0.0729  0.2287  0.6869
 7805SOL    HW224315   0.094   1.415   6.210  0.3803 -0.4829 -2.0430
 7806SOL     OW24316   6.187   4.109   0.501 -0.0140  0.2926  0.2038
 7806SOL    HW124317   6.252   4.086   0.573 -0.2980 -0.3234  0.2744
 7806SOL    HW224318   6.114   4.165   0.539 -0.5739 -0.6623  0.5947
 7807SOL     OW24319   5.587   5.610   0.225  0.3140 -0.8127  1.1732
 7807SOL    HW124320   5.608   5.523   0.180 -0.8535 -1.6983  2.2640
 7807SOL    HW224321   5.549   5.674   0.158  0.0848 -1.5502  0.5882
 7808SOL     OW24322   3.436   3.872   5.978  0.2834  0.2947  0.8301
 7808SOL    HW124323   3.382   3.913   5.904 -1.0565 -2.2216  0.3018
 7808SOL    HW224324   3.471   3.944   6.037  0.0163  2.2910 -1.3151
 7809SOL     OW24325   5.071   3.609   1.221  0.3171  0.5508 -0.1728
 7809SOL    HW124326   4.998   3.564   1.272  1.9291 -0.1765  1.6313
 7809SOL    HW224327   5.071   3.707   1.241 -0.0126  0.5108  0.0216
 7810SOL     OW24328   6.299   5.780   2.342 -0.5405  0.3650  0.4211
 7810SOL    HW124329   6.277   5.705   2.404 -1.8810  0.0734 -0.3449
 7810SOL    HW224330   6.391   5.815   2.361  0.4796 -2.0586  0.2192
 7811SOL     OW24331   4.689   1.670   2.079  0.8207  0.2351 -0.1497
 7811SOL    HW124332   4.723   1.685   1.986  2.5448 -0.9963  0.2363
 7811SOL    HW224333   4.764   1.676   2.144 -0.2762  0.5974  1.1452
 7812SOL     OW24334   3.954   0.992   6.063 -0.0024 -0.0557 -0.0404
 7812SOL    HW124335   4.015   0.952   6.132 -0.5284 -1.2072 -0.2224
 7812SOL    HW224336   3.867   0.942   6.063 -0.3260  0.4958 -0.9456
 7813SOL     OW24337   0.808   4.264   1.462  0.1314 -0.0503  0.9544
 7813SOL    HW124338   0.854   4.259   1.551  0.1111 -0.6400  0.9369
 7813SOL    HW224339   0.809   4.358   1.429  0.6602  0.0705  1.3055
 7814SOL     OW24340   6.407   2.737   4.501 -0.2200 -0.5903 -0.3663
 7814SOL    HW124341   6.407   2.638   4.515 -0.4907 -0.4654  0.5213
 7814SOL    HW224342   6.435   2.757   4.406  1.5174 -1.4389 -0.0742
 7815SOL     OW24343   0.596   5.853   1.131  0.6401 -0.0381 -0.0024
 7815SOL    HW124344   0.588   5.882   1.035 -0.3207 -2.1693 -0.6370
 7815SOL    HW224345   0.665   5.781   1.138 -1.4168 -2.1178  0.2623
 7816SOL     OW24346   2.990   5.595   3.777  0.4781 -0.1935  0.0029
 7816SOL    HW124347   2.966   5.498   3.769  0.3992 -0.2825  1.1932
 7816SOL    HW224348   3.075   5.604   3.829  0.0795  0.4063  0.5713
 7817SOL     OW24349   1.075   2.320   6.138 -0.3942  0.6000 -0.2515
 7817SOL    HW124350   1.000   2.264   6.104  0.2711 -1.0811  0.9407
 7817SOL    HW224351   1.044   2.414   6.150 -2.1476  0.0524 -0.2969
 7818SOL     OW24352   0.534   6.567   0.024 -0.7629 -0.8818  0.5508
 7818SOL    HW124353   0.529   6.481  -0.028 -0.0485  0.0959 -1.2567
 7818SOL    HW224354   0.470   6.633  -0.015 -1.6423 -0.7186  2.2239
 7819SOL     OW24355   4.275   6.674   1.651 -0.3020  0.4554  0.0619
 7819SOL    HW124356   4.254   6.609   1.577 -0.8020  0.2085  0.4156
 7819SOL    HW224357   4.295   6.764   1.612  1.8610 -0.2408 -0.5421
 7820SOL     OW24358   1.273   1.036   6.596 -0.3740 -0.2295  0.1599
 7820SOL    HW124359   1.295   1.030   6.694 -1.5050 -0.6370  0.4017
 7820SOL    HW224360   1.323   0.965   6.547 -1.5453 -1.5420  0.7840
 7821SOL     OW24361   5.280   1.689   6.083  0.5918  0.4307 -0.5656
 7821SOL    HW124362   5.247   1.718   6.173 -1.9114 -1.8023 -0.6448
 7821SOL    HW224363   5.304   1.770   6.029 -0.4117  1.9841  1.1839
 7822SOL     OW24364   5.229   3.160   3.432 -0.0949 -0.2800 -0.1223
 7822SOL    HW124365   5.263   3.067   3.422  0.4849  0.1075 -2.2062
 7822SOL    HW224366   5.139   3.168   3.388 -0.5747 -0.0540  0.8584
 7823SOL     OW24367   0.282   3.271   1.766  0.1971  0.5120 -0.1151
 7823SOL    HW124368   0.261   3.344   1.831  2.0037  1.6615 -0.7492
 7823SOL    HW224369   0.376   3.240   1.780 -0.1290 -0.8043 -0.7136
 7824SOL     OW24370   5.576   0.818   4.883  0.3376  0.2033 -0.2465
 7824SOL    HW124371   5.626   0.814   4.796  1.6750  1.1702  0.4481
 7824SOL    HW224372   5.556   0.726   4.914 -0.6720 -0.1683 -1.8381
 7825SOL     OW24373   0.604   2.123   6.294 -0.4309  0.2604 -0.1015
 7825SOL    HW124374   0.537   2.188   6.329 -0.1068  1.6586 -1.9393
 7825SOL    HW224375   0.572   2.084   6.208 -0.4851 -1.8623  0.8047
 7826SOL     OW24376   3.100   5.964   5.105 -0.7102  0.4254 -0.0950
 7826SOL    HW124377   3.158   5.886   5.128 -0.5878  1.1783  2.5363
 7826SOL    HW224378   3.006   5.933   5.089 -0.3497 -0.4082 -0.6297
 7827SOL     OW24379   4.840   0.384   4.185 -0.1895  0.8930  0.7577
 7827SOL    HW124380   4.763   0.431   4.142  0.4443  0.5360 -0.8248
 7827SOL    HW224381   4.924   0.436   4.168 -0.0652  1.3565  2.5873
 7828SOL     OW24382   6.629   0.745   5.356  0.2442 -0.2464 -0.1002
 7828SOL    HW124383   6.620   0.745   5.257  0.8563  1.9537 -0.2060
 7828SOL    HW224384   6.724   0.729   5.381  0.2444  0.0728  0.1010
 7829SOL     OW24385   5.642   6.954   5.226  0.4084 -0.8339 -0.2843
 7829SOL    HW124386   5.654   6.878   5.290  1.1364 -0.7292 -0.2916
 7829SOL    HW224387   5.728   6.972   5.178  0.4055  0.3431  0.1024
 7830SOL     OW24388   4.835   3.330   6.420  0.0285  0.3696 -0.7739
 7830SOL    HW124389   4.919   3.302   6.465 -0.8294 -0.4448  0.3645
 7830SOL    HW224390   4.761   3.337   6.487 -1.0908 -0.0531 -1.9146
 7831SOL     OW24391   1.118   4.936   3.159 -0.2665  0.0279  0.3071
 7831SOL    HW124392   1.103   4.853   3.106  1.1121 -0.6977  0.9821
 7831SOL    HW224393   1.175   4.915   3.239 -1.8975  1.1555  1.8523
 7832SOL     OW24394   6.287   6.824   4.090  0.1626  0.5259 -0.2603
 7832SOL    HW124395   6.333   6.905   4.052 -1.3827  1.9574  0.7620
 7832SOL    HW224396   6.279   6.755   4.019  2.1691  0.9442 -0.9787
 7833SOL     OW24397   3.450   0.705   3.053  0.4371  0.3923  0.1609
 7833SOL    HW124398   3.514   0.773   3.017  1.1911 -0.8222 -0.8521
 7833SOL    HW224399   3.360   0.748   3.066  0.8257  1.5221 -0.6993
 7834SOL     OW24400   0.578   1.301   5.118 -0.2558  0.4631 -0.1331
 7834SOL    HW124401   0.513   1.226   5.110 -0.9050  1.0823 -0.8124
 7834SOL    HW224402   0.594   1.341   5.027  1.5808 -0.0885 -0.1059
 7835SOL     OW24403   4.508   4.436   4.216  0.0913 -0.3427 -0.6991
 7835SOL    HW124404   4.532   4.449   4.120 -0.8463 -0.0997 -0.9189
 7835SOL    HW224405   4.548   4.351   4.250  0.1160 -0.6212 -1.4174
 7836SOL     OW24406   4.029   4.058   0.419 -0.2692  0.0279 -0.4837
 7836SOL    HW124407   4.024   4.148   0.463  0.2031 -0.1103 -0.1381
 7836SOL    HW224408   4.076   4.067   0.331 -0.0371  0.0864 -0.3545
 7837SOL     OW24409   1.371   4.035   4.624 -0.2660  0.0720 -0.3298
 7837SOL    HW124410   1.409   3.964   4.683 -1.9019  0.2440  0.9906
 7837SOL    HW224411   1.345   3.994   4.536 -2.9359 -1.4545  1.0654
 7838SOL     OW24412   3.928   2.985   2.595 -0.0617  0.0437 -0.4093
 7838SOL    HW124413   3.945   3.007   2.499 -1.2810  0.1547 -0.6079
 7838SOL    HW224414   3.915   3.070   2.647 -1.1127 -0.0593 -0.4832
 7839SOL     OW24415   0.437   3.878   5.198  0.1220 -0.0425 -0.2061
 7839SOL    HW124416   0.480   3.942   5.134  0.6439  0.4743  0.6586
 7839SOL    HW224417   0.415   3.924   5.283  1.5319 -1.2601  0.8702
 7840SOL     OW24418   5.713   0.308   3.386  0.4906 -0.1264  0.9511
 7840SOL    HW124419   5.715   0.349   3.477 -2.9307  0.8617  0.7025
 7840SOL    HW224420   5.628   0.259   3.373  2.0559 -2.6044 -0.8359
 7841SOL     OW24421   2.939   5.957   6.027 -0.1480  0.2747  0.1329
 7841SOL    HW124422   2.870   6.023   6.057  0.0147  0.6527 -0.3005
 7841SOL    HW224423   2.935   5.876   6.085  0.8338  1.3717  1.8427
 7842SOL     OW24424   5.199   0.935   4.374 -0.3814  0.0535  0.0915
 7842SOL    HW124425   5.296   0.921   4.356 -0.4660  0.5892 -0.8338
 7842SOL    HW224426   5.165   0.862   4.434  0.1162 -1.3306 -1.2526
 7843SOL     OW24427   4.078   4.343   6.224  0.4305  0.0668 -0.4110
 7843SOL    HW124428   4.061   4.286   6.143  0.0418 -2.1994  1.1855
 7843SOL    HW224429   3.990   4.375   6.260  0.5779  0.6942 -0.5941
 7844SOL     OW24430   1.140   3.074   2.999 -0.1396 -0.3732  0.1113
 7844SOL    HW124431   1.178   3.150   3.052 -0.4184 -1.4493  1.9141
 7844SOL    HW224432   1.211   3.004   2.986 -0.9116 -1.5981  1.9856
 7845SOL     OW24433   1.103   0.649   3.296 -0.1759 -0.2083  0.4116
 7845SOL    HW124434   1.080   0.732   3.347 -0.8515  0.1329 -0.4104
 7845SOL    HW224435   1.108   0.671   3.199 -0.4301 -1.1462  0.1779
 7846SOL     OW24436   5.149   3.936   2.150  0.1416 -0.1140 -0.4142
 7846SOL    HW124437   5.053   3.915   2.165 -0.2949  1.0337 -1.4148
 7846SOL    HW224438   5.195   3.858   2.108 -0.3928 -0.5897 -0.1242
 7847SOL     OW24439   5.780   3.920   4.320 -0.0813 -0.2900  0.3722
 7847SOL    HW124440   5.749   4.015   4.325 -0.3861 -0.4381  1.7367
 7847SOL    HW224441   5.860   3.914   4.261 -2.5636  0.1190 -3.3622
 7848SOL     OW24442   6.864   2.934   4.670 -0.6678  0.2726 -0.4089
 7848SOL    HW124443   6.829   2.953   4.762 -2.5169 -1.6002 -0.6463
 7848SOL    HW224444   6.806   2.979   4.603 -0.6100 -0.0951 -0.7094
 7849SOL     OW24445   4.543   3.859   6.048 -0.3342  0.2914  0.4030
 7849SOL    HW124446   4.477   3.893   5.981 -2.0815  0.7607  2.2922
 7849SOL    HW224447   4.521   3.895   6.138  2.6809  0.6651  1.1063
 7850SOL     OW24448   2.615   6.883   2.222 -0.3228  0.3779 -0.0922
 7850SOL    HW124449   2.550   6.926   2.159 -0.8705 -0.1376  0.1060
 7850SOL    HW224450   2.565   6.848   2.302 -0.2578 -2.5373 -1.2098
 7851SOL     OW24451   5.930   2.048   6.218 -0.2175 -0.0834  0.1819
 7851SOL    HW124452   5.926   2.052   6.318 -0.5618  1.3132  0.1232
 7851SOL    HW224453   5.929   2.140   6.180 -1.2544 -0.6096 -1.1619
 7852SOL     OW24454   4.101   6.941   6.219  0.3651 -0.7726 -0.3257
 7852SOL    HW124455   4.023   6.881   6.202 -1.4404  1.1990  0.5623
 7852SOL    HW224456   4.140   6.921   6.309 -0.6177 -0.2522  0.2299
 7853SOL     OW24457   6.094   3.391   5.193 -0.2131 -0.0284  0.6745
 7853SOL    HW124458   6.113   3.357   5.101 -2.4777  0.4490 -0.0456
 7853SOL    HW224459   6.178   3.428   5.233  1.1095 -1.4704 -0.6399
 7854SOL     OW24460   1.982   0.977   0.960  0.0004 -0.2774 -0.0960
 7854SOL    HW124461   1.924   0.975   1.042  0.9807  0.5909  0.6472
 7854SOL    HW224462   2.059   1.038   0.976  0.8388 -1.0026 -1.2666
 7855SOL     OW24463   3.763   2.696   6.892  0.0585  0.1731  0.5473
 7855SOL    HW124464   3.683   2.750   6.918 -1.0319 -1.1739  0.1249
 7855SOL    HW224465   3.810   2.740   6.816  0.0351  1.2534  1.1397
 7856SOL     OW24466   6.786   0.707   4.853 -0.0022 -0.1701 -0.3523
 7856SOL    HW124467   6.866   0.765   4.840  0.8111 -0.6515  2.0143
 7856SOL    HW224468   6.800   0.619   4.808 -0.0713  0.4349 -1.5987
 7857SOL     OW24469   1.008   4.110   1.826  0.5900 -0.2136 -0.4073
 7857SOL    HW124470   0.937   4.056   1.870 -1.1048  1.0775 -1.4239
 7857SOL    HW224471   0.972   4.200   1.802  1.4777 -0.6146 -3.9069
 7858SOL     OW24472   4.118   1.434   0.119  0.3488 -0.1979 -0.1787
 7858SOL    HW124473   4.196   1.475   0.071  0.9100 -1.1889 -0.1390
 7858SOL    HW224474   4.040   1.428   0.057  0.3986  0.5028 -0.3166
 7859SOL     OW24475   2.387   4.426   3.053 -0.0972 -0.0921  0.2311
 7859SOL    HW124476   2.398   4.525   3.061 -3.5365  0.4972 -0.4767
 7859SOL    HW224477   2.378   4.386   3.144 -0.0977  0.4725  0.4842
 7860SOL     OW24478   3.250   2.982   6.654  0.0666 -0.1545 -0.4831
 7860SOL    HW124479   3.211   2.969   6.745 -1.7858 -0.6424 -1.3031
 7860SOL    HW224480   3.204   3.059   6.609  0.7006 -0.1585 -1.1475
 7861SOL     OW24481   4.784   5.346   0.573 -0.1991  0.0618 -0.1659
 7861SOL    HW124482   4.811   5.436   0.607 -1.6519  0.6326 -0.4469
 7861SOL    HW224483   4.850   5.316   0.504 -0.7134  1.8246 -1.5084
 7862SOL     OW24484   1.952   3.983   1.321  0.3360 -0.2575 -0.2412
 7862SOL    HW124485   2.041   3.954   1.356 -0.7874 -0.1309  3.1636
 7862SOL    HW224486   1.902   3.904   1.287  1.8181 -0.2648 -2.6508
 7863SOL     OW24487   6.382   1.151   6.972 -0.1639 -0.5601  0.6588
 7863SOL    HW124488   6.444   1.205   6.915 -0.8763 -1.2478 -0.8204
 7863SOL    HW224489   6.433   1.107   7.045  0.7907  0.2846  0.5178
 7864SOL     OW24490   4.113   5.648   0.968  0.2767  0.2209 -0.0170
 7864SOL    HW124491   4.176   5.712   1.011 -0.8721  0.9734  0.5981
 7864SOL    HW224492   4.048   5.614   1.037 -1.8381  1.7318 -1.1278
 7865SOL     OW24493   3.579   5.170   0.810  0.4349  1.0891  0.2192
 7865SOL    HW124494   3.540   5.116   0.885  0.4759 -0.7574 -1.0148
 7865SOL    HW224495   3.506   5.217   0.761  0.2875  1.3994  0.7323
 7866SOL     OW24496   6.832   4.706   5.323  0.1889 -0.6431  0.3571
 7866SOL    HW124497   6.775   4.626   5.343 -0.6828  0.3347  2.0281
 7866SOL    HW224498   6.924   4.691   5.358  0.0633 -0.9724  0.5539
 7867SOL     OW24499   0.526   5.165   0.357 -0.4778  0.0862  0.4911
 7867SOL    HW124500   0.509   5.243   0.417  0.5678  0.5879  0.1719
 7867SOL    HW224501   0.440   5.118   0.337 -1.3392  1.9138 -0.3387
 7868SOL     OW24502   5.654   4.184   0.544 -0.1445 -0.1051  0.5075
 7868SOL    HW124503   5.693   4.129   0.470 -0.8122 -0.7711  0.6450
 7868SOL    HW224504   5.620   4.271   0.506  2.0934  0.8367  0.4922
 7869SOL     OW24505   0.261   5.931   4.641 -0.0019 -0.2802  0.0964
 7869SOL    HW124506   0.354   5.966   4.645 -0.1752  0.1485  0.4744
 7869SOL    HW224507   0.203   5.984   4.702 -0.6854  0.0547 -0.8104
 7870SOL     OW24508   5.081   4.928   2.826  0.0139 -0.2058  0.2037
 7870SOL    HW124509   5.148   4.938   2.899  0.9409 -0.2585 -0.6340
 7870SOL    HW224510   5.122   4.882   2.748 -0.8600  0.1876 -0.5111
 7871SOL     OW24511   4.424   4.647   2.569 -0.1298  0.1091 -0.6284
 7871SOL    HW124512   4.486   4.633   2.492 -1.6303  0.2727 -1.9169
 7871SOL    HW224513   4.396   4.743   2.573  0.5735  0.2948  0.6689
 7872SOL     OW24514   6.185   4.941   5.534  0.3729 -0.4931 -0.2780
 7872SOL    HW124515   6.190   4.852   5.488  0.6894 -0.3343 -0.5588
 7872SOL    HW224516   6.253   4.944   5.607  2.4660  0.5510 -2.1254
 7873SOL     OW24517   4.576   4.408   5.396  0.3639 -0.1672 -0.0977
 7873SOL    HW124518   4.567   4.471   5.318 -0.8700  0.0943  0.2346
 7873SOL    HW224519   4.506   4.337   5.390  0.2672 -0.1519  0.7707
 7874SOL     OW24520   4.977   5.130   0.271  0.0363 -0.0895 -0.1245
 7874SOL    HW124521   5.042   5.171   0.207  1.4584 -0.6720  0.8722
 7874SOL    HW224522   4.970   5.188   0.352 -1.1869  0.2738 -0.4699
 7875SOL     OW24523   6.690   6.793   6.514 -0.0702  0.4143 -0.1426
 7875SOL    HW124524   6.647   6.721   6.460 -1.4965 -0.4345  2.0010
 7875SOL    HW224525   6.621   6.838   6.571  1.1569  2.1139  0.0814
 7876SOL     OW24526   1.382   6.282   0.461  0.2203 -0.1914 -0.7873
 7876SOL    HW124527   1.287   6.253   0.473  0.7369 -1.8317 -0.3001
 7876SOL    HW224528   1.435   6.206   0.422  1.9142 -0.4233  1.6939
 7877SOL     OW24529   3.970   0.878   3.244  0.1455 -0.0660 -0.7957
 7877SOL    HW124530   3.897   0.916   3.301  0.3900 -0.8400  0.0659
 7877SOL    HW224531   4.012   0.951   3.191  0.6533  0.9085  0.8615
 7878SOL     OW24532   5.550   3.436   0.456 -0.1582  0.2064  0.0710
 7878SOL    HW124533   5.513   3.393   0.374  1.9657 -2.3966  0.3363
 7878SOL    HW224534   5.540   3.375   0.534  0.1510  1.5518  1.2196
 7879SOL     OW24535   0.391   4.966   4.788 -0.5571  0.6222 -0.7774
 7879SOL    HW124536   0.442   4.980   4.703  0.4808 -0.2689 -0.3278
 7879SOL    HW224537   0.405   5.044   4.849 -0.0699  0.5816 -0.8330
 7880SOL     OW24538   4.568   6.779   6.217 -0.3503  0.1436  1.1519
 7880SOL    HW124539   4.531   6.784   6.310 -0.5748  1.9506  1.0114
 7880SOL    HW224540   4.494   6.795   6.152  0.1831  1.0644  0.7619
 7881SOL     OW24541   2.796   1.847   0.206 -0.2715 -0.8604 -0.0668
 7881SOL    HW124542   2.836   1.937   0.191 -0.5600 -0.3130  2.0174
 7881SOL    HW224543   2.861   1.776   0.180 -0.2086 -0.0918 -2.1659
 7882SOL     OW24544   0.425   4.045   0.037 -0.5086 -0.0105  0.9267
 7882SOL    HW124545   0.483   4.070  -0.040 -1.5838  0.9854  0.4119
 7882SOL    HW224546   0.462   4.086   0.121  0.2254 -0.4428  0.8250
 7883SOL     OW24547   0.880   3.632   6.139 -0.3618 -0.2323  0.2027
 7883SOL    HW124548   0.959   3.685   6.170 -1.5071  3.2623 -2.2064
 7883SOL    HW224549   0.796   3.670   6.179 -1.2992  0.4424 -2.1968
 7884SOL     OW24550   0.585   1.429   5.351  0.4898 -0.3495 -0.3392
 7884SOL    HW124551   0.566   1.392   5.442  1.3601 -0.2924 -0.1248
 7884SOL    HW224552   0.571   1.358   5.282 -1.3610 -0.0703 -0.3071
 7885SOL     OW24553   5.478   2.930   3.400 -0.1882  0.4448 -0.2315
 7885SOL    HW124554   5.428   2.849   3.430 -0.0164  1.0460  1.8298
 7885SOL    HW224555   5.531   2.909   3.318  0.9888 -1.9582  1.0657
 7886SOL     OW24556   6.364   6.558   6.688  0.6375  0.4831  0.0399
 7886SOL    HW124557   6.443   6.605   6.728  0.3986  0.1888  0.8685
 7886SOL    HW224558   6.288   6.557   6.754 -0.0597  0.7508 -0.7362
 7887SOL     OW24559   3.023   1.333   4.762  0.1356  0.0178 -0.0045
 7887SOL    HW124560   2.955   1.264   4.739  0.6109 -0.4486 -0.0266
 7887SOL    HW224561   3.046   1.387   4.681 -0.1636  0.1376 -0.0085
 7888SOL     OW24562   4.024   1.765   2.986 -0.5299  0.5204  0.3736
 7888SOL    HW124563   4.008   1.669   2.961  1.8676  0.4497 -1.2605
 7888SOL    HW224564   4.003   1.824   2.909 -0.2998  1.1322  0.7699
 7889SOL     OW24565   4.155   3.272   5.146  0.9642 -0.1740 -0.1402
 7889SOL    HW124566   4.170   3.193   5.206 -0.7324  0.3115  0.9958
 7889SOL    HW224567   4.221   3.344   5.169  1.2495 -0.5269  0.1580
 7890SOL     OW24568   6.407   5.193   4.133  0.0327  0.2422 -0.2283
 7890SOL    HW124569   6.323   5.227   4.175 -0.3446 -1.5626  0.5921
 7890SOL    HW224570   6.486   5.224   4.186 -0.3257 -0.4989  0.7662
 7891SOL     OW24571   0.972   4.794   3.601  0.1402  0.5770  0.0552
 7891SOL    HW124572   0.983   4.736   3.520  2.5446  0.5937  0.2872
 7891SOL    HW224573   1.016   4.749   3.680 -0.6872  1.3224  0.9631
 7892SOL     OW24574   0.783   3.161   0.324  0.0699  0.5009  0.2953
 7892SOL    HW124575   0.875   3.123   0.314  0.7097  1.9708  0.4221
 7892SOL    HW224576   0.724   3.094   0.369 -0.1415 -2.2479 -3.5541
 7893SOL     OW24577   6.423   4.844   6.852 -0.1190  0.0220 -0.3815
 7893SOL    HW124578   6.500   4.792   6.813  1.2773  1.0584  0.9043
 7893SOL    HW224579   6.379   4.897   6.779  0.0034 -1.0057 -1.2370
 7894SOL     OW24580   5.399   0.227   1.506 -0.4353  0.3398  0.1567
 7894SOL    HW124581   5.408   0.326   1.489 -2.6053  0.8994  1.7976
 7894SOL    HW224582   5.468   0.198   1.572 -1.2403  1.3257  1.4833
 7895SOL     OW24583   2.304   2.931   1.518 -0.3941 -0.4307 -0.6095
 7895SOL    HW124584   2.289   2.939   1.419  0.4943  1.5446 -0.6361
 7895SOL    HW224585   2.401   2.912   1.535 -0.4104 -0.0784 -0.1065
 7896SOL     OW24586   1.331   4.938   3.979 -0.1691  0.0693  0.0710
 7896SOL    HW124587   1.428   4.916   3.971 -0.6630 -1.7211 -1.9079
 7896SOL    HW224588   1.301   4.922   4.073  1.2480 -0.2582  0.4929
 7897SOL     OW24589   2.901   3.561   5.021  0.2964 -0.5682 -0.1413
 7897SOL    HW124590   2.874   3.624   4.948 -0.0181  0.7764  1.1025
 7897SOL    HW224591   2.997   3.577   5.044 -0.5774  1.7829  2.3467
 7898SOL     OW24592   5.011   3.959   5.035 -0.2297 -0.0004  0.3897
 7898SOL    HW124593   5.015   3.929   4.939  0.6134  0.3527  0.3117
 7898SOL    HW224594   5.036   4.056   5.041  0.8755 -0.3138  1.0999
 7899SOL     OW24595   0.032   1.269   5.303  0.0800  0.7409  0.3212
 7899SOL    HW124596   0.002   1.364   5.294  0.7135  0.8880 -0.3835
 7899SOL    HW224597   0.106   1.264   5.370 -0.7814  0.5359  1.2905
 7900SOL     OW24598   0.277   0.657   0.674  0.2215  0.2789  0.3610
 7900SOL    HW124599   0.227   0.721   0.732 -0.1441 -2.1242  2.9467
 7900SOL    HW224600   0.374   0.682   0.672 -0.1360  1.7372  0.0072
 7901SOL     OW24601   6.663   0.049   0.849 -0.2480  0.1096  0.1278
 7901SOL    HW124602   6.571   0.009   0.850  0.1271 -0.7657  1.1579
 7901SOL    HW224603   6.708   0.032   0.936  0.8048  0.7528 -0.2729
 7902SOL     OW24604   5.744   2.366   3.017  0.2118  0.2848  0.4881
 7902SOL    HW124605   5.655   2.322   3.013  0.4503 -0.0981 -1.7889
 7902SOL    HW224606   5.797   2.328   3.094 -1.3158  0.0865  1.4826
 7903SOL     OW24607   5.833   0.896   4.022 -0.6738  0.0554 -0.3043
 7903SOL    HW124608   5.875   0.844   4.097  0.4753  2.2627  0.6846
 7903SOL    HW224609   5.740   0.864   4.008 -0.1882 -1.9154  0.5445
 7904SOL     OW24610   4.133   0.505   2.875 -0.5009 -0.6833 -0.4768
 7904SOL    HW124611   4.100   0.423   2.922 -0.6671 -1.3230 -1.6746
 7904SOL    HW224612   4.147   0.578   2.942 -0.9280 -1.4962  0.5315
 7905SOL     OW24613   0.190   6.601   4.400  0.5965  0.3869 -0.1256
 7905SOL    HW124614   0.176   6.688   4.352 -0.6846  0.1392 -0.2391
 7905SOL    HW224615   0.200   6.527   4.333 -0.0182  0.2071 -0.0189
 7906SOL     OW24616   5.048   4.758   6.778  0.0204  0.4762 -0.4526
 7906SOL    HW124617   5.121   4.789   6.718 -0.1214  1.3053 -0.2120
 7906SOL    HW224618   5.080   4.680   6.831  1.5007  2.0961  1.1917
 7907SOL     OW24619   0.349   2.574   2.342 -0.1531  0.9110  0.1999
 7907SOL    HW124620   0.347   2.581   2.442 -1.4970 -1.5641  0.4277
 7907SOL    HW224621   0.434   2.530   2.313 -0.3847  0.3283  0.3913
 7908SOL     OW24622   4.446   6.451   1.575  0.5031  0.0845  0.0538
 7908SOL    HW124623   4.499   6.387   1.630  0.4265  0.3419  0.4288
 7908SOL    HW224624   4.441   6.539   1.622  0.5158  0.3345 -0.4067
 7909SOL     OW24625   3.246   2.533   0.383 -0.2463  0.5008  0.2044
 7909SOL    HW124626   3.281   2.441   0.404  2.7546  1.2966 -0.8121
 7909SOL    HW224627   3.227   2.582   0.468 -1.0126 -0.7288  0.7693
 7910SOL     OW24628   6.324   4.588   1.727 -0.1288  0.1258 -0.1335
 7910SOL    HW124629   6.308   4.620   1.820 -0.3073  0.0247 -0.1293
 7910SOL    HW224630   6.349   4.665   1.669  0.7723  0.0856  0.1720
 7911SOL     OW24631   4.934   1.470   3.689 -0.3476  0.2728 -0.0312
 7911SOL    HW124632   4.843   1.470   3.732  0.1361 -0.1670  1.0030
 7911SOL    HW224633   4.929   1.420   3.603 -1.3211  1.1371 -0.5118
 7912SOL     OW24634   2.381   6.283   6.743  0.0831  0.1111 -0.0204
 7912SOL    HW124635   2.442   6.359   6.764  1.0883 -0.6271 -0.2364
 7912SOL    HW224636   2.391   6.257   6.647  0.2296 -0.7077  0.2072
 7913SOL     OW24637   6.973   5.546   5.302 -0.3212 -0.1766  0.3105
 7913SOL    HW124638   7.054   5.604   5.311 -0.0439 -0.5923  0.4850
 7913SOL    HW224639   6.903   5.576   5.366 -0.1993  0.0007  0.3604
 7914SOL     OW24640   6.472   5.111   1.171 -0.1106 -0.2440 -0.3177
 7914SOL    HW124641   6.409   5.038   1.144  0.6036 -0.2436 -2.1150
 7914SOL    HW224642   6.462   5.189   1.109  0.3269  0.5260  0.5516
 7915SOL     OW24643   4.271   2.303   3.227  0.6756 -0.1774  0.2023
 7915SOL    HW124644   4.171   2.291   3.227  0.6856 -0.4052 -0.9934
 7915SOL    HW224645   4.302   2.325   3.319 -0.8997  3.4230  0.0723
 7916SOL     OW24646   3.845   5.385   5.170 -0.2813  0.3637 -0.5485
 7916SOL    HW124647   3.838   5.482   5.193 -0.5954  0.5840 -1.5170
 7916SOL    HW224648   3.797   5.368   5.084 -2.0638 -1.0546  0.6626
 7917SOL     OW24649   3.264   4.111   3.034 -0.2103 -0.7476  0.1927
 7917SOL    HW124650   3.271   4.015   3.007  1.4458 -0.4202 -0.6698
 7917SOL    HW224651   3.272   4.169   2.953  1.8031  0.1760  0.9979
 7918SOL     OW24652   4.857   5.015   6.319 -0.0770  0.2238  0.1496
 7918SOL    HW124653   4.839   5.099   6.370  4.7809  1.5549  0.1535
 7918SOL    HW224654   4.900   4.948   6.379 -1.5987 -1.3627 -0.4563
 7919SOL     OW24655   2.297   1.926   3.625 -0.0994  0.1038  0.3572
 7919SOL    HW124656   2.313   1.828   3.617  2.1837  0.3115  1.5185
 7919SOL    HW224657   2.277   1.949   3.721  1.1632  0.9521  0.4399
 7920SOL     OW24658   2.610   5.405   1.568  0.7485 -0.2376 -0.0811
 7920SOL    HW124659   2.546   5.482   1.556 -1.2198 -2.0105 -1.6818
 7920SOL    HW224660   2.673   5.402   1.491  1.3129  0.1561  0.3521
 7921SOL     OW24661   1.557   5.531   0.326  0.5235 -0.2887  0.1966
 7921SOL    HW124662   1.518   5.623   0.321 -1.7918 -1.0151  2.5940
 7921SOL    HW224663   1.513   5.472   0.258 -0.3577 -0.3711  0.8308
 7922SOL     OW24664   5.507   5.789   1.482 -0.1687  0.9109  0.0482
 7922SOL    HW124665   5.490   5.800   1.580 -0.1122  1.5660 -0.0109
 7922SOL    HW224666   5.428   5.823   1.430 -0.1064  0.7778 -0.1353
 7923SOL     OW24667   0.389   3.143   2.074  0.2910 -0.4119  0.3656
 7923SOL    HW124668   0.402   3.050   2.110  0.1573 -1.1569 -1.4335
 7923SOL    HW224669   0.451   3.157   1.997  0.1494  0.9399  0.4830
 7924SOL     OW24670   6.824   0.617   2.666  0.4154 -0.5938  0.1370
 7924SOL    HW124671   6.915   0.579   2.684  1.0472  0.5409 -0.5061
 7924SOL    HW224672   6.816   0.641   2.569 -1.0169 -1.7482 -0.0711
 7925SOL     OW24673   6.129   3.223   2.761  0.1423  0.1095  0.3543
 7925SOL    HW124674   6.073   3.168   2.823  0.7135 -1.5794 -0.5630
 7925SOL    HW224675   6.147   3.171   2.678  1.4374  1.3830 -0.2010
 7926SOL     OW24676   2.665   1.630   6.359  0.5369 -0.3385 -0.1562
 7926SOL    HW124677   2.724   1.549   6.361  0.6142 -0.2893  1.5010
 7926SOL    HW224678   2.719   1.712   6.342  0.3512 -0.6600 -2.6758
 7927SOL     OW24679   4.541   5.741   1.993  0.3605  0.6022  0.4936
 7927SOL    HW124680   4.509   5.805   1.923  2.2761  0.5710 -0.4813
 7927SOL    HW224681   4.636   5.762   2.017  0.1092 -0.0911  2.3049
 7928SOL     OW24682   0.250   5.592   5.311 -0.1236  0.0237  0.2786
 7928SOL    HW124683   0.283   5.623   5.222 -0.4050 -1.1903 -0.2679
 7928SOL    HW224684   0.260   5.493   5.318 -0.7602  0.0137  1.3234
 7929SOL     OW24685   3.324   3.760   3.352 -0.2183  0.2353 -0.2441
 7929SOL    HW124686   3.390   3.781   3.280 -0.3615  1.3576 -0.0613
 7929SOL    HW224687   3.292   3.845   3.394 -0.0093 -0.3944  1.2533
 7930SOL     OW24688   4.727   6.223   3.776 -0.5219  0.1563  0.1179
 7930SOL    HW124689   4.741   6.263   3.686  0.7409  0.9885  0.6590
 7930SOL    HW224690   4.652   6.270   3.822  0.7198  1.7657  0.6116
 7931SOL     OW24691   5.604   2.212   3.215  0.1909  0.2025  0.6736
 7931SOL    HW124692   5.684   2.153   3.217  0.5150  0.6585  1.6898
 7931SOL    HW224693   5.529   2.165   3.167  1.0707 -0.1924 -0.3706
 7932SOL     OW24694   3.384   0.766   6.506  0.0008 -0.1181  0.7037
 7932SOL    HW124695   3.403   0.682   6.455  0.3577  0.1934  0.3177
 7932SOL    HW224696   3.285   0.780   6.512 -0.1699 -1.8053  2.8295
 7933SOL     OW24697   2.029   1.350   4.543  0.7404  0.1472  0.1686
 7933SOL    HW124698   2.128   1.354   4.543  0.7675 -0.2140  1.1257
 7933SOL    HW224699   1.991   1.442   4.552  1.0099  0.1769  1.0131
 7934SOL     OW24700   5.178   0.022   4.185  0.2439  0.6583 -0.1519
 7934SOL    HW124701   5.202  -0.054   4.125  1.5191  0.9045  0.0029
 7934SOL    HW224702   5.187   0.108   4.135  0.7564  0.8273  0.2198
 7935SOL     OW24703   2.351   3.316   1.615 -0.2800  0.2806  0.2998
 7935SOL    HW124704   2.449   3.298   1.618 -0.2757  0.2128 -0.1510
 7935SOL    HW224705   2.328   3.385   1.683 -0.0315 -0.2044  0.8783
 7936SOL     OW24706   1.604   2.289   2.531  0.1998 -0.0334 -0.0191
 7936SOL    HW124707   1.539   2.262   2.602  0.6439  1.3867  0.9791
 7936SOL    HW224708   1.558   2.293   2.443 -1.1767  1.2890  0.7219
 7937SOL     OW24709   2.418   4.854   3.823 -0.1886  0.1154  0.4814
 7937SOL    HW124710   2.436   4.952   3.812 -0.8700  0.0713 -1.6239
 7937SOL    HW224711   2.455   4.822   3.910  1.0310  2.0065  0.7151
 7938SOL     OW24712   6.378   0.226   4.232  0.3978  0.0238  0.3866
 7938SOL    HW124713   6.433   0.151   4.270 -0.4988 -0.4886  0.7036
 7938SOL    HW224714   6.293   0.233   4.283  0.2430  0.9254  0.0126
 7939SOL     OW24715   0.809   1.310   2.155  0.2877  0.2312 -0.6930
 7939SOL    HW124716   0.811   1.398   2.108  1.2069  0.9979  0.7223
 7939SOL    HW224717   0.900   1.269   2.154  0.5218  0.6416  1.0736
 7940SOL     OW24718   3.099   0.376   0.887  0.1231 -0.0286 -0.1390
 7940SOL    HW124719   3.127   0.422   0.971 -0.3914  1.6833 -0.8490
 7940SOL    HW224720   3.089   0.444   0.814 -0.5778 -1.3107 -1.2853
 7941SOL     OW24721   3.651   0.735   2.714 -0.4220 -0.7623  0.3084
 7941SOL    HW124722   3.619   0.640   2.720  0.2240 -1.0454 -0.5560
 7941SOL    HW224723   3.672   0.769   2.805 -0.7726 -1.4079  0.6347
 7942SOL     OW24724   2.306   5.580   1.116  0.3160 -0.0784 -0.4012
 7942SOL    HW124725   2.207   5.563   1.113  0.1962  0.4870  0.1840
 7942SOL    HW224726   2.334   5.625   1.031  0.2088 -0.9427 -0.8978
 7943SOL     OW24727   6.922   1.433   0.637 -0.2414 -0.1962 -0.0085
 7943SOL    HW124728   6.864   1.352   0.647 -0.0228 -0.5854 -1.6277
 7943SOL    HW224729   6.897   1.482   0.554  1.2558  0.0256 -0.3584
 7944SOL     OW24730   5.927   4.793   6.174 -0.0731  0.8488 -0.0089
 7944SOL    HW124731   5.980   4.767   6.094  1.1024  1.9020  0.3958
 7944SOL    HW224732   5.940   4.891   6.192 -1.8262  1.0507  0.3666
 7945SOL     OW24733   0.567   6.111   2.586 -0.4471  0.3515 -0.1362
 7945SOL    HW124734   0.644   6.156   2.541  0.9686 -1.3343  0.5125
 7945SOL    HW224735   0.590   6.094   2.682 -1.1800 -1.1612 -0.2042
 7946SOL     OW24736   4.865   2.302   2.238  0.7957 -0.3297  0.0146
 7946SOL    HW124737   4.813   2.303   2.152  0.1329  2.3141  0.3678
 7946SOL    HW224738   4.955   2.341   2.222  1.0605 -0.7914  0.3396
 7947SOL     OW24739   0.434   3.693   3.134 -0.2447 -0.2879 -0.0882
 7947SOL    HW124740   0.503   3.676   3.064 -0.2897  0.2169 -0.2597
 7947SOL    HW224741   0.377   3.771   3.107  0.5497  0.7507  1.0889
 7948SOL     OW24742   6.783   2.764   5.645  0.2735 -0.0358 -0.3086
 7948SOL    HW124743   6.773   2.852   5.691  0.9978 -0.1900  0.1516
 7948SOL    HW224744   6.876   2.729   5.659  0.5630 -0.0157 -2.0251
 7949SOL     OW24745   3.630   5.614   3.645  0.4020 -0.5440  0.1679
 7949SOL    HW124746   3.729   5.627   3.637  0.2597 -0.5766 -2.6447
 7949SOL    HW224747   3.591   5.598   3.554 -2.1681 -0.8329  1.2383
 7950SOL     OW24748   3.606   1.382   3.834  0.5903 -0.3557 -0.2038
 7950SOL    HW124749   3.640   1.347   3.747 -0.6249 -0.2841 -0.7305
 7950SOL    HW224750   3.568   1.307   3.888  1.8900 -0.4961  0.5445
 7951SOL     OW24751   5.044   2.104   4.720 -0.2868  0.3788  0.1260
 7951SOL    HW124752   4.987   2.081   4.641 -0.0357  1.6261 -0.4331
 7951SOL    HW224753   5.139   2.113   4.691  0.0799 -0.8005  0.8925
 7952SOL     OW24754   0.050   5.094   3.651 -0.1462  0.5168  0.5293
 7952SOL    HW124755   0.094   5.120   3.565  1.0054  0.8504  1.2029
 7952SOL    HW224756   0.001   5.173   3.688 -1.0109  0.2554 -0.0175
 7953SOL     OW24757   6.846   3.466   6.610 -0.5740  0.7888  0.4845
 7953SOL    HW124758   6.916   3.533   6.584 -1.8977  1.7563 -0.7712
 7953SOL    HW224759   6.772   3.468   6.542 -1.7104 -0.3684  1.6442
 7954SOL     OW24760   3.339   1.074   2.921  0.3076 -0.0620  0.3300
 7954SOL    HW124761   3.299   1.157   2.962 -0.8114 -1.7847  3.0225
 7954SOL    HW224762   3.438   1.077   2.931  0.3435  1.2624 -0.2638
 7955SOL     OW24763   0.809   0.859   1.047  0.1233  0.0779  0.2593
 7955SOL    HW124764   0.841   0.768   1.074 -1.0182 -0.4327 -0.0553
 7955SOL    HW224765   0.827   0.925   1.120  0.5005 -0.5013  0.6916
 7956SOL     OW24766   3.316   6.532   2.751 -0.1188 -0.0166 -0.0687
 7956SOL    HW124767   3.382   6.608   2.757  0.3773 -0.4114 -0.4160
 7956SOL    HW224768   3.302   6.509   2.655 -2.1985  1.2854 -0.1325
 7957SOL     OW24769   6.288   1.287   2.129 -0.3678 -0.0722  0.2108
 7957SOL    HW124770   6.230   1.246   2.058  0.2192 -0.4920 -0.0327
 7957SOL    HW224771   6.366   1.228   2.147  0.5638  0.9824 -0.2296
 7958SOL     OW24772   5.895   5.320   2.111 -0.2810  0.6216  0.0740
 7958SOL    HW124773   5.797   5.322   2.095 -0.4398 -1.6755  0.5306
 7958SOL    HW224774   5.915   5.270   2.195  1.1919  2.8851  1.1904
 7959SOL     OW24775   4.218   2.760   0.309  0.6304 -0.2542  0.6610
 7959SOL    HW124776   4.153   2.689   0.335  0.4992  0.2156  1.6490
 7959SOL    HW224777   4.289   2.721   0.250  1.3431 -1.5400  2.2906
 7960SOL     OW24778   1.770   3.614   0.487 -0.3546 -0.3408  1.1364
 7960SOL    HW124779   1.831   3.691   0.504  0.4275 -0.9512  1.1536
 7960SOL    HW224780   1.817   3.528   0.509 -0.6636 -0.9213 -0.3517
 7961SOL     OW24781   0.072   3.338   5.021 -0.3162  0.3523  0.3496
 7961SOL    HW124782   0.159   3.307   4.982 -0.2156 -0.5374  1.2438
 7961SOL    HW224783   0.089   3.380   5.110 -0.7260  0.8541  0.1951
 7962SOL     OW24784   5.810   3.065   5.518  0.3961 -0.3201  0.2307
 7962SOL    HW124785   5.864   3.124   5.458  0.4086 -0.9929 -0.4290
 7962SOL    HW224786   5.723   3.109   5.539  0.6611  0.2013  0.2565
 7963SOL     OW24787   1.913   4.224   6.996 -0.1851  0.6381  0.4418
 7963SOL    HW124788   1.937   4.235   7.093  1.1523  0.7834  0.1237
 7963SOL    HW224789   1.872   4.134   6.982 -0.0452  0.4659  1.0904
 7964SOL     OW24790   3.489   1.225   4.055  0.1013  0.3030  0.2941
 7964SOL    HW124791   3.390   1.233   4.045  0.1922  0.0213 -1.0012
 7964SOL    HW224792   3.519   1.277   4.135 -1.0001  1.0398  0.2455
 7965SOL     OW24793   6.617   5.460   6.560 -0.1160 -0.1944 -0.2268
 7965SOL    HW124794   6.698   5.415   6.521 -0.1615  0.5707 -1.2464
 7965SOL    HW224795   6.588   5.534   6.500  0.8907  2.2652  2.1078
 7966SOL     OW24796   3.034   2.906   6.419  0.0988  0.1312 -0.4943
 7966SOL    HW124797   3.042   3.003   6.443 -0.6064  0.0984 -0.0969
 7966SOL    HW224798   3.068   2.892   6.325  2.5608  0.3183  0.2940
 7967SOL     OW24799   5.825   3.303   2.950  1.2612 -0.0150 -0.1157
 7967SOL    HW124800   5.834   3.284   2.852  1.1833  0.1578 -0.1566
 7967SOL    HW224801   5.855   3.397   2.969  0.4366  0.2500 -0.1084
 7968SOL     OW24802   1.244   0.597   6.026  0.0117  0.2355 -0.1434
 7968SOL    HW124803   1.273   0.621   5.934 -0.1816  0.1080 -0.2376
 7968SOL    HW224804   1.213   0.502   6.028  0.9428 -0.0682  0.2686
 7969SOL     OW24805   4.487   0.662   1.483  0.0045 -0.3881 -0.6891
 7969SOL    HW124806   4.573   0.616   1.460  0.4926  0.8584 -1.4356
 7969SOL    HW224807   4.505   0.737   1.547 -0.8783 -1.6000  1.0933
 7970SOL     OW24808   5.824   0.037   3.648 -0.2011 -0.1057  0.2186
 7970SOL    HW124809   5.797  -0.059   3.659 -1.4633 -0.0253 -1.7546
 7970SOL    HW224810   5.916   0.042   3.608 -0.8248 -0.5362 -1.2990
 7971SOL     OW24811   6.946   6.908   0.991  0.3859  0.0756  0.2341
 7971SOL    HW124812   7.006   6.948   1.060  1.2625 -0.6354 -0.0956
 7971SOL    HW224813   6.857   6.888   1.032 -0.1771  2.5222  0.3556
 7972SOL     OW24814   4.786   2.922   2.564 -0.8274 -0.5699  0.4112
 7972SOL    HW124815   4.845   2.860   2.513 -2.1285 -0.5358 -1.2048
 7972SOL    HW224816   4.705   2.873   2.596 -0.8826 -0.1671  0.9144
 7973SOL     OW24817   1.608   2.997   6.475  0.0358 -0.0490 -0.8530
 7973SOL    HW124818   1.574   3.041   6.392 -0.0449  0.5657 -0.5033
 7973SOL    HW224819   1.707   2.984   6.468  0.5453  2.6376  0.0837
 7974SOL     OW24820   5.165   1.888   3.601 -0.1777  0.5702  0.2047
 7974SOL    HW124821   5.102   1.811   3.587  0.7566  0.0553 -1.5211
 7974SOL    HW224822   5.130   1.969   3.554 -0.4389  0.8099  0.7979
 7975SOL     OW24823   0.146   0.321   6.338 -0.9168  0.1293 -0.2446
 7975SOL    HW124824   0.097   0.406   6.354 -0.5625  0.1542  0.7539
 7975SOL    HW224825   0.241   0.329   6.370  0.0320  0.3515 -2.8509
 7976SOL     OW24826   1.033   1.622   5.208 -0.4341  0.3264  0.4172
 7976SOL    HW124827   0.986   1.544   5.168 -1.9537  0.5243  1.7171
 7976SOL    HW224828   1.052   1.604   5.305  0.9345  0.8267  0.2703
 7977SOL     OW24829   3.181   2.542   6.366  0.1413  0.2807  0.4164
 7977SOL    HW124830   3.184   2.595   6.450  0.8048  0.7636  0.0984
 7977SOL    HW224831   3.165   2.603   6.288  1.1526  0.0686  0.0211
 7978SOL     OW24832   1.348   3.501   6.546  0.6651  0.0449  0.4208
 7978SOL    HW124833   1.291   3.582   6.536 -1.5094 -1.5932 -1.3510
 7978SOL    HW224834   1.300   3.433   6.602  2.4681 -0.0727  1.9197
 7979SOL     OW24835   1.342   4.128   3.460 -0.1388  0.3696 -0.1865
 7979SOL    HW124836   1.427   4.146   3.410  0.3264  1.6249  0.9952
 7979SOL    HW224837   1.340   4.183   3.543 -2.2351  0.5417 -0.3009
 7980SOL     OW24838   4.166   1.913   3.158 -0.4285  0.0438  0.0842
 7980SOL    HW124839   4.241   1.951   3.103  1.1129 -0.6030  1.6588
 7980SOL    HW224840   4.133   1.829   3.115 -0.1550  0.2472 -0.5474
 7981SOL     OW24841   3.990   5.425   1.783 -0.1310 -0.1466  0.3936
 7981SOL    HW124842   4.068   5.363   1.778  1.0094  1.1600  1.1115
 7981SOL    HW224843   3.955   5.426   1.877 -1.4739 -1.2194 -0.0621
 7982SOL     OW24844   0.627   5.265   3.574  0.3521  0.1603  0.5417
 7982SOL    HW124845   0.652   5.224   3.486 -1.3410  0.4482 -0.1166
 7982SOL    HW224846   0.648   5.200   3.647  0.6999 -0.5774 -0.1876
 7983SOL     OW24847   0.842   4.810   0.105  0.3348 -0.1949  0.4092
 7983SOL    HW124848   0.881   4.771   0.188  0.7092  0.6195  0.6186
 7983SOL    HW224849   0.771   4.875   0.129  1.0817  0.7384  0.1298
 7984SOL     OW24850   5.601   5.590   6.455  0.4000  0.3831 -0.4488
 7984SOL    HW124851   5.612   5.636   6.367  0.6933  1.2135  0.0153
 7984SOL    HW224852   5.513   5.614   6.495  0.4828  0.4186 -0.2846
 7985SOL     OW24853   1.830   5.935   1.996 -0.2248  0.2088  0.2868
 7985SOL    HW124854   1.801   5.986   2.077  0.6700 -0.7123  1.2106
 7985SOL    HW224855   1.912   5.977   1.957 -0.7447  0.7461 -0.2683
 7986SOL     OW24856   0.121   2.282   4.783  0.1681  0.3122  0.1309
 7986SOL    HW124857   0.132   2.324   4.693  3.1971  0.5213  0.5172
 7986SOL    HW224858   0.092   2.187   4.772 -2.6058  1.1581 -0.8730
 7987SOL     OW24859   0.974   0.220   3.345  0.1410 -0.1952  0.1514
 7987SOL    HW124860   1.033   0.198   3.422 -0.6223 -1.3722  0.4176
 7987SOL    HW224861   0.931   0.309   3.360  1.5504  0.5305  0.1054
 7988SOL     OW24862   0.019   4.045   1.278  0.0469  0.2225  0.4373
 7988SOL    HW124863  -0.052   4.107   1.313  0.0427  1.5901 -1.7495
 7988SOL    HW224864   0.099   4.049   1.337 -1.1629 -0.3206  2.2084
 7989SOL     OW24865   4.423   4.892   1.965  0.1909 -0.1191  0.5199
 7989SOL    HW124866   4.403   4.922   2.059 -1.4837  0.7011 -0.0575
 7989SOL    HW224867   4.434   4.972   1.906 -0.2396 -0.6206 -0.2594
 7990SOL     OW24868   6.208   0.030   4.608 -0.0157  0.4602  0.1521
 7990SOL    HW124869   6.205   0.061   4.513 -1.8857  2.6515  0.8407
 7990SOL    HW224870   6.160  -0.057   4.615  1.1456 -0.3289 -1.0504
 7991SOL     OW24871   1.839   5.048   6.663 -0.1708 -0.0527 -0.2281
 7991SOL    HW124872   1.872   4.981   6.596  1.4051  0.7995 -0.3554
 7991SOL    HW224873   1.834   5.138   6.620  0.4152  0.4189  0.6713
 7992SOL     OW24874   1.590   0.776   0.242 -0.0121  0.8376 -0.0783
 7992SOL    HW124875   1.495   0.787   0.272 -0.2495 -0.5368 -0.2867
 7992SOL    HW224876   1.595   0.709   0.169  1.2102  0.3907  0.3895
 7993SOL     OW24877   2.058   6.485   1.005  0.1642  0.6031  0.3783
 7993SOL    HW124878   2.116   6.561   1.036 -0.3718  1.2997 -0.3121
 7993SOL    HW224879   2.079   6.404   1.060  0.3754  1.3769  1.4891
 7994SOL     OW24880   3.695   3.186   2.898  0.0493  0.0153  0.2643
 7994SOL    HW124881   3.628   3.117   2.872 -2.8267  1.7930  2.2704
 7994SOL    HW224882   3.767   3.144   2.953 -0.7923 -1.6008  0.1813
 7995SOL     OW24883   3.107   5.248   6.075  0.3704  1.0380 -0.2274
 7995SOL    HW124884   3.017   5.241   6.031  0.1516  1.3913  0.1509
 7995SOL    HW224885   3.133   5.344   6.081  0.3593  1.0008  0.4833
 7996SOL     OW24886   5.629   5.348   5.553 -0.0995  0.0288 -0.3260
 7996SOL    HW124887   5.539   5.304   5.555 -0.1342  0.1013  1.0077
 7996SOL    HW224888   5.697   5.285   5.591  0.5550 -0.2683 -1.9101
 7997SOL     OW24889   2.593   2.613   5.439  0.5158 -0.7078  0.6341
 7997SOL    HW124890   2.575   2.594   5.535 -0.2807  1.1176  0.8856
 7997SOL    HW224891   2.522   2.674   5.403  2.0855  0.5506 -0.4557
 7998SOL     OW24892   6.688   0.958   6.803  0.2820  0.2123  0.2080
 7998SOL    HW124893   6.683   1.051   6.766 -1.1428 -0.3882 -1.2461
 7998SOL    HW224894   6.783   0.936   6.825  0.9423  1.3177 -1.3244
 7999SOL     OW24895   6.692   5.545   0.612 -0.3962 -0.1260  0.4441
 7999SOL    HW124896   6.695   5.508   0.519  1.2592  0.9381  0.0400
 7999SOL    HW224897   6.763   5.503   0.668 -0.7715 -0.0780  0.9718
 8000SOL     OW24898   5.631   1.203   2.535  0.2089  0.0176  0.1950
 8000SOL    HW124899   5.673   1.167   2.618  0.0986  1.0774  0.7268
 8000SOL    HW224900   5.547   1.252   2.558 -0.7974 -1.2067 -0.7513
 8001SOL     OW24901   3.596   5.162   5.208 -0.8578 -0.1415 -0.6859
 8001SOL    HW124902   3.612   5.107   5.126  1.0804  0.7653 -0.9933
 8001SOL    HW224903   3.662   5.237   5.211 -1.8688  0.7529  0.9469
 8002SOL     OW24904   5.751   3.241   6.492 -0.2586 -0.2482  0.9708
 8002SOL    HW124905   5.739   3.321   6.551 -0.0603  0.7681 -0.3218
 8002SOL    HW224906   5.846   3.235   6.463 -0.5234 -0.2576  0.0914
 8003SOL     OW24907   0.786   1.941   1.279 -0.3301  0.5340 -0.5733
 8003SOL    HW124908   0.842   1.979   1.205  1.2691  1.5184  1.0556
 8003SOL    HW224909   0.808   1.989   1.364 -1.0924 -1.5049  0.8290
 8004SOL     OW24910   4.343   2.355   3.512  0.3008  0.9166 -0.1020
 8004SOL    HW124911   4.434   2.368   3.473  1.3679 -1.0402  1.5252
 8004SOL    HW224912   4.343   2.384   3.608  0.0354 -1.5199  0.7081
 8005SOL     OW24913   3.257   2.905   3.875  0.1137 -0.2892  0.3485
 8005SOL    HW124914   3.160   2.901   3.899  0.0942  0.2178  0.3693
 8005SOL    HW224915   3.312   2.879   3.955  0.0035 -0.3405  0.4081
 8006SOL     OW24916   4.980   4.523   2.903 -0.3653 -0.5285  0.7378
 8006SOL    HW124917   4.972   4.608   2.851  1.4741 -1.2969 -0.9108
 8006SOL    HW224918   4.924   4.453   2.860 -0.7699 -0.5488  1.2776
 8007SOL     OW24919   3.917   0.849   6.874  0.6798  0.0539  0.1072
 8007SOL    HW124920   4.006   0.892   6.856  0.8311  0.0336  0.7743
 8007SOL    HW224921   3.861   0.852   6.792  2.0426 -1.7416 -0.9594
 8008SOL     OW24922   4.771   4.919   3.354  0.0454 -0.6067 -0.4258
 8008SOL    HW124923   4.830   4.840   3.369  0.3778 -0.2202  0.3029
 8008SOL    HW224924   4.701   4.922   3.425 -1.7500 -1.8456 -2.0168
 8009SOL     OW24925   6.360   5.975   1.815 -0.2334 -0.0350 -0.0219
 8009SOL    HW124926   6.407   5.933   1.737  0.2782  0.3922  0.0523
 8009SOL    HW224927   6.418   5.968   1.897 -0.6560 -0.2467  0.2634
 8010SOL     OW24928   5.548   6.215   6.916 -0.3738 -0.0635  0.7390
 8010SOL    HW124929   5.454   6.216   6.884 -0.5134  0.1279  1.1501
 8010SOL    HW224930   5.581   6.310   6.925 -0.7012 -0.0606  2.2077
 8011SOL     OW24931   1.426   0.513   2.072 -0.0365 -0.0247  0.1973
 8011SOL    HW124932   1.433   0.550   1.979 -0.5948 -0.3624  0.0212
 8011SOL    HW224933   1.456   0.418   2.073 -0.2588 -0.0956  0.3119
 8012SOL     OW24934   1.483   6.288   5.598 -0.1493  0.2826  0.2187
 8012SOL    HW124935   1.500   6.386   5.604  1.3400  0.0651 -0.0258
 8012SOL    HW224936   1.439   6.266   5.511  0.2877  0.6356 -0.0903
 8013SOL     OW24937   1.939   2.957   1.376  0.3887  0.2187 -0.3446
 8013SOL    HW124938   1.876   3.015   1.324 -0.5908 -0.0777  0.4697
 8013SOL    HW224939   1.966   3.004   1.459  1.5193  0.4703 -0.8386
 8014SOL     OW24940   1.376   2.823   5.968 -0.7076  0.5465 -0.7277
 8014SOL    HW124941   1.364   2.868   5.880  1.7938  0.9591 -0.9289
 8014SOL    HW224942   1.471   2.794   5.978 -0.3464  2.3644  2.6853
 8015SOL     OW24943   1.556   5.642   6.679  0.2279  0.5157 -0.2274
 8015SOL    HW124944   1.596   5.550   6.671  0.6647  0.7335 -0.6567
 8015SOL    HW224945   1.626   5.705   6.712  0.5943  1.1259 -2.0374
 8016SOL     OW24946   5.554   0.121   1.188 -0.3219  0.2129 -0.1108
 8016SOL    HW124947   5.573   0.086   1.279 -0.4966  1.6866  0.5228
 8016SOL    HW224948   5.481   0.068   1.145 -0.0308 -0.6732  0.4745
 8017SOL     OW24949   4.248   4.765   4.872 -0.0510 -0.5289  0.0040
 8017SOL    HW124950   4.226   4.677   4.915  0.9156 -0.1720  1.3147
 8017SOL    HW224951   4.297   4.749   4.787 -0.9116 -1.2586 -0.3703
 8018SOL     OW24952   0.542   0.234   0.185 -0.1988  0.1871  0.1067
 8018SOL    HW124953   0.507   0.315   0.136 -3.2120 -0.7976  0.4630
 8018SOL    HW224954   0.610   0.263   0.252 -0.5736  2.3224 -0.3592
 8019SOL     OW24955   1.216   1.085   1.950 -0.3172  0.0065  0.3528
 8019SOL    HW124956   1.282   1.123   1.885 -1.5619  0.1894 -0.8612
 8019SOL    HW224957   1.232   0.987   1.961  0.4207  0.1321  0.3957
 8020SOL     OW24958   2.328   0.423   0.874 -0.4345  0.3359 -0.5124
 8020SOL    HW124959   2.339   0.349   0.808  1.2631  1.1740 -1.2243
 8020SOL    HW224960   2.417   0.447   0.912 -1.1444  1.1156  0.7236
 8021SOL     OW24961   2.230   2.660   2.163  0.4745 -0.1831  0.5542
 8021SOL    HW124962   2.211   2.671   2.260 -0.1839  0.1674  0.3836
 8021SOL    HW224963   2.317   2.610   2.152  0.3867 -0.5166  1.3159
 8022SOL     OW24964   2.306   6.135   5.742  0.7256 -0.3315 -0.3445
 8022SOL    HW124965   2.239   6.066   5.712  0.5312 -0.3304  0.0775
 8022SOL    HW224966   2.259   6.206   5.794  1.1362 -0.6346  0.4580
 8023SOL     OW24967   4.043   1.992   0.968  0.4354 -0.5366 -0.0274
 8023SOL    HW124968   4.070   1.897   0.975  3.5473  0.3021  0.8281
 8023SOL    HW224969   4.099   2.038   0.899 -1.2825  0.6586 -0.7311
 8024SOL     OW24970   0.463   3.380   0.129  0.0384 -0.0402  0.5915
 8024SOL    HW124971   0.552   3.410   0.095  0.7676 -0.2087  2.2927
 8024SOL    HW224972   0.391   3.422   0.073  1.1513 -0.4317 -1.2375
 8025SOL     OW24973   5.855   6.357   1.737  0.2807 -0.1494 -0.6743
 8025SOL    HW124974   5.938   6.412   1.749 -0.1597  0.2812  0.5079
 8025SOL    HW224975   5.853   6.285   1.806  0.2522 -0.9367 -1.4656
 8026SOL     OW24976   6.058   4.283   4.479 -0.0292 -0.0996  0.8397
 8026SOL    HW124977   5.975   4.260   4.529 -0.1253 -0.1210  0.6717
 8026SOL    HW224978   6.125   4.210   4.489  0.1325  0.1106  1.3302
 8027SOL     OW24979   6.285   1.894   4.629  0.7548  0.1681 -0.2708
 8027SOL    HW124980   6.339   1.978   4.628 -0.6512  1.1039 -0.2261
 8027SOL    HW224981   6.336   1.822   4.676  0.5166  2.0258  3.1496
 8028SOL     OW24982   4.158   2.719   6.002 -0.6969 -0.3315  0.4630
 8028SOL    HW124983   4.248   2.745   5.966 -1.2656  0.7885 -0.2063
 8028SOL    HW224984   4.126   2.789   6.066 -1.3962 -0.3610  0.1575
 8029SOL     OW24985   2.057   6.755   5.397  0.2015 -0.2929  0.2978
 8029SOL    HW124986   2.043   6.799   5.309 -1.2608 -1.3876 -0.0763
 8029SOL    HW224987   1.979   6.776   5.457 -0.3350 -1.9569  0.2427
 8030SOL     OW24988   2.447   3.187   0.696  0.0786  0.0002 -0.8247
 8030SOL    HW124989   2.401   3.142   0.619  1.2305 -0.5981 -1.1939
 8030SOL    HW224990   2.546   3.186   0.680  0.3552 -0.3645  0.7858
 8031SOL     OW24991   5.927   6.310   6.140 -0.2079 -0.2356  0.3936
 8031SOL    HW124992   6.009   6.282   6.190 -1.2846 -2.1200  1.1953
 8031SOL    HW224993   5.854   6.332   6.204 -0.2581  1.8896 -0.3011
 8032SOL     OW24994   5.030   2.067   4.124 -0.1594 -0.0800 -0.0529
 8032SOL    HW124995   5.060   1.994   4.184 -0.5113 -0.3338 -0.1862
 8032SOL    HW224996   5.038   2.038   4.029 -0.0960  0.1318 -0.1141
 8033SOL     OW24997   6.020   1.187   5.394  0.4894  0.1090  0.2458
 8033SOL    HW124998   6.037   1.284   5.375 -1.1217  0.0573 -1.8715
 8033SOL    HW224999   6.086   1.131   5.344  0.7499  0.0895  0.6099
 8034SOL     OW25000   5.836   6.970   4.257 -0.4807  0.1703 -0.1311
 8034SOL    HW125001   5.875   6.976   4.348  0.4619 -0.0283 -0.5114
 8034SOL    HW225002   5.813   6.875   4.237 -1.6527  0.3524  0.2820
 8035SOL     OW25003   2.536   6.444   1.583 -0.3009  0.4026  0.0789
 8035SOL    HW125004   2.617   6.421   1.530 -1.6184 -1.3603 -1.2924
 8035SOL    HW225005   2.510   6.539   1.566 -0.4944 -0.0127 -2.2305
 8036SOL     OW25006   1.930   4.770   2.666  0.9194 -0.4401  0.0988
 8036SOL    HW125007   1.994   4.765   2.742 -0.6120  1.3039  1.6003
 8036SOL    HW225008   1.837   4.758   2.700  0.1344  1.0928 -1.3527
 8037SOL     OW25009   3.167   0.135   6.947  0.3966 -0.3890 -0.2601
 8037SOL    HW125010   3.182   0.075   6.869 -0.4687 -0.3333 -0.4704
 8037SOL    HW225011   3.200   0.227   6.925  0.0334 -0.3407 -0.6055
 8038SOL     OW25012   6.959   2.767   3.675 -0.0909 -0.2541  1.0127
 8038SOL    HW125013   6.887   2.698   3.675 -0.4975  0.1077 -0.6269
 8038SOL    HW225014   7.007   2.765   3.587  1.9459 -0.4998  2.0765
 8039SOL     OW25015   5.235   2.669   5.591  0.3793  0.1819  0.4068
 8039SOL    HW125016   5.152   2.642   5.640  1.8668 -2.9398  1.4339
 8039SOL    HW225017   5.310   2.679   5.656  0.8008  3.6119 -0.4102
 8040SOL     OW25018   2.315   5.688   4.030  0.1093  0.1319 -0.4469
 8040SOL    HW125019   2.270   5.672   3.942 -0.6902  1.1274 -0.2413
 8040SOL    HW225020   2.413   5.699   4.016  0.5880 -3.5312 -0.7347
 8041SOL     OW25021   6.799   4.301   1.777  0.3438  0.3443  0.4338
 8041SOL    HW125022   6.810   4.284   1.875  0.4792 -0.0041  0.3620
 8041SOL    HW225023   6.788   4.214   1.730  0.9483  0.4626  0.0635
 8042SOL     OW25024   0.841   1.569   1.743 -0.4323  0.4761 -0.7354
 8042SOL    HW125025   0.742   1.579   1.742 -0.3283  2.0353  0.4839
 8042SOL    HW225026   0.883   1.632   1.678 -0.2305 -0.2292 -1.3015
 8043SOL     OW25027   2.782   5.349   5.108 -0.3231 -0.1611 -0.4189
 8043SOL    HW125028   2.746   5.420   5.048 -0.8643  0.9175  1.1204
 8043SOL    HW225029   2.773   5.378   5.204  1.1142 -1.5255  0.1782
 8044SOL     OW25030   6.901   4.867   0.130 -0.3334  0.1934 -0.1000
 8044SOL    HW125031   6.936   4.834   0.042  1.2902  1.8675 -0.1407
 8044SOL    HW225032   6.864   4.959   0.118 -0.3826  0.3166  0.9166
 8045SOL     OW25033   0.767   5.459   3.153  0.1804  0.5210  0.2698
 8045SOL    HW125034   0.847   5.431   3.100  0.3728 -2.4648  1.9205
 8045SOL    HW225035   0.684   5.431   3.105  0.2969 -0.4154  0.5898
 8046SOL     OW25036   3.203   0.256   1.660 -0.2256 -0.2490 -0.0127
 8046SOL    HW125037   3.173   0.350   1.647 -1.0101 -0.3828  0.7478
 8046SOL    HW225038   3.129   0.202   1.700 -0.0070 -1.3448 -0.9921
 8047SOL     OW25039   4.022   3.229   1.998 -0.3226  0.2263  0.4180
 8047SOL    HW125040   4.102   3.237   1.939 -1.0129 -1.9459 -0.9511
 8047SOL    HW225041   4.026   3.297   2.070  1.3985  1.9146 -1.1709
 8048SOL     OW25042   2.078   5.087   5.167 -0.0935  0.0484  0.0853
 8048SOL    HW125043   2.020   5.109   5.246  1.4944 -2.2809  2.0555
 8048SOL    HW225044   2.050   4.999   5.129 -0.3164  0.7669 -1.5097
 8049SOL     OW25045   5.603   5.238   2.860 -0.3391  0.0042 -0.0767
 8049SOL    HW125046   5.597   5.313   2.795 -1.8538 -0.4651 -0.5150
 8049SOL    HW225047   5.693   5.238   2.903 -0.3835  2.2301  0.1310
 8050SOL     OW25048   5.147   1.022   6.959 -0.2625  0.1326 -0.1928
 8050SOL    HW125049   5.062   0.973   6.976 -0.5295  0.8981  0.7374
 8050SOL    HW225050   5.220   0.956   6.940 -0.9653 -0.5430 -0.5712
 8051SOL     OW25051   6.324   0.251   5.837 -0.2313  0.6725 -0.3183
 8051SOL    HW125052   6.403   0.297   5.877  0.9506 -0.4067 -1.3212
 8051SOL    HW225053   6.279   0.196   5.907 -0.5937  1.9035  0.4488
 8052SOL     OW25054   2.599   0.384   6.615  0.1943  0.2808  0.3480
 8052SOL    HW125055   2.627   0.296   6.654 -1.5917 -0.7566 -0.6047
 8052SOL    HW225056   2.553   0.438   6.686 -0.3571 -0.3323  0.4628
 8053SOL     OW25057   6.576   0.555   5.094 -0.0303 -0.4679 -0.0814
 8053SOL    HW125058   6.555   0.542   4.997  3.9330  2.5438 -1.6442
 8053SOL    HW225059   6.596   0.467   5.136 -1.9276 -1.8578 -1.9288
 8054SOL     OW25060   1.530   3.486   0.754  0.2359 -0.2864 -0.4364
 8054SOL    HW125061   1.500   3.464   0.846 -2.1983  0.4829 -0.9680
 8054SOL    HW225062   1.487   3.424   0.688 -0.9136  1.3498 -1.3108
 8055SOL     OW25063   1.650   2.510   4.857  0.1027 -0.6562 -0.8703
 8055SOL    HW125064   1.726   2.550   4.807 -0.0361  0.0942 -0.4932
 8055SOL    HW225065   1.615   2.575   4.924 -2.7044  0.1666 -2.9316
 8056SOL     OW25066   0.237   3.491   0.040  0.1038 -0.0474  0.3097
 8056SOL    HW125067   0.189   3.405   0.057  1.0891 -0.6216  0.2793
 8056SOL    HW225068   0.171   3.565   0.033 -0.7608 -0.7899  0.3969
 8057SOL     OW25069   3.357   4.220   5.670  0.4516 -0.1643 -0.2717
 8057SOL    HW125070   3.400   4.302   5.707 -0.2569  0.2334 -0.3167
 8057SOL    HW225071   3.286   4.246   5.604  0.9727 -0.8369 -1.1323
 8058SOL     OW25072   1.706   0.573   6.318 -0.0222 -0.1042  0.0407
 8058SOL    HW125073   1.669   0.653   6.272  0.8848  0.6121  0.5227
 8058SOL    HW225074   1.630   0.516   6.351 -0.6904 -0.5245 -2.0774
 8059SOL     OW25075   6.322   0.244   2.018 -0.4935  0.0875 -0.4708
 8059SOL    HW125076   6.323   0.336   2.057 -0.1157 -0.3957  0.7279
 8059SOL    HW225077   6.411   0.201   2.032 -0.6128 -0.4004 -1.1734
 8060SOL     OW25078   4.424   3.738   6.981 -0.1174 -0.2380 -0.5899
 8060SOL    HW125079   4.363   3.665   7.011  0.3977 -0.7446 -0.7687
 8060SOL    HW225080   4.498   3.700   6.925  0.1142  0.4264 -0.7481
 8061SOL     OW25081   3.423   1.968   6.784 -0.2708  0.1718  0.5445
 8061SOL    HW125082   3.345   2.010   6.735 -0.2871  0.6366  0.9651
 8061SOL    HW225083   3.399   1.956   6.880 -1.7746 -4.4014 -0.1769
 8062SOL     OW25084   6.594   5.658   2.139  0.2230  0.0010 -0.0030
 8062SOL    HW125085   6.653   5.681   2.062  0.3503  1.1530  0.4199
 8062SOL    HW225086   6.499   5.654   2.108  0.3268 -0.0727 -0.3193
 8063SOL     OW25087   4.041   1.579   4.903 -0.6002 -0.9094 -0.1573
 8063SOL    HW125088   4.056   1.527   4.819 -0.9646 -0.9149 -0.2231
 8063SOL    HW225089   3.975   1.530   4.961 -2.6607  0.4896 -1.1842
 8064SOL     OW25090   0.425   6.963   0.209 -0.4182 -0.6728  0.2191
 8064SOL    HW125091   0.351   7.016   0.167 -0.2702  0.7169  1.6076
 8064SOL    HW225092   0.480   7.023   0.267  0.5981 -2.0977  0.7893
 8065SOL     OW25093   0.590   6.352   6.199 -0.7699 -0.5461 -0.2769
 8065SOL    HW125094   0.679   6.393   6.178 -1.2088  0.4907 -0.1381
 8065SOL    HW225095   0.602   6.253   6.212  0.3386 -0.4418 -0.3757
 8066SOL     OW25096   3.566   1.725   1.456 -0.5001  0.3104  0.1453
 8066SOL    HW125097   3.659   1.757   1.439  0.1997 -0.6330  1.9001
 8066SOL    HW225098   3.510   1.740   1.374  1.7775 -1.2757 -1.8616
 8067SOL     OW25099   5.055   0.489   3.844 -0.3657  0.0002 -0.2353
 8067SOL    HW125100   4.965   0.503   3.803 -0.6781  0.8369  0.6967
 8067SOL    HW225101   5.051   0.510   3.942  1.3243  2.1382 -0.5600
 8068SOL     OW25102   3.509   1.655   6.965 -0.0776 -0.2138 -0.2299
 8068SOL    HW125103   3.553   1.694   6.884  0.1605 -1.4094 -0.6965
 8068SOL    HW225104   3.413   1.683   6.967  0.5881  2.2178  0.6727
 8069SOL     OW25105   1.754   2.163   2.780  0.1698  0.1141  0.2215
 8069SOL    HW125106   1.802   2.114   2.853 -2.4110 -2.4137  0.3910
 8069SOL    HW225107   1.718   2.249   2.816 -0.8724 -0.9753  1.9739
 8070SOL     OW25108   2.937   0.407   4.040 -0.2451  0.4864 -0.4552
 8070SOL    HW125109   2.855   0.404   4.097  0.2885  0.5322  0.3389
 8070SOL    HW225110   3.012   0.361   4.088 -0.1046 -0.5751 -1.6707
 8071SOL     OW25111   3.001   4.253   6.953  0.1827  0.4255 -0.0381
 8071SOL    HW125112   2.905   4.263   6.977  0.3529  0.8959  0.4748
 8071SOL    HW225113   3.021   4.304   6.869  0.1148  0.8345  0.1929
 8072SOL     OW25114   6.498   0.367   0.616  0.4841  0.0289 -0.2135
 8072SOL    HW125115   6.465   0.389   0.707  1.0321 -2.0269  0.5498
 8072SOL    HW225116   6.436   0.301   0.573  1.2751 -0.5430 -0.5096
 8073SOL     OW25117   4.537   2.099   3.462  0.1167 -0.0990 -0.1158
 8073SOL    HW125118   4.524   2.117   3.559 -1.3358 -1.6698  0.0320
 8073SOL    HW225119   4.545   2.186   3.412 -0.1652  0.7383  1.2565
 8074SOL     OW25120   6.687   2.843   1.789  0.0869 -0.0509 -0.4731
 8074SOL    HW125121   6.723   2.817   1.699 -0.0449 -1.1840 -0.2095
 8074SOL    HW225122   6.592   2.873   1.779 -0.4918 -1.7506 -0.5301
 8075SOL     OW25123   1.993   6.047   3.415 -0.3085 -0.4742 -0.1167
 8075SOL    HW125124   2.017   6.079   3.323 -0.8216 -1.2329 -0.5194
 8075SOL    HW225125   1.918   6.104   3.451  0.0033 -0.0725 -0.1002
 8076SOL     OW25126   5.633   5.178   0.502  0.0350  0.1243 -0.3728
 8076SOL    HW125127   5.579   5.201   0.422  0.6757 -0.9130 -1.1363
 8076SOL    HW225128   5.658   5.081   0.498 -0.3179 -0.0587  1.3263
 8077SOL     OW25129   0.769   3.331   4.033  0.1424 -0.7205  0.0747
 8077SOL    HW125130   0.718   3.249   4.007 -0.4485 -0.8744  1.5872
 8077SOL    HW225131   0.863   3.324   4.000 -0.4848 -0.9563 -1.7742
 8078SOL     OW25132   4.046   2.475   5.883 -0.8151  0.1110 -0.5969
 8078SOL    HW125133   4.103   2.554   5.901 -1.9223  0.8044 -0.0529
 8078SOL    HW225134   3.972   2.500   5.820 -1.4161 -0.3680 -0.1076
 8079SOL     OW25135   0.729   1.390   3.039  0.0038  0.4277  0.0159
 8079SOL    HW125136   0.639   1.428   3.018  0.5527  2.2708  0.7255
 8079SOL    HW225137   0.776   1.366   2.954 -0.8003  0.3334 -0.4092
 8080SOL     OW25138   4.079   3.621   1.906 -0.4184  0.0629  0.6841
 8080SOL    HW125139   4.150   3.558   1.937 -0.7726 -0.5700  0.2252
 8080SOL    HW225140   4.001   3.569   1.873  0.3680  0.6259 -2.3424
 8081SOL     OW25141   6.789   4.218   1.324 -0.1133  0.1971  0.6834
 8081SOL    HW125142   6.690   4.207   1.311 -0.2831  2.0132  0.1149
 8081SOL    HW225143   6.811   4.316   1.325  1.9054 -0.1710 -1.1941
 8082SOL     OW25144   6.039   6.684   4.805  0.1487 -0.1236  0.4158
 8082SOL    HW125145   5.979   6.636   4.741 -0.5041 -2.1756  2.4240
 8082SOL    HW225146   5.986   6.752   4.855  0.2418  0.2130  0.0645
 8083SOL     OW25147   4.876   4.514   5.998  0.3581  0.1284 -0.1245
 8083SOL    HW125148   4.906   4.522   6.093  1.7244  0.8080 -0.5865
 8083SOL    HW225149   4.936   4.452   5.949 -0.0094  0.2057 -0.6790
 8084SOL     OW25150   1.989   5.139   4.178  1.1334 -0.1029  0.0325
 8084SOL    HW125151   1.992   5.223   4.232 -1.8205 -0.0942  0.3427
 8084SOL    HW225152   2.066   5.080   4.203  3.0752  2.3163  0.0574
 8085SOL     OW25153   2.487   5.403   3.808 -0.5035  0.4550  0.1848
 8085SOL    HW125154   2.543   5.322   3.827  1.3394  0.7439 -3.2263
 8085SOL    HW225155   2.509   5.475   3.873  0.6389 -0.5561  0.9646
 8086SOL     OW25156   2.097   0.750   6.452 -0.2153 -0.1730 -0.0330
 8086SOL    HW125157   2.096   0.773   6.355 -0.1975 -2.3971 -0.6071
 8086SOL    HW225158   2.004   0.744   6.486 -0.2134  0.9456  0.1858
 8087SOL     OW25159   4.011   5.205   0.808 -0.5513 -0.2794  0.2011
 8087SOL    HW125160   4.083   5.236   0.870 -0.3849 -0.7159  0.2260
 8087SOL    HW225161   4.052   5.167   0.725 -0.7242 -1.1888  0.5209
 8088SOL     OW25162   6.395   6.443   1.562  0.2830 -0.2035  0.4894
 8088SOL    HW125163   6.399   6.541   1.583  0.0542  0.0982 -0.8064
 8088SOL    HW225164   6.487   6.407   1.553  0.3726  0.2589 -0.5932
 8089SOL     OW25165   5.370   4.299   3.418  0.1593  0.1057  0.2062
 8089SOL    HW125166   5.332   4.332   3.505 -1.1655  0.6854 -0.5585
 8089SOL    HW225167   5.376   4.199   3.420 -2.2507 -0.1005  0.0818
 8090SOL     OW25168   6.829   5.446   2.467  0.2245  0.0772  0.3469
 8090SOL    HW125169   6.770   5.526   2.472 -1.8943 -1.4161  0.2625
 8090SOL    HW225170   6.862   5.424   2.559 -0.6567 -0.0109  0.6491
 8091SOL     OW25171   0.902   2.730   5.538 -0.9577 -0.4583  0.5914
 8091SOL    HW125172   0.982   2.739   5.598 -0.8735 -0.9167  0.5565
 8091SOL    HW225173   0.917   2.654   5.474 -0.8147  0.3652 -0.3805
 8092SOL     OW25174   6.307   6.570   4.860 -0.0304  0.3296 -0.4900
 8092SOL    HW125175   6.370   6.624   4.805 -0.6241  3.4788  1.6883
 8092SOL    HW225176   6.213   6.597   4.838 -0.3577  0.0512  0.5287
 8093SOL     OW25177   4.738   6.469   1.002  0.5304  0.7283 -0.6147
 8093SOL    HW125178   4.795   6.446   1.080  0.4692 -0.2377 -0.8417
 8093SOL    HW225179   4.794   6.468   0.919 -0.0424 -1.6322 -1.0420
 8094SOL     OW25180   3.816   5.173   2.991 -1.1094 -0.1258 -0.3510
 8094SOL    HW125181   3.762   5.257   2.987  0.7142  1.1101 -0.4732
 8094SOL    HW225182   3.807   5.123   2.905 -3.6612 -1.0781  0.3824
 8095SOL     OW25183   5.104   2.578   0.987 -0.3287  0.7573  0.3738
 8095SOL    HW125184   5.090   2.501   1.050 -0.5647  0.0081 -0.5550
 8095SOL    HW225185   5.186   2.628   1.013 -0.1577  0.1753  0.9913
 8096SOL     OW25186   6.377   5.295   3.310 -0.3073  0.5975 -0.6268
 8096SOL    HW125187   6.474   5.309   3.332 -0.4321  0.7439 -0.1737
 8096SOL    HW225188   6.370   5.223   3.240  0.1476  0.8230 -0.9133
 8097SOL     OW25189   3.566   4.344   0.173  0.4233 -0.1633 -0.3082
 8097SOL    HW125190   3.541   4.251   0.200 -1.3956  0.4425  0.2431
 8097SOL    HW225191   3.637   4.340   0.103 -0.1584 -1.9794 -0.8541
 8098SOL     OW25192   5.938   0.936   1.302  0.1427  0.4317 -0.4719
 8098SOL    HW125193   6.024   0.925   1.253 -0.7801 -0.0588 -2.0697
 8098SOL    HW225194   5.871   0.981   1.242 -0.9227  0.1650  0.4745
 8099SOL     OW25195   3.914   6.896   2.600  0.7868 -0.4185  0.2983
 8099SOL    HW125196   3.982   6.878   2.529  0.7885 -1.2822  0.5051
 8099SOL    HW225197   3.823   6.900   2.559  1.0874  2.7021 -0.2890
 8100SOL     OW25198   3.887   0.626   4.230  0.4831 -0.5047  0.0834
 8100SOL    HW125199   3.912   0.532   4.250  0.0038 -0.2189  2.3692
 8100SOL    HW225200   3.790   0.640   4.248  0.3260  0.2070 -1.1990
 8101SOL     OW25201   3.934   0.264   0.399  0.1021  0.0741  0.4033
 8101SOL    HW125202   3.891   0.207   0.469  0.2398 -1.8087 -0.9736
 8101SOL    HW225203   4.034   0.257   0.408  0.1466 -1.3832 -0.8461
 8102SOL     OW25204   3.718   6.668   2.325  0.5086 -0.1085  0.2924
 8102SOL    HW125205   3.704   6.760   2.360  0.4138 -0.3577  0.9202
 8102SOL    HW225206   3.796   6.668   2.262 -0.5631  0.7420 -1.1086
 8103SOL     OW25207   4.305   5.044   1.125 -0.2751  0.4316  0.1787
 8103SOL    HW125208   4.336   5.050   1.030  0.7714  0.3361  0.5055
 8103SOL    HW225209   4.297   4.948   1.152  0.5265  0.4584  0.5305
 8104SOL     OW25210   4.630   2.432   3.733  0.1200 -0.2615 -0.3176
 8104SOL    HW125211   4.550   2.475   3.774  0.0780  0.2301 -0.9097
 8104SOL    HW225212   4.612   2.334   3.721 -0.2630 -0.2154 -0.1353
 8105SOL     OW25213   4.688   0.765   4.854 -0.2869 -0.1262  0.0343
 8105SOL    HW125214   4.776   0.795   4.891  0.4071 -2.1710  0.1918
 8105SOL    HW225215   4.670   0.672   4.885 -3.8524  1.1031  2.3068
 8106SOL     OW25216   4.981   2.802   6.071  0.1703 -0.3618 -0.6400
 8106SOL    HW125217   5.042   2.736   6.115  0.6018  1.9341  2.6171
 8106SOL    HW225218   4.886   2.777   6.090  0.3450  0.5750  1.8696
 8107SOL     OW25219   0.129   2.760   4.226 -0.2461  0.7386  0.6686
 8107SOL    HW125220   0.075   2.729   4.305 -0.5907  1.3339  0.6777
 8107SOL    HW225221   0.074   2.751   4.143  0.6866 -1.4511  0.2257
 8108SOL     OW25222   5.919   4.512   0.189 -0.1074  0.1385 -0.6990
 8108SOL    HW125223   5.843   4.453   0.212  0.0226  0.7052  1.3657
 8108SOL    HW225224   6.004   4.459   0.188 -0.0379  0.1925  0.7907
 8109SOL     OW25225   3.441   5.018   5.380 -0.4761 -0.2451 -0.2363
 8109SOL    HW125226   3.506   5.014   5.456  0.0665  0.8344 -0.6250
 8109SOL    HW225227   3.461   5.098   5.324 -1.6119 -0.3834 -0.8555
 8110SOL     OW25228   1.248   2.930   1.707  0.1585 -0.0293 -0.1448
 8110SOL    HW125229   1.160   2.964   1.673  0.4299  0.9761  0.1226
 8110SOL    HW225230   1.258   2.833   1.683 -0.3663  0.2251 -1.4726
 8111SOL     OW25231   0.074   4.992   1.600 -0.2950  0.1398  0.6290
 8111SOL    HW125232   0.141   4.964   1.531 -0.3871  1.2837  0.0550
 8111SOL    HW225233   0.118   5.055   1.664 -0.5932  0.2201  0.7539
 8112SOL     OW25234   0.919   6.261   4.047  0.2074 -0.0282 -0.1598
 8112SOL    HW125235   0.882   6.261   3.954 -1.4384 -0.2277  0.4645
 8112SOL    HW225236   1.019   6.262   4.043  0.1798 -0.6350 -1.9347
 8113SOL     OW25237   0.891   2.731   2.503 -0.0228  0.0066  0.0488
 8113SOL    HW125238   0.982   2.715   2.539  0.4002 -1.3215 -1.5232
 8113SOL    HW225239   0.884   2.826   2.472  1.0968 -0.0975 -0.5606
 8114SOL     OW25240   6.879   0.289   0.951  0.2273 -0.3060 -0.2997
 8114SOL    HW125241   6.820   0.322   1.025 -0.0843  0.4072 -0.8670
 8114SOL    HW225242   6.849   0.197   0.924 -0.4521 -0.0553 -0.4057
 8115SOL     OW25243   0.322   6.596   3.778 -0.6157  0.5077  0.1510
 8115SOL    HW125244   0.350   6.681   3.823  0.8480 -0.5183  1.2482
 8115SOL    HW225245   0.247   6.554   3.829 -0.1592  0.2547  0.6156
 8116SOL     OW25246   0.951   1.391   4.648  0.2193 -0.3207  1.0127
 8116SOL    HW125247   0.871   1.451   4.653 -1.9572 -2.8446 -0.3395
 8116SOL    HW225248   1.018   1.429   4.585 -2.4451 -0.5619 -2.2772
 8117SOL     OW25249   0.390   0.255   1.903 -0.3298  0.5368 -0.5364
 8117SOL    HW125250   0.309   0.295   1.947 -1.3323 -2.1630  0.2633
 8117SOL    HW225251   0.471   0.308   1.929 -1.2178  0.5710  2.5951
 8118SOL     OW25252   5.800   3.919   0.688  0.1566  0.0126 -0.0978
 8118SOL    HW125253   5.815   3.846   0.621  2.0465 -0.4595  0.7440
 8118SOL    HW225254   5.706   3.951   0.683 -0.0684 -0.8215 -2.1371
 8119SOL     OW25255   4.160   4.140   0.140  0.0638  0.6685  0.3947
 8119SOL    HW125256   4.150   4.224   0.193 -2.4531  0.7488 -0.0746
 8119SOL    HW225257   4.069   4.107   0.113  1.0440 -1.6723 -0.2732
 8120SOL     OW25258   5.886   3.558   0.665 -0.7455  0.3795 -0.3729
 8120SOL    HW125259   5.919   3.621   0.595 -1.2073 -0.2020 -1.1203
 8120SOL    HW225260   5.820   3.495   0.625 -2.4222  1.2039  0.9694
 8121SOL     OW25261   0.177   3.794   5.522  0.0061 -0.0775  0.1492
 8121SOL    HW125262   0.106   3.818   5.457 -1.2532 -0.1963  1.4188
 8121SOL    HW225263   0.136   3.782   5.613  1.1186 -3.1920  0.3544
 8122SOL     OW25264   4.809   0.182   5.500  0.0905 -0.4543  0.7956
 8122SOL    HW125265   4.881   0.172   5.432 -1.5143 -2.2104 -0.7353
 8122SOL    HW225266   4.850   0.204   5.589  2.5624 -2.1372  0.1648
 8123SOL     OW25267   4.549   4.532   2.060 -0.9137 -0.0973 -1.0550
 8123SOL    HW125268   4.517   4.449   2.013  0.2739  0.3013 -2.6707
 8123SOL    HW225269   4.638   4.558   2.023 -0.8929  1.4452  0.0097
 8124SOL     OW25270   6.589   5.368   5.297  0.1257 -0.1559  0.3143
 8124SOL    HW125271   6.620   5.447   5.244 -0.7223  0.4589  0.7048
 8124SOL    HW225272   6.551   5.399   5.384 -1.3268 -0.8536 -0.0261
 8125SOL     OW25273   3.104   5.746   4.735  0.7041 -0.1506 -0.4105
 8125SOL    HW125274   3.043   5.820   4.764 -0.0503 -0.6607 -0.6506
 8125SOL    HW225275   3.092   5.667   4.795 -0.0369 -0.8121 -1.3905
 8126SOL     OW25276   6.087   2.718   0.023  0.1694  0.3108 -0.0216
 8126SOL    HW125277   6.144   2.731  -0.059  0.5183  1.8927  0.4252
 8126SOL    HW225278   6.091   2.623   0.052  2.1000  0.2375 -0.3887
 8127SOL     OW25279   1.755   2.786   3.686 -0.1965 -1.0921 -0.3883
 8127SOL    HW125280   1.770   2.690   3.708  3.6095 -0.9819 -1.6702
 8127SOL    HW225281   1.843   2.832   3.678 -1.8587  2.7400  0.8018
 8128SOL     OW25282   5.166   4.677   4.094  0.0197 -0.3295  0.3805
 8128SOL    HW125283   5.138   4.586   4.064  2.3897 -1.3846  1.1460
 8128SOL    HW225284   5.200   4.673   4.188  1.7302  0.9740 -0.1256
 8129SOL     OW25285   6.322   6.566   5.663  0.4568 -0.0985 -0.1481
 8129SOL    HW125286   6.347   6.516   5.747  3.5159 -1.3089 -1.5881
 8129SOL    HW225287   6.251   6.515   5.614 -0.3515 -0.1157  0.9990
 8130SOL     OW25288   2.027   1.389   5.372 -0.4416  0.4653  0.1682
 8130SOL    HW125289   2.018   1.482   5.407 -0.3791  1.3379 -1.9540
 8130SOL    HW225290   2.101   1.385   5.306 -0.2053 -1.2042  0.4833
 8131SOL     OW25291   3.819   3.400   2.202 -0.0584 -0.6411 -0.0996
 8131SOL    HW125292   3.783   3.371   2.290  1.0998 -0.1004  0.5809
 8131SOL    HW225293   3.791   3.335   2.131  2.6290 -3.7062  1.3641
 8132SOL     OW25294   2.182   0.164   6.974 -0.6300  0.0575  0.0752
 8132SOL    HW125295   2.211   0.075   6.937  0.9531  1.6944 -3.0372
 8132SOL    HW225296   2.082   0.164   6.985 -0.6729 -2.0877  0.1957
 8133SOL     OW25297   3.893   5.896   3.377  0.3974  0.2576 -0.5762
 8133SOL    HW125298   3.847   5.812   3.350 -0.6725  0.2751  1.0574
 8133SOL    HW225299   3.830   5.954   3.429  2.3429  0.0185  2.2693
 8134SOL     OW25300   6.828   4.419   6.919  0.3112 -0.3925 -0.1151
 8134SOL    HW125301   6.804   4.373   6.834 -1.3036 -0.6247  0.4390
 8134SOL    HW225302   6.923   4.397   6.943  1.1556  0.4951 -2.3474
 8135SOL     OW25303   4.945   6.800   2.186 -0.0872 -0.0114  0.4479
 8135SOL    HW125304   4.854   6.784   2.225  0.6548 -0.4714  2.0976
 8135SOL    HW225305   4.978   6.890   2.214 -0.3148  0.4603 -0.7581
 8136SOL     OW25306   3.408   0.002   3.723  0.1276 -0.1693 -0.9789
 8136SOL    HW125307   3.374  -0.070   3.784  0.4800 -0.8114 -1.5395
 8136SOL    HW225308   3.341   0.077   3.721  0.0718 -0.1668  0.1302
 8137SOL     OW25309   4.031   3.093   3.539  0.2211  0.5104  0.5242
 8137SOL    HW125310   3.952   3.036   3.562  0.1366  0.9017  1.2492
 8137SOL    HW225311   4.066   3.068   3.449 -0.3878 -0.0450  0.4378
 8138SOL     OW25312   4.588   2.590   4.144  0.9518  0.1441  0.7025
 8138SOL    HW125313   4.625   2.682   4.155  1.0775 -0.0121  1.6970
 8138SOL    HW225314   4.584   2.545   4.234  0.7707 -0.7700  0.2453
 8139SOL     OW25315   0.901   2.022   6.578  0.1205 -0.5900 -0.3811
 8139SOL    HW125316   0.961   1.946   6.602 -0.0082 -0.5677  0.0346
 8139SOL    HW225317   0.955   2.095   6.537 -0.1768 -2.0863 -3.6952
 8140SOL     OW25318   2.203   3.245   5.872 -0.7742 -0.2052  0.2655
 8140SOL    HW125319   2.268   3.175   5.843 -1.1454 -0.1143 -0.8672
 8140SOL    HW225320   2.191   3.312   5.798 -0.5883  0.9448  1.2342
 8141SOL     OW25321   6.902   5.308   3.769 -0.0291  0.0036 -0.1675
 8141SOL    HW125322   6.810   5.322   3.805  0.1890  0.9989  0.0194
 8141SOL    HW225323   6.964   5.375   3.807  0.1134  1.4754 -2.7383
 8142SOL     OW25324   1.892   3.395   1.433  0.6428 -0.4580 -0.4395
 8142SOL    HW125325   1.919   3.477   1.483 -0.7637 -0.0240 -0.3555
 8142SOL    HW225326   1.890   3.413   1.335  0.5385 -0.4527 -0.4365
 8143SOL     OW25327   3.991   0.874   0.200  0.0675 -0.5803 -0.6630
 8143SOL    HW125328   4.084   0.908   0.184  0.6971 -2.2576 -0.8074
 8143SOL    HW225329   3.946   0.931   0.268  1.6886 -0.5247  0.4078
 8144SOL     OW25330   6.741   2.769   6.461  0.4070 -0.1188  0.2917
 8144SOL    HW125331   6.687   2.766   6.546  0.2175  1.5692  0.2803
 8144SOL    HW225332   6.838   2.766   6.484  0.3441 -0.7633  0.4887
 8145SOL     OW25333   1.877   0.621   5.010  0.0081  0.1839  0.1751
 8145SOL    HW125334   1.918   0.680   4.940  2.0122  0.3079  1.3630
 8145SOL    HW225335   1.894   0.526   4.987 -1.4196  0.1027 -0.6763
 8146SOL     OW25336   1.082   6.846   4.540  0.2695 -0.2146  0.0006
 8146SOL    HW125337   1.091   6.749   4.565  0.3629  0.1048  1.2468
 8146SOL    HW225338   1.106   6.903   4.618 -1.1097  0.8074 -0.2829
 8147SOL     OW25339   1.878   5.531   6.372  0.1620  0.1179 -0.1198
 8147SOL    HW125340   1.797   5.474   6.383  1.8619 -2.1535  1.3451
 8147SOL    HW225341   1.914   5.521   6.279 -0.6122  0.3425 -0.4549
 8148SOL     OW25342   3.248   2.902   5.616  0.0516  0.1368  0.2862
 8148SOL    HW125343   3.262   2.822   5.675  2.6892 -0.0347 -0.4343
 8148SOL    HW225344   3.270   2.878   5.521 -0.1156  1.4407 -0.1034
 8149SOL     OW25345   1.821   4.561   0.598 -0.5839  0.5779 -0.0411
 8149SOL    HW125346   1.895   4.502   0.565  1.0166  1.3132  1.9642
 8149SOL    HW225347   1.857   4.654   0.612 -1.7570  0.8461  1.4020
 8150SOL     OW25348   2.808   6.903   1.430  0.0652  0.0052 -0.2717
 8150SOL    HW125349   2.815   6.921   1.528 -0.3916 -1.2228  0.0080
 8150SOL    HW225350   2.887   6.849   1.400 -0.6924 -1.1924 -0.1797
 8151SOL     OW25351   6.939   6.013   3.236  0.6690  0.2270 -0.1896
 8151SOL    HW125352   6.951   6.063   3.150 -1.2548  1.1755  0.0341
 8151SOL    HW225353   6.921   5.916   3.216  2.2969  0.0116 -0.7278
 8152SOL     OW25354   3.896   1.459   3.400  0.4620  0.2940  0.3053
 8152SOL    HW125355   3.810   1.467   3.350  0.5519  0.7774  0.2240
 8152SOL    HW225356   3.914   1.545   3.449  0.6962  0.0542  0.6474
 8153SOL     OW25357   0.757   6.296   0.529  0.1516  0.3023 -0.4058
 8153SOL    HW125358   0.797   6.387   0.518  1.5845 -0.2070  0.3694
 8153SOL    HW225359   0.790   6.255   0.614 -2.8765  0.2432  0.8684
 8154SOL     OW25360   4.722   2.160   3.931  0.0569 -0.2320 -0.0207
 8154SOL    HW125361   4.712   2.147   4.030 -1.1900  1.9030  0.1984
 8154SOL    HW225362   4.811   2.199   3.911  0.9423 -2.0853  0.0351
 8155SOL     OW25363   2.801   6.357   6.850  0.0449 -0.1525  0.5480
 8155SOL    HW125364   2.795   6.431   6.917  1.1345 -0.6885  1.2567
 8155SOL    HW225365   2.814   6.270   6.897  0.7078 -0.5551 -0.3572
 8156SOL     OW25366   3.504   6.048   6.709  0.5007  0.1360 -0.0862
 8156SOL    HW125367   3.507   6.087   6.801  2.3229 -2.1174  0.9204
 8156SOL    HW225368   3.410   6.022   6.687  0.1448 -0.0925  1.5403
 8157SOL     OW25369   6.006   2.859   3.228 -0.1870 -0.4682 -0.1195
 8157SOL    HW125370   5.940   2.905   3.288  0.0176  1.7031 -1.4439
 8157SOL    HW225371   6.099   2.888   3.253 -0.1003  0.4632 -1.4212
 8158SOL     OW25372   4.459   4.056   6.528 -0.0242 -0.1932 -0.3721
 8158SOL    HW125373   4.522   4.126   6.495 -1.5502  1.5583  0.2782
 8158SOL    HW225374   4.464   3.976   6.468  2.2509  0.1495 -0.7509
 8159SOL     OW25375   0.729   5.649   5.716  0.2554  0.0199 -0.1148
 8159SOL    HW125376   0.631   5.643   5.732 -0.2192  1.5616 -2.0149
 8159SOL    HW225377   0.746   5.662   5.618  2.2224  1.7039  0.3722
 8160SOL     OW25378   3.610   6.278   1.691 -0.3493 -0.0232 -0.0796
 8160SOL    HW125379   3.703   6.310   1.675 -0.2849 -0.7970 -1.5236
 8160SOL    HW225380   3.613   6.190   1.738 -0.4459  0.8854  1.6970
 8161SOL     OW25381   0.867   1.237   6.148 -0.7994  0.4017 -0.0305
 8161SOL    HW125382   0.929   1.230   6.070  1.0082 -0.4307  1.4062
 8161SOL    HW225383   0.829   1.329   6.152  1.7849  1.5284  0.0527
 8162SOL     OW25384   2.584   2.658   0.372  0.2799 -0.1160  0.0671
 8162SOL    HW125385   2.582   2.613   0.461  2.3573 -0.4610 -0.0088
 8162SOL    HW225386   2.651   2.614   0.313  1.8210  2.4758 -0.3005
 8163SOL     OW25387   3.232   1.843   4.591  0.3078 -0.1892 -0.5379
 8163SOL    HW125388   3.288   1.767   4.622 -0.6482 -0.6076  0.2089
 8163SOL    HW225389   3.149   1.848   4.646  0.0783  1.0385 -0.9571
 8164SOL     OW25390   2.588   5.932   1.971 -0.4685 -1.1932  0.1251
 8164SOL    HW125391   2.490   5.947   1.965 -0.6087 -2.0023  0.3244
 8164SOL    HW225392   2.613   5.906   2.064 -0.0824 -1.1504  0.0388
 8165SOL     OW25393   5.185   0.735   1.429 -0.3098  0.3861 -0.3551
 8165SOL    HW125394   5.156   0.703   1.339 -0.9999  0.5892 -0.2119
 8165SOL    HW225395   5.175   0.834   1.434  1.9255  0.6817 -0.8336
 8166SOL     OW25396   4.830   1.368   6.078 -0.2795 -0.2009 -0.1699
 8166SOL    HW125397   4.911   1.423   6.056  0.1097 -1.4947 -2.3538
 8166SOL    HW225398   4.779   1.350   5.994 -0.8249 -2.4511  0.5629
 8167SOL     OW25399   2.121   6.916   3.021 -0.1536 -0.7106  0.7229
 8167SOL    HW125400   2.186   6.889   3.091 -1.3036  1.4766  2.7956
 8167SOL    HW225401   2.054   6.979   3.060 -2.1912 -1.0860 -1.8468
 8168SOL     OW25402   6.625   0.273   4.089 -0.1820  0.4825  0.2660
 8168SOL    HW125403   6.680   0.310   4.013 -0.0504  0.7230  0.4771
 8168SOL    HW225404   6.541   0.327   4.098 -0.3409  0.2664  0.1008
 8169SOL     OW25405   4.521   0.408   1.178 -0.5175  0.2194  0.4839
 8169SOL    HW125406   4.482   0.316   1.184  1.4386 -0.6501  0.5235
 8169SOL    HW225407   4.611   0.410   1.222  0.3581  1.6467 -1.2394
 8170SOL     OW25408   5.051   2.381   1.175 -0.0259  0.0421 -0.6737
 8170SOL    HW125409   5.083   2.287   1.163  0.1660 -0.2601  1.6081
 8170SOL    HW225410   4.951   2.382   1.178 -0.0226 -0.3814  0.7624
 8171SOL     OW25411   1.150   1.027   5.225  0.0575 -0.6616  0.2910
 8171SOL    HW125412   1.172   1.048   5.130 -0.7140 -1.0526  0.0216
 8171SOL    HW225413   1.073   1.084   5.255 -0.4230 -1.3221  0.3300
 8172SOL     OW25414   3.364   3.188   2.887  1.0082  0.2083  0.7301
 8172SOL    HW125415   3.405   3.210   2.798  0.2604 -0.0921  0.3020
 8172SOL    HW225416   3.414   3.236   2.959  1.7281  0.3242  0.1671
 8173SOL     OW25417   4.097   5.484   3.770  0.2368  0.3089 -0.3021
 8173SOL    HW125418   4.105   5.408   3.705 -0.4591  0.1684 -0.2325
 8173SOL    HW225419   4.045   5.455   3.850 -0.8684  1.1120 -0.7022
 8174SOL     OW25420   1.277   0.472   1.349  0.4734  0.4487 -0.3204
 8174SOL    HW125421   1.244   0.383   1.317 -0.1398  0.5508  0.0163
 8174SOL    HW225422   1.202   0.522   1.392  0.8472  1.0774 -0.3866
 8175SOL     OW25423   5.861   4.322   3.836  0.5040 -0.2417  0.5500
 8175SOL    HW125424   5.774   4.292   3.797 -0.1848 -0.2228  2.0120
 8175SOL    HW225425   5.862   4.421   3.845  1.5204 -0.0295 -1.3299
 8176SOL     OW25426   2.486   6.592   3.917  0.7272  0.8524  0.4418
 8176SOL    HW125427   2.442   6.518   3.865  1.0038  1.8210 -1.2423
 8176SOL    HW225428   2.419   6.663   3.937  0.1999 -0.2292  2.9728
 8177SOL     OW25429   2.516   4.682   2.985  0.6332 -0.3241  0.1925
 8177SOL    HW125430   2.526   4.659   2.888 -1.8184 -1.5599  0.1487
 8177SOL    HW225431   2.605   4.708   3.023  1.7022 -0.1082 -2.2887
 8178SOL     OW25432   4.691   0.231   3.214  0.3478 -0.2040 -0.3871
 8178SOL    HW125433   4.709   0.217   3.311  0.3051  1.3907 -0.1112
 8178SOL    HW225434   4.604   0.188   3.190  1.0506 -1.8504 -0.0778
 8179SOL     OW25435   4.333   5.404   1.704  0.1200  0.1526 -0.3269
 8179SOL    HW125436   4.276   5.332   1.744 -0.2028  1.0695  0.9519
 8179SOL    HW225437   4.305   5.420   1.609  0.5294 -1.7126 -0.7924
 8180SOL     OW25438   5.449   4.108   5.559 -0.0838 -0.4147 -0.3908
 8180SOL    HW125439   5.388   4.119   5.638  0.9971  0.4150  0.3528
 8180SOL    HW225440   5.406   4.046   5.493 -1.9345  0.4994 -0.1121
 8181SOL     OW25441   2.581   4.828   6.076 -0.0614  0.0577 -0.2054
 8181SOL    HW125442   2.663   4.784   6.040 -0.1911  1.3865 -2.3074
 8181SOL    HW225443   2.506   4.762   6.080  0.4360 -0.5476 -0.7901
 8182SOL     OW25444   6.384   2.555   0.704  0.3547 -0.4132  0.1953
 8182SOL    HW125445   6.375   2.557   0.803  1.3137 -1.2684  0.3096
 8182SOL    HW225446   6.392   2.649   0.669 -0.8765 -0.0594  0.8212
 8183SOL     OW25447   2.014   0.266   4.654  0.0671 -0.7420  0.1565
 8183SOL    HW125448   2.025   0.289   4.557 -0.0583  0.4891  0.4087
 8183SOL    HW225449   2.070   0.328   4.709 -0.3413 -1.0184  0.8963
 8184SOL     OW25450   5.484   6.824   4.360  0.0021 -0.6291 -0.3868
 8184SOL    HW125451   5.421   6.749   4.339 -0.2903 -0.1493 -1.2832
 8184SOL    HW225452   5.434   6.896   4.407  0.0657 -0.5806 -0.3946
 8185SOL     OW25453   5.220   3.653   0.267  0.5321 -0.0049 -0.5947
 8185SOL    HW125454   5.132   3.694   0.294 -0.0130 -0.5719 -1.4510
 8185SOL    HW225455   5.294   3.701   0.313 -0.3404 -2.1929  3.7130
 8186SOL     OW25456   6.401   6.315   6.999  0.2318 -0.4753  0.4108
 8186SOL    HW125457   6.404   6.414   7.013 -1.1627 -0.1664 -1.2017
 8186SOL    HW225458   6.358   6.295   6.911  0.1438 -2.5431  0.8769
 8187SOL     OW25459   2.237   6.709   4.554 -0.3401  0.0524 -0.4406
 8187SOL    HW125460   2.184   6.684   4.635  2.5589 -1.2020  1.2100
 8187SOL    HW225461   2.273   6.802   4.564  1.3862 -0.6774  0.5916
 8188SOL     OW25462   2.842   3.701   6.178  0.4088 -1.0476  0.2714
 8188SOL    HW125463   2.896   3.758   6.240  2.0691 -0.2296 -1.8149
 8188SOL    HW225464   2.746   3.726   6.184  0.8681  0.7174  0.7204
 8189SOL     OW25465   1.223   3.228   2.750  0.2746 -0.0963  0.3965
 8189SOL    HW125466   1.255   3.137   2.723  0.1633 -0.6680  2.0497
 8189SOL    HW225467   1.168   3.220   2.833 -1.1706  1.2971 -0.3830
 8190SOL     OW25468   0.186   0.611   5.303 -0.0687  0.2011 -0.6503
 8190SOL    HW125469   0.171   0.699   5.347 -0.5316 -0.8577  1.4465
 8190SOL    HW225470   0.260   0.619   5.235  0.5533  1.9658  0.1962
 8191SOL     OW25471   4.216   5.352   5.410  0.1833  0.8440 -0.3556
 8191SOL    HW125472   4.204   5.280   5.478 -1.4266 -0.0137 -1.4731
 8191SOL    HW225473   4.148   5.423   5.424  0.0164  0.7962 -0.8815
 8192SOL     OW25474   0.462   6.868   3.119 -0.1086  0.4826 -0.6202
 8192SOL    HW125475   0.469   6.838   3.214 -0.6064 -0.9535 -1.0066
 8192SOL    HW225476   0.492   6.963   3.111 -0.1776  0.6604  0.9864
 8193SOL     OW25477   4.199   0.534   2.158  0.0418 -0.6426  0.2461
 8193SOL    HW125478   4.153   0.579   2.235 -0.5400 -1.1155  0.1771
 8193SOL    HW225479   4.298   0.529   2.177  0.1866  0.9442  0.1157
 8194SOL     OW25480   5.715   1.970   1.459  0.2788  0.1383  0.0797
 8194SOL    HW125481   5.655   2.049   1.447  1.9351  1.4426  0.0435
 8194SOL    HW225482   5.809   2.001   1.470  0.8057 -1.7696  1.4743
 8195SOL     OW25483   4.256   6.685   0.306 -0.0207 -0.1032 -0.6658
 8195SOL    HW125484   4.306   6.639   0.379  4.7823  1.3073 -2.6925
 8195SOL    HW225485   4.219   6.616   0.244  2.0414 -1.3569 -0.6034
 8196SOL     OW25486   4.906   3.065   2.219  0.3025 -0.2693  0.0543
 8196SOL    HW125487   4.860   3.033   2.302  0.0245  1.7989  0.7682
 8196SOL    HW225488   4.852   3.040   2.139 -0.3472 -0.7439  0.6316
 8197SOL     OW25489   0.613   6.556   0.289 -0.0538 -0.1698 -0.4607
 8197SOL    HW125490   0.533   6.584   0.341 -0.4970 -2.8478  0.4559
 8197SOL    HW225491   0.600   6.579   0.192 -1.1347  0.9917 -0.0516
 8198SOL     OW25492   1.590   3.600   3.177  0.1188 -0.2594  0.1830
 8198SOL    HW125493   1.672   3.596   3.119  1.0560  0.8031  1.3682
 8198SOL    HW225494   1.585   3.690   3.221 -2.4489  0.2066 -0.8875
 8199SOL     OW25495   4.585   0.314   5.092 -0.1319  0.6912 -0.2386
 8199SOL    HW125496   4.487   0.307   5.109  0.0444 -4.3401  0.4452
 8199SOL    HW225497   4.634   0.319   5.179  0.2130  0.2601 -0.3978
 8200SOL     OW25498   2.207   0.565   6.686  0.5933  0.4148 -0.1257
 8200SOL    HW125499   2.137   0.627   6.651  0.4960 -0.1728 -0.9851
 8200SOL    HW225500   2.188   0.472   6.656  1.1214  0.0673  0.5795
 8201SOL     OW25501   1.833   1.174   3.063  0.0005  0.4453  0.4124
 8201SOL    HW125502   1.876   1.093   3.023  0.2911 -0.2917  2.1259
 8201SOL    HW225503   1.893   1.213   3.133 -1.6382 -0.0705  2.2156
 8202SOL     OW25504   1.925   6.444   3.750  0.0655  0.2407 -0.0893
 8202SOL    HW125505   1.996   6.414   3.687  0.2640 -0.9786  0.6765
 8202SOL    HW225506   1.849   6.484   3.699  0.6611  0.2165 -1.0116
 8203SOL     OW25507   4.684   4.846   1.936 -0.1396  0.1182 -0.0167
 8203SOL    HW125508   4.584   4.849   1.944 -0.2374 -1.9618  0.0630
 8203SOL    HW225509   4.710   4.778   1.868  1.2368  1.0279 -0.4399
 8204SOL     OW25510   5.308   3.072   1.435 -0.4546 -0.4418 -0.4011
 8204SOL    HW125511   5.241   3.137   1.399  0.9344  1.5123  0.4140
 8204SOL    HW225512   5.390   3.073   1.378  0.6029  0.5174  1.0659
 8205SOL     OW25513   4.157   5.840   5.256 -0.9785  0.0670  0.1233
 8205SOL    HW125514   4.230   5.823   5.190  0.0415 -1.2532  1.5224
 8205SOL    HW225515   4.186   5.911   5.320 -1.4954  0.5368 -0.1647
 8206SOL     OW25516   4.218   5.942   2.498  0.0029  0.4076 -0.0956
 8206SOL    HW125517   4.265   5.945   2.586 -0.9515 -2.5935  0.6285
 8206SOL    HW225518   4.141   5.879   2.504 -0.2464  0.3211 -3.0376
 8207SOL     OW25519   3.105   2.277   1.527 -0.8525 -0.3820 -1.1403
 8207SOL    HW125520   3.078   2.215   1.601 -2.6175 -0.2245 -1.6111
 8207SOL    HW225521   3.095   2.372   1.558  1.1128 -0.2694 -0.6800
 8208SOL     OW25522   3.351   6.718   1.449  0.8083  0.3571  0.1484
 8208SOL    HW125523   3.394   6.744   1.363 -3.2639  1.5846 -1.7407
 8208SOL    HW225524   3.332   6.620   1.448 -1.3961  0.7203 -1.5965
 8209SOL     OW25525   6.346   3.820   1.113  0.0481  0.4654 -0.5104
 8209SOL    HW125526   6.437   3.807   1.153  0.7529  0.9236 -1.9002
 8209SOL    HW225527   6.285   3.748   1.147  1.0827 -0.2195 -0.0161
 8210SOL     OW25528   1.400   0.129   2.473  0.0868  0.2154  0.1826
 8210SOL    HW125529   1.444   0.041   2.491 -0.2047  0.1279  0.4809
 8210SOL    HW225530   1.469   0.202   2.476  0.1397  0.1358  1.1118
 8211SOL     OW25531   1.907   0.099   1.320  0.4017 -0.4551 -0.3980
 8211SOL    HW125532   1.833   0.152   1.279  1.1782  0.7804 -0.2496
 8211SOL    HW225533   1.877   0.063   1.409  0.1740  0.5686 -0.0488
 8212SOL     OW25534   2.853   6.349   4.917  0.6821 -0.0799 -0.9575
 8212SOL    HW125535   2.777   6.408   4.889 -0.3484  0.4161  2.4462
 8212SOL    HW225536   2.937   6.404   4.923  0.1239  0.6705  0.3985
 8213SOL     OW25537   2.428   6.331   1.793 -0.5985  0.4099  0.3873
 8213SOL    HW125538   2.339   6.291   1.769 -0.1991 -0.7293  0.7725
 8213SOL    HW225539   2.468   6.373   1.712 -1.6451  1.2673  0.2850
 8214SOL     OW25540   0.014   5.203   2.395  0.1421  0.3676 -0.4997
 8214SOL    HW125541  -0.051   5.208   2.472  2.0486  1.9849  1.1379
 8214SOL    HW225542  -0.015   5.266   2.324 -0.2894  0.8082  0.0506
 8215SOL     OW25543   1.498   3.668   0.421 -0.1440  0.1436  0.1717
 8215SOL    HW125544   1.464   3.690   0.513  1.3684  4.1283 -0.0488
 8215SOL    HW225545   1.598   3.665   0.423 -0.1157 -3.1781 -0.7981
 8216SOL     OW25546   1.226   6.583   5.901 -0.0191 -0.1756 -0.2504
 8216SOL    HW125547   1.268   6.523   5.969  1.0022  0.5181 -0.2372
 8216SOL    HW225548   1.178   6.657   5.947  0.2350  0.0038 -0.2675
 8217SOL     OW25549   4.989   0.802   6.986  0.1207  0.1026 -0.1512
 8217SOL    HW125550   4.892   0.782   6.998  0.0446 -0.0921 -1.0339
 8217SOL    HW225551   5.035   0.802   7.075 -0.6083 -0.1924  0.2273
 8218SOL     OW25552   0.085   1.342   3.131  0.3806  0.1090  0.1659
 8218SOL    HW125553   0.179   1.340   3.163 -0.6145 -0.0425  3.4034
 8218SOL    HW225554   0.049   1.249   3.126  0.2708  0.1902 -0.7038
 8219SOL     OW25555   5.973   5.886   5.846 -0.4404  0.3511 -0.0840
 8219SOL    HW125556   5.972   5.865   5.748  0.8279  1.4832 -0.3645
 8219SOL    HW225557   6.066   5.905   5.875 -0.7216 -0.4984  1.4868
 8220SOL     OW25558   5.414   6.658   6.766  0.2807 -0.0411  0.1615
 8220SOL    HW125559   5.330   6.660   6.711  0.2785 -0.4430  0.1502
 8220SOL    HW225560   5.409   6.584   6.833  0.5981 -0.0243  0.2064
 8221SOL     OW25561   0.697   5.080   0.607  0.4543  0.0600  0.8448
 8221SOL    HW125562   0.711   5.142   0.530  1.8018  0.0270  1.0329
 8221SOL    HW225563   0.655   4.995   0.575 -1.4453  1.0331  0.5856
 8222SOL     OW25564   2.790   3.229   6.527  0.0439 -0.2769 -0.0170
 8222SOL    HW125565   2.757   3.169   6.455  1.0170 -2.0647  0.9250
 8222SOL    HW225566   2.801   3.321   6.492 -4.1442  0.1115 -0.8276
 8223SOL     OW25567   1.700   3.544   2.008 -0.3068 -0.6326  0.4318
 8223SOL    HW125568   1.714   3.463   1.952 -2.5158 -1.1843  0.5742
 8223SOL    HW225569   1.734   3.528   2.101 -0.2434 -1.2018  0.3101
 8224SOL     OW25570   5.571   3.194   2.427 -0.4700 -0.0345 -0.1545
 8224SOL    HW125571   5.637   3.242   2.485 -0.2214  0.3138 -0.7158
 8224SOL    HW225572   5.573   3.233   2.335  0.1641 -1.4969 -0.7931
 8225SOL     OW25573   3.147   3.705   4.423  0.1226  0.1784 -0.0064
 8225SOL    HW125574   3.243   3.704   4.394  0.5704  3.2882  1.0549
 8225SOL    HW225575   3.098   3.631   4.377  2.1015  1.0153 -3.8880
 8226SOL     OW25576   0.089   2.108   1.332  0.2069 -0.4981 -0.3046
 8226SOL    HW125577   0.100   2.207   1.322  1.0344 -0.5915 -0.3322
 8226SOL    HW225578   0.149   2.061   1.269 -0.4525 -1.0272 -0.5513
 8227SOL     OW25579   1.562   5.555   0.777  0.4265 -0.1734  0.0570
 8227SOL    HW125580   1.624   5.540   0.853  0.0748  0.8167  0.5622
 8227SOL    HW225581   1.591   5.636   0.726 -1.0562  0.9914  0.9781
 8228SOL     OW25582   5.822   2.410   0.962  0.5022 -0.0429  0.2113
 8228SOL    HW125583   5.864   2.488   0.915  0.5341  0.3969  0.9451
 8228SOL    HW225584   5.749   2.372   0.905  0.7522  0.2724 -0.3271
 8229SOL     OW25585   4.958   5.272   6.540 -0.4148 -0.1488 -0.0904
 8229SOL    HW125586   4.913   5.326   6.611  0.6126 -0.3689  0.7693
 8229SOL    HW225587   4.951   5.318   6.452  0.7059  1.5769  0.6704
 8230SOL     OW25588   0.073   2.497   6.663  0.0652  0.5597 -0.0140
 8230SOL    HW125589   0.100   2.420   6.720  0.2655  0.6847  0.0587
 8230SOL    HW225590  -0.020   2.481   6.628 -1.1559  1.6536  2.4614
 8231SOL     OW25591   1.514   5.069   2.655 -0.3289 -0.4360  0.0434
 8231SOL    HW125592   1.614   5.077   2.651 -0.3850 -0.0185 -1.1491
 8231SOL    HW225593   1.478   5.130   2.725  0.2365 -0.3567  0.2670
 8232SOL     OW25594   5.854   0.838   5.618  0.9811 -0.6919  0.6476
 8232SOL    HW125595   5.892   0.807   5.531 -1.0030  2.0926 -1.4171
 8232SOL    HW225596   5.760   0.803   5.627  0.1236  1.3337  0.1501
 8233SOL     OW25597   2.673   5.302   4.597  0.0901  0.1322 -0.2277
 8233SOL    HW125598   2.699   5.380   4.654  0.1572 -0.6046  0.7705
 8233SOL    HW225599   2.684   5.217   4.649 -2.5277 -0.3652 -0.3833
 8234SOL     OW25600   1.389   4.464   1.115  0.0631 -0.0243 -0.4715
 8234SOL    HW125601   1.322   4.394   1.089  0.3636 -0.8989  0.9973
 8234SOL    HW225602   1.423   4.509   1.032 -0.2250 -1.5330 -1.4643
 8235SOL     OW25603   5.179   5.541   6.616 -0.9013  0.5906 -0.2919
 8235SOL    HW125604   5.206   5.446   6.606 -1.1178  0.4656  0.2449
 8235SOL    HW225605   5.154   5.558   6.712  1.6490  1.8381  0.2407
 8236SOL     OW25606   2.239   6.554   5.291  0.1810  0.8590  0.3922
 8236SOL    HW125607   2.297   6.510   5.359 -2.4973 -4.1732 -0.0587
 8236SOL    HW225608   2.153   6.583   5.334 -0.4707  0.0219 -0.2914
 8237SOL     OW25609   6.344   0.596   4.734 -0.2305  0.3792  0.4645
 8237SOL    HW125610   6.313   0.553   4.819  0.6844  0.5385  0.8917
 8237SOL    HW225611   6.324   0.535   4.657 -1.4175  0.4005  0.7330
 8238SOL     OW25612   0.026   6.849   1.809 -0.4089 -0.1615 -0.4422
 8238SOL    HW125613   0.022   6.849   1.909 -0.0272 -0.6780 -0.4225
 8238SOL    HW225614  -0.026   6.772   1.773 -0.2036 -0.2168 -0.6241
 8239SOL     OW25615   3.053   2.398   1.202 -0.5748 -0.4827  0.2272
 8239SOL    HW125616   2.966   2.422   1.160  0.1526 -0.4079 -1.3129
 8239SOL    HW225617   3.075   2.463   1.275 -1.3783  0.0195  0.0306
 8240SOL     OW25618   0.100   4.739   3.789  0.0442 -0.5068  0.1396
 8240SOL    HW125619   0.098   4.777   3.697 -3.0144 -0.2175  0.2245
 8240SOL    HW225620   0.179   4.774   3.839  1.1527  0.1723 -2.0035
 8241SOL     OW25621   3.871   0.333   1.899 -0.4572 -0.6572 -0.1269
 8241SOL    HW125622   3.892   0.419   1.946 -0.3735 -0.6342 -0.2079
 8241SOL    HW225623   3.941   0.266   1.919  0.2544 -0.2654 -1.2286
 8242SOL     OW25624   2.420   1.221   0.019  0.1491  0.2011 -0.3367
 8242SOL    HW125625   2.332   1.204   0.064  1.0549 -1.2851  0.9798
 8242SOL    HW225626   2.417   1.184  -0.073 -1.0997  1.5751 -0.8960
 8243SOL     OW25627   5.147   3.742   6.532 -0.2294 -0.1699 -0.0462
 8243SOL    HW125628   5.177   3.837   6.540  0.0127 -0.3404  1.3924
 8243SOL    HW225629   5.050   3.739   6.505 -1.2021  0.6193  2.9902
 8244SOL     OW25630   5.609   3.467   3.308 -0.2645  0.1914 -0.3593
 8244SOL    HW125631   5.538   3.534   3.285 -0.5107  0.5863  1.3839
 8244SOL    HW225632   5.685   3.514   3.353  0.2441 -0.5028 -0.4828
 8245SOL     OW25633   3.489   1.181   6.869  0.5546  0.3425  0.3470
 8245SOL    HW125634   3.446   1.217   6.952 -0.4003  0.0276 -0.0070
 8245SOL    HW225635   3.577   1.227   6.856  1.6601 -0.9735  2.5916
 8246SOL     OW25636   6.346   0.565   3.134  0.4433  0.0352  0.1297
 8246SOL    HW125637   6.344   0.517   3.046  1.1843 -2.0760  1.2015
 8246SOL    HW225638   6.427   0.623   3.138  1.3295 -1.1650  0.0465
 8247SOL     OW25639   1.790   4.894   4.365 -0.0545 -0.2997 -0.1167
 8247SOL    HW125640   1.723   4.820   4.368 -1.9475  1.3616  0.8586
 8247SOL    HW225641   1.773   4.952   4.286 -1.5598  1.6130  1.4859
 8248SOL     OW25642   2.601   2.970   1.288 -0.5131  0.4717 -0.2697
 8248SOL    HW125643   2.584   3.067   1.273 -0.2497  0.6622  0.5956
 8248SOL    HW225644   2.696   2.957   1.319 -1.1973  0.2168  1.9077
 8249SOL     OW25645   5.813   5.848   5.109  0.5880 -0.8566 -0.2915
 8249SOL    HW125646   5.752   5.923   5.084  0.7979 -0.5225  0.1757
 8249SOL    HW225647   5.855   5.810   5.027  0.7928 -0.1850 -0.5062
 8250SOL     OW25648   1.838   3.197   5.750  0.1927  0.3172  0.1119
 8250SOL    HW125649   1.837   3.297   5.754 -1.1835  0.3225  0.2706
 8250SOL    HW225650   1.841   3.160   5.843  1.7230  0.1848  0.0320
 8251SOL     OW25651   6.961   6.106   3.875  0.2192 -0.1966 -0.3298
 8251SOL    HW125652   6.909   6.188   3.852 -0.1695 -0.4694 -0.4360
 8251SOL    HW225653   7.045   6.132   3.923  0.2865  0.2845 -0.7020
 8252SOL     OW25654   2.566   6.348   4.172  0.9148 -0.0887  0.2042
 8252SOL    HW125655   2.530   6.426   4.223  1.6334  0.6750 -0.4179
 8252SOL    HW225656   2.664   6.363   4.154 -0.1319  2.1440 -5.5939
 8253SOL     OW25657   0.624   2.861   2.708  0.2603 -0.0726 -0.2458
 8253SOL    HW125658   0.652   2.765   2.712 -0.4489 -0.2644  0.3427
 8253SOL    HW225659   0.703   2.918   2.687  1.4441 -0.4475  2.7040
 8254SOL     OW25660   4.744   0.514   1.489 -0.5969 -0.1510  0.0460
 8254SOL    HW125661   4.764   0.430   1.439 -1.5630 -0.2675 -0.1641
 8254SOL    HW225662   4.824   0.541   1.542  0.4078 -0.1213 -1.4199
 8255SOL     OW25663   5.140   6.447   2.471 -0.2908  0.6328 -0.0828
 8255SOL    HW125664   5.140   6.365   2.528 -0.0652 -0.1422 -1.1422
 8255SOL    HW225665   5.096   6.522   2.519 -0.3691 -0.0729  0.9742
 8256SOL     OW25666   6.377   1.974   1.413 -0.1562  0.0718  0.3676
 8256SOL    HW125667   6.300   2.035   1.392  0.1038 -0.7030 -3.5330
 8256SOL    HW225668   6.357   1.882   1.379  0.6666 -1.3855  3.5105
 8257SOL     OW25669   1.526   0.969   0.819  0.2498 -0.0678 -0.4264
 8257SOL    HW125670   1.514   0.877   0.780 -0.5773 -0.2530  0.2616
 8257SOL    HW225671   1.620   1.000   0.800  0.7431 -1.3089 -0.1205
 8258SOL     OW25672   4.560   6.088   4.836  0.1905  0.1584 -0.1845
 8258SOL    HW125673   4.599   6.120   4.750  0.9264 -0.2078  0.0087
 8258SOL    HW225674   4.486   6.023   4.816  0.7511 -0.3803 -0.5401
 8259SOL     OW25675   4.904   4.736   5.660 -0.2299  0.0156 -0.4539
 8259SOL    HW125676   4.977   4.736   5.729  0.0594 -0.7863 -0.7526
 8259SOL    HW225677   4.855   4.649   5.662 -0.9287  0.4034 -0.5216
 8260SOL     OW25678   1.020   0.675   1.112  0.2500 -0.2795 -0.2256
 8260SOL    HW125679   1.104   0.719   1.081 -0.3395  0.4245 -0.8444
 8260SOL    HW225680   0.991   0.607   1.045  0.2356 -0.4184 -0.0814
 8261SOL     OW25681   3.649   0.735   1.796 -0.2713 -0.1855  0.0036
 8261SOL    HW125682   3.682   0.641   1.801 -2.5922 -1.0181  2.4394
 8261SOL    HW225683   3.549   0.734   1.783 -0.1838  2.0257 -1.4473
 8262SOL     OW25684   3.524   0.618   0.924  0.3303 -0.1524  0.3784
 8262SOL    HW125685   3.539   0.622   1.022  0.4049  2.2186  0.3102
 8262SOL    HW225686   3.571   0.538   0.886  2.1606  0.1176  1.9556
 8263SOL     OW25687   6.193   0.093   3.091 -0.4852 -0.4545  0.0093
 8263SOL    HW125688   6.169   0.155   3.166 -0.6178  0.2445 -0.5968
 8263SOL    HW225689   6.227   0.147   3.013 -1.3717 -1.0779 -0.8323
 8264SOL     OW25690   1.975   4.209   4.507  1.0992  0.4507 -1.0705
 8264SOL    HW125691   1.933   4.179   4.422 -0.5850 -0.8294  0.1479
 8264SOL    HW225692   2.061   4.159   4.522 -0.0011 -1.4162 -0.6990
 8265SOL     OW25693   6.110   4.471   2.159 -0.2333  0.2191  0.4055
 8265SOL    HW125694   6.134   4.378   2.189 -1.1642 -0.1354  0.0880
 8265SOL    HW225695   6.139   4.484   2.064 -2.0718 -0.5386 -0.2941
 8266SOL     OW25696   3.477   6.829   4.561 -0.3229 -0.5355  0.2074
 8266SOL    HW125697   3.529   6.778   4.492 -0.1449  0.1982 -0.2087
 8266SOL    HW225698   3.539   6.881   4.618 -0.6095  0.8168 -0.6697
 8267SOL     OW25699   3.770   2.918   0.377  0.4173 -0.3240 -0.2224
 8267SOL    HW125700   3.864   2.895   0.404  0.0556  0.5046  1.9204
 8267SOL    HW225701   3.740   2.999   0.426 -1.5995 -0.8244 -0.5286
 8268SOL     OW25702   2.666   0.530   3.356 -0.0443 -0.2419  0.9063
 8268SOL    HW125703   2.595   0.549   3.288 -1.2643 -2.0151  1.6067
 8268SOL    HW225704   2.680   0.610   3.413 -2.6951 -0.3138  1.7733
 8269SOL     OW25705   4.719   0.838   3.550  0.0276  0.0642  0.1642
 8269SOL    HW125706   4.774   0.760   3.581 -0.1486 -0.4257 -0.7278
 8269SOL    HW225707   4.654   0.808   3.480  0.4022  1.1275 -0.6767
 8270SOL     OW25708   2.491   6.319   1.248 -0.1206  0.2848  0.1586
 8270SOL    HW125709   2.445   6.367   1.322 -0.3179  2.5152 -1.3089
 8270SOL    HW225710   2.537   6.385   1.188  3.1645 -1.6532  0.2683
 8271SOL     OW25711   4.658   1.560   2.764 -0.2073  0.1107  0.3413
 8271SOL    HW125712   4.583   1.618   2.798 -1.5150 -0.9076 -0.6896
 8271SOL    HW225713   4.675   1.582   2.668 -1.2379 -1.6536 -0.2948
 8272SOL     OW25714   1.831   3.621   4.386  0.5098 -0.3279  0.0037
 8272SOL    HW125715   1.797   3.538   4.341  0.0610  0.0044 -0.2866
 8272SOL    HW225716   1.923   3.604   4.422 -0.1465 -1.4108  1.2553
 8273SOL     OW25717   4.835   6.336   2.505  0.1390 -0.0492  0.2513
 8273SOL    HW125718   4.819   6.396   2.427 -0.3389 -0.8075 -0.2488
 8273SOL    HW225719   4.841   6.391   2.589 -1.2197  0.6234 -0.0569
 8274SOL     OW25720   4.059   1.885   4.090 -0.5593 -0.4485  0.1064
 8274SOL    HW125721   4.053   1.945   4.010 -2.4083  2.2777  2.1029
 8274SOL    HW225722   3.968   1.875   4.131  0.1025 -2.8797  1.1577
 8275SOL     OW25723   2.190   4.187   5.531 -0.1888  0.8256  0.3382
 8275SOL    HW125724   2.149   4.222   5.447 -1.3091 -1.1745 -0.0055
 8275SOL    HW225725   2.125   4.198   5.607 -1.3545 -2.0009 -0.1318
 8276SOL     OW25726   2.134   5.723   5.453  0.3998 -0.1507  0.8093
 8276SOL    HW125727   2.041   5.699   5.423  1.1622 -1.9160 -0.3347
 8276SOL    HW225728   2.181   5.639   5.483  2.7255  0.0590 -1.8458
 8277SOL     OW25729   5.486   6.809   3.474 -0.1741 -0.0491  0.2481
 8277SOL    HW125730   5.561   6.861   3.433  0.6401  0.5607  2.3425
 8277SOL    HW225731   5.400   6.856   3.459  0.1778  0.4460 -0.2588
 8278SOL     OW25732   3.338   2.123   0.975 -0.0729 -0.2760 -0.6745
 8278SOL    HW125733   3.300   2.161   0.891 -1.3271 -1.1902 -0.5525
 8278SOL    HW225734   3.276   2.141   1.051  0.0028 -1.2730 -0.3522
 8279SOL     OW25735   5.651   5.465   4.867  0.9562 -0.2030  0.3536
 8279SOL    HW125736   5.750   5.458   4.851  1.3691  3.3534  0.5844
 8279SOL    HW225737   5.603   5.437   4.784  2.1613 -1.1235 -0.0733
 8280SOL     OW25738   3.995   5.149   3.751  0.1019 -0.1366  0.0216
 8280SOL    HW125739   4.045   5.163   3.836 -0.0325 -0.7072  0.2039
 8280SOL    HW225740   3.901   5.179   3.762  0.9186  3.2491 -1.0684
 8281SOL     OW25741   3.369   2.574   0.817  0.6369  0.1807 -0.4853
 8281SOL    HW125742   3.300   2.634   0.778  1.5581  0.4115 -1.8375
 8281SOL    HW225743   3.354   2.564   0.915  0.2025  2.2709 -0.3066
 8282SOL     OW25744   6.694   1.210   4.114  0.2526  0.3574  0.1697
 8282SOL    HW125745   6.744   1.279   4.166  1.0287  0.4887 -0.7162
 8282SOL    HW225746   6.752   1.131   4.099 -0.3712 -0.1733  0.5173
 8283SOL     OW25747   1.684   6.988   2.896  0.3993 -0.1153 -0.3722
 8283SOL    HW125748   1.689   6.932   2.979 -0.3249 -1.6098 -1.2847
 8283SOL    HW225749   1.775   6.996   2.856  0.6282 -0.0095  0.1535
 8284SOL     OW25750   4.485   1.849   2.087  0.2488  0.1757 -0.3825
 8284SOL    HW125751   4.574   1.804   2.092 -0.1255 -0.5893 -0.3866
 8284SOL    HW225752   4.435   1.815   2.007 -0.2453  0.2195 -0.0978
 8285SOL     OW25753   5.750   2.088   5.884 -0.0944 -0.3108  1.1256
 8285SOL    HW125754   5.688   2.054   5.955 -2.4937  0.4543 -0.4913
 8285SOL    HW225755   5.780   2.012   5.826 -2.0131 -0.3339  0.0997
 8286SOL     OW25756   4.695   3.945   0.380  0.6467  0.6923  0.2164
 8286SOL    HW125757   4.669   3.956   0.284  2.7019 -0.5301 -0.5350
 8286SOL    HW225758   4.738   4.029   0.413  0.4432  0.9164 -0.0819
 8287SOL     OW25759   1.363   4.173   5.361  0.7157  0.1506 -0.1116
 8287SOL    HW125760   1.433   4.113   5.321  1.6746  1.3936 -0.3645
 8287SOL    HW225761   1.355   4.153   5.459  0.6293 -0.7559 -0.2994
 8288SOL     OW25762   4.127   6.286   4.408 -0.1681  0.2596 -0.3339
 8288SOL    HW125763   4.100   6.193   4.433  1.5822  0.2300  1.6588
 8288SOL    HW225764   4.057   6.351   4.440 -1.3031 -0.2932 -1.5707
 8289SOL     OW25765   4.847   3.914   2.579  0.5484 -0.0816 -0.6073
 8289SOL    HW125766   4.907   3.855   2.526  0.4355 -1.1008  0.3476
 8289SOL    HW225767   4.851   3.887   2.676 -1.0441  0.1554 -0.4469
 8290SOL     OW25768   0.378   6.160   1.773 -0.4636 -0.3185 -0.0780
 8290SOL    HW125769   0.391   6.259   1.777 -1.0533 -0.2324 -0.1253
 8290SOL    HW225770   0.294   6.140   1.722 -1.5169 -0.7350  1.6979
 8291SOL     OW25771   3.695   0.046   1.260 -0.5808 -0.1096 -0.1467
 8291SOL    HW125772   3.683   0.139   1.295 -0.0837 -0.9284  2.4160
 8291SOL    HW225773   3.629   0.029   1.186  0.1378  2.6240 -1.5438
 8292SOL     OW25774   6.565   4.280   2.350 -0.4757 -1.1007  0.1144
 8292SOL    HW125775   6.544   4.371   2.316 -0.8055 -1.2966 -0.2213
 8292SOL    HW225776   6.486   4.243   2.398 -0.5150 -1.4007 -0.1768
 8293SOL     OW25777   6.125   2.461   1.400  0.3942  0.2819 -0.4421
 8293SOL    HW125778   6.030   2.430   1.406  0.9270 -1.1479  3.1399
 8293SOL    HW225779   6.134   2.550   1.446  0.8890  0.1168 -0.2136
 8294SOL     OW25780   5.427   5.348   4.059  0.0452 -0.0059 -0.0963
 8294SOL    HW125781   5.385   5.432   4.094  0.7469  0.1101  0.5015
 8294SOL    HW225782   5.520   5.368   4.027  0.0179 -0.4508 -0.4636
 8295SOL     OW25783   5.102   3.556   4.019 -0.0458  0.3996  0.3056
 8295SOL    HW125784   5.032   3.499   4.061  0.8092 -1.1349 -0.2827
 8295SOL    HW225785   5.146   3.506   3.945  1.2921  1.5379  0.2881
 8296SOL     OW25786   2.473   1.557   3.136  0.2504 -0.0486 -0.3977
 8296SOL    HW125787   2.414   1.618   3.084 -0.8185 -1.9000 -1.4621
 8296SOL    HW225788   2.567   1.565   3.102 -0.0541  0.2861 -1.1834
 8297SOL     OW25789   6.694   0.727   2.022  0.5743  0.7031 -0.6959
 8297SOL    HW125790   6.625   0.779   1.971  2.2774  1.5096 -2.3284
 8297SOL    HW225791   6.755   0.790   2.070  0.4947  0.0244  0.3319
 8298SOL     OW25792   1.860   1.676   2.408  0.3377 -0.0740 -0.5835
 8298SOL    HW125793   1.764   1.662   2.434  0.3163  0.8160 -0.1685
 8298SOL    HW225794   1.868   1.755   2.347  0.8141 -0.1170 -0.5853
 8299SOL     OW25795   2.768   0.069   4.628  0.1542 -0.4419 -0.3568
 8299SOL    HW125796   2.725   0.043   4.715 -1.0017 -1.9713 -1.3342
 8299SOL    HW225797   2.698   0.101   4.565  0.7457 -0.9000 -1.2641
 8300SOL     OW25798   6.100   6.191   6.959 -0.6985  0.1513  0.1583
 8300SOL    HW125799   6.096   6.124   6.885 -0.7402 -0.3876  0.6380
 8300SOL    HW225800   6.162   6.265   6.934  1.0219 -1.1264  0.4588
 8301SOL     OW25801   1.208   6.700   4.055 -0.0179 -0.4584  0.0652
 8301SOL    HW125802   1.216   6.662   4.147 -0.3930 -0.5189  0.0749
 8301SOL    HW225803   1.146   6.643   4.001  0.8933 -0.9522 -0.5071
 8302SOL     OW25804   0.063   5.483   1.814  0.5484 -0.0322 -0.1203
 8302SOL    HW125805   0.014   5.397   1.801 -1.4690  1.0854 -0.1726
 8302SOL    HW225806   0.035   5.525   1.900  1.6462  0.5098 -0.0086
 8303SOL     OW25807   6.197   6.523   6.148 -0.1412  0.3046  0.7530
 8303SOL    HW125808   6.105   6.539   6.111 -0.1899 -2.3041 -0.4595
 8303SOL    HW225809   6.190   6.503   6.246 -0.9734 -0.5971  0.5251
 8304SOL     OW25810   5.235   4.678   1.149 -0.0570  0.3038  0.0325
 8304SOL    HW125811   5.189   4.756   1.108  3.7431  1.4121 -2.6846
 8304SOL    HW225812   5.224   4.598   1.089  1.6539  0.6721 -0.8297
 8305SOL     OW25813   6.574   5.726   5.851  0.4194  0.1429 -0.2771
 8305SOL    HW125814   6.595   5.805   5.794 -0.0846 -0.3920 -1.2257
 8305SOL    HW225815   6.524   5.755   5.932  0.0832  0.7771 -0.7095
 8306SOL     OW25816   2.186   1.470   6.105  0.2396  0.1165  0.1138
 8306SOL    HW125817   2.277   1.491   6.141  0.6658  0.3248 -1.0384
 8306SOL    HW225818   2.139   1.408   6.167  0.9077  0.5387  1.0581
 8307SOL     OW25819   4.976   0.956   2.496 -0.2387 -0.3068 -0.0974
 8307SOL    HW125820   5.039   0.988   2.425 -1.1608  1.2188 -0.2791
 8307SOL    HW225821   4.882   0.966   2.464 -0.6651 -4.4429 -0.6288
 8308SOL     OW25822   3.221   2.078   3.448  0.5964 -0.3578  0.5027
 8308SOL    HW125823   3.217   1.993   3.395  1.0989 -0.7422  1.0633
 8308SOL    HW225824   3.130   2.100   3.482  0.4636 -0.6779  0.3633
 8309SOL     OW25825   4.980   1.512   4.611 -0.4703  0.0982  0.7661
 8309SOL    HW125826   4.998   1.424   4.653 -2.3249  1.1420  4.1008
 8309SOL    HW225827   4.983   1.502   4.511 -0.0110 -3.5375  1.0012
 8310SOL     OW25828   1.032   1.311   2.576 -0.5985  0.3841 -0.0969
 8310SOL    HW125829   1.032   1.251   2.496  1.0902  0.9538 -0.5630
 8310SOL    HW225830   1.081   1.266   2.651 -2.5695 -0.3470  0.8369
 8311SOL     OW25831   3.200   5.126   2.555  0.0699  0.0772 -0.0678
 8311SOL    HW125832   3.148   5.189   2.612  0.0452  0.1017 -0.1178
 8311SOL    HW225833   3.289   5.165   2.534 -0.7118  1.0486 -1.8650
 8312SOL     OW25834   3.786   3.832   3.554 -0.2168  0.4835 -0.0570
 8312SOL    HW125835   3.868   3.832   3.611  0.0931 -0.0520 -0.4928
 8312SOL    HW225836   3.723   3.761   3.586 -0.1365  0.3276 -0.2378
 8313SOL     OW25837   5.012   2.125   3.537  0.4633 -0.4154  0.9384
 8313SOL    HW125838   5.017   2.224   3.524 -0.5657 -0.4982 -0.2825
 8313SOL    HW225839   4.926   2.090   3.500  1.6299 -2.0258 -0.4213
 8314SOL     OW25840   0.066   0.684   3.937  0.9062  0.2489  0.3585
 8314SOL    HW125841  -0.028   0.662   3.910  1.7137 -0.1945 -2.4227
 8314SOL    HW225842   0.124   0.604   3.924  2.3113  1.4839 -1.6736
 8315SOL     OW25843   5.976   4.777   2.439 -0.2792  0.1669  0.1584
 8315SOL    HW125844   5.959   4.693   2.492 -0.7514 -0.0742 -0.3634
 8315SOL    HW225845   5.991   4.853   2.502  0.1934 -0.3121  0.6411
 8316SOL     OW25846   4.639   6.504   6.513  0.0267  0.3359  0.6221
 8316SOL    HW125847   4.726   6.528   6.471 -0.4454  0.3819 -0.3641
 8316SOL    HW225848   4.651   6.425   6.573  0.6720  0.1136  0.2106
 8317SOL     OW25849   5.582   6.481   3.650 -0.6297  0.0465  0.2326
 8317SOL    HW125850   5.614   6.533   3.729 -1.2288  0.8381 -0.0346
 8317SOL    HW225851   5.511   6.417   3.677 -0.4091 -0.1132  0.4357
 8318SOL     OW25852   0.121   1.294   1.277 -0.0381 -0.9854  0.1599
 8318SOL    HW125853   0.167   1.320   1.362 -1.4572 -0.9404  0.9489
 8318SOL    HW225854   0.044   1.357   1.260 -0.5420 -1.7570 -0.4817
 8319SOL     OW25855   6.774   4.096   5.878 -0.0616  0.2061 -0.1041
 8319SOL    HW125856   6.869   4.063   5.871  0.7065  2.4330 -1.1289
 8319SOL    HW225857   6.720   4.030   5.930  1.8174 -1.5842 -0.2726
 8320SOL     OW25858   5.423   1.672   0.124 -0.0524 -0.3203  0.6859
 8320SOL    HW125859   5.451   1.610   0.197 -2.2090 -2.7961 -0.4244
 8320SOL    HW225860   5.442   1.630   0.035  0.3015  1.5758 -0.1967
 8321SOL     OW25861   0.054   0.381   1.673  0.3883 -0.6222 -0.3375
 8321SOL    HW125862  -0.004   0.398   1.593 -0.1541 -0.5453  0.0652
 8321SOL    HW225863   0.120   0.455   1.683  0.9584 -1.0086 -1.1423
 8322SOL     OW25864   4.954   3.426   4.854 -0.4441  0.2261  0.0099
 8322SOL    HW125865   4.885   3.461   4.918  0.2221  2.0466 -0.1959
 8322SOL    HW225866   5.044   3.426   4.897 -0.0691  0.9893 -0.7244
 8323SOL     OW25867   4.043   0.490   2.573  0.3142  0.2230  0.6557
 8323SOL    HW125868   4.126   0.455   2.531  0.4829 -0.4636  1.5349
 8323SOL    HW225869   4.065   0.572   2.626  0.6880 -0.6830  1.9368
 8324SOL     OW25870   1.841   3.197   3.645  0.8902 -0.6904  0.0245
 8324SOL    HW125871   1.834   3.161   3.552 -1.5307 -0.5984  0.1010
 8324SOL    HW225872   1.860   3.122   3.708 -1.4652 -1.4946 -0.1294
 8325SOL     OW25873   4.896   1.342   0.724  0.2088 -0.3093  0.4943
 8325SOL    HW125874   4.912   1.418   0.786  1.6268  0.2854 -0.5420
 8325SOL    HW225875   4.983   1.299   0.700 -0.1952 -0.0139 -1.6840
 8326SOL     OW25876   0.124   2.912   6.815 -0.7673 -0.8069 -0.2393
 8326SOL    HW125877   0.074   2.998   6.821 -0.3193 -0.5751  0.2001
 8326SOL    HW225878   0.082   2.845   6.877  0.9309  0.1344  2.0627
 8327SOL     OW25879   5.764   0.859   4.523  0.4789  0.0818  0.3229
 8327SOL    HW125880   5.862   0.869   4.538  0.1140  0.0817  3.3127
 8327SOL    HW225881   5.725   0.948   4.498  1.0309  0.4011  0.5785
 8328SOL     OW25882   1.253   0.259   4.605 -0.0404  0.3794 -0.3049
 8328SOL    HW125883   1.200   0.227   4.527 -1.0860 -0.7220  0.8104
 8328SOL    HW225884   1.278   0.355   4.592  1.2504 -0.1907 -2.7367
 8329SOL     OW25885   0.822   6.330   4.282 -0.3803 -0.4270  0.1846
 8329SOL    HW125886   0.883   6.368   4.352 -1.2001  0.8288  0.2506
 8329SOL    HW225887   0.876   6.305   4.201  0.0561  2.3703 -0.4858
 8330SOL     OW25888   6.625   5.303   2.141 -0.0731 -0.5661  0.2982
 8330SOL    HW125889   6.570   5.221   2.151 -2.8270  1.2183  0.9109
 8330SOL    HW225890   6.595   5.355   2.061  1.4749 -0.0162  0.0241
 8331SOL     OW25891   1.182   5.711   1.513  0.3066 -0.2800  0.1931
 8331SOL    HW125892   1.145   5.685   1.602 -3.7706  2.2567 -0.4801
 8331SOL    HW225893   1.131   5.666   1.441 -0.0723  1.6815 -0.8415
 8332SOL     OW25894   2.191   1.081   1.086 -0.1638 -0.5746  0.0204
 8332SOL    HW125895   2.172   1.124   1.174  1.6333 -1.1188  0.7105
 8332SOL    HW225896   2.286   1.097   1.061 -0.7962  0.1089 -2.1654
 8333SOL     OW25897   4.065   1.480   2.707  0.3982 -0.4416 -0.1559
 8333SOL    HW125898   4.068   1.407   2.639  1.6567  1.8984 -2.8746
 8333SOL    HW225899   4.145   1.474   2.767  1.9058  0.0259 -2.0081
 8334SOL     OW25900   1.837   0.737   3.833 -0.0905  0.2688 -0.2026
 8334SOL    HW125901   1.822   0.716   3.736  1.5523 -0.0144 -0.4346
 8334SOL    HW225902   1.815   0.658   3.888 -1.4724  0.5780 -0.2842
 8335SOL     OW25903   0.332   4.522   4.232  0.5172  0.3514  0.0816
 8335SOL    HW125904   0.325   4.558   4.139 -2.4197 -0.2089  0.0003
 8335SOL    HW225905   0.322   4.422   4.229 -1.6402  0.4751  1.0757
 8336SOL     OW25906   4.088   4.676   1.960  0.0153  0.2402 -0.2413
 8336SOL    HW125907   4.033   4.631   2.031 -0.1944  2.4515  1.0823
 8336SOL    HW225908   4.163   4.615   1.933 -0.1670 -0.8573  1.5357
 8337SOL     OW25909   3.535   1.048   2.344 -0.3176 -0.0310  0.0841
 8337SOL    HW125910   3.480   0.969   2.320 -2.4529  1.1460  0.8765
 8337SOL    HW225911   3.529   1.065   2.442 -1.1136  1.9250 -0.2486
 8338SOL     OW25912   5.312   6.909   3.217  0.5780  0.2490 -0.2150
 8338SOL    HW125913   5.324   7.002   3.182  1.9600  0.7192  1.3545
 8338SOL    HW225914   5.256   6.912   3.300 -2.1087 -0.7652 -1.8625
 8339SOL     OW25915   0.237   1.124   0.726  0.3299  0.5318  0.3934
 8339SOL    HW125916   0.176   1.176   0.786 -0.6441 -0.2051  0.0570
 8339SOL    HW225917   0.228   1.026   0.745 -1.1104  0.1432 -1.9159
 8340SOL     OW25918   2.637   0.343   5.734  0.7473  0.0662 -0.3133
 8340SOL    HW125919   2.627   0.303   5.643 -0.6982 -0.3197 -0.0127
 8340SOL    HW225920   2.583   0.291   5.800  1.9179  0.2235  0.8192
 8341SOL     OW25921   5.101   1.985   0.064 -0.2406 -0.4051  0.4934
 8341SOL    HW125922   5.051   2.009  -0.020  0.1011 -3.1928 -0.5950
 8341SOL    HW225923   5.072   2.047   0.137 -1.8953  0.9829 -1.1988
 8342SOL     OW25924   5.865   5.883   4.655 -0.3092 -0.2856 -0.0836
 8342SOL    HW125925   5.771   5.917   4.667  0.2713  0.8100  1.7608
 8342SOL    HW225926   5.887   5.820   4.729 -0.1312 -1.9464 -1.4829
 8343SOL     OW25927   4.764   3.205   5.593  0.4243  0.1816 -0.2371
 8343SOL    HW125928   4.815   3.251   5.667 -0.9486 -0.9659  1.5080
 8343SOL    HW225929   4.690   3.264   5.563  0.4691  0.3090 -0.1021
 8344SOL     OW25930   4.801   0.613   3.250  0.0674 -0.6807 -0.3666
 8344SOL    HW125931   4.775   0.531   3.199 -0.7053 -0.7094  0.0744
 8344SOL    HW225932   4.739   0.688   3.227  1.2714  0.0376 -1.4079
 8345SOL     OW25933   4.176   0.998   0.918 -0.0310  0.2077  0.1860
 8345SOL    HW125934   4.087   0.955   0.906  0.5461 -1.1743  0.6290
 8345SOL    HW225935   4.248   0.929   0.907  1.0392  1.4770 -1.0623
 8346SOL     OW25936   5.263   0.424   0.162 -0.0808  0.5016  0.3524
 8346SOL    HW125937   5.340   0.371   0.128  0.3054  2.6623 -2.5336
 8346SOL    HW225938   5.256   0.414   0.261  2.6558 -1.3166  0.4572
 8347SOL     OW25939   5.809   0.913   6.296 -0.4951  0.1106 -0.0792
 8347SOL    HW125940   5.781   0.978   6.226 -1.7723 -1.4902 -1.1213
 8347SOL    HW225941   5.728   0.869   6.335  0.3793 -2.8222 -1.3722
 8348SOL     OW25942   1.006   5.934   0.700 -0.7215 -0.4855 -0.8751
 8348SOL    HW125943   0.967   6.001   0.763  1.9882  0.9046 -0.5293
 8348SOL    HW225944   0.964   5.944   0.610 -1.0686  1.0223 -0.5733
 8349SOL     OW25945   0.875   6.673   3.376  0.3597  0.0950 -0.2614
 8349SOL    HW125946   0.860   6.588   3.426 -0.3281 -0.1502 -0.8614
 8349SOL    HW225947   0.841   6.750   3.429  0.4818 -0.0603  0.0452
 8350SOL     OW25948   4.660   4.352   1.416 -0.5128 -0.5381  0.5911
 8350SOL    HW125949   4.731   4.286   1.440 -0.6418 -1.1695 -0.6911
 8350SOL    HW225950   4.620   4.389   1.500 -0.6532 -2.3258  1.3664
 8351SOL     OW25951   3.973   6.148   2.605 -0.0720  0.0954  0.0140
 8351SOL    HW125952   4.069   6.148   2.577  0.1549  0.8962  0.7260
 8351SOL    HW225953   3.945   6.055   2.630  0.7875 -0.0019  0.6668
 8352SOL     OW25954   1.924   5.686   4.958 -0.0933  0.2542  0.3364
 8352SOL    HW125955   1.905   5.669   5.055  0.9130 -0.1730  0.4760
 8352SOL    HW225956   2.023   5.684   4.943 -0.1770  1.3541 -0.5216
 8353SOL     OW25957   3.287   3.853   2.941  0.0992  0.6756 -0.1305
 8353SOL    HW125958   3.199   3.836   2.985 -0.1375 -1.1046 -1.1860
 8353SOL    HW225959   3.357   3.792   2.980  0.6962  1.5218  0.1519
 8354SOL     OW25960   6.270   4.615   2.318  0.0451  0.2011 -0.7448
 8354SOL    HW125961   6.222   4.615   2.406  0.5024  1.4546 -0.4781
 8354SOL    HW225962   6.213   4.570   2.249 -1.2207  1.0720 -0.2977
 8355SOL     OW25963   2.074   6.385   4.399 -0.0282  0.1597 -0.6344
 8355SOL    HW125964   2.159   6.348   4.361  0.1400  0.9883 -1.1005
 8355SOL    HW225965   2.063   6.480   4.368  0.5328  1.1704  2.0329
 8356SOL     OW25966   0.414   5.929   1.902 -0.3803  0.1697  0.0055
 8356SOL    HW125967   0.423   6.018   1.857  2.0822 -0.0286 -0.0084
 8356SOL    HW225968   0.481   5.865   1.864 -2.1268 -1.7479 -0.0105
 8357SOL     OW25969   6.946   3.399   1.985  0.1901 -0.0837 -0.1595
 8357SOL    HW125970   6.861   3.401   1.933 -1.3302  1.3637  2.1812
 8357SOL    HW225971   6.953   3.314   2.036 -1.2756  0.8365  1.6937
 8358SOL     OW25972   0.368   2.850   6.713 -0.6314 -0.2153 -0.3485
 8358SOL    HW125973   0.277   2.865   6.752 -1.5983 -0.8612 -2.1856
 8358SOL    HW225974   0.438   2.868   6.782 -2.1687 -0.3825  1.3427
 8359SOL     OW25975   3.190   1.084   6.498  0.1064 -0.5731 -0.1828
 8359SOL    HW125976   3.273   1.086   6.553  0.0199 -0.0931 -0.0725
 8359SOL    HW225977   3.184   1.166   6.441  0.3106 -1.1701 -1.0884
 8360SOL     OW25978   4.004   5.940   4.192 -0.2511 -0.5539  0.5228
 8360SOL    HW125979   3.979   5.873   4.122  0.2271 -1.0177  0.7914
 8360SOL    HW225980   3.946   6.021   4.183 -1.0762 -1.1462  0.4243
 8361SOL     OW25981   4.831   1.266   6.709 -0.1977  0.1765 -0.4916
 8361SOL    HW125982   4.928   1.247   6.725 -0.1439 -0.9853 -1.9628
 8361SOL    HW225983   4.821   1.361   6.677  0.1759  0.9982  1.6841
 8362SOL     OW25984   6.229   0.069   0.750 -0.0471  0.3165 -0.0204
 8362SOL    HW125985   6.288   0.008   0.802  0.5900 -1.6585 -2.8291
 8362SOL    HW225986   6.142   0.025   0.731  0.1222  0.5210 -1.4286
 8363SOL     OW25987   5.333   3.343   3.241  0.9407 -0.0875 -0.3412
 8363SOL    HW125988   5.310   3.441   3.240 -0.0101 -0.2924 -2.4116
 8363SOL    HW225989   5.343   3.313   3.336  1.9692  2.1545  0.3325
 8364SOL     OW25990   0.724   4.333   0.783  0.0695 -0.0769  0.6503
 8364SOL    HW125991   0.698   4.376   0.696 -2.8478 -0.2715  1.3251
 8364SOL    HW225992   0.780   4.253   0.765  0.7400  0.7039 -0.9468
 8365SOL     OW25993   1.197   5.564   5.829 -0.7197 -0.0036 -0.2362
 8365SOL    HW125994   1.207   5.474   5.872 -1.2027 -0.6137 -1.3338
 8365SOL    HW225995   1.100   5.589   5.826 -0.7501 -0.2075 -1.3833
 8366SOL     OW25996   1.561   3.378   3.319  0.4129  0.2368  0.0352
 8366SOL    HW125997   1.568   3.448   3.248 -1.1071  0.1860 -0.1798
 8366SOL    HW225998   1.491   3.404   3.386 -1.2614 -1.7307 -0.8529
 8367SOL     OW25999   4.937   3.931   1.743  0.1450  0.1548 -0.6506
 8367SOL    HW126000   4.865   3.862   1.746  0.5745 -0.2767  0.2997
 8367SOL    HW226001   4.948   3.971   1.834  0.6761  0.6749 -0.9332
 8368SOL     OW26002   3.444   6.901   0.212  0.2283  0.5583 -0.2130
 8368SOL    HW126003   3.481   6.982   0.167  0.1302  0.2398 -0.8821
 8368SOL    HW226004   3.454   6.821   0.152 -0.8796  0.3278 -0.1201
 8369SOL     OW26005   6.436   1.395   0.989 -0.0091  0.4489 -0.4966
 8369SOL    HW126006   6.353   1.397   0.933 -1.7129  1.5234  1.9106
 8369SOL    HW226007   6.510   1.441   0.940 -0.9552 -0.0651 -2.4923
 8370SOL     OW26008   5.864   5.961   2.864 -0.2081 -0.2463 -0.0946
 8370SOL    HW126009   5.832   5.868   2.847 -0.2253 -1.3303  4.5727
 8370SOL    HW226010   5.793   6.013   2.912  1.5045  0.4201  1.8882
 8371SOL     OW26011   4.011   5.452   5.778 -0.3518 -0.4166  0.1245
 8371SOL    HW126012   4.101   5.462   5.822 -0.8071  1.1840  0.7636
 8371SOL    HW226013   3.941   5.444   5.849 -0.9274  0.5777 -0.3094
 8372SOL     OW26014   6.476   5.574   3.425  0.3902 -0.5304  0.4556
 8372SOL    HW126015   6.515   5.660   3.393  1.6897 -0.4285  2.1306
 8372SOL    HW226016   6.395   5.593   3.481  0.6826 -0.3742  0.8336
 8373SOL     OW26017   2.178   0.301   4.093  0.2042  0.2337  0.4941
 8373SOL    HW126018   2.084   0.274   4.116  0.5515  0.0301  1.7558
 8373SOL    HW226019   2.227   0.325   4.177  1.3641  0.0854 -0.1247
 8374SOL     OW26020   1.528   5.104   1.537  0.4426  0.5748 -0.0408
 8374SOL    HW126021   1.438   5.132   1.571 -1.1434 -2.3849 -1.4027
 8374SOL    HW226022   1.579   5.060   1.611 -0.0381  0.5134  0.2568
 8375SOL     OW26023   5.132   3.195   4.906  0.4650  0.7682 -0.8861
 8375SOL    HW126024   5.151   3.262   4.977 -3.1526  0.4466  0.5950
 8375SOL    HW226025   5.149   3.235   4.816 -0.5102  3.3107 -0.0182
 8376SOL     OW26026   5.955   3.994   4.889 -0.0019  0.1877  0.2778
 8376SOL    HW126027   5.941   4.066   4.821  0.2437 -0.0714 -0.0541
 8376SOL    HW226028   5.943   4.031   4.981  1.8156  1.0816  0.2038
 8377SOL     OW26029   6.939   6.219   1.130 -0.1366 -0.2534  0.0597
 8377SOL    HW126030   6.894   6.130   1.124  0.8681 -1.0274  2.5982
 8377SOL    HW226031   6.882   6.282   1.183  0.4468 -0.3256  0.7871
 8378SOL     OW26032   4.366   1.890   5.900  0.8220  0.0419  1.0970
 8378SOL    HW126033   4.453   1.933   5.876 -0.2234  1.8117  0.1945
 8378SOL    HW226034   4.304   1.960   5.936 -0.4575 -1.0511  1.0999
 8379SOL     OW26035   0.173   2.527   0.391 -0.0761 -0.4078 -0.8777
 8379SOL    HW126036   0.205   2.432   0.384  1.2606  0.1092 -2.6243
 8379SOL    HW226037   0.078   2.533   0.362  0.2658 -1.0257 -2.1955
 8380SOL     OW26038   3.681   6.947   0.382  0.0806 -0.1396  0.2929
 8380SOL    HW126039   3.590   6.958   0.341  0.2738  0.5677  0.0432
 8380SOL    HW226040   3.687   7.002   0.466  0.2942 -0.1431  0.2803
 8381SOL     OW26041   4.854   6.144   2.842  0.5494 -0.1809  0.2550
 8381SOL    HW126042   4.860   6.127   2.743 -2.9576  2.3655 -0.5850
 8381SOL    HW226043   4.780   6.089   2.881  0.5976  0.2965  1.0324
 8382SOL     OW26044   3.443   5.196   2.467 -0.2655  0.0955 -0.2033
 8382SOL    HW126045   3.518   5.149   2.421 -0.4856  0.6611 -1.1695
 8382SOL    HW226046   3.455   5.295   2.459  0.9767  0.3249  3.0880
 8383SOL     OW26047   5.321   2.147   5.331 -0.1005  0.5769 -0.0584
 8383SOL    HW126048   5.403   2.107   5.372  0.3079  1.0485 -0.4032
 8383SOL    HW226049   5.279   2.211   5.396 -0.5346 -0.1074  0.3441
 8384SOL     OW26050   1.767   2.465   2.663  0.3770 -0.3206  0.0466
 8384SOL    HW126051   1.719   2.548   2.632  2.6726  0.8295 -0.6438
 8384SOL    HW226052   1.729   2.386   2.615 -1.5553  0.3477  0.3698
 8385SOL     OW26053   0.536   1.644   5.094 -0.1944  0.0305 -0.7125
 8385SOL    HW126054   0.474   1.567   5.105  0.9896 -0.7523  0.9246
 8385SOL    HW226055   0.617   1.616   5.043  1.0681 -0.3677  1.4083
 8386SOL     OW26056   1.425   2.675   2.763 -0.5544  0.3819 -0.5720
 8386SOL    HW126057   1.472   2.733   2.697 -0.8367  1.1190 -0.1474
 8386SOL    HW226058   1.491   2.641   2.830 -0.4343  0.4582 -0.6515
 8387SOL     OW26059   5.254   4.323   6.929  0.1795 -0.4455 -0.4354
 8387SOL    HW126060   5.206   4.237   6.916  1.0881 -1.0384 -0.0080
 8387SOL    HW226061   5.321   4.312   7.003 -0.9830  1.1702  0.9445
 8388SOL     OW26062   6.167   5.062   2.072 -0.1785 -0.4765 -0.0747
 8388SOL    HW126063   6.192   5.131   2.140 -0.4544  1.8481 -2.2246
 8388SOL    HW226064   6.130   4.981   2.119  1.9554 -0.0262  2.6264
 8389SOL     OW26065   6.095   1.503   0.222  0.4574  0.1392 -0.0087
 8389SOL    HW126066   6.122   1.574   0.158  2.1291 -1.7894 -1.5720
 8389SOL    HW226067   6.020   1.450   0.183  0.3949 -0.0458  0.3588
 8390SOL     OW26068   5.714   5.375   0.095  0.4001  0.3555  0.3225
 8390SOL    HW126069   5.803   5.329   0.100  0.1272 -0.4078 -1.2798
 8390SOL    HW226070   5.721   5.454   0.033 -0.1284  0.0504 -0.1339
 8391SOL     OW26071   0.018   4.389   5.269 -0.0133  0.7458 -0.1434
 8391SOL    HW126072   0.045   4.312   5.326 -1.3170  0.7375  0.5035
 8391SOL    HW226073  -0.072   4.371   5.228  0.0751  1.5373 -0.7214
 8392SOL     OW26074   1.428   0.592   3.600  0.4161 -0.0853 -0.2115
 8392SOL    HW126075   1.358   0.522   3.613  1.5726 -1.3321 -0.5221
 8392SOL    HW226076   1.384   0.677   3.568 -0.7204 -1.5093 -2.7404
 8393SOL     OW26077   2.993   5.870   4.019  0.5560 -0.3300  0.0896
 8393SOL    HW126078   2.949   5.960   4.019 -0.3427 -0.7600 -0.6718
 8393SOL    HW226079   2.923   5.798   4.016  1.1369 -1.1527  2.7921
 8394SOL     OW26080   4.541   5.498   3.120 -0.6014 -0.2156  0.0905
 8394SOL    HW126081   4.561   5.536   3.030 -1.5719  0.7038  0.2389
 8394SOL    HW226082   4.615   5.519   3.183  0.3558 -1.3475 -0.5996
 8395SOL     OW26083   0.179   1.814   6.441  0.4619 -0.3152  0.2637
 8395SOL    HW126084   0.265   1.803   6.492  0.7207 -0.3744 -0.1831
 8395SOL    HW226085   0.199   1.823   6.344  0.0007  0.2255  0.2094
 8396SOL     OW26086   5.097   6.987   0.205  0.5103  0.1352 -0.4003
 8396SOL    HW126087   5.054   7.077   0.216 -0.0163 -0.2590  0.9432
 8396SOL    HW226088   5.173   6.978   0.269  0.6331 -0.3338 -0.6085
 8397SOL     OW26089   1.527   0.548   3.090  0.4384  0.0664  0.4716
 8397SOL    HW126090   1.466   0.507   3.021 -1.3425 -0.1372  2.0845
 8397SOL    HW226091   1.474   0.570   3.172  1.7841  3.5937  0.5226
 8398SOL     OW26092   5.326   6.326   5.472 -0.1608 -0.8578  0.5429
 8398SOL    HW126093   5.375   6.306   5.387 -0.8804 -1.6056  0.2949
 8398SOL    HW226094   5.312   6.424   5.480 -0.2115 -0.7940 -0.2719
 8399SOL     OW26095   1.017   0.862   3.469 -0.1552  0.8443  0.0653
 8399SOL    HW126096   1.010   0.961   3.462  0.4554  0.9498  0.7838
 8399SOL    HW226097   0.951   0.829   3.536  0.0149  0.8338  0.2302
 8400SOL     OW26098   5.290   6.767   4.918 -0.1107  0.2189 -0.5102
 8400SOL    HW126099   5.341   6.766   4.832 -0.8060  0.7114 -0.9395
 8400SOL    HW226100   5.348   6.802   4.991 -0.4833  3.0722 -1.4516
 8401SOL     OW26101   6.277   5.029   0.775 -0.1124 -0.0679 -0.2852
 8401SOL    HW126102   6.277   4.973   0.693  2.6957  0.0278 -0.4572
 8401SOL    HW226103   6.310   5.121   0.753 -2.3023  0.9564  0.4390
 8402SOL     OW26104   4.757   1.335   4.542 -0.2878 -0.0934  0.1491
 8402SOL    HW126105   4.686   1.331   4.613 -0.5670  0.0170 -0.1194
 8402SOL    HW226106   4.713   1.333   4.452 -0.0388  1.4389 -0.0222
 8403SOL     OW26107   0.897   3.783   1.112  0.5237  0.3658 -0.4909
 8403SOL    HW126108   0.938   3.710   1.166 -0.3397 -0.2852 -0.6956
 8403SOL    HW226109   0.957   3.863   1.111  2.7652 -1.2192 -2.4261
 8404SOL     OW26110   1.344   4.002   6.501 -0.1143  0.0223 -0.2632
 8404SOL    HW126111   1.348   3.902   6.506 -0.3268 -0.0339 -1.1774
 8404SOL    HW226112   1.403   4.034   6.427  0.8246  0.6585  0.7213
 8405SOL     OW26113   0.752   6.816   5.142 -0.3330  0.1028  0.6641
 8405SOL    HW126114   0.729   6.783   5.233  0.7231  0.8239  1.2098
 8405SOL    HW226115   0.827   6.881   5.148  0.1563 -0.2854 -0.7820
 8406SOL     OW26116   1.977   2.373   5.134  0.1902  0.2742  0.0378
 8406SOL    HW126117   1.884   2.343   5.115 -0.0807  1.1196 -0.0126
 8406SOL    HW226118   2.025   2.390   5.048  0.0365  0.8886  0.0711
 8407SOL     OW26119   0.933   0.287   4.145  0.0755 -0.2905 -0.0618
 8407SOL    HW126120   0.919   0.267   4.048  1.1485 -3.1215  0.2993
 8407SOL    HW226121   1.021   0.332   4.158 -0.6407  1.3220 -0.4694
 8408SOL     OW26122   5.003   1.720   5.302  0.1007 -0.3720  0.7042
 8408SOL    HW126123   5.012   1.733   5.203 -1.3212 -0.8096  0.4961
 8408SOL    HW226124   5.047   1.796   5.349  1.5801 -0.5923 -0.2192
 8409SOL     OW26125   6.459   2.348   6.029 -0.1759 -0.9928 -0.4493
 8409SOL    HW126126   6.534   2.301   6.076  1.1898  1.2395 -0.2133
 8409SOL    HW226127   6.467   2.334   5.931  1.0629 -0.1637 -0.4902
 8410SOL     OW26128   6.543   0.773   4.762 -0.0925 -0.0068  0.2161
 8410SOL    HW126129   6.629   0.743   4.803  0.4060 -0.6432 -1.2364
 8410SOL    HW226130   6.481   0.695   4.753  0.7316 -0.4507 -2.4070
 8411SOL     OW26131   6.956   1.646   0.137  0.1434 -0.5638  0.2933
 8411SOL    HW126132   6.942   1.623   0.041 -0.0596 -0.3140  0.2609
 8411SOL    HW226133   7.046   1.689   0.148  0.4007 -1.0936  0.3082
 8412SOL     OW26134   0.510   1.290   5.617 -0.0900  0.3702 -0.2011
 8412SOL    HW126135   0.597   1.332   5.644  0.6308 -1.3728  0.3021
 8412SOL    HW226136   0.456   1.271   5.699  0.1381 -0.8076 -0.3143
 8413SOL     OW26137   6.090   6.031   6.739  0.1871 -0.2172  0.7224
 8413SOL    HW126138   6.144   5.955   6.703 -0.3435 -0.5052  0.5188
 8413SOL    HW226139   5.997   6.025   6.703 -0.5931 -0.9505  2.7151
 8414SOL     OW26140   2.208   0.529   6.997 -0.2236  0.9216 -0.4896
 8414SOL    HW126141   2.136   0.591   6.964 -1.3313 -0.9194 -1.6792
 8414SOL    HW226142   2.184   0.435   6.975  1.3785  0.0130  1.3454
 8415SOL     OW26143   2.316   6.807   3.226 -0.0098  0.6374 -1.0537
 8415SOL    HW126144   2.368   6.723   3.240 -0.0553  0.7727 -0.0167
 8415SOL    HW226145   2.343   6.875   3.294 -0.4114  1.2540 -1.4963
 8416SOL     OW26146   0.804   2.936   0.735  0.5569 -0.2547 -0.3558
 8416SOL    HW126147   0.712   2.904   0.760  0.4025  0.2068 -0.3355
 8416SOL    HW226148   0.827   3.018   0.787  1.3914 -0.9302  0.3804
 8417SOL     OW26149   5.747   0.559   2.944 -0.2630  0.7030  0.4987
 8417SOL    HW126150   5.799   0.641   2.967  4.1966 -1.7553  0.3378
 8417SOL    HW226151   5.741   0.500   3.024  1.4864 -1.1097 -0.6384
 8418SOL     OW26152   0.227   6.421   6.243  0.2162  0.5775 -0.5730
 8418SOL    HW126153   0.211   6.477   6.324  1.3829 -0.4934  0.4464
 8418SOL    HW226154   0.140   6.394   6.202 -0.4509 -0.0168  1.1521
 8419SOL     OW26155   2.556   0.657   3.932  0.0681 -0.1832  0.5833
 8419SOL    HW126156   2.462   0.672   3.901 -0.0817 -1.5067  0.3455
 8419SOL    HW226157   2.618   0.657   3.853  0.2165  0.2163  0.6934
 8420SOL     OW26158   3.886   5.085   2.368 -0.0367  0.1207  0.0566
 8420SOL    HW126159   3.837   5.009   2.410  0.2301  0.8475  1.7648
 8420SOL    HW226160   3.962   5.049   2.312 -0.5940 -0.8805 -0.0832
 8421SOL     OW26161   0.530   2.535   4.006  0.1825 -0.3470  0.0656
 8421SOL    HW126162   0.520   2.632   4.028  0.0482 -0.8763  2.7461
 8421SOL    HW226163   0.600   2.523   3.936  0.2177  1.6735 -0.3009
 8422SOL     OW26164   4.172   6.599   3.964 -0.4968  0.5815 -0.1690
 8422SOL    HW126165   4.174   6.617   3.865  1.0613 -0.2839 -0.3269
 8422SOL    HW226166   4.146   6.504   3.980  0.4335  0.3709  0.1719
 8423SOL     OW26167   6.741   0.641   4.493 -0.6256  0.3224  0.3883
 8423SOL    HW126168   6.682   0.562   4.476 -2.2093  1.7927 -1.3741
 8423SOL    HW226169   6.685   0.723   4.501  1.0706  1.4842  0.7308
 8424SOL     OW26170   6.864   0.008   5.043 -0.0714 -0.1286 -0.3661
 8424SOL    HW126171   6.918  -0.068   5.009 -0.0287 -0.7325  0.9764
 8424SOL    HW226172   6.907   0.045   5.126 -2.0159 -1.0550  1.1355
 8425SOL     OW26173   4.287   4.973   6.561  0.2789  0.2724  0.3233
 8425SOL    HW126174   4.226   4.964   6.483  1.1083  2.1025 -0.6155
 8425SOL    HW226175   4.233   4.989   6.644 -0.5882 -1.1849  0.0726
 8426SOL     OW26176   4.068   4.547   0.534 -0.0427  0.5116  0.2719
 8426SOL    HW126177   3.993   4.487   0.563 -0.3076  0.0703 -1.2441
 8426SOL    HW226178   4.155   4.502   0.552 -0.2137  0.0611  0.0065
 8427SOL     OW26179   4.361   0.719   6.627  0.3158 -0.4292 -0.2429
 8427SOL    HW126180   4.382   0.731   6.724  0.0906  1.6971 -0.4142
 8427SOL    HW226181   4.349   0.808   6.584  0.2191 -1.3346 -2.2053
 8428SOL     OW26182   5.824   5.361   6.229  0.3142 -0.2603  0.0676
 8428SOL    HW126183   5.836   5.442   6.287  1.4544 -1.2261  1.2414
 8428SOL    HW226184   5.747   5.307   6.262 -1.0948  0.8244 -1.3348
 8429SOL     OW26185   5.763   6.709   3.121 -0.3084 -0.0106  0.5897
 8429SOL    HW126186   5.811   6.636   3.170 -0.6355 -0.5744  0.0877
 8429SOL    HW226187   5.768   6.691   3.022  0.3145  1.0869  0.4094
 8430SOL     OW26188   0.920   5.597   1.321  0.6323  0.5240 -0.2372
 8430SOL    HW126189   0.856   5.525   1.349  1.2579  0.1998  0.4119
 8430SOL    HW226190   0.885   5.644   1.240  0.1718 -0.4512 -0.6189
 8431SOL     OW26191   2.424   2.576   4.393  0.0718 -0.6642  0.2185
 8431SOL    HW126192   2.502   2.533   4.349 -1.1347 -1.6140 -1.0771
 8431SOL    HW226193   2.340   2.548   4.347 -1.0324  0.4745  1.4506
 8432SOL     OW26194   6.997   0.276   5.691 -0.1310 -0.1922 -0.5726
 8432SOL    HW126195   6.909   0.273   5.644  0.1213  1.9916 -1.3181
 8432SOL    HW226196   6.992   0.341   5.767  0.0447 -2.2153  1.2504
 8433SOL     OW26197   0.821   5.425   0.976  0.2350 -0.0907  0.4462
 8433SOL    HW126198   0.843   5.328   0.978  1.6235  0.1807 -0.3541
 8433SOL    HW226199   0.903   5.479   0.996  0.0497  0.9401 -1.3019
 8434SOL     OW26200   3.467   2.092   3.354  0.1693 -0.0563  0.2025
 8434SOL    HW126201   3.462   2.128   3.261 -0.9016 -0.2641  0.1652
 8434SOL    HW226202   3.378   2.101   3.398  0.7562  0.4052  1.3549
 8435SOL     OW26203   6.320   1.952   2.278 -0.5950  0.0117  0.2755
 8435SOL    HW126204   6.397   2.006   2.243  0.0796 -1.2268 -0.2025
 8435SOL    HW226205   6.329   1.857   2.248 -1.4776 -0.4975  1.5383
 8436SOL     OW26206   4.824   1.622   1.095 -0.1930 -0.3632 -0.2961
 8436SOL    HW126207   4.882   1.617   1.014 -0.8467  1.0227 -0.8846
 8436SOL    HW226208   4.878   1.654   1.173  0.1308 -0.3926 -0.5087
 8437SOL     OW26209   1.814   3.152   6.062 -0.2827  0.0191  0.5609
 8437SOL    HW126210   1.810   3.054   6.084 -0.4778  0.4821  2.8231
 8437SOL    HW226211   1.902   3.189   6.092 -0.5740  0.7317  0.5548
 8438SOL     OW26212   3.027   5.312   0.127  0.0461  0.3569  0.4999
 8438SOL    HW126213   3.010   5.230   0.182 -0.9914  1.7172  2.3176
 8438SOL    HW226214   2.982   5.391   0.169  0.1320  1.7102 -1.7409
 8439SOL     OW26215   6.642   6.388   5.057 -0.5191  0.1465 -0.1296
 8439SOL    HW126216   6.633   6.482   5.088 -1.1240  0.5347 -1.4544
 8439SOL    HW226217   6.734   6.354   5.079  0.4130  1.7117 -1.4077
 8440SOL     OW26218   4.867   4.650   3.114  0.1312 -0.1036  0.2594
 8440SOL    HW126219   4.868   4.749   3.099 -0.0991  0.0357  1.1216
 8440SOL    HW226220   4.917   4.604   3.040 -2.2213  0.4164 -1.7832
 8441SOL     OW26221   5.485   4.638   5.961 -0.2728  0.1099  0.5710
 8441SOL    HW126222   5.577   4.604   5.979 -0.1364  0.0802 -0.1571
 8441SOL    HW226223   5.490   4.727   5.916 -0.6007  0.0536  0.4180
 8442SOL     OW26224   4.598   4.906   2.439 -0.3196  0.0363 -0.2192
 8442SOL    HW126225   4.505   4.932   2.411 -1.7865 -2.0598  2.1770
 8442SOL    HW226226   4.620   4.816   2.403  1.2725  0.9046 -1.5654
 8443SOL     OW26227   1.206   2.033   6.136  0.4151  0.0553  0.0918
 8443SOL    HW126228   1.220   2.129   6.158 -2.0620  0.2002  1.3705
 8443SOL    HW226229   1.158   2.025   6.049 -0.0673  0.0249  0.3578
 8444SOL     OW26230   2.908   1.912   1.383  0.6659 -0.0598  0.3232
 8444SOL    HW126231   2.832   1.891   1.322  1.3905 -0.3639 -0.4883
 8444SOL    HW226232   2.952   1.997   1.354  0.8655 -0.0758  0.5739
 8445SOL     OW26233   6.879   1.234   0.965  0.4109  0.5133 -0.7581
 8445SOL    HW126234   6.964   1.281   0.942  0.3703 -0.1477 -2.3792
 8445SOL    HW226235   6.827   1.288   1.031  1.2626  1.7854 -1.1078
 8446SOL     OW26236   5.525   3.202   6.335 -0.3775 -0.3059  0.5316
 8446SOL    HW126237   5.610   3.209   6.386  0.2519 -1.1007 -0.3871
 8446SOL    HW226238   5.537   3.243   6.245 -0.4166 -1.9783 -0.2601
 8447SOL     OW26239   5.877   2.059   6.915  0.1060  0.2602 -0.1233
 8447SOL    HW126240   5.899   2.151   6.883 -0.0137  0.1059 -0.6621
 8447SOL    HW226241   5.811   2.017   6.852 -1.1609  0.4404  1.0382
 8448SOL     OW26242   0.322   3.023   3.791 -0.4464 -0.8247 -0.2709
 8448SOL    HW126243   0.396   3.006   3.726 -0.0550  1.1574 -0.4034
 8448SOL    HW226244   0.301   3.121   3.792  1.7867 -0.0974  4.9713
 8449SOL     OW26245   6.033   3.254   0.007 -0.0905  0.4836 -0.3554
 8449SOL    HW126246   6.086   3.259   0.092  0.6476  1.3519 -0.8544
 8449SOL    HW226247   6.074   3.186  -0.054 -1.9761 -1.9022  0.8601
 8450SOL     OW26248   2.992   6.809   3.937  0.7308 -1.0233 -0.3464
 8450SOL    HW126249   2.980   6.784   3.841 -1.0189  0.1777 -0.4611
 8450SOL    HW226250   2.905   6.802   3.985  1.6793 -2.1648  1.3339
 8451SOL     OW26251   5.345   4.393   2.656  0.1364 -0.2698  0.0556
 8451SOL    HW126252   5.372   4.310   2.705  2.7672 -0.0221 -0.7921
 8451SOL    HW226253   5.327   4.466   2.722  2.6949 -0.1941  0.7958
 8452SOL     OW26254   3.667   0.347   6.340  0.3999 -1.0304  0.1531
 8452SOL    HW126255   3.652   0.272   6.276  0.7098 -1.1889  0.2607
 8452SOL    HW226256   3.732   0.318   6.410  0.1061 -0.8391  0.5067
 8453SOL     OW26257   1.268   5.972   1.106 -0.0960 -0.2445  0.0598
 8453SOL    HW126258   1.342   5.935   1.050 -0.4746 -2.0840  0.6938
 8453SOL    HW226259   1.305   6.039   1.170  0.8995 -0.5690 -0.1537
 8454SOL     OW26260   5.688   2.398   3.391  0.1306  0.1402 -0.0058
 8454SOL    HW126261   5.647   2.342   3.318  0.2551  0.4085 -0.2827
 8454SOL    HW226262   5.769   2.352   3.427 -0.5265 -0.5037  0.6961
 8455SOL     OW26263   0.410   3.196   4.923  0.2228 -0.6223 -0.1197
 8455SOL    HW126264   0.392   3.294   4.934 -0.2987 -0.9652  3.2592
 8455SOL    HW226265   0.325   3.149   4.900  0.2165 -0.4431 -0.4725
 8456SOL     OW26266   3.417   6.239   3.691 -0.1392  0.1610 -0.5578
 8456SOL    HW126267   3.467   6.158   3.722 -0.0258  0.5741  0.3703
 8456SOL    HW226268   3.321   6.215   3.675  0.2863 -0.5945 -2.1702
 8457SOL     OW26269   3.191   2.158   4.126 -0.1953  0.1320  0.4372
 8457SOL    HW126270   3.279   2.165   4.079  0.8667  0.5214  2.3900
 8457SOL    HW226271   3.186   2.071   4.174 -0.7034  0.3067  0.7040
 8458SOL     OW26272   0.590   1.826   5.310  0.0466  0.2057 -0.2346
 8458SOL    HW126273   0.676   1.871   5.285 -0.2189  0.7824 -0.1181
 8458SOL    HW226274   0.567   1.758   5.241  0.3984  0.3123 -0.4615
 8459SOL     OW26275   2.986   1.444   5.941  0.2285 -0.7109 -0.2215
 8459SOL    HW126276   2.961   1.369   6.002 -1.9720 -1.1875 -1.5966
 8459SOL    HW226277   2.934   1.436   5.856  1.3427  1.3422 -1.1558
 8460SOL     OW26278   3.031   6.649   3.696 -0.0577  0.4015  0.1316
 8460SOL    HW126279   3.064   6.741   3.675 -0.8628  0.4503 -1.0189
 8460SOL    HW226280   3.105   6.583   3.682 -0.1466  0.6089 -1.5473
 8461SOL     OW26281   4.491   0.003   6.929  0.0773  0.8101 -0.2954
 8461SOL    HW126282   4.437  -0.050   6.994  0.3327  0.2176 -0.5644
 8461SOL    HW226283   4.579   0.026   6.970  0.0063  0.9453 -0.2167
 8462SOL     OW26284   3.196   3.023   0.761  0.4958  0.0996 -0.4359
 8462SOL    HW126285   3.247   2.961   0.701  2.0846  0.7959  0.1379
 8462SOL    HW226286   3.180   2.978   0.849 -2.8677 -1.3773 -1.6375
 8463SOL     OW26287   4.884   1.448   2.818 -1.0668  0.0573 -0.3233
 8463SOL    HW126288   4.904   1.398   2.734 -1.3205 -1.5390  0.5273
 8463SOL    HW226289   4.795   1.493   2.809 -2.4426 -2.4064  0.0193
 8464SOL     OW26290   6.233   4.411   2.656  0.8016  0.0278 -0.5726
 8464SOL    HW126291   6.259   4.507   2.658 -0.8628  0.5072  1.1935
 8464SOL    HW226292   6.134   4.403   2.642  0.9711 -1.4670 -1.1747
 8465SOL     OW26293   1.127   2.510   3.830  0.6837 -0.2874  0.4044
 8465SOL    HW126294   1.116   2.583   3.897  0.4666  0.9495 -0.9199
 8465SOL    HW226295   1.071   2.531   3.749 -0.4800 -2.6333  0.5354
 8466SOL     OW26296   4.608   2.529   4.409 -0.0290  0.2714 -0.0127
 8466SOL    HW126297   4.533   2.508   4.471  0.1208 -1.2705 -0.3197
 8466SOL    HW226298   4.653   2.613   4.439 -0.2371 -0.1830  1.7016
 8467SOL     OW26299   2.982   0.150   1.767  0.1175 -0.2823 -0.5322
 8467SOL    HW126300   2.930   0.070   1.738  0.5524 -0.8533  0.2157
 8467SOL    HW226301   2.920   0.229   1.774 -0.6922 -0.9674  0.4400
 8468SOL     OW26302   4.973   6.534   6.747  0.6205  0.3029  0.0820
 8468SOL    HW126303   4.946   6.447   6.789 -1.4433  1.3030  0.9949
 8468SOL    HW226304   5.038   6.581   6.807 -0.8032  0.8293  1.2757
 8469SOL     OW26305   4.874   5.115   1.324 -0.1069 -0.3260 -0.5962
 8469SOL    HW126306   4.973   5.111   1.330 -0.1395 -0.8181 -0.2816
 8469SOL    HW226307   4.838   5.168   1.402 -0.2252 -2.2993  0.7663
 8470SOL     OW26308   2.951   3.618   3.093  0.3076 -0.4181 -0.9224
 8470SOL    HW126309   2.999   3.619   3.006  0.1769 -1.3847 -1.0201
 8470SOL    HW226310   2.952   3.709   3.133  0.5202 -0.0034 -1.8491
 8471SOL     OW26311   5.311   0.071   3.844 -0.4120  0.6128  0.8262
 8471SOL    HW126312   5.317   0.129   3.764 -1.0946  0.4748  0.6710
 8471SOL    HW226313   5.387   0.006   3.844 -0.7080  0.2549  0.0007
 8472SOL     OW26314   3.708   5.340   4.947 -0.5166 -0.2352  0.4763
 8472SOL    HW126315   3.655   5.255   4.939  2.4524 -2.1143 -1.0961
 8472SOL    HW226316   3.750   5.361   4.859  0.2083  1.9676  1.2921
 8473SOL     OW26317   3.846   3.983   1.893  0.0900  0.3861  0.4539
 8473SOL    HW126318   3.764   3.982   1.950  0.7156  0.6423  1.3985
 8473SOL    HW226319   3.920   3.935   1.942  0.5784  0.4034 -0.2571
 8474SOL     OW26320   6.582   1.714   1.832  0.1327 -0.2175 -0.2233
 8474SOL    HW126321   6.522   1.735   1.910 -0.7467 -0.6419 -0.7819
 8474SOL    HW226322   6.527   1.697   1.751  1.0070 -0.8005 -0.7069
 8475SOL     OW26323   2.033   1.939   0.980 -0.0693 -0.0751  0.5568
 8475SOL    HW126324   2.104   1.933   1.051 -0.9573 -1.1644  1.3851
 8475SOL    HW226325   2.053   1.874   0.907  1.0411  1.2944 -0.4447
 8476SOL     OW26326   5.660   2.580   2.762  0.2940 -0.3018  0.2902
 8476SOL    HW126327   5.729   2.603   2.831  1.1152  1.7288 -1.1163
 8476SOL    HW226328   5.657   2.652   2.693 -0.4749 -2.2869 -1.8523
 8477SOL     OW26329   0.968   3.515   1.371 -0.2822 -0.0403  0.4769
 8477SOL    HW126330   1.023   3.455   1.428 -1.8862 -2.2000 -0.1086
 8477SOL    HW226331   0.978   3.488   1.275 -2.0501 -0.2948  0.3273
 8478SOL     OW26332   2.110   3.470   3.316 -0.1368 -0.1156 -0.2252
 8478SOL    HW126333   2.134   3.559   3.355  0.3139 -0.5291  0.4497
 8478SOL    HW226334   2.010   3.458   3.319 -0.2944  0.7612 -1.2052
 8479SOL     OW26335   5.118   1.410   0.507  0.1139 -0.0109  0.7465
 8479SOL    HW126336   5.137   1.334   0.569  1.0874 -0.9383 -0.6433
 8479SOL    HW226337   5.147   1.496   0.551  0.6800 -0.6276  1.6159
 8480SOL     OW26338   3.566   0.806   5.531  0.1429  0.4406 -0.0314
 8480SOL    HW126339   3.538   0.860   5.610 -0.4289  1.5241 -0.9494
 8480SOL    HW226340   3.560   0.709   5.553 -2.6226  0.6466  0.4228
 8481SOL     OW26341   0.583   4.870   2.431 -0.4948 -0.1939  0.2100
 8481SOL    HW126342   0.586   4.787   2.376 -0.1846  0.8690 -1.4572
 8481SOL    HW226343   0.495   4.875   2.478 -1.0542 -0.8182 -0.7282
 8482SOL     OW26344   2.840   3.527   5.295 -0.1294 -0.3632 -0.0456
 8482SOL    HW126345   2.851   3.553   5.199  1.5393  0.3888  0.3219
 8482SOL    HW226346   2.777   3.450   5.301  1.2118 -1.6944 -1.9363
 8483SOL     OW26347   0.411   0.368   6.362  0.0287  0.2061 -0.0319
 8483SOL    HW126348   0.489   0.308   6.377 -0.1151  0.2073  0.7304
 8483SOL    HW226349   0.419   0.410   6.271 -0.5543 -1.9946 -1.1918
 8484SOL     OW26350   0.765   3.313   5.414 -0.1276 -0.1696 -0.6473
 8484SOL    HW126351   0.705   3.238   5.440  0.8740 -0.9156 -0.4343
 8484SOL    HW226352   0.729   3.358   5.333 -0.7314 -0.8979 -0.7906
 8485SOL     OW26353   1.294   6.527   5.026 -0.0548 -0.0722  0.0209
 8485SOL    HW126354   1.294   6.437   4.983 -0.4154  0.3852 -0.9605
 8485SOL    HW226355   1.300   6.516   5.125  0.7584 -1.1433 -0.1269
 8486SOL     OW26356   4.712   5.179   0.233 -0.3626 -0.3169  0.1800
 8486SOL    HW126357   4.699   5.242   0.156 -0.6927  1.5445  1.6694
 8486SOL    HW226358   4.800   5.133   0.226 -0.8135 -0.9592 -1.7960
 8487SOL     OW26359   0.422   3.565   6.096 -0.4353  0.1303  0.2914
 8487SOL    HW126360   0.350   3.607   6.040 -0.5071  1.7012  1.4970
 8487SOL    HW226361   0.442   3.474   6.061  1.4204  1.9383 -3.9626
 8488SOL     OW26362   3.600   5.756   0.094  0.2665  0.5295  0.9064
 8488SOL    HW126363   3.625   5.746  -0.003  0.5145 -1.1811  1.1114
 8488SOL    HW226364   3.668   5.812   0.140  1.5340 -0.6559  0.5761
 8489SOL     OW26365   2.997   1.258   0.401  0.6885  0.5522 -0.1792
 8489SOL    HW126366   3.082   1.208   0.382  1.4021  1.0828  1.3611
 8489SOL    HW226367   2.926   1.229   0.338  0.5527 -3.6328  1.5566
 8490SOL     OW26368   6.986   5.572   6.695 -0.4457 -0.1694 -0.2148
 8490SOL    HW126369   6.996   5.509   6.773 -0.3992 -0.2564 -0.2903
 8490SOL    HW226370   6.980   5.519   6.610 -0.8216 -0.0890 -0.2413
 8491SOL     OW26371   1.126   5.651   0.695 -0.2751  0.4196 -0.1106
 8491SOL    HW126372   1.149   5.607   0.782  0.6393  1.4268  0.1898
 8491SOL    HW226373   1.071   5.732   0.713  2.0352  2.1167 -0.1660
 8492SOL     OW26374   5.005   5.173   0.548  0.0200  0.0007  0.0099
 8492SOL    HW126375   5.095   5.144   0.518  0.4671  0.1835  1.1106
 8492SOL    HW226376   4.937   5.104   0.523  0.6801 -0.8006  0.3784
 8493SOL     OW26377   2.406   1.421   2.808  0.2453  0.2647 -0.3579
 8493SOL    HW126378   2.411   1.436   2.709  0.7347  0.0863 -0.3653
 8493SOL    HW226379   2.491   1.451   2.850 -0.5420  1.7902  0.2127
 8494SOL     OW26380   3.775   6.002   0.633  0.4092  0.1000 -0.1814
 8494SOL    HW126381   3.808   6.093   0.660  0.9690 -0.5114  1.2604
 8494SOL    HW226382   3.826   5.932   0.681 -0.6603 -0.9733 -0.5574
 8495SOL     OW26383   4.924   1.216   0.411  0.2495  0.4418  0.3407
 8495SOL    HW126384   4.968   1.292   0.459  0.7269  1.2343 -1.2441
 8495SOL    HW226385   4.871   1.252   0.334 -0.9840 -0.7212  0.6135
 8496SOL     OW26386   0.354   2.621   6.565 -0.2380 -0.0023 -0.2075
 8496SOL    HW126387   0.271   2.579   6.601 -0.5253  0.8977  0.2168
 8496SOL    HW226388   0.377   2.702   6.620  0.6047  0.0794 -0.6608
 8497SOL     OW26389   4.236   1.243   3.477 -0.1078 -0.2597 -0.0662
 8497SOL    HW126390   4.331   1.216   3.490  0.0601  0.4142  0.1427
 8497SOL    HW226391   4.222   1.334   3.515 -0.7299 -0.1709 -0.4976
 8498SOL     OW26392   4.414   1.763   4.917 -0.3033  0.3299  0.1398
 8498SOL    HW126393   4.384   1.856   4.938 -0.1857 -0.1172  2.5285
 8498SOL    HW226394   4.514   1.758   4.924 -0.2265  0.2116 -0.8826
 8499SOL     OW26395   6.355   4.197   2.510 -0.0741 -0.4307  0.4655
 8499SOL    HW126396   6.373   4.119   2.570  2.0788  0.4355  1.0199
 8499SOL    HW226397   6.333   4.277   2.565  1.7406  0.3269  0.1631
 8500SOL     OW26398   0.610   3.691   6.235  0.0950  0.6094 -0.5392
 8500SOL    HW126399   0.535   3.644   6.189 -0.0322  1.2806 -1.0401
 8500SOL    HW226400   0.601   3.681   6.334 -0.3303  0.2027 -0.6185
 8501SOL     OW26401   0.116   5.703   6.148  0.5150  0.2495 -0.3289
 8501SOL    HW126402   0.057   5.695   6.229 -0.0254 -1.8981 -0.8861
 8501SOL    HW226403   0.193   5.762   6.170  0.2264 -0.0345  1.6726
 8502SOL     OW26404   0.314   5.025   6.257 -0.0106 -0.3102 -0.1134
 8502SOL    HW126405   0.259   5.108   6.249 -1.0922 -0.9480  0.3843
 8502SOL    HW226406   0.344   5.014   6.351  1.0621  0.0646 -0.3942
 8503SOL     OW26407   1.541   5.017   2.346  0.5047  0.0952  0.3881
 8503SOL    HW126408   1.532   5.115   2.362  1.3998  0.3071 -0.3369
 8503SOL    HW226409   1.635   4.988   2.367  0.0870 -0.7362  1.2216
 8504SOL     OW26410   1.660   3.366   1.152  0.0240  0.9330  0.6974
 8504SOL    HW126411   1.576   3.315   1.139  1.1205 -0.9422  0.6670
 8504SOL    HW226412   1.726   3.342   1.081  1.1165  1.2245  1.5751
 8505SOL     OW26413   4.606   2.573   1.033  0.2353  0.0132  0.5610
 8505SOL    HW126414   4.604   2.501   1.103 -0.0381  0.5853  1.1488
 8505SOL    HW226415   4.652   2.654   1.070 -1.4605  0.9538  0.7068
 8506SOL     OW26416   3.351   2.397   0.071  0.0811 -0.0354  0.4105
 8506SOL    HW126417   3.441   2.390   0.028  0.4893  0.0597  1.2224
 8506SOL    HW226418   3.362   2.426   0.166 -0.7799 -0.5245  0.6714
 8507SOL     OW26419   2.319   0.954   0.648 -0.0571 -0.1170  0.5473
 8507SOL    HW126420   2.374   0.987   0.725  1.4440 -0.5392 -0.3184
 8507SOL    HW226421   2.378   0.936   0.570 -1.5629  0.3633 -0.7547
 8508SOL     OW26422   6.654   5.622   6.333  0.1043  0.4530 -0.4331
 8508SOL    HW126423   6.681   5.540   6.283 -0.4300  0.1577 -0.2465
 8508SOL    HW226424   6.720   5.695   6.315  2.4767 -0.9344  1.9595
 8509SOL     OW26425   6.859   5.885   4.477  0.5973 -0.3229  0.5279
 8509SOL    HW126426   6.860   5.985   4.472  2.1455 -0.3683 -1.9299
 8509SOL    HW226427   6.950   5.850   4.452 -0.7852 -2.3713 -2.0482
 8510SOL     OW26428   5.702   4.008   5.509  0.3523 -0.0720  0.1135
 8510SOL    HW126429   5.610   4.038   5.536  1.3324  1.9173  1.5115
 8510SOL    HW226430   5.721   4.040   5.416  0.0006  0.4285  0.2078
 8511SOL     OW26431   6.378   2.390   1.338  0.3195 -0.2569 -0.1063
 8511SOL    HW126432   6.455   2.390   1.402  1.7780 -2.5416 -1.6794
 8511SOL    HW226433   6.293   2.397   1.389  1.4817  3.2431  1.6595
 8512SOL     OW26434   4.481   6.294   6.015  0.5761  0.7271 -0.3105
 8512SOL    HW126435   4.525   6.287   5.925  1.9830  0.3863  0.3730
 8512SOL    HW226436   4.392   6.339   6.005 -0.0830 -0.8710 -2.0959
 8513SOL     OW26437   5.160   6.102   4.925 -0.4952  0.2746 -0.0836
 8513SOL    HW126438   5.151   6.104   5.024 -0.2104  0.9087 -0.0603
 8513SOL    HW226439   5.092   6.164   4.884 -0.3040  0.3746 -0.2527
 8514SOL     OW26440   4.740   0.501   0.618  0.3613  0.4401 -0.5101
 8514SOL    HW126441   4.815   0.517   0.553  1.4267 -1.4329  0.1590
 8514SOL    HW226442   4.778   0.494   0.710 -0.9837  1.8364  0.1816
 8515SOL     OW26443   5.762   4.975   3.971  0.2236  0.2553 -0.7181
 8515SOL    HW126444   5.769   4.974   3.871  0.5273  0.1402 -0.6977
 8515SOL    HW226445   5.854   4.975   4.010  0.1106 -0.5104 -0.4362
 8516SOL     OW26446   1.082   1.632   2.656 -0.0221  0.0927  0.3635
 8516SOL    HW126447   1.147   1.632   2.731  0.0095  1.1766  0.3541
 8516SOL    HW226448   1.116   1.575   2.582  0.3961 -0.2193  0.7920
 8517SOL     OW26449   0.884   4.710   4.910  0.3218 -0.3893 -0.0496
 8517SOL    HW126450   0.972   4.723   4.956  0.2417 -1.9155  0.5837
 8517SOL    HW226451   0.814   4.763   4.959  0.7144  0.1228 -0.0296
 8518SOL     OW26452   5.572   5.260   2.553  0.0732 -0.2437 -0.1163
 8518SOL    HW126453   5.612   5.179   2.596  0.5259  0.7117  1.3334
 8518SOL    HW226454   5.645   5.324   2.528 -0.1309 -0.9495 -2.8006
 8519SOL     OW26455   0.651   6.706   1.779  0.3310 -0.1788 -0.0359
 8519SOL    HW126456   0.729   6.753   1.821  0.9631 -0.9752 -0.2829
 8519SOL    HW226457   0.596   6.772   1.728  0.4033  0.5287  0.7737
 8520SOL     OW26458   3.822   4.029   5.911  0.1357 -0.7962  0.4182
 8520SOL    HW126459   3.726   4.052   5.892  0.8448  0.8530 -1.5031
 8520SOL    HW226460   3.858   3.971   5.839  1.2742  0.7448 -0.3120
 8521SOL     OW26461   0.061   6.108   6.961  0.0515  0.5154  0.3444
 8521SOL    HW126462   0.035   6.016   6.992 -2.6256  0.5425 -1.4425
 8521SOL    HW226463   0.112   6.100   6.875  2.4018  0.6770  1.6304
 8522SOL     OW26464   5.044   6.763   6.208  0.2302  0.5678  0.5457
 8522SOL    HW126465   5.024   6.670   6.240  1.3723  0.6300  1.5386
 8522SOL    HW226466   4.959   6.808   6.181 -0.2763 -1.0074 -0.6911
 8523SOL     OW26467   5.036   4.635   3.716  0.5391  0.1526 -0.3554
 8523SOL    HW126468   4.958   4.640   3.778  1.0326  0.2842  0.2708
 8523SOL    HW226469   5.070   4.541   3.712 -0.4460 -0.1780 -1.6537
 8524SOL     OW26470   3.759   2.215   0.533  0.0614  0.0260  0.3816
 8524SOL    HW126471   3.850   2.173   0.533  0.7025  1.3511 -0.1629
 8524SOL    HW226472   3.695   2.157   0.585  0.9337 -1.4958 -0.1719
 8525SOL     OW26473   6.290   0.484   2.137 -0.0616  0.2022 -0.1266
 8525SOL    HW126474   6.244   0.565   2.100  2.0613  0.4893 -2.3535
 8525SOL    HW226475   6.364   0.512   2.198 -0.6847 -0.1634  0.8226
 8526SOL     OW26476   0.606   1.760   3.116 -0.4132 -0.2792  0.3555
 8526SOL    HW126477   0.670   1.719   3.050 -1.1929 -1.3242  0.2267
 8526SOL    HW226478   0.642   1.749   3.208 -0.3746 -0.8296  0.2804
 8527SOL     OW26479   0.800   5.361   4.541 -0.3569 -0.0474 -0.7882
 8527SOL    HW126480   0.810   5.297   4.465 -0.7192 -2.2463  0.9034
 8527SOL    HW226481   0.891   5.387   4.575 -0.1982  0.7955 -1.7885
 8528SOL     OW26482   2.571   0.945   2.490  0.2679  0.1263  0.2926
 8528SOL    HW126483   2.630   1.014   2.533  1.1267 -0.2793 -0.1954
 8528SOL    HW226484   2.525   0.985   2.411 -0.4616  0.5708  0.9384
 8529SOL     OW26485   2.427   4.693   2.194 -0.0725 -0.1684 -0.0940
 8529SOL    HW126486   2.430   4.749   2.112  0.0886 -1.5725 -1.0811
 8529SOL    HW226487   2.519   4.664   2.219 -0.1164  0.2794  0.6105
 8530SOL     OW26488   0.745   5.309   0.424  0.2057 -0.5004  0.7982
 8530SOL    HW126489   0.839   5.307   0.390 -0.0072  5.2306 -1.1637
 8530SOL    HW226490   0.686   5.255   0.364  1.5792  0.1681 -1.2740
 8531SOL     OW26491   3.616   5.015   3.570 -0.0277  0.5718 -0.4194
 8531SOL    HW126492   3.635   5.083   3.499 -1.5332  1.7533  0.2496
 8531SOL    HW226493   3.700   4.968   3.595  1.0397  2.1095 -0.9939
 8532SOL     OW26494   3.130   1.584   6.689  0.1736 -0.2766  0.1410
 8532SOL    HW126495   3.133   1.486   6.710  0.2614 -0.3072 -0.0137
 8532SOL    HW226496   3.199   1.605   6.621 -1.2978 -0.5239 -1.5082
 8533SOL     OW26497   1.168   6.895   5.709 -0.3264 -0.1760 -0.2748
 8533SOL    HW126498   1.130   6.877   5.800 -1.9371  0.4709 -0.7750
 8533SOL    HW226499   1.265   6.916   5.717 -0.4140 -0.2350  1.2864
 8534SOL     OW26500   5.299   1.332   5.740 -0.2542 -0.1671  0.3952
 8534SOL    HW126501   5.299   1.247   5.791 -1.2808 -1.5414 -1.7404
 8534SOL    HW226502   5.387   1.344   5.694 -0.2033 -0.2160  0.4817
 8535SOL     OW26503   4.901   5.821   5.810  0.2252 -0.1546  0.4017
 8535SOL    HW126504   4.977   5.771   5.850  1.8968  0.4978 -1.7603
 8535SOL    HW226505   4.831   5.756   5.780  1.1142 -0.9977  0.0906
 8536SOL     OW26506   3.904   4.801   6.179 -0.5285 -0.1134  0.0035
 8536SOL    HW126507   3.889   4.717   6.127  1.0862 -0.7360  0.4796
 8536SOL    HW226508   3.956   4.780   6.261 -1.6176  1.1079  1.0562
 8537SOL     OW26509   0.596   1.670   1.724  0.0403 -0.0881 -0.1179
 8537SOL    HW126510   0.627   1.754   1.679  2.1316 -1.2338 -0.9898
 8537SOL    HW226511   0.574   1.689   1.820  0.2750  1.4822 -0.3614
 8538SOL     OW26512   2.755   3.643   0.020  0.2884  0.2217 -0.4494
 8538SOL    HW126513   2.805   3.656   0.106  1.5054 -1.0911 -0.9086
 8538SOL    HW226514   2.732   3.546   0.010 -0.9788  0.5629 -1.0157
 8539SOL     OW26515   1.644   0.679   1.574 -0.2286 -0.3510 -0.4323
 8539SOL    HW126516   1.691   0.634   1.498  0.7904 -2.1326  1.1656
 8539SOL    HW226517   1.704   0.748   1.614  0.0762 -0.8923  0.0567
 8540SOL     OW26518   6.414   6.444   5.393 -0.2192 -0.6170  0.3693
 8540SOL    HW126519   6.447   6.530   5.431 -0.1207 -0.5228  0.0795
 8540SOL    HW226520   6.376   6.461   5.302  1.8158 -1.2139 -0.6484
 8541SOL     OW26521   1.917   6.232   2.835 -0.4440 -0.4065  0.1639
 8541SOL    HW126522   2.003   6.186   2.859 -1.0198 -1.9955 -0.6926
 8541SOL    HW226523   1.913   6.247   2.737 -1.3060 -0.6816  0.1523
 8542SOL     OW26524   0.471   6.317   6.902 -0.1727  0.4029 -0.2396
 8542SOL    HW126525   0.417   6.269   6.971  0.1281 -0.3485 -0.5203
 8542SOL    HW226526   0.525   6.252   6.851 -0.9125  0.8658 -1.6635
 8543SOL     OW26527   1.734   0.967   1.763 -0.4858 -0.2234  0.1582
 8543SOL    HW126528   1.697   0.919   1.842  2.0677  1.4429  2.5546
 8543SOL    HW226529   1.687   1.055   1.754  1.7451  1.3507  2.4475
 8544SOL     OW26530   4.799   5.725   6.639  0.2709  0.4517  0.2711
 8544SOL    HW126531   4.882   5.777   6.619  1.6259 -1.7715 -0.3751
 8544SOL    HW226532   4.764   5.684   6.555 -1.1141  0.8103  0.6457
 8545SOL     OW26533   1.043   2.031   4.923  0.5940 -0.3015 -0.0272
 8545SOL    HW126534   0.986   2.058   4.845  0.5076 -0.6468 -0.0843
 8545SOL    HW226535   1.125   2.088   4.925 -0.1608  0.8068  0.5645
 8546SOL     OW26536   3.387   4.030   0.884  0.4284  0.3699 -0.1009
 8546SOL    HW126537   3.395   4.068   0.792  0.5072 -0.2668 -0.3610
 8546SOL    HW226538   3.299   3.982   0.894  0.7804 -0.2905 -0.1236
 8547SOL     OW26539   0.830   0.503   3.678  0.7434 -0.8696  0.2725
 8547SOL    HW126540   0.862   0.456   3.595 -2.3648 -1.7102 -0.5886
 8547SOL    HW226541   0.730   0.497   3.683  0.7874 -0.5400  3.9660
 8548SOL     OW26542   4.604   6.763   3.610 -0.1441 -0.0300  0.5792
 8548SOL    HW126543   4.586   6.840   3.548 -0.1729 -1.2267 -0.9419
 8548SOL    HW226544   4.699   6.767   3.641  0.6803 -0.8830 -1.6999
 8549SOL     OW26545   1.733   1.299   0.922  0.6450  0.5652 -0.1513
 8549SOL    HW126546   1.738   1.202   0.896  0.1451  0.2041  1.0417
 8549SOL    HW226547   1.784   1.313   1.007 -0.3294  1.0872  0.3692
 8550SOL     OW26548   0.056   1.074   1.928 -0.5731 -0.0478 -0.1098
 8550SOL    HW126549   0.058   1.043   1.833  1.5078 -0.3063 -0.0220
 8550SOL    HW226550   0.101   1.163   1.935  2.1510 -1.4247  1.0383
 8551SOL     OW26551   1.556   2.718   3.874 -0.2130  0.1805 -0.3361
 8551SOL    HW126552   1.617   2.756   3.804 -0.2488  1.5094  0.3334
 8551SOL    HW226553   1.518   2.631   3.841  1.2608 -0.1822 -1.1668
 8552SOL     OW26554   1.785   1.344   5.254  0.3457 -0.2892  0.6919
 8552SOL    HW126555   1.882   1.345   5.280  0.0444  2.9109  2.2262
 8552SOL    HW226556   1.729   1.368   5.334 -1.5064  0.4386 -0.7495
 8553SOL     OW26557   6.975   5.593   2.050  0.3196 -0.0056  0.2331
 8553SOL    HW126558   7.050   5.644   2.092  0.8105 -0.4737 -0.0763
 8553SOL    HW226559   6.948   5.518   2.110 -0.6742  0.8415  0.8780
 8554SOL     OW26560   5.469   4.746   6.968  0.3686  0.4413  0.2882
 8554SOL    HW126561   5.534   4.673   6.991 -1.7748 -1.4024  0.8048
 8554SOL    HW226562   5.484   4.823   7.029  1.4586 -0.3096  1.0215
 8555SOL     OW26563   3.664   2.486   0.542  0.6332 -0.0780 -0.1182
 8555SOL    HW126564   3.675   2.387   0.550 -3.5219 -0.6392  1.0913
 8555SOL    HW226565   3.641   2.524   0.632  1.7457  1.9608 -0.6411
 8556SOL     OW26566   1.426   6.438   3.597  0.5223 -0.1930 -0.0149
 8556SOL    HW126567   1.417   6.425   3.695 -0.5429  1.0566  0.0822
 8556SOL    HW226568   1.522   6.427   3.570  0.5854 -2.1085  0.8871
 8557SOL     OW26569   1.482   3.727   5.908 -0.0350  0.1545 -0.0304
 8557SOL    HW126570   1.460   3.630   5.924  0.4076  0.2332  1.1489
 8557SOL    HW226571   1.399   3.782   5.917  0.1733  0.1950  2.1882
 8558SOL     OW26572   0.289   1.297   6.481  0.3010 -0.5724  0.1895
 8558SOL    HW126573   0.255   1.375   6.429  0.5671  0.6110  1.6965
 8558SOL    HW226574   0.231   1.282   6.561  0.3822 -1.7916  0.0380
 8559SOL     OW26575   6.067   1.513   1.863 -0.4912  0.4353 -0.7264
 8559SOL    HW126576   6.031   1.554   1.947  2.3990  0.3636  0.6694
 8559SOL    HW226577   6.027   1.422   1.852  0.5562 -0.4445  1.8157
 8560SOL     OW26578   4.928   6.676   1.728  0.1800  0.0259 -0.5194
 8560SOL    HW126579   4.930   6.751   1.794 -0.2348 -0.1391 -0.3140
 8560SOL    HW226580   4.952   6.590   1.773 -1.7581 -0.3808 -0.1603
 8561SOL     OW26581   6.518   5.837   0.199 -0.4255 -0.0679 -0.0268
 8561SOL    HW126582   6.509   5.754   0.254 -0.1750  0.0307  0.1643
 8561SOL    HW226583   6.583   5.821   0.125 -1.9091 -0.6996 -1.2538
 8562SOL     OW26584   2.660   5.540   4.245  0.0285 -0.0112 -0.3696
 8562SOL    HW126585   2.727   5.475   4.281 -1.5225 -0.7657  1.3080
 8562SOL    HW226586   2.672   5.629   4.288  2.2407  0.9796 -2.7655
 8563SOL     OW26587   4.002   5.611   6.368  0.0990  0.3638 -0.0109
 8563SOL    HW126588   3.911   5.623   6.329  0.1605 -0.0623 -0.2956
 8563SOL    HW226589   4.001   5.535   6.433 -0.2967  1.8566  1.8044
 8564SOL     OW26590   6.472   5.931   2.131 -0.0168  0.0080 -0.6384
 8564SOL    HW126591   6.560   5.884   2.136 -0.4096 -0.7126 -0.2030
 8564SOL    HW226592   6.475   6.014   2.187 -0.3204 -1.2388  1.3376
 8565SOL     OW26593   5.302   2.693   6.592  0.0975  0.2707  0.1224
 8565SOL    HW126594   5.343   2.607   6.623 -0.2948  0.0816  0.1177
 8565SOL    HW226595   5.357   2.769   6.625 -0.8667  0.1414  2.2505
 8566SOL     OW26596   3.032   4.450   6.766  0.1775  0.6192 -0.1586
 8566SOL    HW126597   3.070   4.475   6.677 -0.7154  0.1320 -0.6924
 8566SOL    HW226598   3.011   4.532   6.819 -0.5855  0.9584 -0.9653
 8567SOL     OW26599   1.494   5.290   2.411  0.0869  0.3244  0.6934
 8567SOL    HW126600   1.498   5.311   2.508  1.6010  2.1391  0.3020
 8567SOL    HW226601   1.570   5.334   2.364 -0.8134 -0.1870 -1.3833
 8568SOL     OW26602   6.268   2.947   4.542  0.1839  0.2165 -0.2189
 8568SOL    HW126603   6.319   2.863   4.526  0.6592  0.3615  0.4591
 8568SOL    HW226604   6.176   2.925   4.575  0.3729 -0.0453  0.1449
 8569SOL     OW26605   5.742   3.408   2.226  0.3166 -0.1827  0.0763
 8569SOL    HW126606   5.653   3.366   2.208  0.3310 -0.6672  1.0870
 8569SOL    HW226607   5.798   3.403   2.143 -1.3878  2.2779 -1.3950
 8570SOL     OW26608   3.353   6.404   2.511 -0.0734 -0.6922 -0.3054
 8570SOL    HW126609   3.434   6.404   2.452 -0.0716 -1.6130 -0.3119
 8570SOL    HW226610   3.347   6.317   2.560 -0.2315 -0.0561  0.8523
 8571SOL     OW26611   0.873   4.817   5.455 -0.7050  0.1704  0.4272
 8571SOL    HW126612   0.823   4.776   5.379 -1.1120  1.0579  0.2086
 8571SOL    HW226613   0.817   4.887   5.498 -0.2036  0.1653  1.1110
 8572SOL     OW26614   0.226   2.600   5.098  0.1859  0.0874  0.2596
 8572SOL    HW126615   0.248   2.683   5.046 -0.4852 -0.1285 -0.3818
 8572SOL    HW226616   0.231   2.620   5.196  2.7162  0.1823  0.1781
 8573SOL     OW26617   5.127   5.889   1.601 -0.2861  0.2178 -0.1924
 8573SOL    HW126618   5.097   5.982   1.617 -2.0919 -0.8565  3.8787
 8573SOL    HW226619   5.209   5.870   1.655  0.6580 -0.3732 -1.7454
 8574SOL     OW26620   4.194   6.012   5.459 -0.2998 -0.1955  0.2793
 8574SOL    HW126621   4.138   5.969   5.530 -1.8194  2.3096  0.6954
 8574SOL    HW226622   4.275   6.053   5.501 -0.7047  0.4532  0.4331
 8575SOL     OW26623   5.916   0.880   3.760  0.6079  0.3798  0.0244
 8575SOL    HW126624   5.901   0.871   3.859 -0.0551  0.9326 -0.0177
 8575SOL    HW226625   5.908   0.791   3.717 -0.4022  0.3241  0.3041
 8576SOL     OW26626   5.933   2.319   5.169  1.1638  0.1011  0.1517
 8576SOL    HW126627   5.895   2.302   5.261  0.7456 -0.6810 -0.1548
 8576SOL    HW226628   5.877   2.385   5.121  0.9193 -0.0949  0.1672
 8577SOL     OW26629   0.622   5.323   1.170  0.1945  0.7919  0.2808
 8577SOL    HW126630   0.643   5.362   1.260  0.1131 -1.2322  1.2187
 8577SOL    HW226631   0.633   5.394   1.101  1.4971  2.0903  1.7206
 8578SOL     OW26632   5.783   0.427   4.139 -0.1671 -0.1056  0.4345
 8578SOL    HW126633   5.714   0.405   4.069  0.6658  0.9489 -0.7749
 8578SOL    HW226634   5.867   0.377   4.119 -0.2991 -0.7431  1.4245
 8579SOL     OW26635   1.792   2.829   3.213  0.4324  0.0488  0.2645
 8579SOL    HW126636   1.692   2.824   3.214  0.4777 -0.7864  0.8735
 8579SOL    HW226637   1.830   2.747   3.254  1.4108 -0.4838 -1.5944
 8580SOL     OW26638   1.680   2.945   5.621 -0.3943  0.0064  0.3835
 8580SOL    HW126639   1.691   2.934   5.720 -0.3631  1.2148  0.5324
 8580SOL    HW226640   1.647   3.038   5.602 -1.4540 -0.5637 -0.6676
 8581SOL     OW26641   0.032   3.816   6.087 -0.2448  0.4896  0.5363
 8581SOL    HW126642   0.098   3.889   6.104 -1.5470  1.5171  1.3906
 8581SOL    HW226643   0.032   3.752   6.164  0.6997 -0.2996 -0.0893
 8582SOL     OW26644   6.363   4.191   4.172 -0.4326  1.0614 -0.6891
 8582SOL    HW126645   6.359   4.289   4.194  0.0749  1.1118 -0.8147
 8582SOL    HW226646   6.433   4.148   4.229  0.6773  1.1324 -1.9627
 8583SOL     OW26647   6.573   5.793   6.621  0.2907 -0.7851 -0.3502
 8583SOL    HW126648   6.620   5.721   6.672 -0.1812 -0.3975  0.6507
 8583SOL    HW226649   6.633   5.872   6.612 -0.3045 -0.1048  1.3524
 8584SOL     OW26650   6.539   6.713   1.389 -0.2620  0.8338 -0.4755
 8584SOL    HW126651   6.519   6.803   1.351  1.3040  0.8728 -1.2982
 8584SOL    HW226652   6.582   6.723   1.478 -0.2385  0.8951 -0.4936
 8585SOL     OW26653   3.553   2.188   0.313  0.0247 -0.0366  0.2424
 8585SOL    HW126654   3.612   2.190   0.394  0.5241  0.6002 -0.1279
 8585SOL    HW226655   3.593   2.129   0.243  0.4883  0.7933 -0.2007
 8586SOL     OW26656   6.332   2.142   4.687  0.2926 -0.2389  0.2170
 8586SOL    HW126657   6.415   2.155   4.633 -0.7457  1.2973 -1.0721
 8586SOL    HW226658   6.338   2.197   4.771 -0.1279  1.2587 -0.7091
 8587SOL     OW26659   1.570   5.116   1.002  0.5517  0.4573  0.2017
 8587SOL    HW126660   1.643   5.144   0.939 -1.4366  2.2325 -1.4846
 8587SOL    HW226661   1.603   5.042   1.061  3.3943  0.5977 -1.0533
 8588SOL     OW26662   6.272   4.739   2.752 -0.2968 -0.0187  0.4358
 8588SOL    HW126663   6.190   4.748   2.809 -0.1037  1.0023  0.5640
 8588SOL    HW226664   6.287   4.823   2.700  0.3133 -0.4319 -0.0747
 8589SOL     OW26665   3.162   1.879   1.075  0.4940 -0.2938 -0.0542
 8589SOL    HW126666   3.211   1.861   0.989 -0.7233  0.2666 -0.9031
 8589SOL    HW226667   3.165   1.977   1.095 -0.1310 -0.2751 -0.0347
 8590SOL     OW26668   6.061   1.088   2.664  0.1846  0.2789 -0.1913
 8590SOL    HW126669   6.063   1.085   2.564  1.2902 -0.6752 -0.1666
 8590SOL    HW226670   6.100   1.174   2.696  1.2983 -0.0683 -0.5749
 8591SOL     OW26671   6.381   3.958   5.835 -0.6132  0.6192  0.0428
 8591SOL    HW126672   6.338   3.868   5.843  1.1767 -0.4643 -1.5150
 8591SOL    HW226673   6.334   4.011   5.765 -1.9154  1.0827  1.2351
 8592SOL     OW26674   1.361   3.056   5.541 -0.0726 -0.1263 -0.1296
 8592SOL    HW126675   1.316   3.053   5.451  0.5021  0.1461 -0.4293
 8592SOL    HW226676   1.433   3.124   5.540 -0.8597  0.7507  0.9252
 8593SOL     OW26677   0.619   4.722   1.824  0.2546 -0.3424  0.3965
 8593SOL    HW126678   0.557   4.769   1.887  1.2172  1.8600 -0.2268
 8593SOL    HW226679   0.579   4.721   1.732  1.6442  2.4082 -0.3407
 8594SOL     OW26680   5.382   5.015   3.023 -0.2772  0.0588 -0.1142
 8594SOL    HW126681   5.442   4.972   3.090 -0.1747 -0.8746 -0.7856
 8594SOL    HW226682   5.370   5.112   3.046  0.5538 -0.0135  0.6760
 8595SOL     OW26683   6.718   1.428   1.076  0.6708  0.0596 -0.2976
 8595SOL    HW126684   6.738   1.472   0.988 -0.4124  1.8874  0.3030
 8595SOL    HW226685   6.639   1.473   1.118 -0.3433 -2.3406  0.5337
 8596SOL     OW26686   1.601   4.697   4.340 -0.1409  0.6004 -0.0994
 8596SOL    HW126687   1.513   4.710   4.387 -0.8093 -1.4455 -0.6454
 8596SOL    HW226688   1.656   4.630   4.390  0.7526  1.2387 -0.2187
 8597SOL     OW26689   6.710   1.912   5.162  0.6859  0.5899  0.2412
 8597SOL    HW126690   6.782   1.973   5.128  0.7887 -0.4773 -1.5768
 8597SOL    HW226691   6.706   1.917   5.262  0.8561  3.3482  0.1857
 8598SOL     OW26692   5.444   1.928   1.866 -0.6804 -0.1966  0.0539
 8598SOL    HW126693   5.354   1.884   1.868 -1.0879  0.5635 -0.7747
 8598SOL    HW226694   5.504   1.884   1.933 -1.1159 -1.8844 -0.6130
 8599SOL     OW26695   3.447   4.646   6.076 -0.2417  0.2167  0.9643
 8599SOL    HW126696   3.390   4.728   6.065  1.1342  1.0702 -0.0628
 8599SOL    HW226697   3.412   4.573   6.016  0.0240  0.8896 -0.0223
 8600SOL     OW26698   3.746   6.408   4.806  0.2141 -0.1024 -0.2992
 8600SOL    HW126699   3.793   6.489   4.839 -0.8027  0.8442 -1.0841
 8600SOL    HW226700   3.782   6.382   4.716  0.7952 -0.7622  0.1135
 8601SOL     OW26701   6.108   6.208   1.630 -0.2202  0.2152  0.6052
 8601SOL    HW126702   6.203   6.209   1.663  0.4935 -0.0034 -1.3145
 8601SOL    HW226703   6.071   6.301   1.631  1.0603  0.8143 -1.3232
 8602SOL     OW26704   4.826   3.049   3.773  1.0067  0.2155  0.0015
 8602SOL    HW126705   4.846   3.000   3.688 -1.4728 -1.2047  0.1294
 8602SOL    HW226706   4.769   2.991   3.832 -0.0247  2.3600  1.2463
 8603SOL     OW26707   2.178   1.720   5.678  0.4949 -0.6976 -0.6328
 8603SOL    HW126708   2.222   1.637   5.645 -1.1154 -1.3431 -1.2419
 8603SOL    HW226709   2.223   1.750   5.762  1.6949 -1.6433 -0.9138
 8604SOL     OW26710   4.951   3.433   3.089  0.2637 -0.1221  0.3229
 8604SOL    HW126711   4.989   3.465   3.003  1.5037 -1.2432  0.4288
 8604SOL    HW226712   4.924   3.337   3.080  1.0485 -0.4601  1.3638
 8605SOL     OW26713   5.968   5.639   0.537  0.0277 -0.4155 -0.3430
 8605SOL    HW126714   5.938   5.651   0.443 -1.0117  1.2510  0.1510
 8605SOL    HW226715   6.068   5.630   0.540 -0.0298 -1.7782 -1.6760
 8606SOL     OW26716   5.680   0.400   4.432  0.3477  0.1751 -0.2037
 8606SOL    HW126717   5.772   0.427   4.401 -0.7933  2.7278 -1.6689
 8606SOL    HW226718   5.617   0.402   4.355 -1.8541  3.1321  1.4746
 8607SOL     OW26719   0.964   3.255   2.532 -0.4954 -0.0640  0.2404
 8607SOL    HW126720   0.875   3.299   2.520 -0.8953 -0.8768  0.1110
 8607SOL    HW226721   1.007   3.288   2.616 -1.6448 -0.8317  1.1625
 8608SOL     OW26722   5.308   2.786   4.664  0.0669  0.1799 -0.0530
 8608SOL    HW126723   5.211   2.791   4.688  0.0083 -0.8379 -0.0332
 8608SOL    HW226724   5.363   2.783   4.748  0.1634  1.2873 -0.0597
 8609SOL     OW26725   5.736   0.456   2.301 -0.0890 -0.4535  0.6972
 8609SOL    HW126726   5.835   0.471   2.298  0.3801 -3.0652  1.3183
 8609SOL    HW226727   5.715   0.376   2.357 -2.4799 -0.7449 -0.4743
 8610SOL     OW26728   2.055   3.855   6.675 -0.2981 -0.3872 -0.1282
 8610SOL    HW126729   2.024   3.775   6.624 -1.5003 -1.7745  2.5572
 8610SOL    HW226730   2.153   3.869   6.658  0.3558 -3.4208  0.4148
 8611SOL     OW26731   0.576   5.613   1.580 -0.7029  0.3831  0.0980
 8611SOL    HW126732   0.602   5.656   1.666 -1.1463 -2.2045  1.6394
 8611SOL    HW226733   0.484   5.574   1.589 -0.5658 -0.3495 -1.3943
 8612SOL     OW26734   4.640   5.558   2.848 -0.6377 -0.1025 -0.1269
 8612SOL    HW126735   4.724   5.546   2.901 -0.1620  1.6278 -0.4336
 8612SOL    HW226736   4.628   5.480   2.786  1.6495  0.3768 -1.2757
 8613SOL     OW26737   6.251   6.625   1.915  0.1017  0.2404  1.3344
 8613SOL    HW126738   6.333   6.648   1.863 -0.1959  0.0970  0.8031
 8613SOL    HW226739   6.243   6.686   1.993  0.1432  0.9451  0.7903
 8614SOL     OW26740   2.264   1.882   1.083 -0.1094 -0.5694  0.1880
 8614SOL    HW126741   2.294   1.846   1.172  1.5107  0.9024  0.3017
 8614SOL    HW226742   2.307   1.829   1.010  0.4738 -0.3016  0.3280
 8615SOL     OW26743   5.683   6.550   3.899 -0.4052 -0.5930 -0.0935
 8615SOL    HW126744   5.779   6.572   3.917 -0.5744 -0.6935  1.0384
 8615SOL    HW226745   5.658   6.468   3.951 -1.1109 -0.5434 -0.3519
 8616SOL     OW26746   5.504   5.641   4.356  0.2352  0.3157 -0.6350
 8616SOL    HW126747   5.569   5.710   4.325  1.2211  0.5143  1.6429
 8616SOL    HW226748   5.542   5.550   4.341  1.4240  0.4424  1.2670
 8617SOL     OW26749   1.772   1.392   0.041  0.0029  0.2471  0.0270
 8617SOL    HW126750   1.729   1.432   0.122  0.4790  0.3476  0.2283
 8617SOL    HW226751   1.869   1.379   0.057  0.8845  3.5292 -1.7110
 8618SOL     OW26752   2.233   1.761   4.018  0.0721 -0.2758 -0.0449
 8618SOL    HW126753   2.245   1.669   3.980  0.2557 -0.4268  0.3736
 8618SOL    HW226754   2.159   1.760   4.084  0.4262 -0.2455  0.3571
 8619SOL     OW26755   1.454   5.906   6.488 -0.4564 -0.7913 -0.1171
 8619SOL    HW126756   1.514   5.828   6.507  0.8592  0.4471  1.0617
 8619SOL    HW226757   1.364   5.873   6.459  0.0438 -2.7330  0.4059
 8620SOL     OW26758   0.108   1.502   2.180  0.3874  0.3110 -0.8444
 8620SOL    HW126759   0.123   1.598   2.202  0.0123 -0.2088  2.0683
 8620SOL    HW226760   0.141   1.483   2.087  1.4545  2.9823 -1.0875
 8621SOL     OW26761   6.031   3.129   3.017  0.1863  0.1237 -0.3439
 8621SOL    HW126762   6.024   3.041   3.064  1.1940  0.5788  0.7167
 8621SOL    HW226763   5.942   3.174   3.016  0.0087 -0.1857  0.5706
 8622SOL     OW26764   1.504   0.784   5.810  0.7468 -0.4259 -0.2434
 8622SOL    HW126765   1.413   0.824   5.824  1.0782 -0.1587  1.2936
 8622SOL    HW226766   1.558   0.846   5.753  0.8504  0.7881  1.1085
 8623SOL     OW26767   0.336   4.667   6.616  0.7781  0.1460  0.1022
 8623SOL    HW126768   0.274   4.690   6.541 -0.9130 -0.7767  1.1565
 8623SOL    HW226769   0.405   4.739   6.625 -1.2047  2.1627 -0.0043
 8624SOL     OW26770   1.326   1.649   1.900 -0.9604 -0.2931  0.4284
 8624SOL    HW126771   1.395   1.719   1.919 -1.2355 -0.4318  2.1741
 8624SOL    HW226772   1.262   1.683   1.832  0.5397  0.0218 -0.8842
 8625SOL     OW26773   5.383   1.865   0.658 -0.1357 -0.1559 -0.2077
 8625SOL    HW126774   5.428   1.806   0.591  0.8960 -0.4544  0.7100
 8625SOL    HW226775   5.422   1.847   0.749 -1.3272  0.4037  0.4380
 8626SOL     OW26776   4.530   3.102   5.321 -0.5360  0.7817  0.2462
 8626SOL    HW126777   4.614   3.108   5.267 -0.3869  0.0326  0.3895
 8626SOL    HW226778   4.520   3.185   5.376  0.0493  0.9275  0.1396
 8627SOL     OW26779   3.067   1.524   3.714 -0.1098  0.1536  0.9358
 8627SOL    HW126780   3.162   1.493   3.707 -0.0220  0.7164 -0.8024
 8627SOL    HW226781   3.062   1.599   3.780  1.0211  1.3206 -0.2321
 8628SOL     OW26782   3.334   0.532   0.712  0.0057  0.2216 -0.2818
 8628SOL    HW126783   3.412   0.472   0.693  1.1806  1.3382  0.7972
 8628SOL    HW226784   3.359   0.626   0.692 -1.4754  0.4840 -0.9979
 8629SOL     OW26785   2.181   0.720   3.862  0.2317  0.1152  0.3218
 8629SOL    HW126786   2.250   0.669   3.812 -1.6882 -1.4173 -0.9148
 8629SOL    HW226787   2.103   0.661   3.881 -0.3620  1.5044  2.5430
 8630SOL     OW26788   1.457   5.413   0.541  0.0778  0.1744 -0.8143
 8630SOL    HW126789   1.513   5.456   0.470  1.0740 -0.9124 -0.7151
 8630SOL    HW226790   1.505   5.417   0.629 -0.2927 -0.1910 -0.5911
 8631SOL     OW26791   2.226   6.165   4.200 -0.2139  0.3253  0.7187
 8631SOL    HW126792   2.273   6.184   4.113 -1.3159 -0.2917 -0.0396
 8631SOL    HW226793   2.238   6.069   4.224 -0.9464  0.2004  0.5976
 8632SOL     OW26794   5.186   3.507   6.103  0.5630  0.8934  0.4651
 8632SOL    HW126795   5.282   3.483   6.122  0.5812  1.9877  1.9215
 8632SOL    HW226796   5.148   3.441   6.038  2.4025  0.6484 -0.4355
 8633SOL     OW26797   0.352   4.216   0.876  0.3891 -0.4012 -0.4247
 8633SOL    HW126798   0.421   4.149   0.903  0.7885  0.7548  1.7052
 8633SOL    HW226799   0.261   4.174   0.882  0.4625 -0.3843  2.7230
 8634SOL     OW26800   6.496   5.824   1.645  0.3040  0.0028  0.0804
 8634SOL    HW126801   6.566   5.768   1.687 -0.2105 -0.9889 -0.3570
 8634SOL    HW226802   6.458   5.777   1.565 -1.4402  0.1075  0.7870
 8635SOL     OW26803   1.829   2.631   4.026 -0.1094 -0.2832 -0.0466
 8635SOL    HW126804   1.744   2.634   3.973 -0.0631 -1.2053 -0.1865
 8635SOL    HW226805   1.903   2.595   3.969  0.5751  1.2084 -0.1624
 8636SOL     OW26806   6.012   6.838   3.359 -0.1890  0.2317  0.1424
 8636SOL    HW126807   5.938   6.902   3.379  1.1808  2.0710 -0.3896
 8636SOL    HW226808   6.091   6.859   3.415 -0.0360 -1.7643  0.7733
 8637SOL     OW26809   2.647   1.157   5.318 -0.0150 -0.1226 -0.4506
 8637SOL    HW126810   2.559   1.147   5.270 -0.1595  1.9532 -0.6893
 8637SOL    HW226811   2.717   1.184   5.252  0.4534 -0.1907  0.0166
 8638SOL     OW26812   0.379   6.393   6.026  0.6836 -0.6288  0.2668
 8638SOL    HW126813   0.298   6.423   6.076  1.8758  1.2485  1.1749
 8638SOL    HW226814   0.456   6.384   6.089  1.3741 -1.6955 -0.6906
 8639SOL     OW26815   3.511   1.315   1.155  0.4179 -0.0962  1.0656
 8639SOL    HW126816   3.455   1.326   1.238  1.1331  2.0809  1.3181
 8639SOL    HW226817   3.556   1.402   1.134  1.7494 -1.1327 -0.5506
 8640SOL     OW26818   1.774   6.035   4.425 -0.0546  0.1865  0.8508
 8640SOL    HW126819   1.717   5.955   4.411  1.2846 -0.9694  1.7373
 8640SOL    HW226820   1.859   6.024   4.374 -0.4613  1.7623 -0.2480
 8641SOL     OW26821   5.746   0.423   1.397 -0.0934 -0.4070 -0.2970
 8641SOL    HW126822   5.839   0.437   1.430 -0.1602 -0.2227 -0.1893
 8641SOL    HW226823   5.736   0.328   1.366  0.7808  0.1199 -2.3911
 8642SOL     OW26824   3.274   6.848   2.313  0.0512 -0.0391  0.2991
 8642SOL    HW126825   3.204   6.889   2.371  0.5265  0.5488  0.4811
 8642SOL    HW226826   3.357   6.905   2.317 -0.3505  0.8035 -2.0355
 8643SOL     OW26827   5.927   4.873   6.575 -0.1536 -0.1576  0.3375
 8643SOL    HW126828   5.992   4.804   6.543  0.0908  0.0799  0.3210
 8643SOL    HW226829   5.942   4.890   6.672  0.4714  0.6238  0.1087
 8644SOL     OW26830   1.203   5.388   4.505  0.5355  0.1377 -0.3283
 8644SOL    HW126831   1.239   5.378   4.412  2.1214  0.2665  0.2401
 8644SOL    HW226832   1.160   5.478   4.513  0.4459  0.1566 -0.9141
 8645SOL     OW26833   4.849   2.431   5.232  0.6303 -0.1718 -0.8266
 8645SOL    HW126834   4.833   2.412   5.135  1.8665  2.2283 -1.5860
 8645SOL    HW226835   4.942   2.466   5.244  0.8587 -1.3439  1.4208
 8646SOL     OW26836   4.671   0.834   6.786  0.0730 -0.4955 -0.5771
 8646SOL    HW126837   4.660   0.894   6.706 -2.7532  0.1641  0.1906
 8646SOL    HW226838   4.583   0.823   6.832  1.4950 -1.2006  2.2339
 8647SOL     OW26839   3.571   0.609   4.499  0.1543 -0.2386  0.1009
 8647SOL    HW126840   3.653   0.558   4.523 -0.6583 -0.6857  2.0922
 8647SOL    HW226841   3.512   0.619   4.579  0.5228  4.3810  0.1052
 8648SOL     OW26842   5.540   0.537   5.813 -0.1608  0.1620 -0.7084
 8648SOL    HW126843   5.544   0.438   5.797 -1.4262  0.1195 -0.8931
 8648SOL    HW226844   5.477   0.556   5.888  0.5826  0.8026 -0.2280
 8649SOL     OW26845   6.023   0.972   4.599  0.1704 -0.3230  0.4702
 8649SOL    HW126846   6.081   0.949   4.677  1.5287 -0.6383 -0.5888
 8649SOL    HW226847   6.032   1.069   4.578  1.1849 -0.5721 -0.3405
 8650SOL     OW26848   6.133   5.899   2.772 -0.0228  0.6942  0.2562
 8650SOL    HW126849   6.196   5.857   2.836 -0.2532 -1.8596 -1.0728
 8650SOL    HW226850   6.053   5.934   2.821 -0.1273 -1.0715  1.4063
 8651SOL     OW26851   0.291   4.359   1.570 -0.5847 -0.0834  0.3237
 8651SOL    HW126852   0.212   4.298   1.564  0.0990 -1.0087  0.3300
 8651SOL    HW226853   0.374   4.304   1.577  0.4097  0.7100 -3.0663
 8652SOL     OW26854   2.603   5.880   3.257  0.0538  0.5024 -0.2153
 8652SOL    HW126855   2.630   5.815   3.328 -0.2767  2.0197  1.3590
 8652SOL    HW226856   2.508   5.907   3.272  0.6393  2.5043  0.0958
 8653SOL     OW26857   3.484   6.226   3.060 -0.5706 -0.2568 -0.0884
 8653SOL    HW126858   3.458   6.179   2.976 -2.2003  2.0498 -0.9891
 8653SOL    HW226859   3.402   6.247   3.114 -0.1955  2.7698 -0.4979
 8654SOL     OW26860   4.357   6.821   6.752 -0.2023 -0.1019  0.0950
 8654SOL    HW126861   4.437   6.836   6.693  0.3315 -1.6071  0.4087
 8654SOL    HW226862   4.361   6.886   6.828  0.1280  0.5681 -0.4721
 8655SOL     OW26863   6.493   3.348   3.092 -0.2190  0.2467 -0.1376
 8655SOL    HW126864   6.512   3.335   2.995 -0.2980  1.1892 -0.2792
 8655SOL    HW226865   6.405   3.306   3.115  1.6951 -3.9669  0.4789
 8656SOL     OW26866   2.052   1.517   6.826 -0.9462 -0.4044 -0.1222
 8656SOL    HW126867   1.979   1.584   6.840  1.3247  2.5998 -1.4546
 8656SOL    HW226868   2.033   1.462   6.745 -2.6041 -1.0803  0.6860
 8657SOL     OW26869   3.033   6.329   1.257 -0.4060  0.7149  0.1684
 8657SOL    HW126870   3.108   6.290   1.202 -2.6531  0.9744 -3.4444
 8657SOL    HW226871   2.987   6.256   1.307  1.6474  0.4274  1.7330
 8658SOL     OW26872   2.268   1.316   4.858  0.6728  0.2675  0.2266
 8658SOL    HW126873   2.285   1.355   4.767  0.1072  0.7733  0.3287
 8658SOL    HW226874   2.180   1.349   4.892 -0.3611 -1.9450 -0.1145
 8659SOL     OW26875   6.060   0.788   4.881  0.5272 -0.4112  0.0546
 8659SOL    HW126876   6.008   0.759   4.961  1.8533  0.5180  1.3071
 8659SOL    HW226877   6.144   0.834   4.910  1.3446 -0.5630 -1.8865
 8660SOL     OW26878   5.820   2.775   0.080 -0.0300 -0.3281 -0.0146
 8660SOL    HW126879   5.818   2.862   0.129  1.5155 -0.2439 -0.0761
 8660SOL    HW226880   5.913   2.754   0.052 -0.2024 -2.5071  0.8767
 8661SOL     OW26881   4.143   5.181   3.968 -0.3385 -0.2455 -0.3711
 8661SOL    HW126882   4.187   5.114   4.028 -1.4865 -0.8151 -0.1362
 8661SOL    HW226883   4.179   5.272   3.989  0.0786 -0.5752  0.4221
 8662SOL     OW26884   3.518   0.411   0.184 -0.9028 -0.0066 -0.0326
 8662SOL    HW126885   3.510   0.469   0.103 -0.3009 -1.7099 -1.3725
 8662SOL    HW226886   3.433   0.358   0.196 -0.6234 -0.4895 -0.1488
 8663SOL     OW26887   1.391   4.458   4.543 -0.0254  0.0212  0.3758
 8663SOL    HW126888   1.367   4.554   4.530  1.5430  0.8266  2.7054
 8663SOL    HW226889   1.454   4.428   4.471 -0.8386  0.5769 -0.5913
 8664SOL     OW26890   4.434   4.537   4.479 -0.5794 -0.0666  0.3089
 8664SOL    HW126891   4.432   4.484   4.393 -1.6988  0.3793  0.0419
 8664SOL    HW226892   4.474   4.481   4.551 -0.0589 -0.6249 -0.3919
 8665SOL     OW26893   0.117   5.214   2.063  0.2557  0.1274 -0.2252
 8665SOL    HW126894   0.019   5.205   2.046  0.0808 -1.2988  1.2951
 8665SOL    HW226895   0.151   5.130   2.106  1.7083  1.3981  1.2287
 8666SOL     OW26896   2.380   0.020   2.475  0.3371  0.1133  0.4625
 8666SOL    HW126897   2.399   0.070   2.391  0.9054 -0.5278  0.1978
 8666SOL    HW226898   2.289   0.045   2.509 -0.1492 -0.0647 -0.6668
 8667SOL     OW26899   0.558   1.094   4.765  0.0149  0.1016 -0.5222
 8667SOL    HW126900   0.581   0.997   4.772  0.8087  0.3955  2.3419
 8667SOL    HW226901   0.461   1.104   4.742 -0.1209 -1.3719 -0.6615
 8668SOL     OW26902   6.156   0.325   5.633  0.3598 -0.1780  0.0919
 8668SOL    HW126903   6.223   0.301   5.704 -3.1257 -1.9590  3.1643
 8668SOL    HW226904   6.112   0.412   5.656 -0.0949 -0.2589 -0.4480
 8669SOL     OW26905   5.163   4.953   3.944 -0.1302 -0.1984 -0.1037
 8669SOL    HW126906   5.150   4.877   4.007  0.6273  0.6904  1.1722
 8669SOL    HW226907   5.149   5.040   3.992 -2.6141  0.5266 -1.8877
 8670SOL     OW26908   2.974   5.569   0.943 -0.0141 -0.3899  0.0893
 8670SOL    HW126909   2.955   5.472   0.929  1.3126 -0.6120 -0.2982
 8670SOL    HW226910   2.901   5.624   0.903 -1.0447 -1.2241  0.7813
 8671SOL     OW26911   4.705   6.036   1.417 -0.0325 -0.6627 -0.0888
 8671SOL    HW126912   4.629   6.101   1.430  0.4791 -0.3971  1.8170
 8671SOL    HW226913   4.737   6.004   1.506  1.4910 -1.4987 -0.9065
 8672SOL     OW26914   5.868   0.414   5.425  0.5809 -0.7927  0.1855
 8672SOL    HW126915   5.805   0.490   5.412  0.9050 -0.6216 -0.4082
 8672SOL    HW226916   5.835   0.334   5.374 -0.1456 -1.2911  1.3839
 8673SOL     OW26917   2.200   3.007   1.262  0.1632  0.7661 -0.7862
 8673SOL    HW126918   2.229   2.961   1.178  0.7653  0.6027 -0.4883
 8673SOL    HW226919   2.109   2.973   1.287 -0.0373  0.8374 -1.3829
 8674SOL     OW26920   1.451   6.069   0.266 -0.4921 -0.0862  0.2442
 8674SOL    HW126921   1.487   6.033   0.180 -0.0908  4.0009 -1.4993
 8674SOL    HW226922   1.351   6.076   0.261 -0.6932 -1.7459  1.0319
 8675SOL     OW26923   2.902   3.772   4.802 -0.6461  0.4225  0.0123
 8675SOL    HW126924   2.839   3.848   4.820 -2.1389 -1.1087  1.8535
 8675SOL    HW226925   2.900   3.750   4.705 -1.7703  1.4195 -0.2260
 8676SOL     OW26926   5.114   5.980   6.290 -0.6033 -0.7286 -0.8728
 8676SOL    HW126927   5.142   6.062   6.240 -1.2750 -0.2993 -0.5573
 8676SOL    HW226928   5.046   5.929   6.238  0.6746 -1.7389 -1.6084
 8677SOL     OW26929   3.306   0.418   6.633  0.2401 -0.0106 -0.1116
 8677SOL    HW126930   3.395   0.444   6.671 -0.0289  3.6329 -1.5647
 8677SOL    HW226931   3.316   0.401   6.535 -0.4397 -1.0491 -0.0090
 8678SOL     OW26932   0.093   5.231   3.412 -0.3784  0.4984 -0.0274
 8678SOL    HW126933   0.026   5.305   3.416  0.3190  1.1699 -0.4470
 8678SOL    HW226934   0.184   5.268   3.428  0.1900  0.0240 -1.9140
 8679SOL     OW26935   5.339   0.408   1.187  0.0088 -0.3310  0.1357
 8679SOL    HW126936   5.380   0.485   1.234 -3.5434  1.2113  1.0573
 8679SOL    HW226937   5.336   0.329   1.248 -0.1936  0.1610  0.7724
 8680SOL     OW26938   5.288   6.134   6.757 -0.2404  0.2544 -0.2992
 8680SOL    HW126939   5.285   6.058   6.821 -0.0341  0.7475  0.3017
 8680SOL    HW226940   5.234   6.111   6.676  0.4422 -0.8344 -0.4716
 8681SOL     OW26941   4.000   1.669   3.551  0.7335 -0.1384 -0.7077
 8681SOL    HW126942   3.984   1.750   3.494 -1.8578 -0.0442  0.0240
 8681SOL    HW226943   4.051   1.696   3.633  1.3050  0.4146 -1.2332
 8682SOL     OW26944   1.810   5.841   4.765 -0.4820 -0.4626 -0.4534
 8682SOL    HW126945   1.827   5.772   4.836 -0.3759 -1.0644 -1.0583
 8682SOL    HW226946   1.760   5.917   4.805 -1.8463 -1.5134 -0.0620
 8683SOL     OW26947   3.119   6.908   6.467 -0.1970 -0.0388  0.0917
 8683SOL    HW126948   3.096   6.932   6.373  0.4804 -2.0914 -0.6465
 8683SOL    HW226949   3.158   6.988   6.513  0.6037  0.6815 -1.7364
 8684SOL     OW26950   6.908   5.893   6.781 -0.8950  0.4620  0.3593
 8684SOL    HW126951   6.970   5.882   6.703 -0.9250  1.4112  0.1807
 8684SOL    HW226952   6.943   5.842   6.860 -0.1524  0.5758  0.1084
 8685SOL     OW26953   4.417   2.669   6.903  0.0922 -0.4581 -0.2803
 8685SOL    HW126954   4.404   2.669   7.002  0.5845 -1.7915 -0.1936
 8685SOL    HW226955   4.470   2.750   6.876 -0.1971  0.0021  0.5137
 8686SOL     OW26956   2.184   3.180   6.565 -0.2546 -0.0074 -0.2919
 8686SOL    HW126957   2.137   3.138   6.643 -0.5316 -0.6354 -0.7883
 8686SOL    HW226958   2.192   3.279   6.580  0.4910 -0.2384  0.9324
 8687SOL     OW26959   4.518   2.512   2.273  0.0425  0.0417  0.3454
 8687SOL    HW126960   4.580   2.581   2.312  0.3414 -0.0930  0.1182
 8687SOL    HW226961   4.530   2.511   2.173 -0.5147  0.1952  0.2733
 8688SOL     OW26962   5.121   2.979   0.170 -0.1625 -0.2701 -0.2771
 8688SOL    HW126963   5.208   2.931   0.173  0.6651  1.1353 -0.9255
 8688SOL    HW226964   5.075   2.971   0.258  0.0667 -1.9799 -0.2746
 8689SOL     OW26965   0.046   5.929   0.663 -0.7598  0.6137 -0.0996
 8689SOL    HW126966   0.042   5.873   0.580  1.8272 -1.0520  0.7754
 8689SOL    HW226967  -0.033   5.910   0.721  0.4080 -2.8933  0.5345
 8690SOL     OW26968   6.468   6.054   6.104  0.4864  0.1355  0.2703
 8690SOL    HW126969   6.448   6.113   6.026 -1.7118  1.8505  1.9986
 8690SOL    HW226970   6.443   6.101   6.189  1.0498 -2.3535  1.9327
 8691SOL     OW26971   2.916   0.474   3.573  0.1732  0.7131  0.3507
 8691SOL    HW126972   2.896   0.378   3.594  1.3951  0.8089  2.2284
 8691SOL    HW226973   2.941   0.483   3.477  0.4415 -0.9262  0.2403
 8692SOL     OW26974   6.419   1.430   2.342 -0.2595  0.1431 -0.2888
 8692SOL    HW126975   6.349   1.392   2.282 -0.9482 -1.3019  1.3383
 8692SOL    HW226976   6.506   1.384   2.325 -0.5052 -0.4234 -0.0457
 8693SOL     OW26977   3.619   6.628   6.540  0.1087  0.1625 -0.0809
 8693SOL    HW126978   3.715   6.602   6.538  0.4933  1.5089 -0.7571
 8693SOL    HW226979   3.611   6.726   6.562 -0.9611  0.5451 -1.9323
 8694SOL     OW26980   1.748   4.478   4.442 -0.6727 -0.4365 -0.0261
 8694SOL    HW126981   1.842   4.448   4.430 -0.0033  1.5598 -0.1925
 8694SOL    HW226982   1.688   4.399   4.454  1.1574 -1.7033  1.2027
 8695SOL     OW26983   3.147   4.313   5.540  0.1268  0.1277  0.5646
 8695SOL    HW126984   3.133   4.399   5.588  2.7138  1.4040 -0.7556
 8695SOL    HW226985   3.093   4.313   5.455  0.8423  0.9050  0.0954
 8696SOL     OW26986   1.335   6.776   1.267  0.5853  0.4313  0.2392
 8696SOL    HW126987   1.238   6.781   1.291 -0.2594 -2.7823 -1.8503
 8696SOL    HW226988   1.362   6.859   1.218 -2.3944 -0.2403 -2.9555
 8697SOL     OW26989   0.041   2.855   3.088  0.3168  0.1282 -0.5113
 8697SOL    HW126990   0.058   2.853   2.989 -0.3943 -0.5585 -0.6267
 8697SOL    HW226991   0.104   2.791   3.133 -0.4686 -0.8141 -0.7123
 8698SOL     OW26992   1.513   3.330   6.953  0.2658 -0.1137 -0.1927
 8698SOL    HW126993   1.524   3.305   6.856  0.7245 -1.2219  0.1226
 8698SOL    HW226994   1.496   3.247   7.006 -0.1946  0.5142  0.6515
 8699SOL     OW26995   3.858   6.440   3.103  0.1517 -0.3513 -0.2171
 8699SOL    HW126996   3.895   6.482   3.020  0.9873  2.8235  1.5694
 8699SOL    HW226997   3.758   6.449   3.103  0.2453  0.8827 -0.3132
 8700SOL     OW26998   6.226   3.761   6.465  0.2349  0.3733 -0.0672
 8700SOL    HW126999   6.295   3.785   6.533  0.7101 -0.4428 -0.2531
 8700SOL    HW227000   6.185   3.673   6.489 -3.0576  2.2235  1.8464
 8701SOL     OW27001   3.675   3.409   0.534 -0.2523  0.1461 -0.4010
 8701SOL    HW127002   3.669   3.381   0.438 -0.6502  0.9633 -0.6199
 8701SOL    HW227003   3.706   3.503   0.540  0.0517  0.0105  0.2953
 8702SOL     OW27004   0.971   5.421   6.334 -0.2024  0.3767  0.3442
 8702SOL    HW127005   0.914   5.501   6.351 -0.1690  0.1189  1.7108
 8702SOL    HW227006   1.067   5.448   6.332 -0.2312  0.4702  0.0944
 8703SOL     OW27007   0.423   0.651   3.314 -0.7468  0.3427  0.3464
 8703SOL    HW127008   0.410   0.566   3.365  0.3407  0.7168  1.2838
 8703SOL    HW227009   0.498   0.703   3.355 -0.4706  1.1002 -1.0866
 8704SOL     OW27010   2.655   0.410   4.004  0.0234 -0.4342 -0.3184
 8704SOL    HW127011   2.688   0.405   3.909  1.5518 -1.0780  0.2226
 8704SOL    HW227012   2.649   0.506   4.031  0.8389 -0.2752 -0.6573
 8705SOL     OW27013   1.848   5.374   0.662  0.1787 -1.0460  0.0910
 8705SOL    HW127014   1.899   5.429   0.728  3.2129 -1.8086 -1.4467
 8705SOL    HW227015   1.836   5.424   0.577 -0.5354 -1.3646 -0.0095
 8706SOL     OW27016   5.963   5.947   4.183 -0.2124  0.4424 -0.5052
 8706SOL    HW127017   5.895   6.008   4.144 -3.5469 -2.6886 -0.1492
 8706SOL    HW227018   6.030   5.921   4.113 -0.7614  1.8031 -1.5691
 8707SOL     OW27019   6.257   5.707   5.609  0.0565 -0.2222 -0.1623
 8707SOL    HW127020   6.218   5.636   5.551 -0.2681 -0.0272 -0.1849
 8707SOL    HW227021   6.293   5.781   5.553 -1.4092  0.5675 -0.0907
 8708SOL     OW27022   2.070   4.403   0.516 -0.4424  0.1400  0.5951
 8708SOL    HW127023   2.165   4.427   0.495 -0.4435  0.0253  0.4587
 8708SOL    HW227024   2.026   4.367   0.434 -0.2345 -1.0019  0.9673
 8709SOL     OW27025   4.358   4.946   0.412 -0.3857 -0.0129 -0.8761
 8709SOL    HW127026   4.415   5.028   0.421 -1.3247  0.5521  0.1644
 8709SOL    HW227027   4.415   4.868   0.387  0.9745  0.3593  0.9149
 8710SOL     OW27028   5.930   1.884   6.622 -0.1182  0.5383  0.3189
 8710SOL    HW127029   5.839   1.844   6.630  0.5258 -1.5518 -1.6061
 8710SOL    HW227030   5.929   1.956   6.552 -0.6715  2.0188  1.7821
 8711SOL     OW27031   5.962   2.855   5.256 -0.4132  0.0064 -0.5329
 8711SOL    HW127032   5.876   2.811   5.228 -0.2326  0.1585 -1.3356
 8711SOL    HW227033   6.035   2.787   5.256 -0.1442  0.2854 -1.7240
 8712SOL     OW27034   0.314   1.386   2.433  0.2139  0.4418  0.4661
 8712SOL    HW127035   0.404   1.348   2.456  0.4123  1.5390  1.6328
 8712SOL    HW227036   0.264   1.321   2.377  1.9328  0.0161 -0.6566
 8713SOL     OW27037   6.987   4.261   0.892  0.2282  0.2069  0.4280
 8713SOL    HW127038   6.896   4.289   0.862 -0.6894 -0.2172  2.6746
 8713SOL    HW227039   7.056   4.311   0.839 -1.2746  0.6112 -1.2472
 8714SOL     OW27040   4.703   5.638   6.052  0.2985  0.0665 -0.3953
 8714SOL    HW127041   4.790   5.590   6.039  0.2620 -0.1808  0.2468
 8714SOL    HW227042   4.718   5.718   6.111 -0.0502 -0.4204  0.3638
 8715SOL     OW27043   4.730   2.147   5.554  0.2551 -0.3371  0.1806
 8715SOL    HW127044   4.756   2.077   5.488  2.0258  1.2817 -0.9600
 8715SOL    HW227045   4.655   2.202   5.516 -0.7099 -1.1787  0.8114
 8716SOL     OW27046   4.501   6.742   2.810 -0.2056 -0.1313  0.1201
 8716SOL    HW127047   4.481   6.775   2.902 -1.6362  1.0426 -0.5603
 8716SOL    HW227048   4.473   6.647   2.802 -0.6570 -0.0601  0.7477
 8717SOL     OW27049   3.476   0.016   1.077 -0.5143  0.7771  0.1426
 8717SOL    HW127050   3.490   0.077   0.999  0.4603 -0.2804 -0.5520
 8717SOL    HW227051   3.396  -0.042   1.060  0.8747 -0.9205 -1.1371
 8718SOL     OW27052   0.919   6.263   6.757  0.2004 -0.4120  0.2254
 8718SOL    HW127053   0.969   6.349   6.769 -1.7371  0.9479 -0.9253
 8718SOL    HW227054   0.828   6.282   6.722 -0.6872 -2.8995  0.9752
 8719SOL     OW27055   4.805   6.845   6.496  0.2049  0.0456  0.3844
 8719SOL    HW127056   4.902   6.866   6.500  0.0649  0.5827  1.5612
 8719SOL    HW227057   4.761   6.873   6.582 -1.2950  1.3657 -0.7480
 8720SOL     OW27058   4.556   1.293   3.485 -0.5360  0.3578 -0.3343
 8720SOL    HW127059   4.655   1.300   3.493 -0.4662 -0.5681 -0.2794
 8720SOL    HW227060   4.528   1.320   3.393 -0.4181  2.2341  0.1426
 8721SOL     OW27061   1.115   3.540   6.837  0.0313  0.2283  0.1544
 8721SOL    HW127062   1.066   3.576   6.757 -0.4534 -1.2492 -0.2457
 8721SOL    HW227063   1.207   3.513   6.811  1.0450  2.7135  0.8412
 8722SOL     OW27064   6.810   1.049   1.671  0.0366 -0.0654  0.3406
 8722SOL    HW127065   6.759   1.109   1.733  0.5006 -0.3230  0.9869
 8722SOL    HW227066   6.905   1.044   1.701  0.3476  0.0761 -0.6049
 8723SOL     OW27067   6.461   6.899   3.036 -0.1296 -0.1229 -0.1208
 8723SOL    HW127068   6.531   6.854   3.093 -0.7821 -2.7494 -1.2173
 8723SOL    HW227069   6.371   6.884   3.076 -0.3183  0.7056 -0.2335
 8724SOL     OW27070   6.474   3.661   6.005 -0.0547  0.0778 -0.1208
 8724SOL    HW127071   6.563   3.657   5.961  0.2117 -0.3010  0.4355
 8724SOL    HW227072   6.485   3.644   6.103 -0.6331  0.8835  0.0912
 8725SOL     OW27073   6.129   5.394   6.461  0.5903  0.0482 -0.3157
 8725SOL    HW127074   6.098   5.460   6.392  2.1867 -0.2963 -1.4235
 8725SOL    HW227075   6.189   5.441   6.526  0.1666  0.0867  0.0496
 8726SOL     OW27076   1.953   2.646   3.337 -1.2436 -0.4823 -0.8026
 8726SOL    HW127077   1.930   2.613   3.429  1.0490 -0.4281 -0.1412
 8726SOL    HW227078   2.039   2.697   3.341 -1.5942  0.3424 -2.8411
 8727SOL     OW27079   4.800   4.763   0.480 -0.6476 -0.1938 -0.3330
 8727SOL    HW127080   4.743   4.693   0.438  0.3463 -1.3214  0.1215
 8727SOL    HW227081   4.885   4.721   0.513 -0.6694  0.9349  1.3046
 8728SOL     OW27082   4.404   1.579   5.990  0.0294  0.3177 -0.9142
 8728SOL    HW127083   4.418   1.567   6.088 -2.5105  0.8953 -0.3916
 8728SOL    HW227084   4.360   1.667   5.973 -0.7095 -0.3015 -2.4271
 8729SOL     OW27085   5.322   0.591   4.605  0.3446 -0.0852  0.1241
 8729SOL    HW127086   5.255   0.665   4.600 -0.3670 -0.7444 -0.2602
 8729SOL    HW227087   5.408   0.626   4.643 -0.0994  0.8496  0.2853
 8730SOL     OW27088   3.114   5.503   4.090  0.4519  0.4231 -0.2887
 8730SOL    HW127089   3.119   5.409   4.057  0.8600  0.6151 -0.7878
 8730SOL    HW227090   3.144   5.566   4.018 -0.2835  0.9744 -0.1306
 8731SOL     OW27091   2.169   1.648   2.861 -0.2882 -0.1248  0.5508
 8731SOL    HW127092   2.134   1.636   2.768  0.5875  1.3278 -0.0062
 8731SOL    HW227093   2.263   1.684   2.856 -0.2616  0.0434  1.9907
 8732SOL     OW27094   5.486   3.631   1.987  0.5211 -0.4396 -0.1389
 8732SOL    HW127095   5.525   3.720   1.965 -1.4843  0.4168 -0.3750
 8732SOL    HW227096   5.505   3.568   1.911  1.5777 -0.1313 -0.1563
 8733SOL     OW27097   5.485   6.176   2.713  0.4131 -0.0488 -0.2867
 8733SOL    HW127098   5.415   6.106   2.699 -0.1973  0.7278 -1.3004
 8733SOL    HW227099   5.573   6.144   2.678  0.5370 -0.9480  0.7935
 8734SOL     OW27100   5.254   4.671   6.310 -0.5352 -0.1268 -0.0441
 8734SOL    HW127101   5.327   4.608   6.282 -0.2830  0.7251 -1.4139
 8734SOL    HW227102   5.166   4.634   6.278 -0.6967 -0.9923  1.3261
 8735SOL     OW27103   1.456   1.040   4.769 -0.8556 -0.1457  0.2098
 8735SOL    HW127104   1.540   1.070   4.814 -0.0900 -1.8438  0.0145
 8735SOL    HW227105   1.384   1.026   4.836 -0.3826 -0.5617  0.6341
 8736SOL     OW27106   1.147   6.431   2.624 -0.2807 -0.4233  0.6848
 8736SOL    HW127107   1.111   6.342   2.652 -1.0712  0.0600  1.2600
 8736SOL    HW227108   1.103   6.503   2.677 -1.3479  0.4899 -1.2969
 8737SOL     OW27109   4.748   2.477   0.442  0.4786 -0.4069 -0.4057
 8737SOL    HW127110   4.765   2.470   0.344 -0.8081 -1.1410 -0.6098
 8737SOL    HW227111   4.651   2.456   0.460 -0.3239  3.3607  0.6075
 8738SOL     OW27112   5.711   3.263   4.201 -0.3372  0.0141 -0.3835
 8738SOL    HW127113   5.713   3.171   4.161 -0.0794 -0.5526  0.8747
 8738SOL    HW227114   5.626   3.309   4.175  0.0367 -0.1181 -1.9755
 8739SOL     OW27115   5.108   1.173   4.219  0.5902  0.0265 -0.2261
 8739SOL    HW127116   5.145   1.094   4.267 -0.0319 -1.1239 -1.5755
 8739SOL    HW227117   5.127   1.165   4.122 -1.3632  0.4338 -0.6814
 8740SOL     OW27118   4.317   4.582   1.325  0.1166 -0.1256 -0.1775
 8740SOL    HW127119   4.341   4.592   1.422 -1.7813 -1.0386  0.4411
 8740SOL    HW227120   4.239   4.521   1.317 -0.0516  0.3069 -2.2806
 8741SOL     OW27121   6.020   5.411   3.094 -0.3420  0.0085  0.4741
 8741SOL    HW127122   5.960   5.452   3.163 -1.8897  0.6965 -1.1985
 8741SOL    HW227123   6.076   5.340   3.137 -0.5572  1.0316  2.6079
 8742SOL     OW27124   5.074   0.388   2.893  0.1227 -0.5678  0.0434
 8742SOL    HW127125   5.114   0.388   2.984 -0.6446 -1.0868  0.3893
 8742SOL    HW227126   5.084   0.479   2.852 -0.6551  0.0366  1.1556
 8743SOL     OW27127   3.740   6.733   3.922  0.1884  0.3372 -0.1457
 8743SOL    HW127128   3.729   6.706   3.826  0.4969 -0.0052 -0.0880
 8743SOL    HW227129   3.743   6.833   3.929  0.0790  0.3637 -0.4827
 8744SOL     OW27130   5.846   4.762   1.520  0.4228  0.2855 -0.6197
 8744SOL    HW127131   5.878   4.827   1.450  0.3953  0.7067 -0.2446
 8744SOL    HW227132   5.747   4.754   1.515  0.1396  2.1407  0.9033
 8745SOL     OW27133   6.717   1.483   1.849  0.2178  0.3677  0.0449
 8745SOL    HW127134   6.800   1.490   1.903 -1.1298 -0.7714  2.3941
 8745SOL    HW227135   6.671   1.572   1.846  1.2132  0.8850 -0.8771
 8746SOL     OW27136   6.402   2.864   3.935  0.3086  0.0421  0.3567
 8746SOL    HW127137   6.363   2.931   3.873  0.2101  0.0332  0.4083
 8746SOL    HW227138   6.434   2.784   3.883 -0.4319 -0.2808  0.3835
 8747SOL     OW27139   1.753   4.855   3.942  0.0672  0.4745  0.5371
 8747SOL    HW127140   1.811   4.780   3.973  1.1165  0.5342 -1.1522
 8747SOL    HW227141   1.809   4.935   3.922 -0.1836 -0.0847 -3.1063
 8748SOL     OW27142   0.532   1.763   4.239 -0.4214  0.0170  0.2481
 8748SOL    HW127143   0.604   1.699   4.268 -0.8820 -1.0679 -0.9129
 8748SOL    HW227144   0.477   1.721   4.168 -1.9325  1.0215  0.7770
 8749SOL     OW27145   1.508   1.934   2.444  0.1384 -0.2669 -0.0686
 8749SOL    HW127146   1.484   1.957   2.350  0.4860 -0.1021 -0.1220
 8749SOL    HW227147   1.435   1.880   2.486 -0.5667  0.6756 -0.0487
 8750SOL     OW27148   0.765   5.442   0.695 -0.5346  0.0514 -0.2445
 8750SOL    HW127149   0.786   5.432   0.792  2.1505 -2.0664 -0.9263
 8750SOL    HW227150   0.770   5.353   0.650 -1.8175  0.9567 -2.3596
 8751SOL     OW27151   2.133   5.322   4.657 -0.2136  0.6052  0.0566
 8751SOL    HW127152   2.181   5.276   4.583 -0.7897  1.0642 -0.6231
 8751SOL    HW227153   2.130   5.263   4.738 -0.3865 -0.2761 -0.5853
 8752SOL     OW27154   4.624   6.198   3.412  0.5479 -0.3034  0.0312
 8752SOL    HW127155   4.709   6.241   3.442  0.7662 -0.4686 -0.3424
 8752SOL    HW227156   4.616   6.108   3.455 -1.5381  1.3518  3.5275
 8753SOL     OW27157   2.942   4.745   0.287 -0.1363  0.1123 -0.0208
 8753SOL    HW127158   2.865   4.742   0.223  1.4597  1.6534 -2.1234
 8753SOL    HW227159   3.028   4.740   0.237  1.2006  1.2235  2.0180
 8754SOL     OW27160   2.049   5.124   0.287 -0.1424  0.6919  0.5633
 8754SOL    HW127161   2.141   5.102   0.319  0.3374 -0.2268 -1.2975
 8754SOL    HW227162   1.984   5.056   0.321  0.0027  0.8450  1.1598
 8755SOL     OW27163   4.476   2.203   4.178 -0.7732 -0.3482 -0.1111
 8755SOL    HW127164   4.551   2.148   4.216 -0.7818 -0.4079 -0.1811
 8755SOL    HW227165   4.405   2.214   4.247 -0.0520  0.9284  0.4604
 8756SOL     OW27166   6.102   6.804   4.505 -0.5668 -0.5999  0.0849
 8756SOL    HW127167   6.055   6.787   4.419 -1.2364 -2.6249  0.7992
 8756SOL    HW227168   6.085   6.729   4.568  1.8099 -0.2920  1.1972
 8757SOL     OW27169   6.179   2.484   4.937 -0.2345 -0.0371 -0.1413
 8757SOL    HW127170   6.131   2.571   4.932  0.8712  0.5340 -1.2183
 8757SOL    HW227171   6.113   2.409   4.931 -1.0274  0.7236 -1.1500
 8758SOL     OW27172   5.500   2.943   6.267 -0.4916  0.5746 -0.3095
 8758SOL    HW127173   5.584   2.893   6.288 -1.1091 -0.4273 -0.2031
 8758SOL    HW227174   5.508   3.036   6.303  0.3455  0.3211  0.1964
 8759SOL     OW27175   0.542   6.062   0.269  0.2124 -0.6332 -0.6173
 8759SOL    HW127176   0.577   6.155   0.279 -0.4997 -0.5268  1.4483
 8759SOL    HW227177   0.534   6.020   0.360  0.8454 -2.8525 -1.5202
 8760SOL     OW27178   4.220   5.016   4.179 -0.1739  0.0626 -0.4781
 8760SOL    HW127179   4.241   4.921   4.153  0.3245 -0.2430  0.9108
 8760SOL    HW227180   4.267   5.037   4.265 -1.5491  1.0596  0.0516
 8761SOL     OW27181   5.719   5.569   1.418  0.7760 -0.7172 -0.2573
 8761SOL    HW127182   5.649   5.640   1.407  2.9044  1.5178 -0.1505
 8761SOL    HW227183   5.711   5.528   1.509 -0.0564 -0.1151 -0.0508
 8762SOL     OW27184   3.398   1.756   0.354 -0.1020 -0.4234  0.4394
 8762SOL    HW127185   3.454   1.822   0.404  0.5062 -1.1844  0.7890
 8762SOL    HW227186   3.303   1.789   0.351  0.4099  1.0734 -0.5118
 8763SOL     OW27187   4.454   5.088   1.780 -0.2219 -0.0339  0.5240
 8763SOL    HW127188   4.536   5.117   1.732 -0.5462 -0.9855 -0.6392
 8763SOL    HW227189   4.395   5.036   1.719 -1.7837  0.7482  1.2791
 8764SOL     OW27190   1.828   3.761   1.170  0.1857 -0.2034  0.0787
 8764SOL    HW127191   1.740   3.747   1.124  1.2918 -0.9663 -1.9180
 8764SOL    HW227192   1.893   3.692   1.139  2.4616  2.2867 -1.0270
 8765SOL     OW27193   6.663   1.903   6.959 -0.4923  0.3611  0.0546
 8765SOL    HW127194   6.588   1.877   6.898  0.7923  0.9790 -1.9072
 8765SOL    HW227195   6.715   1.822   6.986 -0.8508  0.1157  0.0092
 8766SOL     OW27196   5.320   1.546   6.442 -0.5316  0.1854  0.0787
 8766SOL    HW127197   5.383   1.541   6.365 -0.6688  0.6759 -0.0682
 8766SOL    HW227198   5.226   1.555   6.408 -0.4932  1.7033  0.2846
 8767SOL     OW27199   5.657   2.404   4.826 -0.5775 -0.4124  0.3021
 8767SOL    HW127200   5.727   2.422   4.757 -0.2442  0.7398  0.9288
 8767SOL    HW227201   5.572   2.376   4.780  0.1071 -1.2866 -0.4862
 8768SOL     OW27202   5.000   3.594   3.524  0.4106 -0.4206 -0.2633
 8768SOL    HW127203   4.941   3.617   3.602 -1.2927 -3.3730 -0.5251
 8768SOL    HW227204   5.081   3.546   3.557  0.0183 -1.0800 -0.2522
 8769SOL     OW27205   1.142   0.632   0.746  0.2747 -0.5852 -0.3169
 8769SOL    HW127206   1.059   0.587   0.779 -0.2048 -1.0268 -2.0265
 8769SOL    HW227207   1.175   0.696   0.816 -1.3500 -0.5809  0.5003
 8770SOL     OW27208   6.221   1.504   6.921  0.6473  0.4146  0.2675
 8770SOL    HW127209   6.282   1.550   6.986 -1.9631  1.1253  2.3583
 8770SOL    HW227210   6.180   1.571   6.860 -0.4518  0.4113  0.9811
 8771SOL     OW27211   4.238   0.889   3.821 -0.3951  0.2425 -0.2545
 8771SOL    HW127212   4.158   0.833   3.840 -0.5978  0.9869  1.1800
 8771SOL    HW227213   4.320   0.833   3.827 -0.8485 -1.2619 -4.6077
 8772SOL     OW27214   0.181   2.897   1.475  0.2759  0.3412  0.4775
 8772SOL    HW127215   0.267   2.884   1.426  0.7351  1.4282  0.9816
 8772SOL    HW227216   0.166   2.820   1.537 -0.2299 -0.9825 -1.1936
 8773SOL     OW27217   2.631   0.419   0.049 -0.5697  0.3688 -0.3993
 8773SOL    HW127218   2.696   0.395  -0.023 -1.1226 -0.3750 -0.6693
 8773SOL    HW227219   2.558   0.476   0.011 -0.7885  0.0885 -0.4107
 8774SOL     OW27220   5.315   2.806   0.710 -0.0730 -0.1041  0.2028
 8774SOL    HW127221   5.385   2.862   0.754  1.0485 -0.3348 -1.2040
 8774SOL    HW227222   5.225   2.844   0.730  0.6006  1.7677 -0.1086
 8775SOL     OW27223   4.242   6.334   6.526  0.1058  0.1491 -0.3841
 8775SOL    HW127224   4.309   6.363   6.458 -0.1159 -0.1891 -0.7470
 8775SOL    HW227225   4.237   6.402   6.599 -0.7029  1.2259 -1.4230
 8776SOL     OW27226   0.767   3.345   2.223  0.3314 -0.3227  0.0101
 8776SOL    HW127227   0.805   3.271   2.168 -1.4308 -1.2380 -0.0388
 8776SOL    HW227228   0.727   3.414   2.163  0.7714  0.0004  0.0873
 8777SOL     OW27229   2.684   1.923   4.743  0.3611  0.1404 -0.6148
 8777SOL    HW127230   2.725   1.910   4.834 -2.0216  1.3917  0.7375
 8777SOL    HW227231   2.732   1.996   4.695  1.0739  0.1054  0.0279
 8778SOL     OW27232   3.117   3.459   6.259  0.3842 -0.7502  0.1219
 8778SOL    HW127233   3.094   3.505   6.345  1.2735 -0.9238  0.4638
 8778SOL    HW227234   3.170   3.520   6.201 -0.6914 -0.4325 -0.5670
 8779SOL     OW27235   3.374   5.295   0.725 -0.3420 -0.1156 -0.0286
 8779SOL    HW127236   3.342   5.322   0.634 -1.1421 -0.6395  0.0860
 8779SOL    HW227237   3.360   5.369   0.789 -1.4252 -0.3721  0.0380
 8780SOL     OW27238   0.626   1.041   6.721 -0.0212 -0.4524 -0.1330
 8780SOL    HW127239   0.601   0.946   6.738  2.8387 -1.2119  0.2951
 8780SOL    HW227240   0.615   1.061   6.623 -1.4418 -0.9140 -0.0948
 8781SOL     OW27241   4.519   6.910   4.638 -0.4893 -0.3503  0.6899
 8781SOL    HW127242   4.460   6.830   4.623 -3.0021  1.2273  1.4942
 8781SOL    HW227243   4.548   6.912   4.734 -1.3928  0.2837  0.9589
 8782SOL     OW27244   2.314   1.998   6.528 -0.1303  0.2268 -0.2869
 8782SOL    HW127245   2.267   1.911   6.541  0.1160 -0.2464 -2.2603
 8782SOL    HW227246   2.404   1.995   6.572 -0.3897 -0.2683  0.2190
 8783SOL     OW27247   2.701   5.914   0.142  0.6025 -0.1038 -0.2337
 8783SOL    HW127248   2.711   6.012   0.158 -0.3676 -0.3833  2.8449
 8783SOL    HW227249   2.642   5.898   0.064 -0.1548  1.7904 -0.0969
 8784SOL     OW27250   1.720   6.074   6.920  0.2263  0.0585  0.2910
 8784SOL    HW127251   1.813   6.089   6.955  0.5827  0.0424 -0.6302
 8784SOL    HW227252   1.723   6.063   6.821 -1.0734  2.9899 -0.1757
 8785SOL     OW27253   0.673   4.400   2.207 -0.3897  0.3772 -0.4367
 8785SOL    HW127254   0.749   4.338   2.187  0.0389  0.9204 -0.5015
 8785SOL    HW227255   0.647   4.450   2.124  1.5615  2.8321  0.3134
 8786SOL     OW27256   1.593   5.930   3.098 -0.9994  0.5290  0.4182
 8786SOL    HW127257   1.608   5.991   3.176 -1.3219  0.5323  0.4789
 8786SOL    HW227258   1.548   5.847   3.130 -0.5592  0.2577  0.3364
 8787SOL     OW27259   3.869   0.501   6.217  0.4563  0.1570  0.3163
 8787SOL    HW127260   3.922   0.449   6.150  3.9714  1.3428  1.9185
 8787SOL    HW227261   3.788   0.449   6.243 -0.7179 -0.6467 -4.1928
 8788SOL     OW27262   2.473   1.595   2.289  0.7498  0.6395  0.2019
 8788SOL    HW127263   2.525   1.566   2.208 -1.2146  2.0890 -1.7130
 8788SOL    HW227264   2.504   1.685   2.319  1.8655 -0.1407  1.4892
 8789SOL     OW27265   0.956   3.285   3.557  0.2558  0.3172  0.3080
 8789SOL    HW127266   0.912   3.223   3.623 -0.5381  0.9203  0.3614
 8789SOL    HW227267   0.902   3.288   3.473  0.9260  0.0379 -0.1385
 8790SOL     OW27268   6.407   0.853   6.163  0.3378  0.5170 -0.0918
 8790SOL    HW127269   6.329   0.805   6.121 -0.5892  2.6404 -0.9622
 8790SOL    HW227270   6.467   0.786   6.207 -2.6709 -1.1450  1.8800
 8791SOL     OW27271   5.595   3.609   2.968 -0.6228  0.2489 -0.0711
 8791SOL    HW127272   5.686   3.567   2.959 -0.8611 -0.0365 -1.3165
 8791SOL    HW227273   5.525   3.539   2.957 -1.0457  0.9941 -2.8971
 8792SOL     OW27274   0.066   1.874   5.279  0.1247  0.1087 -0.4142
 8792SOL    HW127275   0.160   1.890   5.308  0.2124  0.3825 -0.8413
 8792SOL    HW227276   0.034   1.952   5.225 -0.8040  0.6457  0.8509
 8793SOL     OW27277   2.703   1.968   5.007 -0.1349  0.0362 -0.0598
 8793SOL    HW127278   2.638   1.951   5.081 -1.1434  0.1041 -0.9021
 8793SOL    HW227279   2.774   2.031   5.039  0.0281 -0.7123  1.1419
 8794SOL     OW27280   2.692   6.154   1.518  0.0108  0.4185  0.3873
 8794SOL    HW127281   2.598   6.144   1.486 -0.0135  1.8780 -0.0650
 8794SOL    HW227282   2.692   6.186   1.613  0.0254  1.4647  0.0447
 8795SOL     OW27283   4.742   1.925   3.765  0.0599  0.5507  0.0482
 8795SOL    HW127284   4.726   2.009   3.817 -0.3471  0.1464  0.5815
 8795SOL    HW227285   4.761   1.949   3.669 -3.9652  1.1142 -0.7807
 8796SOL     OW27286   6.714   1.341   2.660  0.4634 -0.4474 -0.8172
 8796SOL    HW127287   6.659   1.361   2.741  1.0291  0.0727 -0.5581
 8796SOL    HW227288   6.678   1.258   2.616 -1.6337  0.8059 -1.6450
 8797SOL     OW27289   0.909   0.509   0.878  0.1098  0.6257 -0.6452
 8797SOL    HW127290   0.816   0.532   0.905  0.1805  0.7065 -0.4727
 8797SOL    HW227291   0.913   0.412   0.854 -0.0400  0.6436 -0.7464
 8798SOL     OW27292   2.647   3.833   5.877 -0.3937  0.0721 -0.1232
 8798SOL    HW127293   2.654   3.754   5.816  0.4286 -1.5187  1.9215
 8798SOL    HW227294   2.724   3.894   5.860 -0.2590 -0.2632 -0.7738
 8799SOL     OW27295   4.174   6.856   4.040 -0.1112  0.1075  0.8679
 8799SOL    HW127296   4.180   6.758   4.020 -1.2259  0.3509 -0.9500
 8799SOL    HW227297   4.101   6.896   3.984 -0.1887  1.8427  2.1546
 8800SOL     OW27298   4.063   5.550   5.516 -0.0606  0.3906  0.1009
 8800SOL    HW127299   4.070   5.478   5.584 -0.8199 -0.5833 -0.8326
 8800SOL    HW227300   4.003   5.623   5.550 -0.6302 -0.2007  0.3827
 8801SOL     OW27301   1.762   1.055   0.782 -0.7395  0.0543 -0.2948
 8801SOL    HW127302   1.845   1.017   0.823 -0.8209  1.0085  0.8160
 8801SOL    HW227303   1.763   1.038   0.684  0.6907 -0.1102 -0.2760
 8802SOL     OW27304   4.878   4.170   2.343  0.3326  0.9872 -0.0804
 8802SOL    HW127305   4.824   4.189   2.425 -1.0725  0.6273 -0.8942
 8802SOL    HW227306   4.847   4.230   2.269 -0.2410 -0.4875 -1.0738
 8803SOL     OW27307   2.170   6.364   3.636 -0.0304 -0.3759 -0.2578
 8803SOL    HW127308   2.157   6.266   3.654 -0.3932 -0.5103 -1.2339
 8803SOL    HW227309   2.265   6.388   3.659 -0.6431 -0.3302  2.6324
 8804SOL     OW27310   6.020   6.007   2.515  0.0417 -0.1368 -0.3253
 8804SOL    HW127311   5.987   5.928   2.463 -2.0403  1.0295 -0.8872
 8804SOL    HW227312   6.106   5.983   2.560 -0.4140 -2.6498 -0.6195
 8805SOL     OW27313   4.640   4.823   5.856  0.0632 -0.3343  0.2656
 8805SOL    HW127314   4.632   4.731   5.892 -0.3688 -1.1221 -1.7088
 8805SOL    HW227315   4.610   4.889   5.925  0.5472 -1.6222  1.7761
 8806SOL     OW27316   0.319   0.738   4.449  0.5251 -0.3701  0.6575
 8806SOL    HW127317   0.350   0.760   4.357  0.0808 -2.0350  0.0871
 8806SOL    HW227318   0.285   0.644   4.452  0.8895 -0.4836  2.6080
 8807SOL     OW27319   6.564   2.743   5.887 -0.3608  0.2760  0.1925
 8807SOL    HW127320   6.598   2.757   5.794  1.7723  0.8645  1.0072
 8807SOL    HW227321   6.555   2.646   5.906  0.6951  0.0986 -0.1508
 8808SOL     OW27322   6.213   5.948   2.060 -0.7454 -0.2945 -0.0992
 8808SOL    HW127323   6.285   5.914   2.121 -1.7552  1.6324  2.3511
 8808SOL    HW227324   6.222   5.905   1.970  2.1609 -1.6553  0.7275
 8809SOL     OW27325   0.626   4.946   5.024 -0.6550 -0.1320 -0.3095
 8809SOL    HW127326   0.570   5.027   5.006  2.0640  1.8164 -0.6098
 8809SOL    HW227327   0.701   4.941   4.958 -0.3782 -2.5987  0.0786
 8810SOL     OW27328   1.283   2.992   3.497 -0.2673  0.1896 -0.0457
 8810SOL    HW127329   1.340   2.936   3.437  0.1669 -0.2369  0.7523
 8810SOL    HW227330   1.299   3.089   3.478 -2.4888  0.1378 -2.8495
 8811SOL     OW27331   2.137   3.497   4.931 -0.5819  0.1621 -0.4359
 8811SOL    HW127332   2.166   3.580   4.979 -1.6636  0.6534 -0.6030
 8811SOL    HW227333   2.171   3.417   4.980 -0.0050  0.6811  0.0453
 8812SOL     OW27334   6.753   5.918   0.362  0.6567  0.7736  0.6641
 8812SOL    HW127335   6.773   6.016   0.367 -0.6979  1.0202  1.8602
 8812SOL    HW227336   6.706   5.897   0.276 -1.2996  1.6585  1.4562
 8813SOL     OW27337   6.352   1.043   4.232  0.5212  0.3444  0.5617
 8813SOL    HW127338   6.385   1.092   4.152 -0.5744  0.9269  0.4383
 8813SOL    HW227339   6.302   0.961   4.204 -0.4105  0.8812  0.5843
 8814SOL     OW27340   0.020   0.143   6.183 -0.4327  0.3338  0.7592
 8814SOL    HW127341   0.063   0.219   6.232 -0.9655  0.7061  0.6574
 8814SOL    HW227342  -0.077   0.164   6.167 -0.4180 -0.0634  0.1218
 8815SOL     OW27343   2.201   2.907   2.044 -0.4907 -0.1301  0.1701
 8815SOL    HW127344   2.230   2.815   2.069 -1.7046 -0.4982  0.3333
 8815SOL    HW227345   2.180   2.910   1.946 -1.8449 -0.4549  0.4243
 8816SOL     OW27346   0.619   4.112   5.643  0.3409 -0.8741 -0.0132
 8816SOL    HW127347   0.640   4.014   5.637  1.4716 -0.6464 -0.1040
 8816SOL    HW227348   0.668   4.161   5.571  1.8066  0.0541  1.5273
 8817SOL     OW27349   1.536   5.202   4.282 -0.5517 -0.3755 -0.6026
 8817SOL    HW127350   1.572   5.271   4.344  0.0251 -1.3234  0.1429
 8817SOL    HW227351   1.610   5.166   4.225 -1.1286  0.7131 -2.0921
 8818SOL     OW27352   0.894   3.843   0.849 -0.0459 -0.8827  0.2983
 8818SOL    HW127353   0.909   3.808   0.941 -0.8849 -0.9340  0.4228
 8818SOL    HW227354   0.942   3.785   0.783 -0.0029 -1.2446  0.6452
 8819SOL     OW27355   2.008   6.685   1.634 -0.1736 -0.3954 -0.7001
 8819SOL    HW127356   2.071   6.762   1.622 -0.8130 -0.1298 -2.5375
 8819SOL    HW227357   2.057   6.610   1.679  0.5024  0.9813  0.9900
 8820SOL     OW27358   4.254   0.006   3.082  0.2125 -0.0389 -0.2632
 8820SOL    HW127359   4.159  -0.004   3.111  0.7958 -1.6052  1.2908
 8820SOL    HW227360   4.258   0.011   2.982 -1.5068  0.3199 -0.3412
 8821SOL     OW27361   2.364   5.126   5.253  0.2126 -0.2048  0.3015
 8821SOL    HW127362   2.280   5.158   5.210  0.0505  0.6665  1.2255
 8821SOL    HW227363   2.442   5.154   5.197 -0.0640 -0.3631 -0.1714
 8822SOL     OW27364   5.597   0.437   1.014 -1.0237 -0.4468  0.4011
 8822SOL    HW127365   5.679   0.384   1.038  0.5386  1.8154  0.3489
 8822SOL    HW227366   5.520   0.406   1.070  0.4463 -1.0142  2.2083
 8823SOL     OW27367   0.366   2.725   4.394 -0.0150 -0.1189 -0.0153
 8823SOL    HW127368   0.450   2.682   4.361 -0.2896 -1.1352  0.5487
 8823SOL    HW227369   0.311   2.755   4.316  1.7400  2.3974 -0.3916
 8824SOL     OW27370   6.738   2.395   2.055 -0.0938 -0.0844 -0.0575
 8824SOL    HW127371   6.784   2.457   2.119  0.4109  0.4694 -0.9416
 8824SOL    HW227372   6.741   2.433   1.963  1.2792 -1.9413 -0.8403
 8825SOL     OW27373   5.889   6.467   0.878  0.2017 -0.3661 -0.2202
 8825SOL    HW127374   5.861   6.418   0.961 -5.0947 -2.1959 -2.6149
 8825SOL    HW227375   5.934   6.403   0.816  0.3000 -0.1010 -0.4229
 8826SOL     OW27376   6.012   6.458   0.469 -0.1481  0.3745  0.3517
 8826SOL    HW127377   6.093   6.443   0.414 -0.9038  0.0348 -0.7027
 8826SOL    HW227378   6.017   6.404   0.553  0.8152  0.5551  0.4147
 8827SOL     OW27379   3.568   5.626   5.840  0.2123  0.1377  0.7951
 8827SOL    HW127380   3.522   5.572   5.769  0.9011  0.5699 -0.0009
 8827SOL    HW227381   3.657   5.658   5.806  2.3425 -2.7131  3.0931
 8828SOL     OW27382   2.678   6.791   6.418 -0.3555 -0.5418  0.0503
 8828SOL    HW127383   2.747   6.814   6.488 -0.7433  0.9545 -0.0234
 8828SOL    HW227384   2.587   6.796   6.459 -0.5472 -0.2294 -0.4108
 8829SOL     OW27385   1.906   1.898   4.973  0.4176 -0.3119 -0.0407
 8829SOL    HW127386   1.808   1.903   4.991  0.0232 -1.6594 -1.5920
 8829SOL    HW227387   1.955   1.951   5.042 -1.4636  1.3902  0.0908
 8830SOL     OW27388   1.573   2.261   1.660 -0.0316  0.6306  0.1460
 8830SOL    HW127389   1.636   2.329   1.623  1.1772  1.0902  2.8359
 8830SOL    HW227390   1.622   2.175   1.674 -0.3099  0.6021  1.0295
 8831SOL     OW27391   3.682   0.495   4.897 -0.1512 -0.8373  0.2355
 8831SOL    HW127392   3.730   0.552   4.829 -1.0008  0.4289  0.6555
 8831SOL    HW227393   3.619   0.552   4.949  0.5394 -1.7421  2.1758
 8832SOL     OW27394   1.605   4.888   1.166  0.3962  0.0320 -0.2579
 8832SOL    HW127395   1.692   4.845   1.188 -0.0006 -0.8327 -0.3371
 8832SOL    HW227396   1.531   4.841   1.214  0.0247  1.1527  0.3154
 8833SOL     OW27397   1.950   1.787   3.410 -0.3246  0.1984  1.0525
 8833SOL    HW127398   1.908   1.763   3.497 -2.5642 -1.5102 -0.3875
 8833SOL    HW227399   2.041   1.746   3.404  0.3906  1.3792  3.0220
 8834SOL     OW27400   0.998   5.786   3.108 -0.0874  0.3661 -0.1244
 8834SOL    HW127401   0.959   5.877   3.119 -0.8490  0.2163 -1.4231
 8834SOL    HW227402   1.026   5.772   3.013 -0.0347 -0.7729  0.0381
 8835SOL     OW27403   6.463   5.588   0.322  0.0784  0.0751  0.6872
 8835SOL    HW127404   6.391   5.569   0.256  0.2791  2.2417 -0.2664
 8835SOL    HW227405   6.486   5.505   0.372 -1.5024 -1.1669 -0.5405
 8836SOL     OW27406   4.734   4.644   1.109 -0.0480  0.5869 -0.1736
 8836SOL    HW127407   4.682   4.571   1.153  1.2845 -0.8040 -0.7786
 8836SOL    HW227408   4.825   4.651   1.151  1.2026 -0.6781 -2.4516
 8837SOL     OW27409   3.795   2.279   6.956 -1.4070  0.5211 -0.4342
 8837SOL    HW127410   3.866   2.237   7.012 -1.4892 -0.3157 -0.9580
 8837SOL    HW227411   3.750   2.351   7.010  0.4108  1.7097 -0.3891
 8838SOL     OW27412   3.671   6.431   0.569 -0.2625  0.2263 -0.4586
 8838SOL    HW127413   3.611   6.396   0.497 -0.5353 -0.3330  0.0348
 8838SOL    HW227414   3.720   6.512   0.535 -0.3862 -0.0288 -1.2681
 8839SOL     OW27415   2.431   0.343   6.830  0.6981 -0.0867 -0.4007
 8839SOL    HW127416   2.398   0.297   6.912  0.6496  0.4547 -0.1114
 8839SOL    HW227417   2.373   0.319   6.752 -1.6073  2.3323  0.4478
 8840SOL     OW27418   0.073   3.847   2.915 -0.3263 -0.3384  0.3430
 8840SOL    HW127419   0.170   3.822   2.906 -0.4235 -1.0982  1.2466
 8840SOL    HW227420   0.022   3.809   2.838 -0.0802 -0.8533  0.4309
 8841SOL     OW27421   0.777   2.859   4.640  0.1960  0.3746 -0.3572
 8841SOL    HW127422   0.685   2.851   4.603  0.1629  0.6423 -0.3360
 8841SOL    HW227423   0.785   2.803   4.723  0.1426  0.1165 -0.5276
 8842SOL     OW27424   1.706   1.078   6.194  0.2055 -0.2958 -0.0565
 8842SOL    HW127425   1.748   1.122   6.115 -0.2022 -0.1316 -0.1836
 8842SOL    HW227426   1.729   1.128   6.277  2.0491 -1.4232  0.1674
 8843SOL     OW27427   1.409   1.764   1.180  0.3463  0.4213  0.4379
 8843SOL    HW127428   1.404   1.864   1.177  0.0203  0.3706 -1.7403
 8843SOL    HW227429   1.317   1.726   1.168  0.3907 -0.1675  1.7794
 8844SOL     OW27430   0.723   0.549   5.255 -0.2052 -0.0390 -0.2961
 8844SOL    HW127431   0.786   0.473   5.241  0.8760  0.8725 -0.5524
 8844SOL    HW227432   0.732   0.614   5.180 -1.5284  0.0760 -0.3821
 8845SOL     OW27433   3.407   3.553   2.907  0.1993  0.6676 -0.1858
 8845SOL    HW127434   3.368   3.511   2.989  0.4686 -0.2027 -0.4949
 8845SOL    HW227435   3.345   3.539   2.830 -0.3106  1.9516 -0.0320
 8846SOL     OW27436   5.719   3.345   5.524 -0.2234  0.5076 -0.3093
 8846SOL    HW127437   5.784   3.306   5.460  0.1903 -0.2461  0.5563
 8846SOL    HW227438   5.648   3.395   5.474 -1.2422 -2.0078 -1.5214
 8847SOL     OW27439   2.917   2.177   2.856 -0.7500  0.2438  0.4647
 8847SOL    HW127440   2.956   2.206   2.944 -1.5513  1.2048  0.5202
 8847SOL    HW227441   2.990   2.169   2.788 -0.3226  1.0835  0.8087
 8848SOL     OW27442   0.687   0.957   5.071 -0.0488  0.3460 -0.5527
 8848SOL    HW127443   0.753   1.013   5.021  0.4245  0.9923  0.7351
 8848SOL    HW227444   0.595   0.977   5.038  0.1675  1.4654 -0.5238
 8849SOL     OW27445   3.418   3.148   6.928 -0.3457 -0.1630  0.0513
 8849SOL    HW127446   3.330   3.168   6.971  0.3613  0.5422  1.1917
 8849SOL    HW227447   3.402   3.113   6.836 -1.9030 -1.8795  0.9087
 8850SOL     OW27448   4.914   0.327   6.691 -0.2145  0.4343  0.8606
 8850SOL    HW127449   4.888   0.341   6.787  0.2929 -1.7511  1.3783
 8850SOL    HW227450   4.976   0.400   6.663  0.0002  0.8760  2.3721
 8851SOL     OW27451   0.074   6.703   0.503  0.4065 -0.7191 -0.8629
 8851SOL    HW127452   0.170   6.696   0.474  0.3479  0.1328 -1.2717
 8851SOL    HW227453   0.063   6.783   0.562  0.2452 -1.6648  0.4315
 8852SOL     OW27454   0.587   2.545   5.147 -0.1393  0.4880 -0.6568
 8852SOL    HW127455   0.619   2.452   5.132 -2.4595 -0.9373  2.0804
 8852SOL    HW227456   0.652   2.594   5.206  0.7946  0.4144 -1.6085
 8853SOL     OW27457   4.448   2.491   2.697  0.5594 -0.1526  0.1515
 8853SOL    HW127458   4.386   2.419   2.667  1.4535 -1.2552  0.8636
 8853SOL    HW227459   4.429   2.515   2.792  1.4813 -0.8231  0.5222
 8854SOL     OW27460   2.525   0.141   5.027 -0.1329 -0.3782 -0.0877
 8854SOL    HW127461   2.428   0.126   5.004 -0.3594 -1.0579  1.1927
 8854SOL    HW227462   2.581   0.072   4.982 -0.1600  0.3537 -1.2839
 8855SOL     OW27463   6.567   0.418   6.020  0.2674  0.3618 -0.5568
 8855SOL    HW127464   6.627   0.480   6.072  1.4279 -0.1798 -1.1928
 8855SOL    HW227465   6.589   0.324   6.044 -0.7868  0.1690 -0.3435
 8856SOL     OW27466   2.090   2.200   0.916 -0.5883 -0.0358  0.4204
 8856SOL    HW127467   2.044   2.120   0.954  1.2822 -0.8968  0.9698
 8856SOL    HW227468   2.157   2.171   0.848 -1.0308  1.2096 -0.5897
 8857SOL     OW27469   4.858   6.338   5.943 -0.0337 -0.0901  0.1099
 8857SOL    HW127470   4.872   6.355   5.846  0.7324 -0.1484  0.2043
 8857SOL    HW227471   4.762   6.316   5.960  0.0639 -1.3309 -0.8208
 8858SOL     OW27472   5.523   2.936   0.164 -0.2847  0.0442 -0.6242
 8858SOL    HW127473   5.504   2.968   0.071  1.7629  1.5307 -0.5838
 8858SOL    HW227474   5.481   2.999   0.230  0.2243  0.2987 -0.5431
 8859SOL     OW27475   2.131   3.742   3.381 -0.0996  0.3869  0.0928
 8859SOL    HW127476   2.120   3.818   3.316  0.2825  0.0151 -0.4099
 8859SOL    HW227477   2.188   3.772   3.457 -1.4387  1.1716  0.8358
 8860SOL     OW27478   2.277   4.215   4.139  0.6150  0.3585  1.1345
 8860SOL    HW127479   2.234   4.284   4.080  0.6629 -0.9546 -0.5267
 8860SOL    HW227480   2.278   4.247   4.233  0.0319  2.3260  0.5151
 8861SOL     OW27481   5.181   4.483   1.940 -0.1659  0.4738  0.0846
 8861SOL    HW127482   5.187   4.463   2.038  0.3617 -1.3032 -0.2681
 8861SOL    HW227483   5.274   4.490   1.903 -0.3397  2.4840 -0.0797
 8862SOL     OW27484   3.786   5.486   2.596 -0.0743 -0.3156 -0.2945
 8862SOL    HW127485   3.777   5.584   2.581 -0.8309 -0.4562 -0.8525
 8862SOL    HW227486   3.833   5.444   2.519  0.9587 -0.2929  0.3055
 8863SOL     OW27487   4.234   3.262   1.828  0.1232 -0.2124  0.4202
 8863SOL    HW127488   4.290   3.190   1.787  0.8714  0.2627  0.5754
 8863SOL    HW227489   4.218   3.335   1.761  1.3694  0.5771  0.9455
 8864SOL     OW27490   0.244   2.327   5.019 -0.0741  0.2501  0.1608
 8864SOL    HW127491   0.196   2.312   4.932 -0.6438  0.2792  0.4694
 8864SOL    HW227492   0.262   2.425   5.030  2.3765  0.0219 -1.1753
 8865SOL     OW27493   1.137   6.799   5.290  0.0679 -0.3036 -0.1822
 8865SOL    HW127494   1.075   6.855   5.345 -0.7304 -2.0495  0.7938
 8865SOL    HW227495   1.165   6.850   5.209  0.8060  2.1455  1.5067
 8866SOL     OW27496   0.486   0.881   2.648  0.4515  0.0965 -0.4952
 8866SOL    HW127497   0.461   0.785   2.658  0.6141 -0.0262 -1.2426
 8866SOL    HW227498   0.572   0.889   2.599  0.3492  0.6323 -0.5996
 8867SOL     OW27499   6.688   2.725   0.943  0.3347  0.5261  0.3104
 8867SOL    HW127500   6.593   2.695   0.951  0.6038 -1.2286 -2.1971
 8867SOL    HW227501   6.691   2.816   0.901 -0.2249  1.4094  2.0522
 8868SOL     OW27502   6.231   1.071   3.028  0.0607 -0.1376  0.3880
 8868SOL    HW127503   6.282   1.033   3.105 -0.3144  0.0223  0.7229
 8868SOL    HW227504   6.194   0.997   2.972  1.5507 -0.2651 -0.4768
 8869SOL     OW27505   3.016   5.044   4.066  0.0933  0.5032  0.2493
 8869SOL    HW127506   2.933   5.098   4.081 -0.6383 -0.9400  1.7912
 8869SOL    HW227507   2.990   4.953   4.034  1.0196 -0.2078  1.4779
 8870SOL     OW27508   6.845   2.457   1.315 -0.4555  0.2103 -0.5587
 8870SOL    HW127509   6.844   2.548   1.273  0.3062  0.0565 -0.9089
 8870SOL    HW227510   6.815   2.389   1.248  1.4969 -0.1405 -1.1363
 8871SOL     OW27511   0.672   6.315   6.626 -0.1527 -0.0449 -0.1572
 8871SOL    HW127512   0.644   6.406   6.656  0.6013  1.1887 -2.8726
 8871SOL    HW227513   0.596   6.270   6.578 -0.4361 -0.7510  0.9318
 8872SOL     OW27514   2.658   0.421   1.590  0.3498  0.7558  0.3019
 8872SOL    HW127515   2.589   0.357   1.622 -0.4253  0.4272 -1.8327
 8872SOL    HW227516   2.744   0.406   1.638  0.0551 -1.5654  0.1763
 8873SOL     OW27517   2.977   4.944   3.245  0.1967 -0.2800 -0.1954
 8873SOL    HW127518   3.065   4.990   3.258 -0.9346  2.3017 -0.9418
 8873SOL    HW227519   2.941   4.913   3.333  0.8120  0.7428  0.4361
 8874SOL     OW27520   1.091   4.083   0.606  0.4693 -0.3583  0.2997
 8874SOL    HW127521   1.008   4.047   0.564 -0.5512  0.7771  1.2654
 8874SOL    HW227522   1.164   4.014   0.600 -0.2119 -0.9973 -1.4617
 8875SOL     OW27523   5.298   6.445   4.813 -0.5100 -0.1349  0.1328
 8875SOL    HW127524   5.276   6.541   4.794  1.2501  0.3275  0.2646
 8875SOL    HW227525   5.347   6.438   4.900 -0.9267 -1.2076  0.2963
 8876SOL     OW27526   4.751   6.094   4.026 -0.5214 -0.0500 -0.0353
 8876SOL    HW127527   4.711   6.153   4.096 -2.4986 -0.0979 -1.0384
 8876SOL    HW227528   4.735   6.134   3.936  3.7343  1.0555 -0.4996
 8877SOL     OW27529   3.231   3.031   5.288  0.7614  0.0242 -0.0234
 8877SOL    HW127530   3.148   2.979   5.309  0.4691  0.1370 -0.8447
 8877SOL    HW227531   3.209   3.102   5.220  1.2790  0.8284  0.6334
 8878SOL     OW27532   5.083   4.862   5.495  0.2112 -0.3712  0.3768
 8878SOL    HW127533   5.047   4.925   5.427  0.5565 -2.6277 -2.0812
 8878SOL    HW227534   5.009   4.833   5.557 -0.5450  0.3798 -0.1611
 8879SOL     OW27535   1.771   1.998   2.332 -0.1576  0.1635 -0.5382
 8879SOL    HW127536   1.816   2.026   2.416  0.8251  0.6738 -1.2152
 8879SOL    HW227537   1.674   1.983   2.350  0.2840 -1.1885  1.0069
 8880SOL     OW27538   6.741   6.934   0.606 -0.2038 -0.2168  0.1853
 8880SOL    HW127539   6.715   6.975   0.519 -0.6600  0.0538  0.4445
 8880SOL    HW227540   6.716   6.996   0.681  2.4628  0.7174  0.4002
 8881SOL     OW27541   1.757   5.825   2.894  0.3384  0.3498 -0.0325
 8881SOL    HW127542   1.739   5.731   2.924  1.9613  0.4423  1.3343
 8881SOL    HW227543   1.702   5.888   2.949 -0.2706  0.2516 -0.5183
 8882SOL     OW27544   4.682   5.966   6.104  0.1039 -0.8483  0.2423
 8882SOL    HW127545   4.653   5.959   6.199  0.2807  0.0701  0.3657
 8882SOL    HW227546   4.602   5.960   6.044 -0.0428 -1.0596  0.4568
 8883SOL     OW27547   0.696   5.044   5.963  0.2591 -0.4088  0.6310
 8883SOL    HW127548   0.666   5.003   6.048 -0.3357 -0.3309  0.4651
 8883SOL    HW227549   0.675   5.142   5.964  1.2658 -0.1866  0.8467
 8884SOL     OW27550   0.692   6.867   4.677 -0.0766 -0.8406  0.3128
 8884SOL    HW127551   0.726   6.850   4.585 -0.8059  0.9372 -0.3494
 8884SOL    HW227552   0.639   6.789   4.709 -1.6202 -0.6924 -1.6835
 8885SOL     OW27553   6.897   5.429   6.439 -0.5886 -0.5390 -0.6366
 8885SOL    HW127554   6.980   5.374   6.438 -0.4345 -0.3063 -0.8009
 8885SOL    HW227555   6.838   5.403   6.363 -0.5282 -0.4950 -0.6985
 8886SOL     OW27556   5.629   2.065   4.906 -0.3087 -0.0104 -0.6187
 8886SOL    HW127557   5.571   1.984   4.893  0.5043 -0.6941 -0.1151
 8886SOL    HW227558   5.723   2.042   4.880  0.1397  0.4429  0.5467
 8887SOL     OW27559   6.568   2.584   6.178 -0.9659 -0.6018 -0.3846
 8887SOL    HW127560   6.615   2.532   6.250  1.7504 -0.1522 -1.6913
 8887SOL    HW227561   6.480   2.541   6.158 -1.8734 -0.6667  3.2036
 8888SOL     OW27562   2.955   0.323   6.897  0.1003 -0.3511 -0.0257
 8888SOL    HW127563   2.956   0.366   6.988 -1.0624 -0.0273 -0.1555
 8888SOL    HW227564   3.029   0.255   6.892  1.6030  1.1746  0.3935
 8889SOL     OW27565   3.712   2.111   5.624 -0.0422  0.0787  0.2927
 8889SOL    HW127566   3.748   2.179   5.560 -1.5679  0.9995  0.3640
 8889SOL    HW227567   3.624   2.142   5.660 -1.0158 -2.1236  0.0094
 8890SOL     OW27568   4.718   2.745   3.579  0.0669 -0.1725  0.3188
 8890SOL    HW127569   4.659   2.666   3.563 -0.4003  0.3719 -0.7807
 8890SOL    HW227570   4.667   2.829   3.558  0.9056  0.3584  0.3706
 8891SOL     OW27571   0.547   5.969   2.150 -0.2872 -0.1443 -0.1544
 8891SOL    HW127572   0.485   5.994   2.075  0.4720 -0.5044 -0.9171
 8891SOL    HW227573   0.493   5.935   2.227 -1.1816  1.6351  0.0490
 8892SOL     OW27574   1.665   1.843   3.118  0.0513 -0.0457 -0.2520
 8892SOL    HW127575   1.678   1.797   3.030 -0.0575  1.4917 -1.1075
 8892SOL    HW227576   1.580   1.813   3.160 -0.4769  0.0515 -1.2337
 8893SOL     OW27577   3.269   2.846   4.962 -0.1431  0.1697 -0.0597
 8893SOL    HW127578   3.252   2.775   5.031 -0.7029 -0.4422 -0.8192
 8893SOL    HW227579   3.366   2.871   4.964  0.5320 -2.1125 -1.1871
 8894SOL     OW27580   2.440   5.270   2.311  0.1627 -0.3749  0.3337
 8894SOL    HW127581   2.511   5.307   2.371  0.9976  0.2652 -0.9868
 8894SOL    HW227582   2.474   5.188   2.265  0.2707  0.2125 -0.6828
 8895SOL     OW27583   4.732   2.803   2.994  0.3139  0.5723 -0.5574
 8895SOL    HW127584   4.823   2.826   2.960  0.2217  0.5318 -0.8322
 8895SOL    HW227585   4.685   2.886   3.025  1.5779  0.2942  2.4386
 8896SOL     OW27586   2.330   1.273   1.971  0.5928 -0.0314 -0.1284
 8896SOL    HW127587   2.358   1.343   1.905 -1.0220 -0.2535 -1.1186
 8896SOL    HW227588   2.233   1.287   1.994  1.2868  0.5466  2.8745
 8897SOL     OW27589   6.141   5.524   6.097 -0.0499  0.3849  0.5272
 8897SOL    HW127590   6.060   5.551   6.147  1.0080  0.3948  2.3055
 8897SOL    HW227591   6.222   5.564   6.139  0.7699  2.4973 -2.6521
 8898SOL     OW27592   4.109   2.867   0.809 -0.2243 -0.6623  0.0292
 8898SOL    HW127593   4.040   2.855   0.737 -0.2673  2.1759 -0.5071
 8898SOL    HW227594   4.063   2.887   0.896 -0.1150  0.5272 -0.1766
 8899SOL     OW27595   4.710   0.090   1.978 -0.2546  0.2439 -0.4501
 8899SOL    HW127596   4.698   0.055   1.885  0.6114  1.7851 -1.1696
 8899SOL    HW227597   4.624   0.132   2.009 -0.5153 -0.1864 -0.5794
 8900SOL     OW27598   6.328   1.165   0.773  0.4391  0.1045  0.2104
 8900SOL    HW127599   6.338   1.242   0.709 -2.3778  0.8505  0.5615
 8900SOL    HW227600   6.275   1.093   0.729  1.3878 -0.8499  0.5883
 8901SOL     OW27601   6.134   4.188   5.083  0.0231  0.2818 -0.1971
 8901SOL    HW127602   6.211   4.128   5.061  1.5663  1.4847  1.6756
 8901SOL    HW227603   6.168   4.277   5.112 -1.9405  0.2521  2.5935
 8902SOL     OW27604   4.239   1.197   0.221 -0.4012  0.3335 -0.4121
 8902SOL    HW127605   4.234   1.148   0.308 -2.2885 -1.2306 -1.3310
 8902SOL    HW227606   4.175   1.273   0.222  0.5471  1.1596  0.0027
 8903SOL     OW27607   6.738   5.085   0.163  0.2976 -0.6509  0.4663
 8903SOL    HW127608   6.771   5.088   0.257  0.4235  0.4455  0.3961
 8903SOL    HW227609   6.646   5.046   0.161 -0.7680  1.6102  1.3820
 8904SOL     OW27610   0.013   6.799   6.709  0.2088  0.2183  0.2476
 8904SOL    HW127611  -0.056   6.769   6.775  0.8777 -1.0293  0.4271
 8904SOL    HW227612   0.034   6.895   6.724 -0.2505  0.1660  1.3299
 8905SOL     OW27613   3.515   1.403   2.831  0.1778 -0.7994 -0.2974
 8905SOL    HW127614   3.537   1.500   2.835 -0.7096 -0.5669 -0.7959
 8905SOL    HW227615   3.537   1.368   2.740  1.7871 -1.4068  0.2898
 8906SOL     OW27616   4.931   5.726   5.099 -0.5693 -0.0019  0.8459
 8906SOL    HW127617   5.005   5.724   5.166 -0.5410 -0.1514  0.8122
 8906SOL    HW227618   4.944   5.652   5.032 -0.6726  0.0583  0.7579
 8907SOL     OW27619   6.890   3.469   5.756 -0.0120 -0.1817  0.2082
 8907SOL    HW127620   6.819   3.458   5.826  0.2480 -1.2816  0.3153
 8907SOL    HW227621   6.977   3.437   5.792  0.2606 -0.1199 -0.3890
 8908SOL     OW27622   0.657   4.794   0.596  0.0044  0.3319 -0.1540
 8908SOL    HW127623   0.714   4.745   0.661 -0.3526 -0.6565 -0.5710
 8908SOL    HW227624   0.562   4.763   0.604 -0.2894  1.1724 -0.2182
 8909SOL     OW27625   6.059   0.584   5.716 -0.6515  0.1962  0.0055
 8909SOL    HW127626   6.151   0.624   5.710 -0.4791 -0.3001 -0.8960
 8909SOL    HW227627   5.999   0.645   5.766  0.1622  0.5523  0.5664
 8910SOL     OW27628   6.905   5.008   2.047 -0.5531 -0.1209  0.5833
 8910SOL    HW127629   6.824   5.054   2.012 -0.6031  0.4393  1.4251
 8910SOL    HW227630   6.879   4.923   2.093 -0.6705  0.1257  0.9683
 8911SOL     OW27631   6.158   4.094   1.553  0.4249  0.0455 -0.4561
 8911SOL    HW127632   6.127   4.160   1.485  0.7456 -0.2222 -0.8735
 8911SOL    HW227633   6.193   4.141   1.633  2.3290  0.4652 -1.4685
 8912SOL     OW27634   5.495   6.588   2.873 -0.7284  0.0506 -0.3732
 8912SOL    HW127635   5.431   6.538   2.815  0.5146 -1.5980 -0.4291
 8912SOL    HW227636   5.450   6.616   2.957 -1.6532 -0.6100 -0.6400
 8913SOL     OW27637   2.085   2.425   2.161  0.1660 -0.2987 -0.3715
 8913SOL    HW127638   2.121   2.518   2.167  1.1915 -0.6913 -0.2192
 8913SOL    HW227639   1.986   2.427   2.172 -0.0006  0.9175 -1.6552
 8914SOL     OW27640   5.031   2.463   1.652 -0.1109 -0.1551 -0.0470
 8914SOL    HW127641   4.969   2.478   1.729 -1.1695  1.6204 -1.1817
 8914SOL    HW227642   5.038   2.547   1.598  0.8173 -1.2683 -1.7413
 8915SOL     OW27643   5.074   2.520   3.233  0.3241  0.2299  0.1692
 8915SOL    HW127644   5.094   2.601   3.288 -0.5806 -0.2322  1.1996
 8915SOL    HW227645   4.984   2.530   3.191 -0.1091 -0.5546  0.8993
 8916SOL     OW27646   5.936   2.733   4.496  0.3358 -0.3368  0.0799
 8916SOL    HW127647   5.856   2.780   4.531  1.8238  1.5114  1.1836
 8916SOL    HW227648   5.908   2.649   4.449 -1.9899 -1.6768  3.5154
 8917SOL     OW27649   2.215   5.900   1.090 -0.5878  0.1358 -0.1414
 8917SOL    HW127650   2.265   5.885   1.004 -0.1340  0.7004  0.0197
 8917SOL    HW227651   2.267   5.963   1.148 -0.4568 -0.9175  0.9216
 8918SOL     OW27652   0.551   2.251   3.850 -0.1837  0.1171 -0.0528
 8918SOL    HW127653   0.632   2.215   3.802  0.1460  1.6406 -0.7050
 8918SOL    HW227654   0.579   2.291   3.937 -0.5378 -1.0812  0.6345
 8919SOL     OW27655   1.285   6.371   1.416 -0.0172 -0.2391  0.6325
 8919SOL    HW127656   1.379   6.345   1.392 -0.3964 -1.4304  0.3786
 8919SOL    HW227657   1.227   6.364   1.335 -0.9392 -2.5436  1.4126
 8920SOL     OW27658   5.032   4.864   1.094  0.0519  0.0862 -0.0896
 8920SOL    HW127659   5.020   4.823   1.004  0.1606  0.9871 -0.5248
 8920SOL    HW227660   4.975   4.815   1.161  1.4917 -1.8760 -0.2283
 8921SOL     OW27661   1.888   0.736   5.769  0.3774 -0.0259 -0.2977
 8921SOL    HW127662   1.981   0.713   5.741  0.0095 -2.0575 -0.0018
 8921SOL    HW227663   1.823   0.672   5.727 -0.8784  1.1669 -0.2702
 8922SOL     OW27664   6.700   2.711   3.924 -0.3781 -0.0853 -0.2136
 8922SOL    HW127665   6.710   2.674   3.831  0.4088  0.2178 -0.2559
 8922SOL    HW227666   6.705   2.636   3.990 -2.9878 -0.6117 -0.4646
 8923SOL     OW27667   6.975   1.940   6.602 -0.1622 -0.9004  0.2848
 8923SOL    HW127668   7.041   1.918   6.530 -1.3384  0.4556 -1.2850
 8923SOL    HW227669   6.928   1.857   6.631  0.7425 -1.5540 -0.0942
 8924SOL     OW27670   6.183   3.081   6.830 -0.2144 -0.2085  0.0870
 8924SOL    HW127671   6.115   3.092   6.758  0.5144 -1.3747 -0.8132
 8924SOL    HW227672   6.194   2.984   6.851  0.4955  0.0333  0.8928
 8925SOL     OW27673   2.630   2.079   3.658 -0.0753 -0.0545 -0.0863
 8925SOL    HW127674   2.646   1.982   3.639 -0.9252  0.0834 -1.6857
 8925SOL    HW227675   2.561   2.088   3.730 -0.6856 -0.6418 -0.5940
 8926SOL     OW27676   6.515   4.672   6.152  0.3627 -0.9736 -0.5630
 8926SOL    HW127677   6.456   4.742   6.193  1.1381  0.1572 -1.3395
 8926SOL    HW227678   6.483   4.653   6.059  0.5108 -1.2430 -0.5598
 8927SOL     OW27679   1.787   4.727   0.868  0.0002  0.5883  0.0959
 8927SOL    HW127680   1.693   4.733   0.834 -0.5880 -2.1714  0.9502
 8927SOL    HW227681   1.850   4.754   0.795 -1.3669 -0.9093 -1.7778
 8928SOL     OW27682   0.507   3.901   1.291 -0.3877 -0.3785  0.2228
 8928SOL    HW127683   0.425   3.923   1.343 -0.1534  1.6631 -0.1606
 8928SOL    HW227684   0.553   3.986   1.265  1.6222 -1.4583  0.0541
 8929SOL     OW27685   0.916   0.242   0.826  0.1571 -0.3143  0.0124
 8929SOL    HW127686   0.953   0.184   0.753 -0.0532  0.2181 -0.5285
 8929SOL    HW227687   0.849   0.190   0.878  0.5653 -0.8122  0.0504
 8930SOL     OW27688   0.632   3.514   2.052  0.3100  0.4041 -0.2106
 8930SOL    HW127689   0.617   3.521   1.953  0.2603 -1.0378 -0.3180
 8930SOL    HW227690   0.635   3.606   2.091 -0.2306  0.9798 -1.4622
 8931SOL     OW27691   6.026   3.717   5.708 -0.0634 -0.1226 -0.0732
 8931SOL    HW127692   6.096   3.789   5.711 -0.7377  0.5128  0.6100
 8931SOL    HW227693   6.016   3.676   5.798 -2.0132  1.2237  0.4003
 8932SOL     OW27694   0.916   0.646   5.464  0.0409  0.3821 -0.6717
 8932SOL    HW127695   0.855   0.570   5.482  0.7305  0.1402  0.7677
 8932SOL    HW227696   0.938   0.649   5.366 -3.3388  1.3335 -1.5577
 8933SOL     OW27697   0.714   1.737   2.513  0.2505  0.1764 -0.9627
 8933SOL    HW127698   0.692   1.831   2.538 -1.4783 -0.7632  1.5709
 8933SOL    HW227699   0.730   1.684   2.597  1.3815 -1.7627 -2.3241
 8934SOL     OW27700   4.642   5.361   2.130 -0.4536  0.2009 -0.4985
 8934SOL    HW127701   4.587   5.399   2.056  1.4016 -0.1269 -2.1217
 8934SOL    HW227702   4.645   5.261   2.121  0.5343  0.2304 -0.5199
 8935SOL     OW27703   6.278   6.903   3.442 -0.4128  0.0172 -0.2067
 8935SOL    HW127704   6.325   6.840   3.503 -3.4460 -0.9610  1.3220
 8935SOL    HW227705   6.321   6.993   3.447  1.5574 -0.9220  0.6293
 8936SOL     OW27706   0.693   6.291   0.275  0.1903 -0.0552  0.5662
 8936SOL    HW127707   0.655   6.383   0.268  0.0309 -0.2023 -0.6527
 8936SOL    HW227708   0.710   6.270   0.371  1.1717  1.6204  0.8037
 8937SOL     OW27709   1.642   3.371   1.552 -0.5892 -0.0011 -0.2145
 8937SOL    HW127710   1.729   3.390   1.507  0.5146 -0.0466  1.7800
 8937SOL    HW227711   1.578   3.330   1.487  0.5220  0.9532 -1.9654
 8938SOL     OW27712   6.802   6.286   5.348  0.1660  0.2520  0.8007
 8938SOL    HW127713   6.894   6.247   5.344  0.8443  1.9090 -2.4467
 8938SOL    HW227714   6.808   6.383   5.369 -0.7562  0.5191 -0.1154
 8939SOL     OW27715   4.862   5.009   5.803  0.0706 -0.5890  0.3036
 8939SOL    HW127716   4.891   4.997   5.897  0.7120  0.3496  0.2293
 8939SOL    HW227717   4.837   4.920   5.765  2.2266 -1.3648  0.5641
 8940SOL     OW27718   6.163   3.145   1.176 -0.1797  0.3888 -0.1453
 8940SOL    HW127719   6.184   3.049   1.197 -0.4114  0.5469  0.8743
 8940SOL    HW227720   6.248   3.198   1.174 -0.0888  0.2381 -0.3169
 8941SOL     OW27721   2.494   3.644   0.944  0.2081  0.3380  0.1179
 8941SOL    HW127722   2.476   3.553   0.981  1.9692 -0.3372 -0.5739
 8941SOL    HW227723   2.424   3.707   0.975 -0.2042 -0.9159  1.8737
 8942SOL     OW27724   2.721   6.193   1.166 -0.1629  0.1166 -0.2192
 8942SOL    HW127725   2.627   6.203   1.197 -0.3296  0.8211 -0.9162
 8942SOL    HW227726   2.778   6.161   1.241 -0.9778 -0.4317  0.1784
 8943SOL     OW27727   0.121   2.694   5.821 -0.0262  0.9058 -0.1794
 8943SOL    HW127728   0.065   2.745   5.887 -0.5859 -1.3765  1.2295
 8943SOL    HW227729   0.066   2.622   5.779  1.6292 -1.0796  0.8610
 8944SOL     OW27730   6.532   3.902   6.302 -0.3478  0.1712 -0.4831
 8944SOL    HW127731   6.478   3.830   6.346 -1.4012  0.6956 -0.8820
 8944SOL    HW227732   6.563   3.967   6.371 -0.1276 -0.1870 -0.2383
 8945SOL     OW27733   5.535   6.665   6.065 -0.0647 -0.3771 -0.0270
 8945SOL    HW127734   5.615   6.642   6.119 -0.4363 -0.3423  0.5465
 8945SOL    HW227735   5.509   6.760   6.080 -1.2246 -0.8448  1.1462
 8946SOL     OW27736   0.094   5.127   0.196  0.1046 -0.1057 -0.6385
 8946SOL    HW127737   0.098   5.227   0.200 -0.1574 -0.0846 -0.9398
 8946SOL    HW227738   0.129   5.095   0.108  0.0508 -0.2727 -0.6002
 8947SOL     OW27739   1.627   1.340   2.420 -0.3071  0.2317  0.2249
 8947SOL    HW127740   1.703   1.368   2.478 -0.6118 -0.3665  0.9294
 8947SOL    HW227741   1.654   1.264   2.362  0.5047  1.8677 -1.6497
 8948SOL     OW27742   4.838   3.801   3.059 -0.2707 -0.0724  0.4862
 8948SOL    HW127743   4.853   3.759   3.148  2.5396 -1.5586 -0.5601
 8948SOL    HW227744   4.899   3.759   2.992 -0.9923  2.2488 -1.7722
 8949SOL     OW27745   5.038   5.897   3.748  0.1565  0.0179 -0.5352
 8949SOL    HW127746   4.967   5.831   3.726  0.6579 -0.5237 -0.5621
 8949SOL    HW227747   5.033   5.921   3.845  1.4963 -1.9585  0.0811
 8950SOL     OW27748   4.855   1.337   2.316  0.8622 -0.0745  0.0183
 8950SOL    HW127749   4.881   1.292   2.230 -0.1179 -2.5422  0.9086
 8950SOL    HW227750   4.768   1.384   2.303  1.9414  1.7416 -0.9612
 8951SOL     OW27751   5.480   5.292   3.100 -0.4475  0.1171 -0.3802
 8951SOL    HW127752   5.389   5.332   3.083 -0.3011  1.2186  1.2274
 8951SOL    HW227753   5.535   5.297   3.017 -0.7878  2.4026 -0.5228
 8952SOL     OW27754   0.433   1.538   6.162 -0.0481 -0.0817  0.0583
 8952SOL    HW127755   0.460   1.553   6.067 -1.8979  0.2871 -0.4461
 8952SOL    HW227756   0.445   1.442   6.186  0.8657 -0.0845 -0.3976
 8953SOL     OW27757   1.783   1.738   0.377 -0.2030  0.3971 -0.4551
 8953SOL    HW127758   1.753   1.807   0.311 -2.7739 -0.0696  0.1304
 8953SOL    HW227759   1.728   1.655   0.367 -0.6369  0.2691  2.1544
 8954SOL     OW27760   6.123   2.219   0.091 -0.5619 -0.0316 -0.5193
 8954SOL    HW127761   6.217   2.205   0.059 -0.6727  0.6287 -1.1532
 8954SOL    HW227762   6.072   2.133   0.085  0.4323 -0.8204  1.3634
 8955SOL     OW27763   4.336   0.262   5.201  0.2185  0.0462  0.2403
 8955SOL    HW127764   4.242   0.267   5.168  0.7038  3.7366 -0.9621
 8955SOL    HW227765   4.344   0.315   5.285  1.2467 -0.2245  0.3194
 8956SOL     OW27766   1.448   5.384   6.134  0.3548  0.1219 -0.0822
 8956SOL    HW127767   1.435   5.300   6.080 -0.9122  0.2973 -0.0966
 8956SOL    HW227768   1.382   5.385   6.209  0.5912  0.9482  0.1226
 8957SOL     OW27769   0.992   6.675   1.955  0.9082 -0.2672  0.5256
 8957SOL    HW127770   0.921   6.740   1.982  1.0767  0.0103  0.3145
 8957SOL    HW227771   0.965   6.582   1.980 -0.4224 -0.4149 -1.2768
 8958SOL     OW27772   6.670   3.629   3.919  0.5122 -0.4180 -0.0065
 8958SOL    HW127773   6.610   3.707   3.935 -0.3931 -1.1760  0.3725
 8958SOL    HW227774   6.765   3.656   3.934  0.2417  0.6933 -0.2188
 8959SOL     OW27775   1.975   2.624   0.710  0.3217  0.2868  0.3936
 8959SOL    HW127776   1.986   2.617   0.611 -1.4865  1.9400 -0.0025
 8959SOL    HW227777   1.974   2.533   0.750  1.4614 -0.4008 -1.0398
 8960SOL     OW27778   0.861   5.946   2.859  0.4592  0.1853 -0.5356
 8960SOL    HW127779   0.946   5.967   2.810  1.3118 -0.0025  0.8284
 8960SOL    HW227780   0.823   5.860   2.824  1.1809 -0.0746 -0.6983
 8961SOL     OW27781   3.954   6.785   5.527 -0.2722 -0.5985  0.4407
 8961SOL    HW127782   3.970   6.753   5.620 -0.5718  0.4568  0.8687
 8961SOL    HW227783   3.974   6.882   5.522  0.4197 -0.7853 -0.7794
 8962SOL     OW27784   5.642   3.335   4.475 -0.2273  0.1575  0.8895
 8962SOL    HW127785   5.735   3.359   4.503 -0.7312  1.0196  1.8760
 8962SOL    HW227786   5.646   3.272   4.397  1.2283 -2.2427  2.7558
 8963SOL     OW27787   1.856   6.513   6.702  0.0580 -0.9020 -0.2056
 8963SOL    HW127788   1.829   6.497   6.797 -1.4753 -0.4934 -0.5411
 8963SOL    HW227789   1.776   6.544   6.650  1.0519 -0.3832 -1.4566
 8964SOL     OW27790   3.994   6.623   1.847 -0.2711 -0.2431 -0.9043
 8964SOL    HW127791   3.964   6.718   1.843  1.7560  0.5164  0.3920
 8964SOL    HW227792   4.029   6.595   1.758  1.6252  1.1532 -0.6464
 8965SOL     OW27793   4.967   3.143   4.245  0.4013 -0.1403  0.1033
 8965SOL    HW127794   5.043   3.166   4.305 -0.1021  1.6129  0.1302
 8965SOL    HW227795   4.912   3.071   4.287  1.5223 -0.7994  0.4929
 8966SOL     OW27796   3.716   4.981   4.346  0.3393  0.3105  0.0846
 8966SOL    HW127797   3.797   5.013   4.297  0.9273 -1.5495 -0.2501
 8966SOL    HW227798   3.745   4.926   4.425 -0.5508 -1.2522 -0.6339
 8967SOL     OW27799   3.363   2.000   2.517  0.1786  0.0362 -0.0591
 8967SOL    HW127800   3.291   1.931   2.518 -0.8825  1.0819 -0.9419
 8967SOL    HW227801   3.394   2.015   2.423  1.0855  0.0802  0.2360
 8968SOL     OW27802   5.531   2.120   0.145  0.1387  0.0164 -0.2128
 8968SOL    HW127803   5.573   2.151   0.231  2.6756 -2.2006 -0.5207
 8968SOL    HW227804   5.499   2.026   0.156  1.7449 -0.8024 -1.9991
 8969SOL     OW27805   3.184   3.541   6.769  0.1144 -0.0699 -1.0513
 8969SOL    HW127806   3.146   3.632   6.784  0.7602  0.1525 -0.7462
 8969SOL    HW227807   3.270   3.531   6.819 -0.6747 -1.3594  0.1365
 8970SOL     OW27808   5.366   1.886   6.981 -0.3193 -0.2327 -0.2199
 8970SOL    HW127809   5.307   1.950   7.030  0.4229  1.6708 -1.6965
 8970SOL    HW227810   5.371   1.800   7.031 -1.8309  0.6370  1.5285
 8971SOL     OW27811   5.390   3.203   0.909  0.3094  0.7018  0.4457
 8971SOL    HW127812   5.453   3.230   0.982  2.2653  1.0180 -1.2586
 8971SOL    HW227813   5.316   3.149   0.948  2.6354 -1.3747  2.3953
 8972SOL     OW27814   0.202   4.601   6.182 -0.1359  0.4860  0.2011
 8972SOL    HW127815   0.271   4.547   6.134 -0.4971 -0.4167  0.6661
 8972SOL    HW227816   0.122   4.613   6.124  0.5945  2.0002 -0.5460
 8973SOL     OW27817   1.502   4.842   0.901  0.4743  0.2195  0.1311
 8973SOL    HW127818   1.522   4.846   0.999  2.5174 -1.2871 -0.1534
 8973SOL    HW227819   1.424   4.901   0.880 -0.0225  0.5646  2.6478
 8974SOL     OW27820   1.745   4.214   3.608 -0.1286  0.6907  0.2584
 8974SOL    HW127821   1.791   4.266   3.536 -0.3246  0.4925 -0.0103
 8974SOL    HW227822   1.723   4.275   3.684 -0.9822  1.1557 -0.3439
 8975SOL     OW27823   3.369   1.496   0.316  0.0453  0.1244 -0.1388
 8975SOL    HW127824   3.394   1.593   0.326  1.0870  0.2087 -2.8417
 8975SOL    HW227825   3.443   1.439   0.349 -0.1184  0.2462  0.4527
 8976SOL     OW27826   0.775   4.933   2.995  0.2706  0.2595 -0.4642
 8976SOL    HW127827   0.823   5.011   2.954 -0.8090  1.2149  0.0359
 8976SOL    HW227828   0.687   4.920   2.949 -0.6261  0.8748  1.0338
 8977SOL     OW27829   1.177   1.646   1.154 -0.3062 -0.2827 -0.1072
 8977SOL    HW127830   1.133   1.621   1.068 -0.6242  0.4954 -0.1821
 8977SOL    HW227831   1.164   1.572   1.221 -0.1562 -0.8403 -0.6845
 8978SOL     OW27832   5.052   2.718   4.799  0.2667 -0.0696  0.4754
 8978SOL    HW127833   4.965   2.671   4.811  1.1946 -1.2109  3.5994
 8978SOL    HW227834   5.040   2.816   4.816 -0.1670 -0.4542  2.6725
 8979SOL     OW27835   4.613   6.176   2.337 -0.1249 -0.6566 -0.1718
 8979SOL    HW127836   4.597   6.274   2.321 -0.3697 -0.5674  0.6175
 8979SOL    HW227837   4.706   6.154   2.308 -0.7458 -0.6452 -2.3268
 8980SOL     OW27838   4.266   2.276   4.875 -0.6862 -0.0115 -0.0775
 8980SOL    HW127839   4.360   2.263   4.904 -1.6758 -2.7197  2.3632
 8980SOL    HW227840   4.212   2.315   4.950 -2.1622 -1.6732 -0.2044
 8981SOL     OW27841   5.642   5.155   1.789 -0.6144  0.5358  0.1584
 8981SOL    HW127842   5.730   5.190   1.757 -0.2925  1.6340  2.0824
 8981SOL    HW227843   5.657   5.068   1.836 -0.8072 -0.0610 -0.8495
 8982SOL     OW27844   5.473   1.942   2.343 -0.3092 -0.2190  0.1646
 8982SOL    HW127845   5.561   1.917   2.383  0.6704  0.4493 -1.4870
 8982SOL    HW227846   5.401   1.887   2.386  1.1102 -2.0462  0.3608
 8983SOL     OW27847   6.291   3.772   6.907 -0.9390 -0.2286 -0.3642
 8983SOL    HW127848   6.230   3.695   6.888 -0.9373  0.1333 -1.9739
 8983SOL    HW227849   6.386   3.744   6.894 -0.9306 -0.0008 -0.8197
 8984SOL     OW27850   0.023   0.903   4.850 -0.6828 -0.0497 -0.1721
 8984SOL    HW127851   0.092   0.905   4.923 -1.0807 -2.8749  0.4070
 8984SOL    HW227852   0.068   0.914   4.761  0.0307  1.6177  0.3626
 8985SOL     OW27853   5.445   4.618   3.738 -0.5779  0.0474  0.3048
 8985SOL    HW127854   5.391   4.701   3.723 -0.0759  0.2808 -0.2394
 8985SOL    HW227855   5.541   4.636   3.715 -0.0754 -0.0887  2.1545
 8986SOL     OW27856   5.469   3.399   6.594 -0.2917  0.7460  0.8251
 8986SOL    HW127857   5.566   3.423   6.596  0.2742 -1.0784 -1.1489
 8986SOL    HW227858   5.424   3.450   6.521 -0.5075  0.5584  0.8292
 8987SOL     OW27859   3.638   4.818   6.242  0.2704  0.0616  0.3895
 8987SOL    HW127860   3.607   4.749   6.176  0.6671  0.0687  0.1926
 8987SOL    HW227861   3.736   4.835   6.229 -0.0876  1.6749 -0.5230
 8988SOL     OW27862   3.898   5.112   0.456  0.1568  0.5283 -0.3440
 8988SOL    HW127863   3.996   5.124   0.470  0.2322  0.4428 -0.7921
 8988SOL    HW227864   3.859   5.061   0.533  0.7860 -1.0565 -1.0376
 8989SOL     OW27865   3.500   4.502   1.637  0.7754 -0.2960 -0.0280
 8989SOL    HW127866   3.409   4.543   1.628  1.4173  0.7912 -1.8121
 8989SOL    HW227867   3.557   4.559   1.696  0.6706 -0.3556  0.1323
 8990SOL     OW27868   0.378   5.637   1.118  0.1976 -0.4063 -0.5900
 8990SOL    HW127869   0.355   5.593   1.205 -2.0238  2.0152  0.2010
 8990SOL    HW227870   0.459   5.695   1.131  0.3561 -0.6761 -0.3549
 8991SOL     OW27871   3.449   5.425   5.599  0.0589  0.4756 -0.6113
 8991SOL    HW127872   3.526   5.450   5.540  1.2509  3.2705  1.8433
 8991SOL    HW227873   3.366   5.471   5.567  0.4591  1.1154 -0.7671
 8992SOL     OW27874   5.708   2.972   0.544 -0.0524 -0.2688 -0.0237
 8992SOL    HW127875   5.609   2.988   0.536  0.1178  0.7350 -0.3350
 8992SOL    HW227876   5.745   3.034   0.614  0.1724 -1.5152  0.9928
 8993SOL     OW27877   5.854   6.346   5.354 -0.0971 -0.3009  0.0193
 8993SOL    HW127878   5.883   6.363   5.448  1.1312 -1.8354 -0.0469
 8993SOL    HW227879   5.805   6.259   5.350  2.9758 -2.1434 -1.2469
 8994SOL     OW27880   3.641   5.701   2.925 -0.2972  0.4700  0.5692
 8994SOL    HW127881   3.549   5.670   2.902  0.5379 -2.0735  0.2911
 8994SOL    HW227882   3.654   5.699   3.024  0.3074 -2.1944  0.5191
 8995SOL     OW27883   0.039   4.517   5.716 -0.1213 -0.2548 -0.3197
 8995SOL    HW127884   0.111   4.468   5.667  0.1216  0.1227 -0.3451
 8995SOL    HW227885   0.015   4.467   5.799  1.7390  0.7287  0.8702
 8996SOL     OW27886   5.222   1.180   3.658 -0.7989  0.0919  0.0609
 8996SOL    HW127887   5.216   1.248   3.732 -0.2763 -1.4695  1.6071
 8996SOL    HW227888   5.315   1.177   3.623 -0.7567 -0.0071  0.1800
 8997SOL     OW27889   6.269   2.500   5.578 -0.4722 -0.0126  0.3540
 8997SOL    HW127890   6.239   2.529   5.669  0.6009  0.4797  0.5632
 8997SOL    HW227891   6.189   2.469   5.526 -1.3961  1.4130  0.8235
 8998SOL     OW27892   0.366   5.448   1.621  0.6494  0.0052  0.2923
 8998SOL    HW127893   0.327   5.410   1.537  2.4389 -1.2822  0.0025
 8998SOL    HW227894   0.319   5.408   1.700  0.5686 -0.6046 -0.0567
 8999SOL     OW27895   3.180   0.533   1.116  0.0882  0.2751  0.0050
 8999SOL    HW127896   3.258   0.595   1.116  1.5041 -1.4204  0.8295
 8999SOL    HW227897   3.187   0.470   1.194 -0.4854 -1.8892 -1.5870
 9000SOL     OW27898   2.100   6.836   1.968 -0.1414 -0.2452  0.8991
 9000SOL    HW127899   2.161   6.879   1.901  0.5895 -0.7661  1.2082
 9000SOL    HW227900   2.119   6.738   1.971 -2.1026 -0.7046 -0.1400
 9001SOL     OW27901   5.176   6.318   4.252 -0.2826  0.0011  0.6580
 9001SOL    HW127902   5.208   6.411   4.234 -0.0078 -0.1468  0.3752
 9001SOL    HW227903   5.076   6.316   4.247 -0.4208  0.6846  2.6182
 9002SOL     OW27904   3.755   5.433   0.447  0.2416  0.8135 -0.4893
 9002SOL    HW127905   3.784   5.367   0.516  1.1622  0.2661 -1.3707
 9002SOL    HW227906   3.836   5.470   0.401 -0.2612  2.4923 -0.0822
 9003SOL     OW27907   6.162   5.749   0.895 -0.6572 -0.2003 -0.3058
 9003SOL    HW127908   6.193   5.805   0.818  0.9893 -1.2335 -0.4366
 9003SOL    HW227909   6.067   5.722   0.880 -0.9852  1.2169 -0.9990
 9004SOL     OW27910   0.734   1.256   1.124  0.2276  0.3901  0.2661
 9004SOL    HW127911   0.823   1.240   1.082 -0.8222 -1.3167 -1.4924
 9004SOL    HW227912   0.693   1.168   1.150 -1.6634  0.9511 -0.6285
 9005SOL     OW27913   0.566   4.836   2.866 -0.4049  0.2800  0.0764
 9005SOL    HW127914   0.482   4.891   2.856 -1.0332 -0.3301  1.6155
 9005SOL    HW227915   0.542   4.739   2.868  0.0832  0.1415  2.1443
 9006SOL     OW27916   6.621   1.870   4.308  0.0849 -0.2053 -0.2424
 9006SOL    HW127917   6.714   1.874   4.343  0.2092 -0.3352 -0.5538
 9006SOL    HW227918   6.581   1.962   4.307  0.6348  0.0404 -1.2298
 9007SOL     OW27919   5.217   6.671   2.646 -0.1044  0.3472  0.2097
 9007SOL    HW127920   5.297   6.615   2.667  0.2499  0.9613  0.5438
 9007SOL    HW227921   5.228   6.713   2.556 -0.9950 -1.1848 -0.6573
 9008SOL     OW27922   6.092   3.078   2.270  0.4682 -0.4802  0.1509
 9008SOL    HW127923   6.024   3.118   2.209 -0.2915 -1.9894 -0.0568
 9008SOL    HW227924   6.182   3.082   2.227  0.8501  2.7355  0.9768
 9009SOL     OW27925   5.645   2.747   2.542  0.1124  0.2919 -0.2136
 9009SOL    HW127926   5.629   2.821   2.477 -1.3518  0.8247  0.6987
 9009SOL    HW227927   5.599   2.664   2.511 -2.4106  1.0909  1.0521
 9010SOL     OW27928   2.886   6.000   1.774 -0.2349 -0.4934 -0.2029
 9010SOL    HW127929   2.821   5.964   1.707 -0.4899  0.8984 -0.7377
 9010SOL    HW227930   2.841   6.069   1.830  0.3284 -0.7483  0.5856
 9011SOL     OW27931   1.920   1.482   0.860  0.0720  0.1992 -0.0475
 9011SOL    HW127932   1.939   1.489   0.762 -1.7037 -0.0038 -0.4525
 9011SOL    HW227933   1.848   1.414   0.874  1.0834 -0.5896  1.5289
 9012SOL     OW27934   5.745   2.660   4.889  0.2363 -0.0063  0.2538
 9012SOL    HW127935   5.649   2.646   4.864  0.6575 -1.7452 -0.5015
 9012SOL    HW227936   5.804   2.605   4.830  1.7912  1.6037  0.1895
 9013SOL     OW27937   2.437   1.752   5.210 -0.0815  0.2817 -0.4242
 9013SOL    HW127938   2.436   1.852   5.212 -1.8345  0.2944  0.0931
 9013SOL    HW227939   2.470   1.718   5.298 -1.2210  0.4350  0.0791
 9014SOL     OW27940   5.583   4.098   4.646 -0.0113  0.3687  0.6941
 9014SOL    HW127941   5.556   4.012   4.602 -0.8075  0.5946  0.7379
 9014SOL    HW227942   5.570   4.090   4.745  2.8476 -0.5528  1.1101
 9015SOL     OW27943   3.940   6.789   0.702 -0.1253 -0.5236  0.2426
 9015SOL    HW127944   4.037   6.767   0.699 -0.1647 -0.5484 -1.1009
 9015SOL    HW227945   3.887   6.704   0.696 -0.2361 -0.4510  0.1927
 9016SOL     OW27946   0.598   4.313   4.913  0.1085 -0.0946  0.2027
 9016SOL    HW127947   0.554   4.400   4.891 -0.5664 -0.6995 -0.9224
 9016SOL    HW227948   0.697   4.321   4.899  0.3798  1.1577  2.3714
 9017SOL     OW27949   3.139   5.652   5.705 -0.1598  0.2203 -0.0798
 9017SOL    HW127950   3.061   5.714   5.710  0.6932  1.3448 -0.2825
 9017SOL    HW227951   3.133   5.599   5.620 -0.3673  0.7643 -0.4132
 9018SOL     OW27952   1.109   6.823   3.495  0.5829  0.1455  0.0996
 9018SOL    HW127953   1.179   6.871   3.547  0.1192  1.3144 -0.3338
 9018SOL    HW227954   1.123   6.838   3.397  0.5713 -0.8042 -0.0597
 9019SOL     OW27955   1.364   3.593   3.010 -0.1219 -0.0774 -0.3223
 9019SOL    HW127956   1.426   3.601   3.088 -0.3035 -1.7632  0.0383
 9019SOL    HW227957   1.283   3.650   3.026 -0.4393 -0.8565  1.0391
 9020SOL     OW27958   2.000   4.122   1.634 -0.4562 -0.1814 -0.2401
 9020SOL    HW127959   2.005   4.030   1.672  0.8372  0.2021  0.5418
 9020SOL    HW227960   1.993   4.116   1.534  1.2563 -1.1175 -0.3330
 9021SOL     OW27961   1.620   6.764   0.015  0.2940  0.7108 -0.1198
 9021SOL    HW127962   1.683   6.694  -0.018 -0.4653  0.2919 -0.7023
 9021SOL    HW227963   1.584   6.737   0.104 -0.2011  0.2257 -0.4641
 9022SOL     OW27964   2.410   0.831   5.023  0.4168  0.4527 -0.1801
 9022SOL    HW127965   2.369   0.841   4.933  0.1340  0.3388 -0.0649
 9022SOL    HW227966   2.507   0.809   5.013  0.0503 -1.1656 -0.4949
 9023SOL     OW27967   0.309   4.635   0.984 -0.1100  0.0357  0.1763
 9023SOL    HW127968   0.221   4.614   0.941  1.7695 -2.5919 -2.9132
 9023SOL    HW227969   0.319   4.580   1.067 -1.3667  0.4671  0.6483
 9024SOL     OW27970   3.598   5.965   3.116  0.3951  0.5628  0.0001
 9024SOL    HW127971   3.672   6.023   3.081  0.5134 -0.0701 -0.8346
 9024SOL    HW227972   3.523   5.963   3.050 -0.0674  0.6316  0.5181
 9025SOL     OW27973   3.946   6.920   0.259  0.1215 -0.0196 -0.0643
 9025SOL    HW127974   3.947   6.827   0.224  1.6307 -0.5583  1.3178
 9025SOL    HW227975   3.861   6.937   0.308  0.6493 -1.3701  1.3942
 9026SOL     OW27976   1.405   2.863   4.290 -0.0105 -0.4746 -0.1942
 9026SOL    HW127977   1.469   2.929   4.327 -0.3987 -0.3746  0.3195
 9026SOL    HW227978   1.387   2.883   4.194  3.0664 -2.3174 -1.2835
 9027SOL     OW27979   5.821   6.257   4.662 -0.3341 -0.1841  0.7763
 9027SOL    HW127980   5.832   6.356   4.654  0.9134 -0.4110 -0.6785
 9027SOL    HW227981   5.749   6.237   4.728 -0.4130  1.6818  1.3054
 9028SOL     OW27982   3.737   1.465   1.384 -0.5756 -0.3363  0.0056
 9028SOL    HW127983   3.651   1.415   1.400 -0.2786 -0.9916 -0.4031
 9028SOL    HW227984   3.812   1.400   1.378 -0.3240  0.0514 -1.5692
 9029SOL     OW27985   3.071   6.304   5.812  0.0804 -0.1168 -0.3827
 9029SOL    HW127986   2.974   6.291   5.833  0.0526 -1.8691 -1.3329
 9029SOL    HW227987   3.088   6.399   5.788 -1.2934  0.3317  0.3487
 9030SOL     OW27988   6.941   4.067   4.802  0.3341 -0.1251  0.0435
 9030SOL    HW127989   6.999   4.053   4.721  0.3362  0.0006  0.0237
 9030SOL    HW227990   6.846   4.077   4.773  0.3586  0.1043  0.0426
 9031SOL     OW27991   2.004   1.807   5.381 -0.8991 -0.3850  0.1593
 9031SOL    HW127992   2.079   1.852   5.430  0.1885 -0.1488 -1.6175
 9031SOL    HW227993   1.966   1.734   5.438  0.9100 -0.7277  1.0125
 9032SOL     OW27994   4.600   4.389   4.683 -0.0265  0.5725  0.3983
 9032SOL    HW127995   4.607   4.341   4.771  1.4863  0.1779  0.0838
 9032SOL    HW227996   4.691   4.415   4.652 -0.3771 -0.5638 -1.7617
 9033SOL     OW27997   0.657   5.586   3.894 -0.0184 -0.0487 -1.0710
 9033SOL    HW127998   0.695   5.675   3.921 -2.3278  0.4571  0.9257
 9033SOL    HW227999   0.707   5.551   3.815  1.7143  2.4623 -1.2247
 9034SOL     OW28000   5.082   2.624   2.868 -0.4492  0.1474  0.0763
 9034SOL    HW128001   5.044   2.575   2.947 -1.3831  0.9621  0.1627
 9034SOL    HW228002   5.006   2.660   2.813  0.1803 -0.6589 -1.3714
 9035SOL     OW28003   2.314   3.337   6.303 -0.7534  0.2261  0.1668
 9035SOL    HW128004   2.370   3.257   6.279  1.3612  1.1278  1.7605
 9035SOL    HW228005   2.358   3.387   6.378 -3.2553  1.5794  0.8356
 9036SOL     OW28006   6.922   1.227   0.373  0.4168 -0.1760  0.2195
 9036SOL    HW128007   6.898   1.130   0.364  0.7301 -0.0687 -3.0849
 9036SOL    HW228008   6.843   1.283   0.345  1.5980  0.3437 -2.3629
 9037SOL     OW28009   5.166   1.156   3.962 -0.2771 -0.2401  0.3462
 9037SOL    HW128010   5.096   1.092   3.930  0.9765 -2.1503  1.2047
 9037SOL    HW228011   5.161   1.241   3.910 -4.4412  0.5263  1.5933
 9038SOL     OW28012   3.976   4.208   1.689  0.0465  0.4982 -0.3013
 9038SOL    HW128013   3.887   4.248   1.706  0.1607  1.6462 -2.1283
 9038SOL    HW228014   3.976   4.163   1.599  1.3076  0.5736 -0.3639
 9039SOL     OW28015   5.036   1.350   5.615  0.2576 -0.7730 -0.1163
 9039SOL    HW128016   5.005   1.256   5.597 -0.2445 -1.1180  2.1273
 9039SOL    HW228017   5.116   1.347   5.676  0.1225  0.2400  0.1275
 9040SOL     OW28018   4.245   6.953   4.449 -0.2499 -0.0702 -0.0849
 9040SOL    HW128019   4.258   6.881   4.518 -1.2956  0.0710  0.2832
 9040SOL    HW228020   4.332   6.970   4.402 -0.2530 -2.5243 -1.1426
 9041SOL     OW28021   1.511   4.669   5.235  0.8045 -0.1921  0.2022
 9041SOL    HW128022   1.511   4.724   5.319  0.6019 -0.2101  0.2156
 9041SOL    HW228023   1.529   4.573   5.258  2.8872  0.0944  0.0118
 9042SOL     OW28024   6.396   4.954   2.624  0.1082 -0.1920  0.1100
 9042SOL    HW128025   6.389   4.925   2.528 -0.8984  0.0851  0.0880
 9042SOL    HW228026   6.490   4.983   2.643  0.3567 -0.3963 -0.7484
 9043SOL     OW28027   6.231   6.919   2.595  0.3328 -0.4559  0.6025
 9043SOL    HW128028   6.173   6.966   2.662  0.8077 -0.0788  0.7533
 9043SOL    HW228029   6.209   6.821   2.595 -1.0077 -0.1738 -0.0656
 9044SOL     OW28030   3.525   1.065   3.576 -0.2710  0.2705 -0.4066
 9044SOL    HW128031   3.447   1.060   3.639  1.0100  0.2053  1.2356
 9044SOL    HW228032   3.571   1.153   3.587  1.6829 -0.8391  0.9493
 9045SOL     OW28033   5.231   6.438   6.273  0.2780  0.1254 -0.2004
 9045SOL    HW128034   5.152   6.445   6.211 -0.7315 -0.3434  0.9781
 9045SOL    HW228035   5.261   6.530   6.298 -0.8344  0.3297  0.4668
 9046SOL     OW28036   6.702   1.719   5.618 -0.5014  0.4727 -0.2189
 9046SOL    HW128037   6.742   1.630   5.594 -0.5644  0.3904 -0.0253
 9046SOL    HW228038   6.736   1.789   5.556 -0.5436  0.2903 -0.4499
 9047SOL     OW28039   5.953   5.576   2.214  0.0769 -0.6670  0.0802
 9047SOL    HW128040   5.926   5.485   2.182  2.1614 -0.9063 -1.1781
 9047SOL    HW228041   5.969   5.636   2.135  0.2273  0.3259  0.8465
 9048SOL     OW28042   5.146   1.498   4.097  0.0396  0.1825  0.2199
 9048SOL    HW128043   5.099   1.439   4.030  1.0949 -0.1103 -0.2802
 9048SOL    HW228044   5.156   1.590   4.059 -1.8810  0.8327  1.1195
 9049SOL     OW28045   4.006   2.900   1.766 -0.2839 -0.1360 -0.0155
 9049SOL    HW128046   4.046   2.814   1.734  0.1375  0.0986 -0.1337
 9049SOL    HW228047   3.964   2.948   1.690  0.3462  0.2220 -0.1473
 9050SOL     OW28048   5.843   3.821   6.550  0.1491 -0.2758  0.1166
 9050SOL    HW128049   5.920   3.877   6.580  0.3514 -0.7197  0.4346
 9050SOL    HW228050   5.876   3.733   6.516 -0.1784 -0.2608 -0.2502
 9051SOL     OW28051   4.613   3.190   0.316 -0.6550 -0.0067 -0.7192
 9051SOL    HW128052   4.587   3.103   0.359 -2.3905  1.5318  1.5997
 9051SOL    HW228053   4.534   3.229   0.269 -0.6632  1.4831  0.4621
 9052SOL     OW28054   1.580   6.856   5.953 -0.0654  0.3893 -0.7160
 9052SOL    HW128055   1.526   6.914   5.893 -1.1849  0.4178  0.2921
 9052SOL    HW228056   1.641   6.798   5.898  0.7980  2.2117 -1.7624
 9053SOL     OW28057   3.179   3.925   6.176  0.2946  0.1682 -0.2367
 9053SOL    HW128058   3.248   3.927   6.248  1.0761 -1.4721 -0.8768
 9053SOL    HW228059   3.099   3.875   6.208 -0.0344  0.8762  0.0460
 9054SOL     OW28060   0.896   0.119   1.495 -0.1604 -0.5701  0.9027
 9054SOL    HW128061   0.870   0.025   1.516  1.7183 -0.8579  2.1107
 9054SOL    HW228062   0.843   0.182   1.552 -1.6327 -0.8293 -0.1153
 9055SOL     OW28063   4.336   1.093   0.441  0.6552 -0.4419 -1.0515
 9055SOL    HW128064   4.426   1.091   0.396 -1.0682 -1.8435 -4.8465
 9055SOL    HW228065   4.301   1.000   0.449 -1.2007  0.2012 -1.3141
 9056SOL     OW28066   2.024   4.542   3.771 -0.4651  0.5003 -0.0572
 9056SOL    HW128067   2.068   4.605   3.708  2.0753 -0.9620  0.1136
 9056SOL    HW228068   1.999   4.590   3.855  1.0627  1.4035 -0.0759
 9057SOL     OW28069   3.996   2.156   0.087 -0.5544 -0.4271  0.3354
 9057SOL    HW128070   3.972   2.062   0.112 -1.2774 -0.5428 -0.7099
 9057SOL    HW228071   4.094   2.162   0.069 -0.5420 -1.0418  0.1916
 9058SOL     OW28072   1.997   3.340   2.894 -0.4445 -0.2176  0.1272
 9058SOL    HW128073   1.903   3.346   2.858 -0.6695  0.3209  0.7716
 9058SOL    HW228074   2.015   3.420   2.951  0.9419  0.4909 -1.2269
 9059SOL     OW28075   3.788   6.886   3.561 -0.3894  0.1786  0.1085
 9059SOL    HW128076   3.864   6.928   3.610 -0.0009  0.2244 -0.5187
 9059SOL    HW228077   3.726   6.957   3.528 -0.0314  0.2335 -0.4642
 9060SOL     OW28078   2.564   4.811   3.597 -0.0899 -0.5534  0.8103
 9060SOL    HW128079   2.506   4.765   3.529  0.2015  1.6421 -1.0624
 9060SOL    HW228080   2.511   4.825   3.681 -1.5409 -0.6373 -0.0422
 9061SOL     OW28081   2.290   2.371   3.215 -0.3332 -0.1160 -0.0762
 9061SOL    HW128082   2.253   2.459   3.188 -1.4186 -0.7644 -0.7961
 9061SOL    HW228083   2.374   2.352   3.165 -1.1612 -0.3425 -1.4212
 9062SOL     OW28084   6.809   3.204   0.237  0.1440 -0.3357 -0.7432
 9062SOL    HW128085   6.748   3.259   0.179  1.1521  1.6158 -0.0398
 9062SOL    HW228086   6.760   3.173   0.318  0.3484  2.3879  0.5171
 9063SOL     OW28087   2.414   2.454   4.638 -0.1473  0.4127 -0.6827
 9063SOL    HW128088   2.431   2.504   4.553 -0.5987  0.5507 -0.6939
 9063SOL    HW228089   2.361   2.372   4.618  1.7476 -0.8184 -0.8549
 9064SOL     OW28090   6.332   5.509   6.608 -0.4522 -0.0741 -0.2353
 9064SOL    HW128091   6.330   5.550   6.699  0.5983 -1.6696  0.5629
 9064SOL    HW228092   6.413   5.451   6.599 -0.2755  0.4047 -2.3773
 9065SOL     OW28093   6.281   1.467   1.441 -0.5518  0.2460 -0.5972
 9065SOL    HW128094   6.335   1.416   1.374 -0.9996  0.3352 -1.0330
 9065SOL    HW228095   6.184   1.455   1.421 -0.6813  0.4902 -0.1195
 9066SOL     OW28096   3.880   4.808   5.241  0.4338 -0.0658 -0.1723
 9066SOL    HW128097   3.978   4.794   5.257  0.4914 -2.3901 -2.0370
 9066SOL    HW228098   3.868   4.876   5.168  0.6030  0.6911  0.4882
 9067SOL     OW28099   6.431   1.326   1.266 -0.9455  0.1428 -0.2806
 9067SOL    HW128100   6.488   1.245   1.279  0.3726  1.1714  0.5654
 9067SOL    HW228101   6.439   1.357   1.171  0.7805  0.8753  0.0663
 9068SOL     OW28102   4.211   1.347   5.382 -0.3653 -0.0958  0.4536
 9068SOL    HW128103   4.143   1.295   5.330 -0.1244  0.0692 -0.0263
 9068SOL    HW228104   4.301   1.306   5.370 -0.2036  0.3291  0.2167
 9069SOL     OW28105   0.290   6.770   6.142  0.3295 -0.2800 -0.3891
 9069SOL    HW128106   0.241   6.844   6.096  0.2448  0.0707  0.2420
 9069SOL    HW228107   0.241   6.745   6.225  0.2973 -1.1322 -0.6593
 9070SOL     OW28108   3.798   1.780   2.660  0.3449 -0.2558 -0.2582
 9070SOL    HW128109   3.809   1.843   2.737 -0.2766 -2.1616  1.5085
 9070SOL    HW228110   3.881   1.778   2.606  1.0692  0.6450  0.7788
 9071SOL     OW28111   2.323   0.949   6.546  0.4909 -0.4914 -0.5029
 9071SOL    HW128112   2.251   0.882   6.528 -0.4111  1.0075 -2.8038
 9071SOL    HW228113   2.394   0.942   6.476  1.1110  0.0242  0.0587
 9072SOL     OW28114   3.903   0.668   5.251 -0.6056  0.2591  0.1564
 9072SOL    HW128115   3.804   0.672   5.258 -0.4667  2.5147  1.8763
 9072SOL    HW228116   3.942   0.758   5.269  1.7403 -0.3137 -1.4713
 9073SOL     OW28117   6.449   4.043   4.789  0.0960 -0.0893  0.0889
 9073SOL    HW128118   6.372   3.992   4.826 -0.5291  0.5087 -0.3784
 9073SOL    HW228119   6.477   4.114   4.853 -0.3192  0.2727 -0.1284
 9074SOL     OW28120   6.450   4.400   1.515 -0.2214  0.2139 -0.3327
 9074SOL    HW128121   6.424   4.467   1.585 -1.6106  0.3570 -0.9563
 9074SOL    HW228122   6.427   4.308   1.547 -1.9138  0.3607 -1.0030
 9075SOL     OW28123   4.926   1.103   5.533 -0.5214  1.1633  0.1493
 9075SOL    HW128124   4.935   1.017   5.583  2.8938  2.0121  1.2276
 9075SOL    HW228125   4.955   1.089   5.438  1.4024  1.3528  0.6743
 9076SOL     OW28126   6.461   4.726   4.406  0.1749 -0.0444  0.1534
 9076SOL    HW128127   6.432   4.802   4.347 -0.4441 -0.7872 -0.5159
 9076SOL    HW228128   6.391   4.655   4.405  0.3932 -0.2985  1.3943
 9077SOL     OW28129   6.081   3.847   6.020  0.3357  0.3656  0.2564
 9077SOL    HW128130   6.043   3.755   6.015 -1.6391  1.0576  1.2154
 9077SOL    HW228131   6.080   3.878   6.116 -1.0591  2.1282 -0.2673
 9078SOL     OW28132   3.076   3.103   5.601  0.3601  0.1699  0.7214
 9078SOL    HW128133   2.987   3.086   5.643  0.4159 -1.9586  0.1075
 9078SOL    HW228134   3.137   3.026   5.620  3.3630  3.0147  4.1348
 9079SOL     OW28135   0.247   0.644   0.169 -0.1548 -0.0999 -0.0675
 9079SOL    HW128136   0.274   0.732   0.129  0.4570  0.2413  1.0569
 9079SOL    HW228137   0.238   0.654   0.268  0.5802 -1.4703  0.1547
 9080SOL     OW28138   0.786   4.229   5.445  0.0673 -0.2001 -0.0988
 9080SOL    HW128139   0.728   4.254   5.367 -1.0230 -2.5770 -0.1332
 9080SOL    HW228140   0.858   4.298   5.456 -0.9079  1.2227 -1.9773
 9081SOL     OW28141   3.376   5.196   4.782 -0.0606 -0.3047 -0.0226
 9081SOL    HW128142   3.403   5.136   4.858  1.9371 -0.6601 -0.9623
 9081SOL    HW228143   3.423   5.168   4.699 -1.0387  1.0357 -1.0663
 9082SOL     OW28144   1.255   5.622   0.161  0.1692 -0.3878  0.1560
 9082SOL    HW128145   1.283   5.527   0.145 -0.6962 -0.8941  1.5158
 9082SOL    HW228146   1.219   5.631   0.254 -1.7442  0.7918 -0.6474
 9083SOL     OW28147   3.443   6.167   6.954 -0.3649  0.8479 -0.1538
 9083SOL    HW128148   3.435   6.267   6.949 -2.6576  1.0242  3.5161
 9083SOL    HW228149   3.385   6.133   7.027  1.6037 -3.0887 -0.1910
 9084SOL     OW28150   4.053   5.421   4.781  0.8371  0.3153  0.7496
 9084SOL    HW128151   4.030   5.489   4.713  1.4156  0.0762  0.3026
 9084SOL    HW228152   4.016   5.332   4.754  0.8702  0.2644  0.8675
 9085SOL     OW28153   2.811   5.610   4.604 -0.6621 -0.3763 -0.4602
 9085SOL    HW128154   2.858   5.545   4.545  1.1871  0.4405  0.0225
 9085SOL    HW228155   2.874   5.684   4.629 -2.3520  1.0138 -0.0856
 9086SOL     OW28156   3.682   3.256   4.199  0.0720 -0.5887  0.1156
 9086SOL    HW128157   3.611   3.239   4.131 -2.0646  1.0307  1.7979
 9086SOL    HW228158   3.653   3.220   4.288  0.5641  1.5391  1.2110
 9087SOL     OW28159   2.456   0.108   0.962 -0.2741  0.4371 -0.3060
 9087SOL    HW128160   2.443   0.155   0.874  1.2229 -1.1531 -1.4715
 9087SOL    HW228161   2.369   0.070   0.993 -0.7116  0.4769 -1.4373
 9088SOL     OW28162   4.709   2.860   3.934  0.0189 -0.1148  0.2252
 9088SOL    HW128163   4.692   2.881   4.030  1.2741  0.6331  0.3129
 9088SOL    HW228164   4.792   2.804   3.927  0.9510  1.2824 -0.4946
 9089SOL     OW28165   5.821   6.152   4.081 -0.5315 -0.0805 -0.1737
 9089SOL    HW128166   5.792   6.191   4.168  0.8464 -0.1768  0.3605
 9089SOL    HW228167   5.852   6.226   4.020 -0.3966 -0.1170 -0.1484
 9090SOL     OW28168   5.678   4.654   2.242  0.1362  0.0039 -0.3306
 9090SOL    HW128169   5.630   4.703   2.315  0.5469  0.1387 -0.1484
 9090SOL    HW228170   5.745   4.592   2.282  0.9959  0.7397 -0.6221
 9091SOL     OW28171   4.612   2.226   6.594  0.2885  0.2023 -0.4648
 9091SOL    HW128172   4.674   2.161   6.550  0.0478  0.9149 -1.8823
 9091SOL    HW228173   4.656   2.316   6.599  0.3979  0.0916  0.9773
 9092SOL     OW28174   6.151   5.035   0.473  0.3163 -0.4260 -0.7412
 9092SOL    HW128175   6.250   5.050   0.480  0.2400 -0.4693  0.7370
 9092SOL    HW228176   6.125   4.958   0.531 -0.7877  0.4880  0.0138
 9093SOL     OW28177   2.715   5.190   3.902  0.4315 -0.4208  0.0738
 9093SOL    HW128178   2.634   5.136   3.882  0.4672 -1.2805  1.9944
 9093SOL    HW228179   2.761   5.153   3.983  1.7384  1.1319  0.1067
 9094SOL     OW28180   0.493   2.229   2.741  0.2446 -0.8738 -0.6888
 9094SOL    HW128181   0.507   2.177   2.825 -0.7037  0.8488  0.6048
 9094SOL    HW228182   0.401   2.213   2.705 -0.1374  0.0459 -0.1529
 9095SOL     OW28183   1.644   0.871   2.007  0.6954 -0.1453 -0.3409
 9095SOL    HW128184   1.565   0.817   1.978 -0.5420  1.9162 -1.0537
 9095SOL    HW228185   1.663   0.854   2.103 -1.1918 -0.0484  0.0857
 9096SOL     OW28186   5.284   0.048   1.349 -0.7766  0.4520 -0.0642
 9096SOL    HW128187   5.350   0.096   1.406  0.7015 -0.7131 -0.7172
 9096SOL    HW228188   5.275  -0.047   1.380 -2.6474  0.7409  0.3939
 9097SOL     OW28189   5.890   2.143   6.473  0.7247  0.1485 -0.4347
 9097SOL    HW128190   5.803   2.187   6.451  0.4581  0.0021  0.3167
 9097SOL    HW228191   5.959   2.213   6.489  0.1320  0.3409  1.4730
 9098SOL     OW28192   1.926   6.910   2.795 -0.6541 -1.0617 -0.1121
 9098SOL    HW128193   1.927   6.850   2.715  2.4168 -1.3942  0.0696
 9098SOL    HW228194   2.008   6.894   2.850 -1.7536  0.4914  2.1277
 9099SOL     OW28195   3.561   1.312   5.675 -0.5146 -0.0634 -0.0724
 9099SOL    HW128196   3.525   1.236   5.621  0.0233 -1.4333  1.4365
 9099SOL    HW228197   3.486   1.359   5.722 -0.7344 -0.3497 -0.1381
 9100SOL     OW28198   6.072   1.369   3.500  0.6329  0.0495 -0.2101
 9100SOL    HW128199   6.144   1.379   3.431  0.7807 -1.0689 -0.2415
 9100SOL    HW228200   6.001   1.438   3.485  0.1725 -0.7706 -2.1112
 9101SOL     OW28201   1.095   1.043   5.956  0.8450  0.0301 -0.0844
 9101SOL    HW128202   1.025   0.972   5.966  1.1949 -0.1471  1.3811
 9101SOL    HW228203   1.160   1.017   5.885  0.7884 -0.9908  0.2247
 9102SOL     OW28204   3.675   5.502   5.414 -0.0460 -0.0749  0.5434
 9102SOL    HW128205   3.691   5.595   5.448 -1.6182  0.2478  0.4843
 9102SOL    HW228206   3.741   5.440   5.456 -0.0997  0.7826  1.9651
 9103SOL     OW28207   0.655   3.075   4.013  0.2038 -0.1860 -0.1580
 9103SOL    HW128208   0.715   3.026   4.076  1.6061  0.1396 -1.1896
 9103SOL    HW228209   0.560   3.056   4.036  0.6476 -3.6019 -0.6189
 9104SOL     OW28210   2.949   6.793   3.040  0.0368  0.2226  0.4196
 9104SOL    HW128211   2.944   6.770   2.943 -2.3466 -0.9732  0.7558
 9104SOL    HW228212   3.033   6.755   3.079  1.2693  1.1521 -1.2499
 9105SOL     OW28213   2.059   3.242   6.102  0.1794 -0.0295 -0.0155
 9105SOL    HW128214   2.089   3.329   6.142  0.1159  0.4831 -1.0585
 9105SOL    HW228215   2.088   3.238   6.007  0.5728 -1.3557  0.1426
 9106SOL     OW28216   0.417   2.913   3.218  0.7009 -0.3742 -0.1214
 9106SOL    HW128217   0.452   2.930   3.126 -0.7388 -1.5613 -0.9300
 9106SOL    HW228218   0.357   2.989   3.245  1.9982  0.5247  0.3301
 9107SOL     OW28219   4.051   2.236   5.222 -0.5452 -0.8668  0.0415
 9107SOL    HW128220   4.099   2.291   5.153 -0.8229 -0.1323  0.4250
 9107SOL    HW228221   4.076   2.268   5.313 -1.6491 -0.5592  0.2520
 9108SOL     OW28222   4.145   5.035   5.301 -0.6814 -0.0971 -0.6405
 9108SOL    HW128223   4.059   5.075   5.332 -0.7587 -1.4970  1.1257
 9108SOL    HW228224   4.161   4.949   5.349  2.6432  1.0157  0.5664
 9109SOL     OW28225   6.643   4.274   5.690 -0.0312 -0.6586  0.2902
 9109SOL    HW128226   6.698   4.240   5.766  0.5801 -0.1232  0.0884
 9109SOL    HW228227   6.546   4.253   5.707  0.0999 -0.5436  1.2071
 9110SOL     OW28228   4.560   0.730   2.125 -0.1910  0.6870 -0.1483
 9110SOL    HW128229   4.623   0.690   2.059  0.3377 -0.7798  1.1793
 9110SOL    HW228230   4.590   0.822   2.149  2.2663 -0.4040  1.3769
 9111SOL     OW28231   4.789   6.719   4.966 -0.3744 -0.3595 -0.1510
 9111SOL    HW128232   4.751   6.784   4.900  2.5388 -0.1005 -1.7542
 9111SOL    HW228233   4.779   6.755   5.058 -0.5038  1.5187 -0.8542
 9112SOL     OW28234   0.185   5.040   5.097 -0.4989  0.2200 -0.2544
 9112SOL    HW128235   0.168   4.989   5.181  1.6970 -1.5375 -0.7845
 9112SOL    HW228236   0.130   5.001   5.023  2.5435 -2.9575 -1.1162
 9113SOL     OW28237   1.125   5.098   0.406 -0.3109 -0.6984 -0.2154
 9113SOL    HW128238   1.178   5.014   0.402  0.5298 -0.2962  1.6544
 9113SOL    HW228239   1.063   5.096   0.485 -1.9266 -0.4561 -1.4147
 9114SOL     OW28240   5.354   5.844   4.583  0.0129  0.2786 -0.2883
 9114SOL    HW128241   5.356   5.827   4.484  1.1769  1.7246 -0.5502
 9114SOL    HW228242   5.339   5.758   4.632 -0.3771 -0.4903 -1.7026
 9115SOL     OW28243   5.680   1.090   6.110  0.2862 -0.0725  0.0093
 9115SOL    HW128244   5.676   1.090   6.010 -2.6451  0.5984  0.0473
 9115SOL    HW228245   5.643   1.176   6.144  0.0272 -0.8311  1.7059
 9116SOL     OW28246   3.101   4.986   6.055 -0.0765  1.0082  0.0020
 9116SOL    HW128247   3.112   5.085   6.069 -0.1100  0.7855  1.8472
 9116SOL    HW228248   3.029   4.970   5.988  0.2893  2.2408 -0.7236
 9117SOL     OW28249   1.857   3.312   6.868  0.0548  0.0684  0.6217
 9117SOL    HW128250   1.898   3.402   6.878 -1.0301  0.5549  0.7932
 9117SOL    HW228251   1.784   3.316   6.799  1.2663 -1.1282 -0.8217
 9118SOL     OW28252   0.234   5.993   3.919 -0.4938  0.9354 -0.1951
 9118SOL    HW128253   0.319   5.953   3.952 -0.5033  0.9767 -0.1214
 9118SOL    HW228254   0.245   6.019   3.823 -1.0247 -0.8284 -0.7620
 9119SOL     OW28255   0.155   5.237   4.724 -0.6988  0.0367  0.4138
 9119SOL    HW128256   0.128   5.142   4.733 -1.1521  0.2659  1.5702
 9119SOL    HW228257   0.073   5.294   4.712 -0.4265  0.2792 -0.3470
 9120SOL     OW28258   6.905   0.030   1.368  0.1917 -0.0720 -0.2241
 9120SOL    HW128259   6.961   0.047   1.449 -0.1847  0.1981 -0.0155
 9120SOL    HW228260   6.811   0.059   1.386 -0.7313 -3.1340  0.4384
 9121SOL     OW28261   5.698   1.634   4.856  0.3388 -0.2892 -0.0593
 9121SOL    HW128262   5.737   1.690   4.783  0.4468 -1.1065 -0.6498
 9121SOL    HW228263   5.715   1.537   4.836  3.3753 -0.5010  2.6776
 9122SOL     OW28264   2.291   4.545   3.446 -0.4214  0.0481 -0.3032
 9122SOL    HW128265   2.340   4.495   3.518 -2.7891 -1.1515  0.6105
 9122SOL    HW228266   2.246   4.625   3.486 -0.8101  0.0252 -0.6874
 9123SOL     OW28267   0.181   5.524   0.669  0.5546 -0.0416 -0.1982
 9123SOL    HW128268   0.093   5.483   0.693  0.4749 -0.8368 -1.7229
 9123SOL    HW228269   0.181   5.621   0.695 -0.2789 -0.3319  0.9679
 9124SOL     OW28270   0.354   3.609   5.657  0.0648  0.1175  0.2755
 9124SOL    HW128271   0.298   3.659   5.591 -0.0162 -1.0508 -0.5767
 9124SOL    HW228272   0.394   3.673   5.722 -2.0783  1.0255  0.8014
 9125SOL     OW28273   2.232   4.249   5.170 -0.7135  0.0250 -0.0057
 9125SOL    HW128274   2.298   4.179   5.198 -0.0037  1.0496  0.9524
 9125SOL    HW228275   2.279   4.323   5.122 -1.5140 -0.3075 -1.3397
 9126SOL     OW28276   2.720   5.542   1.826  0.1467  0.5153  0.2759
 9126SOL    HW128277   2.677   5.609   1.886  2.5975  2.1171  0.3972
 9126SOL    HW228278   2.669   5.537   1.740 -2.6549 -0.8538  1.8634
 9127SOL     OW28279   1.083   5.302   5.038  0.0053  0.9366 -0.4746
 9127SOL    HW128280   1.092   5.399   5.057 -0.6961  0.9830 -0.3255
 9127SOL    HW228281   1.093   5.286   4.940  4.5910  0.5775 -0.1660
 9128SOL     OW28282   4.310   5.301   1.421 -0.2301  0.7886  0.4678
 9128SOL    HW128283   4.333   5.231   1.488 -0.6427  1.2426  1.0950
 9128SOL    HW228284   4.394   5.335   1.378 -0.0510 -0.3568 -0.1405
 9129SOL     OW28285   1.970   5.722   6.606  0.3207  0.0838 -0.7354
 9129SOL    HW128286   2.064   5.756   6.608  0.0999  0.6923 -0.0054
 9129SOL    HW228287   1.961   5.652   6.535  0.9677  1.0556 -1.8245
 9130SOL     OW28288   6.513   2.569   2.312  0.3369  0.2256  0.0028
 9130SOL    HW128289   6.548   2.478   2.331 -0.3111 -0.4202 -1.7021
 9130SOL    HW228290   6.515   2.586   2.213  0.2960  2.0071  0.2655
 9131SOL     OW28291   1.465   3.542   4.246  0.0668 -0.3597  0.7373
 9131SOL    HW128292   1.419   3.496   4.170  0.0636  0.5872  0.1532
 9131SOL    HW228293   1.564   3.534   4.234  0.1906  2.4521 -1.1449
 9132SOL     OW28294   6.691   5.222   6.873 -0.3760 -0.2593  0.3088
 9132SOL    HW128295   6.710   5.169   6.956  0.2048 -0.1960  0.2188
 9132SOL    HW228296   6.767   5.212   6.809 -1.1361 -0.8618 -0.5088
 9133SOL     OW28297   5.727   6.702   4.256 -0.0470 -0.2495 -0.3963
 9133SOL    HW128298   5.746   6.607   4.282 -0.9927 -0.3730 -0.1227
 9133SOL    HW228299   5.634   6.726   4.283  0.6669  1.2465  0.9460
 9134SOL     OW28300   2.143   2.241   3.381 -0.9675  0.2455  0.1516
 9134SOL    HW128301   2.192   2.293   3.311  0.3131  0.4443  1.1598
 9134SOL    HW228302   2.139   2.294   3.465 -0.6789 -0.8009  0.8491
 9135SOL     OW28303   0.401   3.323   3.156 -0.2416 -0.2119  0.2674
 9135SOL    HW128304   0.350   3.330   3.070 -0.8785  1.8479  0.7532
 9135SOL    HW228305   0.350   3.266   3.220 -1.1021  0.3950  0.1519
 9136SOL     OW28306   2.331   4.325   3.308 -0.1738  1.1315 -0.2265
 9136SOL    HW128307   2.312   4.420   3.336 -0.5771  2.1194 -3.4735
 9136SOL    HW228308   2.292   4.263   3.376 -2.6567  3.2740  0.5052
 9137SOL     OW28309   4.731   5.762   6.900  0.0158 -0.3784 -0.0148
 9137SOL    HW128310   4.768   5.753   6.808 -0.0101 -3.9680  0.1869
 9137SOL    HW228311   4.639   5.802   6.895  0.3929  0.3784 -1.4098
 9138SOL     OW28312   5.149   1.392   0.236  0.3702 -0.0465 -0.0197
 9138SOL    HW128313   5.129   1.397   0.334 -1.2530  0.5126 -0.3540
 9138SOL    HW228314   5.187   1.301   0.214  0.0903 -0.4194  1.0031
 9139SOL     OW28315   5.922   1.581   3.409 -0.4707 -0.0158 -0.6556
 9139SOL    HW128316   5.989   1.651   3.436 -0.5072 -0.4493  0.5909
 9139SOL    HW228317   5.882   1.607   3.321  0.3047  0.9728 -0.7431
 9140SOL     OW28318   0.962   5.062   0.653 -0.0978 -0.2501 -0.3030
 9140SOL    HW128319   0.865   5.087   0.657 -0.1834 -0.5848 -0.2547
 9140SOL    HW228320   1.004   5.075   0.742  0.1460  0.8502 -0.5607
 9141SOL     OW28321   4.653   0.374   0.359  0.3137 -0.2217 -0.1281
 9141SOL    HW128322   4.664   0.277   0.336  1.0595 -0.8372  2.4030
 9141SOL    HW228323   4.722   0.399   0.427 -2.0329  1.1145  1.9009
 9142SOL     OW28324   0.918   6.552   1.440 -0.0046  0.3711 -0.3317
 9142SOL    HW128325   0.967   6.601   1.512  0.0697  0.6096 -0.5431
 9142SOL    HW228326   0.932   6.454   1.450  1.3667  0.4800 -1.0023
 9143SOL     OW28327   5.314   4.103   5.001 -0.2552  0.2340  0.1747
 9143SOL    HW128328   5.384   4.051   4.953 -1.2057 -2.2455  1.3340
 9143SOL    HW228329   5.249   4.141   4.935  1.2020  1.1886 -0.7841
 9144SOL     OW28330   2.664   1.317   5.537  0.0224 -0.3116  0.0934
 9144SOL    HW128331   2.647   1.248   5.468 -0.5144 -2.9610  2.6711
 9144SOL    HW228332   2.578   1.354   5.570  0.3141  1.9780 -1.5130
 9145SOL     OW28333   6.696   3.954   4.691  0.2531  0.0671  0.0919
 9145SOL    HW128334   6.697   3.932   4.593  2.6193  2.3940 -0.5011
 9145SOL    HW228335   6.604   3.982   4.718 -0.1454  0.7508 -1.8199
 9146SOL     OW28336   4.959   6.273   6.430 -0.1432  0.0235 -0.0872
 9146SOL    HW128337   4.950   6.372   6.444  0.8647  0.1921 -0.5361
 9146SOL    HW228338   4.896   6.243   6.358 -1.0103  0.1925  0.5846
 9147SOL     OW28339   3.084   0.610   4.182 -0.2777  0.4590  0.3913
 9147SOL    HW128340   3.100   0.556   4.265 -0.3789  0.7209  0.5855
 9147SOL    HW228341   3.044   0.552   4.111 -0.9210  0.4033  0.7881
 9148SOL     OW28342   2.650   5.917   4.613  0.1600  0.1464  0.0316
 9148SOL    HW128343   2.596   5.833   4.612  0.0828  0.1677 -2.0175
 9148SOL    HW228344   2.589   5.995   4.599  0.5444  0.2818 -0.9389
 9149SOL     OW28345   4.046   1.281   5.170  0.6648  0.0139 -0.7791
 9149SOL    HW128346   3.997   1.242   5.248  2.0000 -0.4997 -0.1558
 9149SOL    HW228347   3.982   1.332   5.112 -0.6040 -0.7420 -0.0941
 9150SOL     OW28348   5.314   2.756   5.179 -0.9721  0.2600  0.3633
 9150SOL    HW128349   5.231   2.805   5.152 -1.5421 -0.2735  1.1119
 9150SOL    HW228350   5.340   2.783   5.272  0.2040  1.0760 -0.1692
 9151SOL     OW28351   0.808   4.873   1.006 -0.4618  0.0003  0.1848
 9151SOL    HW128352   0.855   4.845   0.922 -1.5495  0.4698 -0.6050
 9151SOL    HW228353   0.713   4.843   1.003 -1.2829  2.3870 -0.0412
 9152SOL     OW28354   4.058   1.871   4.906 -0.2593  0.0494  0.0485
 9152SOL    HW128355   4.070   1.772   4.916 -0.8758  0.0111  0.4941
 9152SOL    HW228356   4.128   1.908   4.845 -0.0641 -0.6723 -0.1665
 9153SOL     OW28357   3.068   1.532   0.394  0.3087 -0.5648 -0.2009
 9153SOL    HW128358   3.022   1.447   0.417 -0.2426 -0.9925 -2.6343
 9153SOL    HW228359   3.158   1.512   0.354  0.7216  0.0590  0.3899
 9154SOL     OW28360   1.472   2.595   3.247 -0.0198  0.2283  0.2609
 9154SOL    HW128361   1.453   2.590   3.345  1.7734 -1.5211  0.5790
 9154SOL    HW228362   1.551   2.538   3.226 -0.4760  0.4404 -2.2578
 9155SOL     OW28363   3.082   1.761   1.535 -0.1742  0.3446  0.4970
 9155SOL    HW128364   3.003   1.808   1.497 -1.5749 -0.1222  2.6132
 9155SOL    HW228365   3.106   1.683   1.478  0.0771  1.6542 -1.2507
 9156SOL     OW28366   1.328   0.479   3.976 -0.1292  0.4168  0.1250
 9156SOL    HW128367   1.355   0.573   3.955  1.3373  0.3276  1.4324
 9156SOL    HW228368   1.409   0.421   3.980 -0.9922 -0.8637 -0.3715
 9157SOL     OW28369   4.209   2.346   0.104 -0.2051 -0.6039  0.0364
 9157SOL    HW128370   4.110   2.339   0.116 -0.1829 -1.1083 -0.0705
 9157SOL    HW228371   4.230   2.370   0.010 -0.2793  0.9537  0.3919
 9158SOL     OW28372   6.526   4.044   0.196 -1.1822 -0.1183  0.0963
 9158SOL    HW128373   6.560   4.098   0.119 -1.3172 -0.1369  0.0223
 9158SOL    HW228374   6.555   3.948   0.185  1.7255  0.4471  1.7926
 9159SOL     OW28375   2.256   6.702   0.093  0.2471  0.2430 -0.0123
 9159SOL    HW128376   2.169   6.658   0.072  0.7415 -0.6516 -0.2386
 9159SOL    HW228377   2.329   6.659   0.041  1.3440 -1.2104  2.5154
 9160SOL     OW28378   4.762   2.986   1.011  0.1680  0.3663 -0.1581
 9160SOL    HW128379   4.793   2.959   0.920  1.2565  0.3446  0.2119
 9160SOL    HW228380   4.831   2.963   1.079 -1.2371 -0.9668  0.9024
 9161SOL     OW28381   5.688   1.203   1.149  0.3673 -0.0787 -0.2442
 9161SOL    HW128382   5.589   1.207   1.162  0.2331 -0.2248 -1.2122
 9161SOL    HW228383   5.709   1.196   1.052  1.2637 -2.1204  0.0549
 9162SOL     OW28384   6.428   3.430   1.085 -0.0838 -0.2855  0.6924
 9162SOL    HW128385   6.522   3.435   1.052 -0.2624  1.0264  0.3113
 9162SOL    HW228386   6.419   3.484   1.169 -0.1781 -1.6357  1.5856
 9163SOL     OW28387   4.109   2.042   6.840 -0.5212  0.2680 -0.3014
 9163SOL    HW128388   4.182   2.049   6.772 -1.3238 -0.1066 -1.2317
 9163SOL    HW228389   4.139   1.983   6.915  0.5470  1.0577 -0.0975
 9164SOL     OW28390   6.519   4.639   6.704  0.7714  0.5183  0.2918
 9164SOL    HW128391   6.580   4.642   6.783 -0.3587 -0.6661  1.2595
 9164SOL    HW228392   6.489   4.545   6.688 -2.0854  1.2113  0.9245
 9165SOL     OW28393   4.023   5.061   1.537 -0.6713  0.0748 -0.0061
 9165SOL    HW128394   4.067   4.971   1.538  1.6430  1.1055 -0.9146
 9165SOL    HW228395   3.928   5.052   1.507  0.1207 -1.8667 -2.2219
 9166SOL     OW28396   6.887   6.615   2.757 -0.4474  0.6157 -0.0159
 9166SOL    HW128397   6.803   6.588   2.805 -0.8865  1.1604 -0.4718
 9166SOL    HW228398   6.930   6.691   2.805 -0.3991  0.5652  0.0212
 9167SOL     OW28399   1.494   2.851   3.153 -0.0053  0.1232  0.1224
 9167SOL    HW128400   1.469   2.774   3.211 -0.1701  0.3456  0.3430
 9167SOL    HW228401   1.415   2.880   3.099  0.1636 -0.1244 -0.2614
 9168SOL     OW28402   3.601   1.748   2.477  0.2463 -0.1545 -0.2368
 9168SOL    HW128403   3.525   1.773   2.537  1.4295  0.8094  0.9054
 9168SOL    HW228404   3.674   1.706   2.530  0.5127 -1.1458 -1.3314
 9169SOL     OW28405   5.375   1.503   0.375 -0.0952  0.6685  0.9185
 9169SOL    HW128406   5.420   1.431   0.429  0.1486  0.7786  0.8649
 9169SOL    HW228407   5.322   1.461   0.302  1.3438  0.5766 -0.1193
 9170SOL     OW28408   6.529   0.619   5.816  0.1818 -0.3331  0.0435
 9170SOL    HW128409   6.516   0.544   5.880  0.8657 -0.4664  0.0332
 9170SOL    HW228410   6.537   0.583   5.723 -1.0609 -0.1229 -0.1676
 9171SOL     OW28411   3.412   6.759   5.990  0.4310  0.1829 -0.4680
 9171SOL    HW128412   3.420   6.663   6.017  1.1562  0.0592 -1.0646
 9171SOL    HW228413   3.376   6.765   5.897  1.7585  0.4064 -0.9952
 9172SOL     OW28414   2.478   6.785   6.016 -0.0939  0.0598 -1.2266
 9172SOL    HW128415   2.405   6.850   6.036  0.3600  0.5029 -1.0212
 9172SOL    HW228416   2.443   6.715   5.953 -0.9060 -0.1462 -0.5613
 9173SOL     OW28417   4.540   1.803   1.640 -0.1620 -0.5974  0.4479
 9173SOL    HW128418   4.639   1.802   1.626 -0.4009  0.3736 -1.7149
 9173SOL    HW228419   4.506   1.896   1.625 -1.7479 -1.4847 -1.8320
 9174SOL     OW28420   6.631   3.141   3.287 -0.0833 -0.2068  0.1366
 9174SOL    HW128421   6.546   3.167   3.240 -0.3683  0.3371  0.9398
 9174SOL    HW228422   6.709   3.157   3.227 -0.3787  1.1511  0.0869
 9175SOL     OW28423   6.516   4.749   5.584 -0.1853 -0.0599  0.1205
 9175SOL    HW128424   6.457   4.805   5.642  0.1997  1.2306 -0.6783
 9175SOL    HW228425   6.605   4.794   5.573  0.7914 -1.7035  0.8650
 9176SOL     OW28426   3.183   2.700   6.580 -0.7579 -0.2714 -0.1960
 9176SOL    HW128427   3.169   2.799   6.574 -0.8497 -0.2997 -0.4759
 9176SOL    HW228428   3.162   2.668   6.672  0.3611  0.1483  0.2176
 9177SOL     OW28429   1.674   5.764   0.626 -0.3720  0.4411  0.0070
 9177SOL    HW128430   1.772   5.742   0.632 -0.6738 -0.8044  0.5733
 9177SOL    HW228431   1.660   5.861   0.648  0.4122 -0.0327  2.9492
 9178SOL     OW28432   5.417   0.642   0.124 -0.1287 -0.4825 -0.2679
 9178SOL    HW128433   5.346   0.572   0.133  0.5963 -1.2165 -0.0727
 9178SOL    HW228434   5.474   0.643   0.206 -0.0286  0.2357 -0.3377
 9179SOL     OW28435   4.042   1.327   3.201 -0.1271 -0.6464  1.0112
 9179SOL    HW128436   4.134   1.339   3.238  0.2424 -0.7300  0.1293
 9179SOL    HW228437   3.975   1.363   3.266  0.6695  1.9618  0.4984
 9180SOL     OW28438   5.147   0.133   5.694  0.1383  0.0478 -0.4064
 9180SOL    HW128439   5.227   0.110   5.638  0.1117 -3.7863  0.7745
 9180SOL    HW228440   5.070   0.076   5.666 -1.1402  1.1691  0.7308
 9181SOL     OW28441   5.924   0.551   1.135 -0.1019  0.0403  0.4072
 9181SOL    HW128442   5.919   0.592   1.226 -0.7321 -1.8994  1.3036
 9181SOL    HW228443   5.882   0.460   1.137 -1.7938  0.6634 -2.2726
 9182SOL     OW28444   2.321   2.073   2.986  0.7890 -0.2728  0.0818
 9182SOL    HW128445   2.224   2.054   2.999  1.0520  0.1936  3.6032
 9182SOL    HW228446   2.333   2.165   2.948 -0.1060 -0.5943 -1.0396
 9183SOL     OW28447   6.854   4.054   6.632 -0.7315  0.2608  0.0246
 9183SOL    HW128448   6.852   4.153   6.617  1.6671  0.7269  2.0979
 9183SOL    HW228449   6.887   4.008   6.549  0.4521  1.4807 -0.2227
 9184SOL     OW28450   6.647   1.781   3.205 -1.1122 -0.3945  0.1533
 9184SOL    HW128451   6.680   1.869   3.170 -0.8809 -1.1269 -1.5611
 9184SOL    HW228452   6.708   1.749   3.278 -0.2789  0.1181 -0.2990
 9185SOL     OW28453   1.528   5.452   3.067 -0.3330 -0.2131 -0.2049
 9185SOL    HW128454   1.498   5.375   3.123 -0.2286  0.2445  0.4978
 9185SOL    HW228455   1.507   5.538   3.114 -0.1669  0.1823 -0.8338
 9186SOL     OW28456   1.201   1.302   0.106  0.4372 -0.2655  0.4999
 9186SOL    HW128457   1.146   1.268   0.030  0.0671 -0.7342  0.9678
 9186SOL    HW228458   1.244   1.388   0.080  0.9111 -0.7861 -0.4938
 9187SOL     OW28459   1.811   0.724   6.562  0.7219  0.6225  0.0150
 9187SOL    HW128460   1.768   0.668   6.491 -0.6848  1.6623 -0.0013
 9187SOL    HW228461   1.751   0.800   6.585  2.8864  2.6352 -0.5413
 9188SOL     OW28462   3.216   2.957   2.976 -0.3984  0.7279  0.1548
 9188SOL    HW128463   3.216   2.916   2.885  2.2758  0.4867  0.1796
 9188SOL    HW228464   3.254   3.049   2.971 -0.5727  0.8533  0.9836
 9189SOL     OW28465   3.802   0.296   3.611 -0.4687 -0.1568 -0.3435
 9189SOL    HW128466   3.725   0.245   3.572  0.2583  0.0912 -2.2352
 9189SOL    HW228467   3.880   0.235   3.624 -0.5105 -0.1059  0.1760
 9190SOL     OW28468   6.062   4.512   4.961  0.3716 -0.4491  0.5013
 9190SOL    HW128469   5.999   4.502   5.037 -1.2891  2.9151 -0.2316
 9190SOL    HW228470   6.065   4.427   4.908  0.7854 -2.5253  3.5835
 9191SOL     OW28471   1.104   1.648   3.467  0.5730  0.0225 -0.3496
 9191SOL    HW128472   1.064   1.739   3.466 -0.8392 -0.5418  0.7464
 9191SOL    HW228473   1.116   1.618   3.562  0.4512 -1.1549 -0.6904
 9192SOL     OW28474   0.186   6.403   6.777  0.3631  0.0644 -0.7534
 9192SOL    HW128475   0.255   6.337   6.807 -1.3807 -1.7393 -0.4636
 9192SOL    HW228476   0.139   6.441   6.856 -1.3851 -1.4972 -0.9811
 9193SOL     OW28477   0.639   0.519   0.842  0.2683 -0.1772 -0.1123
 9193SOL    HW128478   0.626   0.442   0.779  0.2329 -1.4236  1.3659
 9193SOL    HW228479   0.616   0.605   0.795  0.0067 -1.0770 -1.7000
 9194SOL     OW28480   5.858   6.037   3.290 -0.0315  0.2997 -0.4842
 9194SOL    HW128481   5.810   6.112   3.243 -0.1470  1.4904  1.4353
 9194SOL    HW228482   5.802   5.954   3.284 -1.1394  1.0155 -0.4773
 9195SOL     OW28483   3.769   1.201   3.204  0.3761 -0.6753 -0.3880
 9195SOL    HW128484   3.866   1.223   3.207  0.5027 -1.3582  1.7070
 9195SOL    HW228485   3.744   1.143   3.281 -2.0796  1.0672  0.2687
 9196SOL     OW28486   1.427   4.569   3.884 -0.2789 -0.3232 -0.3181
 9196SOL    HW128487   1.449   4.616   3.970 -2.3702 -2.3348  1.4842
 9196SOL    HW228488   1.466   4.477   3.886 -0.3490 -0.3902 -1.5549
 9197SOL     OW28489   0.019   3.385   3.351 -0.0133 -0.1006  0.5662
 9197SOL    HW128490  -0.075   3.398   3.383  0.5278  2.4620  1.3197
 9197SOL    HW228491   0.025   3.407   3.254  0.0954  1.3727  0.8933
 9198SOL     OW28492   3.050   6.661   5.131  0.4041 -0.3789 -0.1551
 9198SOL    HW128493   3.130   6.718   5.115 -0.1953  0.5914  0.2484
 9198SOL    HW228494   3.074   6.565   5.115  1.3744 -0.0130 -1.0091
 9199SOL     OW28495   4.738   1.998   0.174 -0.4762  0.4255 -0.7205
 9199SOL    HW128496   4.768   2.075   0.231  3.6564  0.1221 -2.1027
 9199SOL    HW228497   4.816   1.964   0.122 -1.8869 -5.0966  0.1352
 9200SOL     OW28498   2.127   4.492   1.298  0.4068 -0.1932 -0.1195
 9200SOL    HW128499   2.069   4.511   1.376  0.4923 -1.0916  0.1782
 9200SOL    HW228500   2.216   4.458   1.329  0.9140  0.6587 -0.5821
 9201SOL     OW28501   0.512   2.243   1.188  0.2490 -0.4422 -0.4034
 9201SOL    HW128502   0.568   2.249   1.105 -0.7867  0.2959 -1.0792
 9201SOL    HW228503   0.427   2.193   1.167 -0.5337  0.7230 -0.1013
 9202SOL     OW28504   1.146   3.714   6.119  0.1945  0.4069 -0.3391
 9202SOL    HW128505   1.191   3.770   6.049  1.2178  1.2721  0.9510
 9202SOL    HW228506   1.193   3.626   6.126 -0.6257 -0.1456 -1.4990
 9203SOL     OW28507   0.061   1.522   5.863 -0.1260 -0.0427 -0.0379
 9203SOL    HW128508   0.076   1.459   5.787  0.8075  1.1299 -0.8590
 9203SOL    HW228509   0.039   1.613   5.828 -1.0468  0.2122  1.1232
 9204SOL     OW28510   5.875   4.407   1.963 -0.2000  0.0372 -0.2177
 9204SOL    HW128511   5.971   4.404   1.993 -0.6984  0.3701  1.4823
 9204SOL    HW228512   5.861   4.489   1.906  0.0603  1.1934  1.3136
 9205SOL     OW28513   6.639   0.018   3.866  0.3346  0.3584  0.7211
 9205SOL    HW128514   6.697  -0.034   3.929  1.0664 -1.0445 -1.0154
 9205SOL    HW228515   6.697   0.061   3.796 -0.5312  0.8518  0.3004
 9206SOL     OW28516   2.908   0.151   3.956  0.6698  0.0755 -0.6777
 9206SOL    HW128517   2.974   0.117   4.022 -0.0835 -0.2610 -0.0747
 9206SOL    HW228518   2.892   0.249   3.973  1.2953  0.2526 -1.0799
 9207SOL     OW28519   4.410   5.660   1.460  0.2024  0.1322 -0.2496
 9207SOL    HW128520   4.481   5.623   1.520 -0.3742  0.0299  0.3835
 9207SOL    HW228521   4.345   5.714   1.514 -1.0915 -1.0591 -0.5355
 9208SOL     OW28522   2.643   6.344   5.388  0.5464  0.1831 -0.0591
 9208SOL    HW128523   2.587   6.278   5.438 -1.0983  1.0489 -0.6830
 9208SOL    HW228524   2.709   6.296   5.331  1.2588 -0.8459  1.5667
 9209SOL     OW28525   2.796   1.795   0.945 -0.1361 -0.1117  0.6825
 9209SOL    HW128526   2.778   1.865   0.876 -1.7753 -0.7480  0.4130
 9209SOL    HW228527   2.839   1.716   0.902 -0.1584 -0.0774  0.5967
 9210SOL     OW28528   1.899   6.420   4.621 -0.2296 -0.7230 -0.3666
 9210SOL    HW128529   1.941   6.382   4.539 -0.8083  0.9308 -1.4669
 9210SOL    HW228530   1.874   6.345   4.683  1.5258 -1.9018 -1.0246
 9211SOL     OW28531   5.380   2.196   6.145 -0.0973 -0.0480  0.2429
 9211SOL    HW128532   5.463   2.251   6.136 -0.7641  1.4316  2.1667
 9211SOL    HW228533   5.403   2.103   6.173  0.9876 -0.3360 -1.5160
 9212SOL     OW28534   5.190   4.854   6.109 -0.6922  0.1314  0.0606
 9212SOL    HW128535   5.278   4.901   6.100 -0.5125 -0.4216 -1.0922
 9212SOL    HW228536   5.196   4.787   6.183  0.1218 -0.5076 -0.5739
 9213SOL     OW28537   6.707   6.682   0.706 -0.3898  0.4104 -0.4121
 9213SOL    HW128538   6.616   6.647   0.684 -0.5157 -0.1472  0.9236
 9213SOL    HW228539   6.720   6.771   0.661 -1.4842  0.3764 -0.8317
 9214SOL     OW28540   2.169   6.072   0.537 -0.0560 -0.0983  0.3871
 9214SOL    HW128541   2.118   6.144   0.584  0.4917 -0.6432  1.8773
 9214SOL    HW228542   2.200   6.004   0.603  0.2831 -1.2075 -0.8528
 9215SOL     OW28543   1.754   1.655   1.671  0.1707  0.0367  0.2767
 9215SOL    HW128544   1.730   1.631   1.765 -0.0935  3.9570  1.3894
 9215SOL    HW228545   1.678   1.706   1.630  0.6163 -0.9074 -1.8054
 9216SOL     OW28546   4.383   6.310   3.398 -0.0604  0.1109 -0.5597
 9216SOL    HW128547   4.377   6.395   3.449  1.0905 -1.0904  1.7174
 9216SOL    HW228548   4.475   6.272   3.406 -0.8015 -1.8426 -0.6406
 9217SOL     OW28549   5.058   2.267   5.784 -0.5518 -0.1363  0.5155
 9217SOL    HW128550   5.020   2.175   5.777 -0.1857 -0.1703 -1.9007
 9217SOL    HW228551   5.122   2.283   5.709 -1.4064  2.4331  0.2122
 9218SOL     OW28552   4.947   5.966   0.093 -0.2533  0.9244 -0.0754
 9218SOL    HW128553   4.903   6.044   0.049  1.1268  1.5666 -0.3469
 9218SOL    HW228554   4.883   5.889   0.094 -1.7673  2.1214  0.4884
 9219SOL     OW28555   2.537   6.987   3.946  0.6248  0.1132  0.1699
 9219SOL    HW128556   2.477   7.067   3.940 -1.3101 -1.1829  0.9780
 9219SOL    HW228557   2.560   6.955   3.854 -0.5566  0.2396 -0.1891
 9220SOL     OW28558   1.442   6.748   0.674  0.2437  0.2546  0.1125
 9220SOL    HW128559   1.416   6.768   0.768 -1.0051  1.3921 -0.4397
 9220SOL    HW228560   1.420   6.653   0.652 -0.7585  0.3733  0.5666
 9221SOL     OW28561   6.819   4.690   3.413 -0.4324  0.0205 -0.0728
 9221SOL    HW128562   6.777   4.668   3.325 -1.0007  0.8323 -0.0156
 9221SOL    HW228563   6.909   4.730   3.398 -0.6631  0.4651 -0.3157
 9222SOL     OW28564   4.709   2.031   6.384  0.5968 -0.2594 -0.1208
 9222SOL    HW128565   4.737   1.976   6.305 -1.3255 -0.4713 -0.7000
 9222SOL    HW228566   4.670   1.972   6.454  2.5134 -0.1008  1.1576
 9223SOL     OW28567   6.661   1.614   4.355 -0.2918 -0.3206 -0.3279
 9223SOL    HW128568   6.604   1.589   4.433 -0.6131 -0.8674 -0.7297
 9223SOL    HW228569   6.650   1.712   4.335 -0.9026 -0.3697 -0.2498
 9224SOL     OW28570   5.957   0.505   6.118  0.0295  0.0118 -0.5345
 9224SOL    HW128571   6.003   0.418   6.134  4.0322  1.9905  0.0571
 9224SOL    HW228572   5.967   0.530   6.022  1.2874  0.9586 -0.1814
 9225SOL     OW28573   6.783   6.539   4.775 -0.3070  0.1477  0.2306
 9225SOL    HW128574   6.784   6.454   4.723  1.1936  0.3501 -0.1080
 9225SOL    HW228575   6.768   6.617   4.714 -0.4724  0.2290  0.3724
 9226SOL     OW28576   6.522   1.394   4.459 -0.2092 -0.1002  0.8271
 9226SOL    HW128577   6.522   1.417   4.362 -2.8215  1.1320  1.0416
 9226SOL    HW228578   6.482   1.303   4.472 -0.0670 -0.1716  0.7658
 9227SOL     OW28579   3.982   5.522   0.289  0.3730  0.0725 -0.1814
 9227SOL    HW128580   3.959   5.591   0.221  2.4784 -0.6669 -1.7665
 9227SOL    HW228581   4.018   5.566   0.372  1.8673  0.9186 -1.2428
 9228SOL     OW28582   0.027   1.792   5.806  0.2507 -0.0321  0.2752
 9228SOL    HW128583  -0.011   1.869   5.755  0.7207 -0.4991 -0.8146
 9228SOL    HW228584   0.065   1.824   5.893 -1.9964  0.5465  1.1078
 9229SOL     OW28585   6.336   6.752   5.987 -0.0282 -0.1560 -0.0990
 9229SOL    HW128586   6.263   6.812   6.021 -0.0230  1.3957 -2.5158
 9229SOL    HW228587   6.297   6.665   5.958 -0.5008 -0.3022  0.9421
 9230SOL     OW28588   1.875   6.915   2.121  0.2443 -0.0550  0.3742
 9230SOL    HW128589   1.955   6.875   2.075  0.0104 -1.3041  1.0023
 9230SOL    HW228590   1.886   6.906   2.220 -1.0720 -1.0802  0.4461
 9231SOL     OW28591   4.155   2.777   1.252  0.1109  0.1197  0.3529
 9231SOL    HW128592   4.251   2.759   1.230  0.5736 -1.8081  3.3988
 9231SOL    HW228593   4.149   2.846   1.324 -0.9651  1.5984 -1.0790
 9232SOL     OW28594   3.440   2.623   6.605 -0.1986  0.5048  0.2553
 9232SOL    HW128595   3.359   2.678   6.584 -0.6275  0.3451  1.4251
 9232SOL    HW228596   3.425   2.574   6.691  0.5667 -0.6685 -0.2602
 9233SOL     OW28597   6.217   2.092   6.196  0.4088  0.2484  0.2047
 9233SOL    HW128598   6.268   2.032   6.257 -1.3814 -0.3443  1.2069
 9233SOL    HW228599   6.125   2.055   6.182  0.4175  0.8926 -2.0996
 9234SOL     OW28600   6.912   2.017   2.803 -0.5891  0.0732  0.2083
 9234SOL    HW128601   6.824   1.981   2.832 -1.0275 -0.7933 -1.9719
 9234SOL    HW228602   6.958   1.951   2.744  1.0153  0.9838  0.3570
 9235SOL     OW28603   4.532   4.734   5.293 -0.0678 -0.4442 -0.1168
 9235SOL    HW128604   4.532   4.821   5.343  0.6896 -0.9057  0.7085
 9235SOL    HW228605   4.623   4.717   5.256 -0.3682 -0.6024 -0.7872
 9236SOL     OW28606   2.138   5.554   2.322 -0.6535 -0.4218  0.0351
 9236SOL    HW128607   2.057   5.545   2.380  0.3034  0.7879  1.6070
 9236SOL    HW228608   2.138   5.480   2.254 -2.2562 -1.3443  0.9758
 9237SOL     OW28609   1.458   5.092   2.058 -0.0228 -0.3496  0.4587
 9237SOL    HW128610   1.546   5.120   2.096 -0.7856  0.1707  1.9026
 9237SOL    HW228611   1.407   5.038   2.126 -1.1406  0.0054 -0.0688
 9238SOL     OW28612   0.716   1.733   3.362  0.4243  0.5023  0.0734
 9238SOL    HW128613   0.804   1.689   3.347 -0.0815 -0.9766  1.1740
 9238SOL    HW228614   0.664   1.681   3.430 -0.3034  2.7485  1.3128
 9239SOL     OW28615   6.850   0.181   4.601 -0.0110 -0.1734 -0.0906
 9239SOL    HW128616   6.825   0.107   4.664 -0.0214 -2.6421 -2.7562
 9239SOL    HW228617   6.795   0.172   4.518  3.3652 -0.2182 -2.5061
 9240SOL     OW28618   2.159   4.329   2.394  0.2239 -0.2310  0.0643
 9240SOL    HW128619   2.153   4.415   2.445  1.1674  0.0152 -0.2169
 9240SOL    HW228620   2.189   4.256   2.454 -4.3722 -1.3794  1.3774
 9241SOL     OW28621   0.519   3.768   3.955  0.0383 -0.3194 -0.0510
 9241SOL    HW128622   0.585   3.831   3.913  0.1161 -1.1473 -1.2203
 9241SOL    HW228623   0.560   3.677   3.963 -0.7155 -0.6725 -0.1191
 9242SOL     OW28624   2.368   2.197   0.889  0.1178  0.2297  0.2863
 9242SOL    HW128625   2.442   2.137   0.860  0.6508  0.6665  0.6954
 9242SOL    HW228626   2.344   2.178   0.984 -1.7672 -1.3436 -0.4525
 9243SOL     OW28627   1.897   5.546   5.893  0.7302  0.1866  0.4909
 9243SOL    HW128628   1.930   5.587   5.809 -1.0686  2.4831  0.8175
 9243SOL    HW228629   1.809   5.501   5.877 -0.2610  1.7463  1.3374
 9244SOL     OW28630   5.714   1.644   2.842 -0.0611 -0.3249  0.3459
 9244SOL    HW128631   5.734   1.731   2.798  0.6343 -0.7108 -0.1250
 9244SOL    HW228632   5.703   1.658   2.941 -1.1295  0.4650  0.1239
 9245SOL     OW28633   5.000   3.553   6.341 -0.2560 -0.6265 -0.0675
 9245SOL    HW128634   5.062   3.536   6.265  0.2576 -3.4710  0.8716
 9245SOL    HW228635   4.928   3.483   6.342 -1.2213  0.3278  1.1420
 9246SOL     OW28636   1.830   4.663   5.628 -0.3291 -0.2807  0.3473
 9246SOL    HW128637   1.908   4.607   5.600 -0.9507 -1.1221  0.2619
 9246SOL    HW228638   1.746   4.611   5.616 -1.0399  1.0455 -0.7568
 9247SOL     OW28639   5.185   6.390   3.144  0.8333  1.0126  0.4386
 9247SOL    HW128640   5.271   6.351   3.177  0.5601  1.1141  1.3078
 9247SOL    HW228641   5.169   6.362   3.049  0.8944 -0.5744  0.8684
 9248SOL     OW28642   4.889   5.854   0.961  0.2565 -0.2386 -0.1682
 9248SOL    HW128643   4.843   5.942   0.976 -0.3566 -0.6370  0.3708
 9248SOL    HW228644   4.916   5.815   1.050 -1.4601 -1.6202 -0.2059
 9249SOL     OW28645   2.663   0.950   5.505 -0.2308  0.0081 -0.3203
 9249SOL    HW128646   2.657   1.015   5.429  1.9107 -0.7510 -1.2350
 9249SOL    HW228647   2.729   0.983   5.572  0.1648 -0.7377 -0.3267
 9250SOL     OW28648   6.490   6.671   4.698 -0.2498  0.5148  0.5021
 9250SOL    HW128649   6.529   6.583   4.671 -1.1933  0.2204  0.0357
 9250SOL    HW228650   6.550   6.745   4.669  0.1650  0.0573  0.1784
 9251SOL     OW28651   0.738   4.331   6.539  0.3634 -0.1266  0.2364
 9251SOL    HW128652   0.812   4.286   6.587 -0.4369  0.2282  1.8910
 9251SOL    HW228653   0.666   4.265   6.518  0.8958 -0.3662 -0.8950
 9252SOL     OW28654   6.058   1.270   4.620 -0.0089  0.0255  0.1098
 9252SOL    HW128655   6.027   1.259   4.714  0.3933 -0.6613  0.1687
 9252SOL    HW228656   6.096   1.362   4.609 -2.0587  0.9180  0.0140
 9253SOL     OW28657   2.406   0.789   5.284 -0.2176  0.4008  0.0523
 9253SOL    HW128658   2.396   0.785   5.185 -2.4154  0.2681  0.2427
 9253SOL    HW228659   2.502   0.775   5.308  0.3108  0.1527 -2.0304
 9254SOL     OW28660   2.588   6.486   0.697  0.0272 -0.2126  0.1040
 9254SOL    HW128661   2.633   6.562   0.650 -2.1101  1.8680  1.2279
 9254SOL    HW228662   2.655   6.439   0.755  1.3632  0.9347 -0.4433
 9255SOL     OW28663   2.863   4.419   5.828  0.8276 -0.7016 -0.2105
 9255SOL    HW128664   2.921   4.446   5.904 -1.6927 -1.6546  2.2337
 9255SOL    HW228665   2.886   4.325   5.801  3.3731  0.4417 -2.4375
 9256SOL     OW28666   1.571   6.337   1.286  0.1329 -0.0892 -0.8320
 9256SOL    HW128667   1.581   6.436   1.299 -1.0387 -0.0363 -0.1828
 9256SOL    HW228668   1.656   6.299   1.250  2.0089  0.5299  2.5743
 9257SOL     OW28669   4.762   5.037   0.493  0.4126  0.1478 -0.0998
 9257SOL    HW128670   4.701   5.047   0.415 -1.1304 -1.2518  0.8477
 9257SOL    HW228671   4.788   4.940   0.502  2.0704  0.5809  0.0575
 9258SOL     OW28672   4.119   0.349   1.379 -0.2323 -1.1393 -0.0724
 9258SOL    HW128673   4.104   0.317   1.473 -1.3682 -0.4893 -0.0076
 9258SOL    HW228674   4.201   0.406   1.376 -0.9346 -0.0167  0.8453
 9259SOL     OW28675   0.457   1.389   4.126  0.0943  0.6297 -0.2889
 9259SOL    HW128676   0.419   1.431   4.043 -1.1503  1.1438  0.5185
 9259SOL    HW228677   0.546   1.431   4.145  0.4648  0.4115 -1.4231
 9260SOL     OW28678   0.470   6.191   6.495 -0.4988  0.4998 -0.4132
 9260SOL    HW128679   0.528   6.155   6.422 -0.8683 -0.9559 -0.0095
 9260SOL    HW228680   0.376   6.198   6.463 -0.9810 -1.6808  0.3582
 9261SOL     OW28681   1.320   5.120   4.445  0.7855 -0.0659 -0.4778
 9261SOL    HW128682   1.378   5.140   4.366  1.5140  1.7887  0.4788
 9261SOL    HW228683   1.286   5.205   4.484 -2.4417 -1.0553 -0.8389
 9262SOL     OW28684   0.402   0.378   0.969  0.2147 -0.0370 -0.4634
 9262SOL    HW128685   0.422   0.292   1.015 -0.4155 -0.7889 -1.5606
 9262SOL    HW228686   0.484   0.411   0.922  0.6723  0.3911  0.5832
 9263SOL     OW28687   1.905   5.542   2.460  0.0383  0.1137 -0.3864
 9263SOL    HW128688   1.839   5.520   2.388  2.2929 -0.6714 -2.3400
 9263SOL    HW228689   1.869   5.616   2.517 -1.7299  0.9647 -2.4889
 9264SOL     OW28690   0.066   0.157   2.168  0.0208  0.0654  0.1992
 9264SOL    HW128691   0.086   0.211   2.250  3.5523 -1.5127  0.5542
 9264SOL    HW228692   0.091   0.210   2.087 -0.3020  0.4061  0.3186
 9265SOL     OW28693   1.102   3.577   0.913 -0.4951 -0.5794  0.5839
 9265SOL    HW128694   1.011   3.591   0.954 -0.3443 -1.2649  1.1821
 9265SOL    HW228695   1.155   3.514   0.971  0.3234 -0.2698  0.1833
 9266SOL     OW28696   6.796   0.587   3.144  0.2800 -0.2438  0.0877
 9266SOL    HW128697   6.744   0.565   3.062 -0.2476  0.1928  0.2966
 9266SOL    HW228698   6.782   0.515   3.212  1.0197 -0.7978 -0.3303
 9267SOL     OW28699   6.442   0.344   3.267 -0.3525 -0.2065  0.1291
 9267SOL    HW128700   6.419   0.424   3.211 -0.6653 -0.6541 -0.3935
 9267SOL    HW228701   6.468   0.374   3.359 -2.5131  0.3861  0.5988
 9268SOL     OW28702   4.582   1.510   2.250 -0.5652  0.0806 -0.5199
 9268SOL    HW128703   4.629   1.564   2.181  1.4509 -3.7656 -2.4687
 9268SOL    HW228704   4.484   1.510   2.231 -0.4001  1.4314 -1.5577
 9269SOL     OW28705   2.907   5.872   5.445  0.5712  0.0602 -0.5369
 9269SOL    HW128706   2.877   5.822   5.526 -0.3805  0.3709 -0.6826
 9269SOL    HW228707   2.940   5.808   5.376  0.0796 -0.3136 -0.4302
 9270SOL     OW28708   5.654   5.034   4.951  0.1569 -0.4387 -0.0391
 9270SOL    HW128709   5.567   5.082   4.951  0.3447 -0.0918 -0.1452
 9270SOL    HW228710   5.718   5.081   5.013  0.6660  0.0514 -0.9145
 9271SOL     OW28711   3.819   2.678   1.528  0.0254 -0.4825  0.6894
 9271SOL    HW128712   3.747   2.720   1.473 -0.0834  1.0201  1.9027
 9271SOL    HW228713   3.889   2.640   1.467 -1.0344 -0.6247 -0.4871
 9272SOL     OW28714   3.256   1.031   2.122 -0.1530  0.2314  0.6146
 9272SOL    HW128715   3.218   0.994   2.038 -0.6803 -1.1770  1.4254
 9272SOL    HW228716   3.309   0.960   2.168  0.1961  0.9992  1.4180
 9273SOL     OW28717   5.665   3.950   6.386  0.2577 -0.3327 -0.8997
 9273SOL    HW128718   5.677   3.880   6.456  0.8486 -0.1341 -0.7992
 9273SOL    HW228719   5.568   3.956   6.361  0.5326 -3.2688 -3.1124
 9274SOL     OW28720   4.010   0.565   1.971  0.1802  0.5754  0.2867
 9274SOL    HW128721   4.079   0.530   2.034 -2.2354 -0.5629  2.5222
 9274SOL    HW228722   3.968   0.647   2.009 -0.0774  0.9318 -0.7399
 9275SOL     OW28723   5.971   6.283   2.209 -0.3163  0.4391  0.4456
 9275SOL    HW128724   5.991   6.191   2.177 -0.5143  1.2158 -2.1599
 9275SOL    HW228725   6.036   6.348   2.170 -1.1432  1.6078  0.9272
 9276SOL     OW28726   6.498   3.453   5.794 -0.2163 -0.0985  0.6294
 9276SOL    HW128727   6.568   3.431   5.862  0.6066 -1.3596 -0.5690
 9276SOL    HW228728   6.532   3.525   5.733 -0.6541  0.4877  1.0604
 9277SOL     OW28729   2.554   1.192   1.830  0.0664  0.0860 -0.2777
 9277SOL    HW128730   2.627   1.146   1.881 -1.0970 -1.0790  0.3873
 9277SOL    HW228731   2.471   1.195   1.886 -0.9854 -0.3826 -1.7537
 9278SOL     OW28732   4.337   5.906   4.795  0.2950 -0.5557  0.0819
 9278SOL    HW128733   4.258   5.957   4.763  0.8103  0.3458  0.2212
 9278SOL    HW228734   4.332   5.896   4.895  0.0134 -1.1076  0.0191
 9279SOL     OW28735   3.053   5.861   6.715 -0.3094 -0.0069 -0.3058
 9279SOL    HW128736   2.988   5.796   6.754  0.1033 -0.1680  0.1270
 9279SOL    HW228737   3.073   5.933   6.782  1.9642 -1.3880  0.6371
 9280SOL     OW28738   6.754   1.588   5.198 -0.0159  0.1877 -0.0203
 9280SOL    HW128739   6.849   1.567   5.222 -0.2378 -0.5456  0.2574
 9280SOL    HW228740   6.751   1.638   5.112  0.5665 -0.7062 -0.5742
 9281SOL     OW28741   0.210   5.763   5.758 -0.0807  0.1678 -0.4782
 9281SOL    HW128742   0.241   5.847   5.713  0.6674  0.2609  0.1829
 9281SOL    HW228743   0.197   5.781   5.856  2.2484 -0.9992  0.1164
 9282SOL     OW28744   3.753   4.108   3.498  0.3772  0.6195 -0.8399
 9282SOL    HW128745   3.799   4.155   3.422  1.5544 -1.2213 -1.3431
 9282SOL    HW228746   3.763   4.009   3.486  0.4052  0.2689  1.6022
 9283SOL     OW28747   6.920   2.279   4.002  0.2849  0.0658 -0.2781
 9283SOL    HW128748   6.967   2.274   3.914  0.3413 -0.3606 -0.2294
 9283SOL    HW228749   6.882   2.189   4.024 -0.5921  0.4172 -0.3326
 9284SOL     OW28750   0.442   5.227   5.951  0.3514 -0.4895  0.0946
 9284SOL    HW128751   0.534   5.266   5.945  0.8732 -1.3442  1.9166
 9284SOL    HW228752   0.424   5.171   5.871  2.3346 -2.1593  0.7188
 9285SOL     OW28753   0.532   2.988   5.660  0.0144  0.0240  0.1109
 9285SOL    HW128754   0.571   2.994   5.568  1.2926 -1.3510  0.5259
 9285SOL    HW228755   0.438   2.953   5.654  0.9913 -2.7582 -0.5845
 9286SOL     OW28756   1.530   0.647   1.830  0.4450  0.1873 -0.1706
 9286SOL    HW128757   1.552   0.652   1.732  1.8717 -0.1792  0.1174
 9286SOL    HW228758   1.597   0.590   1.877  0.2274  0.9952  1.1682
 9287SOL     OW28759   4.724   4.262   4.953  0.2067  0.8962  0.1334
 9287SOL    HW128760   4.817   4.297   4.943  0.9795 -1.0801 -0.0660
 9287SOL    HW228761   4.713   4.222   5.044  0.1385 -0.4040 -0.4211
 9288SOL     OW28762   2.255   0.437   3.581 -0.0173  0.3123  0.1560
 9288SOL    HW128763   2.160   0.443   3.611 -0.3082  1.7803 -0.9445
 9288SOL    HW228764   2.312   0.496   3.638  0.3837 -1.0649  1.2364
 9289SOL     OW28765   1.859   6.352   4.899 -0.5857 -0.1616 -0.0173
 9289SOL    HW128766   1.816   6.354   4.990  0.9996  1.4312  0.7706
 9289SOL    HW228767   1.944   6.300   4.904  0.6140  1.7259  0.0038
 9290SOL     OW28768   5.424   4.857   4.486 -0.7561 -0.1738  0.1749
 9290SOL    HW128769   5.480   4.775   4.494 -0.4768 -0.3211 -2.4153
 9290SOL    HW228770   5.480   4.938   4.501 -0.4210 -0.3893  0.0951
 9291SOL     OW28771   1.681   0.312   5.961 -0.0297 -0.4083 -0.1353
 9291SOL    HW128772   1.777   0.341   5.958 -0.1123 -0.1223  0.0520
 9291SOL    HW228773   1.672   0.231   6.020  0.1917 -0.8015 -0.6276
 9292SOL     OW28774   3.513   0.695   4.955 -0.0394 -0.6491  0.2764
 9292SOL    HW128775   3.558   0.781   4.931 -0.2829 -1.1457 -2.2015
 9292SOL    HW228776   3.446   0.711   5.028  1.1912  0.8788  1.1093
 9293SOL     OW28777   0.614   3.051   5.373 -0.3857 -0.2154 -0.0911
 9293SOL    HW128778   0.555   3.090   5.302 -0.8960 -1.7828 -0.5660
 9293SOL    HW228779   0.686   2.996   5.330  0.0898 -0.1243  0.5687
 9294SOL     OW28780   6.421   0.062   2.800 -0.5865 -0.0843 -0.3611
 9294SOL    HW128781   6.440  -0.003   2.873  1.4086 -1.7972 -2.2486
 9294SOL    HW228782   6.340   0.033   2.749 -0.0142 -0.8454 -0.8640
 9295SOL     OW28783   0.457   6.290   2.909  0.4617 -0.3830  0.1277
 9295SOL    HW128784   0.502   6.369   2.868  0.0414  0.6771  1.6132
 9295SOL    HW228785   0.525   6.225   2.941  0.8903  0.4206  0.8667
 9296SOL     OW28786   5.014   2.991   6.410 -0.6454 -0.0495 -0.0655
 9296SOL    HW128787   5.074   3.047   6.467 -2.8336  1.4894  0.8614
 9296SOL    HW228788   5.025   2.895   6.435  1.5605  0.1294 -0.1210
 9297SOL     OW28789   2.907   4.773   4.792 -0.2264 -0.8306  0.0634
 9297SOL    HW128790   2.877   4.698   4.851 -0.6947  0.1263  1.0877
 9297SOL    HW228791   2.944   4.847   4.848 -2.9910  1.1798 -0.5369
 9298SOL     OW28792   4.773   4.080   5.560 -0.4081 -0.2266 -0.4207
 9298SOL    HW128793   4.811   4.037   5.478 -1.7524  1.4921 -2.0466
 9298SOL    HW228794   4.847   4.109   5.621  0.7333  0.0747 -1.9004
 9299SOL     OW28795   4.963   4.091   1.987 -0.4998  0.1973 -0.2967
 9299SOL    HW128796   5.048   4.124   2.030 -0.2432  0.3138 -0.8839
 9299SOL    HW228797   4.906   4.046   2.056  0.6062 -1.0230 -0.1410
 9300SOL     OW28798   1.920   6.562   2.471  0.0132 -0.0599  0.3632
 9300SOL    HW128799   1.823   6.537   2.469  0.4190 -1.7581 -1.5772
 9300SOL    HW228800   1.965   6.513   2.546 -0.4279 -0.1418  0.5761
 9301SOL     OW28801   0.333   0.770   2.874  0.1443  0.1967  0.2550
 9301SOL    HW128802   0.312   0.813   2.786 -1.3429 -2.0828 -0.6129
 9301SOL    HW228803   0.255   0.779   2.935  0.1201 -0.5619  0.3406
 9302SOL     OW28804   0.723   6.354   2.064 -0.3747 -0.8384 -0.5599
 9302SOL    HW128805   0.812   6.363   2.020  0.1691  2.3563  0.9045
 9302SOL    HW228806   0.719   6.269   2.115  2.4194 -0.4638  0.4484
 9303SOL     OW28807   5.209   0.127   1.764 -0.0593 -0.2814  0.3374
 9303SOL    HW128808   5.126   0.111   1.817 -0.3590 -1.5487 -0.4795
 9303SOL    HW228809   5.205   0.218   1.722 -0.9802 -0.2911  0.3995
 9304SOL     OW28810   3.302   5.363   0.480  0.1712  0.0260 -0.2085
 9304SOL    HW128811   3.335   5.324   0.393 -0.9747  1.4912 -1.3428
 9304SOL    HW228812   3.275   5.458   0.466  0.7359  0.5580  1.9728
 9305SOL     OW28813   0.843   2.071   5.096 -0.4723  0.0535 -0.3343
 9305SOL    HW128814   0.845   2.000   5.166 -0.1716  0.2958 -0.0948
 9305SOL    HW228815   0.928   2.069   5.043  0.0456  0.9678  0.4210
 9306SOL     OW28816   0.694   0.597   1.974 -0.2122  0.0172 -0.3631
 9306SOL    HW128817   0.702   0.605   2.074 -2.0487 -0.2368 -0.1674
 9306SOL    HW228818   0.781   0.624   1.932  0.0093  1.9984  1.1995
 9307SOL     OW28819   2.896   3.336   6.136 -0.3078 -0.5027  0.0995
 9307SOL    HW128820   2.957   3.398   6.185 -0.9720 -0.5225  0.9697
 9307SOL    HW228821   2.820   3.388   6.097  0.1070 -0.5154 -0.7691
 9308SOL     OW28822   5.603   4.916   0.493  0.0362 -0.2237 -0.0351
 9308SOL    HW128823   5.518   4.897   0.443  0.3513  1.4755 -1.2824
 9308SOL    HW228824   5.590   4.892   0.590 -1.6896 -0.4577 -0.2882
 9309SOL     OW28825   2.827   2.162   4.239  0.4781  0.3017 -0.0958
 9309SOL    HW128826   2.767   2.188   4.163  0.5288  0.5437 -0.0535
 9309SOL    HW228827   2.857   2.068   4.227  0.4844  0.3395 -0.3766
 9310SOL     OW28828   4.142   6.855   2.385 -0.1391  0.5027  0.7132
 9310SOL    HW128829   4.113   6.774   2.335  1.6837  0.5112 -0.4232
 9310SOL    HW228830   4.197   6.827   2.464 -0.4064  0.6041  0.9373
 9311SOL     OW28831   6.066   3.396   5.594  0.3462 -0.4223  0.4365
 9311SOL    HW128832   5.996   3.430   5.656  0.4893  0.0195  0.3569
 9311SOL    HW228833   6.145   3.457   5.596  0.1583 -0.1303 -0.5399
 9312SOL     OW28834   0.143   2.166   3.459  0.1361  0.8666 -0.5194
 9312SOL    HW128835   0.120   2.190   3.553 -0.2734 -1.3104 -0.0073
 9312SOL    HW228836   0.231   2.207   3.434  0.3851  1.2419  0.8903
 9313SOL     OW28837   6.738   3.646   2.390 -0.3227  0.1714  0.1491
 9313SOL    HW128838   6.825   3.644   2.440 -0.2124 -0.1440 -0.0492
 9313SOL    HW228839   6.670   3.592   2.440 -0.4102  0.4343  0.3142
 9314SOL     OW28840   5.990   5.594   2.478  0.4904 -0.3815  0.2092
 9314SOL    HW128841   5.998   5.575   2.380 -0.4429  0.0831  0.0404
 9314SOL    HW228842   6.067   5.651   2.507 -0.1803  0.9987 -0.6352
 9315SOL     OW28843   5.414   1.335   6.563  0.0415  0.4168 -0.2767
 9315SOL    HW128844   5.370   1.414   6.522 -0.8367 -0.5201 -1.2116
 9315SOL    HW228845   5.345   1.263   6.579  0.6420  0.1780  1.4215
 9316SOL     OW28846   4.985   2.936   2.947 -0.0094 -0.3778  0.4507
 9316SOL    HW128847   5.069   2.881   2.942 -1.0417 -1.8911 -1.0009
 9316SOL    HW228848   4.986   3.005   2.875  0.9087  1.0937  1.7728
 9317SOL     OW28849   5.153   5.344   4.692  0.1161  0.5464  0.2639
 9317SOL    HW128850   5.062   5.383   4.675 -0.4321 -1.2030 -1.2019
 9317SOL    HW228851   5.223   5.407   4.660 -0.6332  1.3591  0.1920
 9318SOL     OW28852   5.098   2.460   6.651 -0.2055 -0.5564  0.2604
 9318SOL    HW128853   5.118   2.394   6.724  0.1247 -0.7152  0.0335
 9318SOL    HW228854   5.081   2.411   6.566  2.9717 -0.3435 -0.6425
 9319SOL     OW28855   6.590   0.739   2.632  0.1319 -0.4963  0.1005
 9319SOL    HW128856   6.592   0.821   2.689 -1.2169  0.3079 -0.9537
 9319SOL    HW228857   6.671   0.684   2.651  0.1244  0.1075  2.2240
 9320SOL     OW28858   0.525   1.838   5.784  0.1199  0.0949  0.5873
 9320SOL    HW128859   0.609   1.851   5.732 -0.7565  1.0201 -0.6389
 9320SOL    HW228860   0.463   1.915   5.770 -0.9405 -0.5434  1.4849
 9321SOL     OW28861   0.692   2.069   0.667 -0.4011  0.0579 -0.2777
 9321SOL    HW128862   0.668   2.154   0.619  1.0152  0.6293 -0.0355
 9321SOL    HW228863   0.611   2.031   0.710 -1.1293  1.1252 -0.6676
 9322SOL     OW28864   0.316   4.266   6.805 -1.0693 -0.6931 -0.1986
 9322SOL    HW128865   0.390   4.277   6.872  0.2921 -0.3623 -1.7067
 9322SOL    HW228866   0.296   4.169   6.794  1.0474 -1.0286 -1.7127
 9323SOL     OW28867   0.640   1.994   2.582  0.1010 -0.1291  0.5371
 9323SOL    HW128868   0.715   2.052   2.614 -0.1759 -0.3823  1.6772
 9323SOL    HW228869   0.553   2.041   2.596 -0.0476 -0.3656  0.4243
 9324SOL     OW28870   4.707   6.034   0.318 -0.2062  0.0667  0.0209
 9324SOL    HW128871   4.624   6.084   0.346 -0.4629 -0.3719  0.0562
 9324SOL    HW228872   4.729   6.057   0.223 -0.6283 -0.1528 -0.1354
 9325SOL     OW28873   6.779   5.215   4.912  0.2757  0.2800 -0.2656
 9325SOL    HW128874   6.811   5.152   4.983  0.5364  0.6100 -0.0869
 9325SOL    HW228875   6.801   5.177   4.822  0.4626  0.1318 -0.1584
 9326SOL     OW28876   6.766   2.525   1.819  0.3875  0.0461  0.8078
 9326SOL    HW128877   6.762   2.617   1.781  3.5635  0.2798  0.7480
 9326SOL    HW228878   6.776   2.458   1.746 -1.9643 -0.4381  0.8472
 9327SOL     OW28879   5.014   4.416   0.292  0.1528  0.2150 -0.2875
 9327SOL    HW128880   4.980   4.387   0.202  2.5164  0.0307 -1.2079
 9327SOL    HW228881   4.994   4.513   0.305 -0.0141  0.3066 -1.1294
 9328SOL     OW28882   6.825   1.407   3.638 -0.3006  0.1455 -0.6761
 9328SOL    HW128883   6.859   1.340   3.705 -4.0395 -0.2355  1.0915
 9328SOL    HW228884   6.822   1.364   3.547  1.1855 -0.6442 -0.3918
 9329SOL     OW28885   4.157   1.030   5.635 -0.4022  0.5302  0.5043
 9329SOL    HW128886   4.061   1.021   5.609 -0.4479  2.7619 -0.2667
 9329SOL    HW228887   4.215   1.005   5.557 -0.2852 -1.4681  1.1729
 9330SOL     OW28888   3.272   2.579   5.312 -0.0473 -0.1118  0.0355
 9330SOL    HW128889   3.258   2.488   5.272  1.2660 -0.5000  0.4087
 9330SOL    HW228890   3.334   2.572   5.390 -2.7949  0.5496  2.4845
 9331SOL     OW28891   5.765   4.233   6.574  0.2066 -0.4340  0.1767
 9331SOL    HW128892   5.863   4.215   6.576  0.5352  1.1304 -0.6829
 9331SOL    HW228893   5.747   4.316   6.521 -1.6347 -1.0453 -0.2311
 9332SOL     OW28894   0.292   2.042   3.232  0.0916 -0.6486  0.3245
 9332SOL    HW128895   0.202   2.084   3.247  0.1729 -0.8044  1.3535
 9332SOL    HW228896   0.363   2.112   3.243  0.1485 -0.7337  0.4894
 9333SOL     OW28897   0.616   5.408   0.058  0.1276  0.3745  0.2785
 9333SOL    HW128898   0.548   5.480   0.043 -0.3929  0.2456  1.7874
 9333SOL    HW228899   0.680   5.438   0.129  0.3418 -0.3561  0.4017
 9334SOL     OW28900   6.890   0.379   1.443 -0.1440  0.6901 -0.2577
 9334SOL    HW128901   6.813   0.318   1.422  0.9917 -1.4596  1.3043
 9334SOL    HW228902   6.936   0.406   1.359 -0.0276 -1.6108 -0.9990
 9335SOL     OW28903   3.476   4.702   5.531  0.6454  0.1261  0.7916
 9335SOL    HW128904   3.457   4.638   5.606  0.7451 -0.6851  0.1438
 9335SOL    HW228905   3.415   4.681   5.454  3.2963 -1.8449 -0.9419
 9336SOL     OW28906   2.827   2.189   5.086 -0.0869  0.1131  0.3526
 9336SOL    HW128907   2.917   2.220   5.055  0.3321 -0.9848  0.4047
 9336SOL    HW228908   2.818   2.202   5.184  0.8889 -1.7126  0.7362
 9337SOL     OW28909   6.350   5.262   4.465  0.2024 -0.3569 -0.1292
 9337SOL    HW128910   6.337   5.360   4.451  0.3603 -0.2317  0.5645
 9337SOL    HW228911   6.261   5.217   4.472  0.1316 -0.2252 -0.1825
 9338SOL     OW28912   6.220   1.941   6.626 -0.3601 -0.5364 -0.3078
 9338SOL    HW128913   6.245   2.028   6.668 -0.0339 -0.3791 -0.8154
 9338SOL    HW228914   6.120   1.936   6.616 -0.3663 -0.1089 -0.5037
 9339SOL     OW28915   3.946   0.824   1.105 -0.0185  0.1644  0.2236
 9339SOL    HW128916   3.917   0.765   1.030 -0.1856  0.7728 -0.1989
 9339SOL    HW228917   3.895   0.800   1.188  0.4848 -0.8049  0.2659
 9340SOL     OW28918   5.438   0.568   5.006  0.3274 -0.0431  0.2378
 9340SOL    HW128919   5.386   0.563   5.091  1.2892 -0.5468  0.8187
 9340SOL    HW228920   5.404   0.499   4.942  0.7324 -0.8552  0.8794
 9341SOL     OW28921   3.601   2.645   6.112  0.0074 -0.3015 -0.3835
 9341SOL    HW128922   3.512   2.614   6.146 -0.5750  0.9743 -0.6600
 9341SOL    HW228923   3.611   2.617   6.016  0.5244 -1.6451  0.0421
 9342SOL     OW28924   6.717   0.167   5.621 -0.2447  0.1335 -0.6157
 9342SOL    HW128925   6.690   0.077   5.656  0.7825  0.1773  0.3699
 9342SOL    HW228926   6.636   0.226   5.615 -0.4845  0.2587  2.2168
 9343SOL     OW28927   0.528   6.988   6.953 -0.4597 -0.0076 -0.3312
 9343SOL    HW128928   0.509   6.968   7.049  0.9769  0.7753  0.1594
 9343SOL    HW228929   0.605   6.933   6.922  1.8795  2.6630  0.2920
 9344SOL     OW28930   1.854   2.003   3.218  0.0393 -0.4338 -0.0842
 9344SOL    HW128931   1.770   1.964   3.180 -0.7014 -0.2088  1.2524
 9344SOL    HW228932   1.895   1.937   3.280  1.2379 -0.8017 -1.2324
 9345SOL     OW28933   3.403   4.965   2.069 -0.2479  0.3981 -0.5350
 9345SOL    HW128934   3.311   4.927   2.065  0.3999 -1.2326 -0.5303
 9345SOL    HW228935   3.469   4.897   2.037  1.0723  1.1576  0.4698
 9346SOL     OW28936   2.870   3.120   0.234 -0.1823  0.2293 -0.6866
 9346SOL    HW128937   2.954   3.076   0.203 -0.2194  0.2778 -0.8592
 9346SOL    HW228938   2.817   3.055   0.289 -0.0997  0.1534 -0.6951
 9347SOL     OW28939   6.931   4.422   3.027  0.0005 -0.2616 -0.0539
 9347SOL    HW128940   6.907   4.335   3.070  2.4686  0.2507  2.6780
 9347SOL    HW228941   7.008   4.408   2.964 -0.9242 -0.3395 -1.1910
 9348SOL     OW28942   5.669   2.393   6.647 -0.1990  0.2864  0.3810
 9348SOL    HW128943   5.632   2.341   6.723 -1.0888  2.2948  1.4051
 9348SOL    HW228944   5.631   2.486   6.648  1.3180  1.0003 -1.3117
 9349SOL     OW28945   1.371   5.152   6.036 -0.1092 -0.6679  0.2637
 9349SOL    HW128946   1.326   5.112   6.116  1.8924 -2.0440  0.7562
 9349SOL    HW228947   1.354   5.093   5.957  0.0589 -0.6892  0.2450
 9350SOL     OW28948   1.220   4.724   2.477  0.2426 -0.5506 -0.0350
 9350SOL    HW128949   1.272   4.656   2.528  1.7150  1.7510  1.7625
 9350SOL    HW228950   1.122   4.703   2.484  0.4812 -1.0881  2.6841
 9351SOL     OW28951   2.091   3.258   3.481  0.8412 -0.1512 -0.4214
 9351SOL    HW128952   2.095   3.324   3.406 -0.2508  0.3349 -0.0639
 9351SOL    HW228953   2.085   3.307   3.568  0.2359 -0.7166 -0.1415
 9352SOL     OW28954   6.965   3.166   4.460  0.1028 -0.2627 -0.3431
 9352SOL    HW128955   6.884   3.224   4.468  0.2490 -0.1728  0.5535
 9352SOL    HW228956   6.978   3.140   4.364 -0.7489  0.0559 -0.5528
 9353SOL     OW28957   1.626   0.216   0.694 -0.8053  0.5672 -0.2639
 9353SOL    HW128958   1.603   0.125   0.660 -4.6916  1.7361 -1.3695
 9353SOL    HW228959   1.652   0.274   0.617 -3.4969  1.6015 -0.5219
 9354SOL     OW28960   5.102   1.658   6.816 -0.0710  0.4769  0.2686
 9354SOL    HW128961   5.188   1.651   6.766  1.2247  1.7229  2.1846
 9354SOL    HW228962   5.089   1.577   6.872 -1.1367 -0.5636 -1.3988
 9355SOL     OW28963   4.031   6.324   6.716 -0.5341  0.5726  0.3093
 9355SOL    HW128964   3.942   6.288   6.690 -0.4523  0.6417 -0.0633
 9355SOL    HW228965   4.090   6.329   6.636  0.6951 -1.9560  0.9416
 9356SOL     OW28966   0.727   5.428   1.416  0.1246  0.2293 -0.2149
 9356SOL    HW128967   0.674   5.504   1.453  1.0016  1.5611 -1.5674
 9356SOL    HW228968   0.763   5.373   1.491 -2.2488 -0.1110  0.7524
 9357SOL     OW28969   2.821   6.627   6.244 -0.3216  0.1796  0.4126
 9357SOL    HW128970   2.755   6.688   6.288 -0.0295  1.0460 -0.2961
 9357SOL    HW228971   2.819   6.643   6.145 -0.9729 -1.7201  0.0773
 9358SOL     OW28972   0.998   6.147   1.962 -0.8868  0.2984 -0.0761
 9358SOL    HW128973   1.058   6.146   1.882 -0.3838  1.7066  0.2549
 9358SOL    HW228974   0.921   6.086   1.947  0.0884 -0.7532 -0.9346
 9359SOL     OW28975   3.094   6.940   6.162  0.4464 -0.5344 -0.2441
 9359SOL    HW128976   3.062   6.998   6.086 -0.3533 -1.0975 -0.3541
 9359SOL    HW228977   3.088   6.844   6.136  1.1606 -0.6985  0.1687
 9360SOL     OW28978   4.123   3.610   1.033  0.2088  0.1806 -1.0692
 9360SOL    HW128979   4.206   3.555   1.042  1.7360  2.2662 -1.5742
 9360SOL    HW228980   4.082   3.623   1.123  0.5852 -0.6512 -0.7684
 9361SOL     OW28981   5.059   1.962   5.413  0.3021  0.0972 -0.0167
 9361SOL    HW128982   5.147   1.949   5.458  0.8300  0.9578 -0.7668
 9361SOL    HW228983   5.050   2.058   5.384  0.3817 -0.5924 -2.5181
 9362SOL     OW28984   6.873   3.395   5.506 -0.2004 -0.6325  0.2923
 9362SOL    HW128985   6.859   3.427   5.599 -0.6540  0.6301 -0.1944
 9362SOL    HW228986   6.971   3.397   5.484 -0.0917 -0.9402  0.7263
 9363SOL     OW28987   2.801   5.746   0.829 -0.0360  0.3001 -0.9063
 9363SOL    HW128988   2.800   5.753   0.729 -2.1002 -0.3648 -0.9709
 9363SOL    HW228989   2.782   5.836   0.869  0.1120  0.4231 -1.1060
 9364SOL     OW28990   0.750   0.076   3.344  0.4802  0.0368 -0.1907
 9364SOL    HW128991   0.657   0.112   3.335  0.3347  0.0232  1.1251
 9364SOL    HW228992   0.815   0.146   3.315  0.2680  1.9470  3.4432
 9365SOL     OW28993   6.827   1.888   5.439  0.1044 -0.5930 -0.0459
 9365SOL    HW128994   6.891   1.837   5.381  0.1294 -1.2077  0.5119
 9365SOL    HW228995   6.878   1.938   5.509  0.0813  0.2364 -0.6040
 9366SOL     OW28996   0.285   0.094   6.832  0.6642  0.3083 -0.0243
 9366SOL    HW128997   0.350   0.050   6.894  0.9833  2.3279  1.1625
 9366SOL    HW228998   0.335   0.147   6.764  0.2791 -0.8321 -1.2353
 9367SOL     OW28999   6.864   4.947   4.470  0.1317 -0.3546 -0.3047
 9367SOL    HW129000   6.954   4.972   4.508  0.8570 -1.0624 -1.4946
 9367SOL    HW229001   6.841   4.854   4.499  0.8270 -1.0166 -1.7432
 9368SOL     OW29002   4.390   0.925   2.836  0.2536 -0.5436 -0.4841
 9368SOL    HW129003   4.471   0.930   2.776 -0.2643  1.3341 -1.0906
 9368SOL    HW229004   4.409   0.864   2.913  2.1602 -0.3336 -0.7440
 9369SOL     OW29005   4.041   4.771   1.564 -0.8826  0.0144 -0.0439
 9369SOL    HW129006   4.018   4.783   1.467 -0.4208  0.6070 -0.0854
 9369SOL    HW229007   4.122   4.713   1.572 -1.5364 -0.9118  0.0427
 9370SOL     OW29008   2.433   2.215   1.374 -0.7971 -0.2587 -0.2138
 9370SOL    HW129009   2.396   2.178   1.459  0.1513 -0.1795  0.2436
 9370SOL    HW229010   2.399   2.161   1.297 -0.1599 -1.5218  0.3720
 9371SOL     OW29011   6.096   0.453   0.537 -0.4676  0.4125 -0.3530
 9371SOL    HW129012   6.188   0.433   0.570 -0.1485  0.5906 -1.1209
 9371SOL    HW229013   6.097   0.464   0.438 -1.4215 -0.1871 -0.4470
 9372SOL     OW29014   6.742   2.765   4.389 -0.0616 -0.0369  0.4006
 9372SOL    HW129015   6.685   2.704   4.444  0.1496  0.7029  1.4743
 9372SOL    HW229016   6.837   2.735   4.393  0.4169  1.4890  2.6986
 9373SOL     OW29017   5.236   3.757   1.971 -0.2855  0.0157 -0.0243
 9373SOL    HW129018   5.323   3.712   1.990 -0.8139 -1.0015  0.0993
 9373SOL    HW229019   5.234   3.787   1.876  0.8222  1.5442  0.3945
 9374SOL     OW29020   4.174   5.042   3.579 -0.7032 -0.5159  0.2739
 9374SOL    HW129021   4.099   5.077   3.636  0.7215  0.8173  1.4305
 9374SOL    HW229022   4.166   5.081   3.487 -2.2645 -1.6117 -0.0913
 9375SOL     OW29023   5.065   4.877   0.270  0.2949  0.3957 -0.5271
 9375SOL    HW129024   5.030   4.971   0.267 -0.2933  0.1824 -0.5197
 9375SOL    HW229025   5.096   4.856   0.363  0.3462  0.5520 -0.5082
 9376SOL     OW29026   0.492   1.279   1.876  0.3269  0.1847 -0.5377
 9376SOL    HW129027   0.462   1.333   1.955 -0.3982 -0.5200 -0.3226
 9376SOL    HW229028   0.592   1.278   1.874  0.3556  0.4697  0.1975
 9377SOL     OW29029   5.666   4.132   6.009 -0.4372  0.1891  0.5979
 9377SOL    HW129030   5.733   4.192   6.053  0.5236  0.0391 -0.6113
 9377SOL    HW229031   5.698   4.038   6.011 -0.9383  0.0127  0.5962
 9378SOL     OW29032   4.354   0.316   6.460 -0.1547  0.1037 -0.2882
 9378SOL    HW129033   4.414   0.393   6.482  0.5390 -0.4565 -0.1855
 9378SOL    HW229034   4.405   0.246   6.409 -1.0416  0.1603 -1.2990
 9379SOL     OW29035   4.299   4.177   1.020  0.1080  0.0435 -0.1359
 9379SOL    HW129036   4.286   4.080   0.996 -1.0168  0.3190 -0.7078
 9379SOL    HW229037   4.213   4.214   1.054  0.9360  0.4509  1.5735
 9380SOL     OW29038   4.733   6.357   1.945 -0.0552  0.5765 -0.1453
 9380SOL    HW129039   4.717   6.268   1.987 -0.2417 -0.2213 -1.8511
 9380SOL    HW229040   4.719   6.429   2.014 -0.4437 -0.6586  1.1150
 9381SOL     OW29041   0.741   2.941   5.837 -0.3599  0.1398 -0.2514
 9381SOL    HW129042   0.690   2.931   5.922 -1.1933 -1.5383 -0.8966
 9381SOL    HW229043   0.692   3.005   5.777  0.0788  1.1018  0.3939
 9382SOL     OW29044   0.326   1.794   5.382 -0.3610  0.1328  0.2709
 9382SOL    HW129045   0.308   1.754   5.472  0.7826  2.2275  1.5071
 9382SOL    HW229046   0.424   1.789   5.362 -0.5951 -0.2979 -0.9074
 9383SOL     OW29047   4.042   6.621   0.482 -0.3215 -0.4681  0.1437
 9383SOL    HW129048   3.967   6.619   0.415  0.7392  0.2924 -1.1221
 9383SOL    HW229049   4.094   6.706   0.471 -0.9372  0.3602  2.9253
 9384SOL     OW29050   3.288   4.974   4.271  0.3640 -0.5429 -0.6029
 9384SOL    HW129051   3.208   4.967   4.211  0.3999 -0.0056 -0.7169
 9384SOL    HW229052   3.265   4.936   4.361 -0.6664  1.3690 -0.0029
 9385SOL     OW29053   1.672   2.965   4.675  0.4036  0.6198 -0.0946
 9385SOL    HW129054   1.769   2.984   4.686  0.3474  1.0523 -0.3484
 9385SOL    HW229055   1.620   3.019   4.741  0.4803 -1.3471  1.6801
 9386SOL     OW29056   5.551   4.390   4.614 -0.8338 -0.1767 -0.1991
 9386SOL    HW129057   5.455   4.392   4.587 -0.5749 -1.4166 -1.2979
 9386SOL    HW229058   5.585   4.297   4.607  0.4141  0.2229  0.3466
 9387SOL     OW29059   4.778   0.088   3.436  0.7488 -0.2342 -0.2980
 9387SOL    HW129060   4.841   0.029   3.385  0.2447 -0.3000 -0.8591
 9387SOL    HW229061   4.819   0.113   3.523  1.3527 -0.6653 -0.4505
 9388SOL     OW29062   3.415   6.977   6.228  0.1639 -0.2519 -0.1900
 9388SOL    HW129063   3.371   7.067   6.230  0.7258  0.0258 -0.1432
 9388SOL    HW229064   3.389   6.929   6.144  0.8317  0.4537 -0.8216
 9389SOL     OW29065   2.132   1.146   5.595  0.2302  0.1208  0.4518
 9389SOL    HW129066   2.183   1.204   5.532  1.3727  0.6940  1.8366
 9389SOL    HW229067   2.195   1.084   5.641 -0.4786  0.0675  1.3834
 9390SOL     OW29068   4.399   5.245   3.568  0.3837 -0.1037 -0.0887
 9390SOL    HW129069   4.330   5.173   3.583 -0.0371  0.1354 -0.8276
 9390SOL    HW229070   4.391   5.313   3.640 -0.8331  0.4318 -0.7069
 9391SOL     OW29071   5.430   4.139   6.118  0.3763 -0.4643  0.2211
 9391SOL    HW129072   5.521   4.155   6.080 -0.7591 -0.7641 -2.8749
 9391SOL    HW229073   5.406   4.043   6.108 -0.9161 -0.0818 -0.5360
 9392SOL     OW29074   0.306   4.455   3.260  0.0630 -0.0074 -0.0349
 9392SOL    HW129075   0.311   4.360   3.230 -1.6444  0.3137 -1.4518
 9392SOL    HW229076   0.222   4.470   3.311  0.0245  0.8818 -0.3455
 9393SOL     OW29077   6.142   6.094   0.898  0.4748 -0.4202  0.1872
 9393SOL    HW129078   6.157   6.023   0.828 -0.1514  0.8389 -1.2823
 9393SOL    HW229079   6.049   6.085   0.934 -0.1506  0.5013 -1.0850
 9394SOL     OW29080   0.014   3.556   1.166  0.5199  0.4249 -0.5494
 9394SOL    HW129081   0.050   3.621   1.098  0.6068 -0.4856 -1.4034
 9394SOL    HW229082   0.003   3.466   1.123  0.7332 -0.2178  0.7034
 9395SOL     OW29083   3.119   6.798   4.419 -0.0034 -0.8040  0.2130
 9395SOL    HW129084   3.047   6.809   4.350  1.4983 -0.2476 -1.3225
 9395SOL    HW229085   3.100   6.858   4.497 -0.7689 -0.0689 -0.5256
 9396SOL     OW29086   3.286   6.192   1.366  0.8276 -0.2181 -0.0549
 9396SOL    HW129087   3.269   6.212   1.270  2.3929 -0.9941 -0.5453
 9396SOL    HW229088   3.215   6.132   1.401  0.8711 -0.9150 -1.1024
 9397SOL     OW29089   3.721   1.086   5.796  0.0146  0.1779 -0.2476
 9397SOL    HW129090   3.769   1.153   5.853  1.1325 -0.0896 -0.8369
 9397SOL    HW229091   3.630   1.121   5.773  0.5187  1.4439 -0.4228
 9398SOL     OW29092   3.280   2.301   5.461  0.1111  0.4921 -0.3476
 9398SOL    HW129093   3.253   2.303   5.365  0.3026 -0.3396 -0.4258
 9398SOL    HW229094   3.307   2.393   5.490 -0.3879  0.8394 -0.9565
 9399SOL     OW29095   6.687   6.544   5.851 -0.1867  0.6765  0.3666
 9399SOL    HW129096   6.700   6.460   5.904 -1.5595  0.3914  0.2806
 9399SOL    HW229097   6.772   6.567   5.804  0.5377 -0.0388  1.2853
 9400SOL     OW29098   2.323   2.131   0.357 -0.2135 -0.6573 -0.0156
 9400SOL    HW129099   2.241   2.078   0.335  0.1319 -1.0087 -0.4903
 9400SOL    HW229100   2.328   2.211   0.297 -0.1161 -0.7325 -0.1073
 9401SOL     OW29101   3.394   5.921   5.392 -0.2384  0.2004  0.1502
 9401SOL    HW129102   3.436   5.982   5.460  0.2727 -0.2423  0.2430
 9401SOL    HW229103   3.301   5.952   5.373 -0.8744 -0.3983  2.0167
 9402SOL     OW29104   6.439   5.503   0.707  0.3854  0.1478 -0.1154
 9402SOL    HW129105   6.532   5.528   0.680  0.4274  0.3192  0.1807
 9402SOL    HW229106   6.428   5.517   0.806  0.2654 -0.5653 -0.0232
 9403SOL     OW29107   3.128   6.433   0.981 -0.2470 -0.3331 -0.6970
 9403SOL    HW129108   3.062   6.381   0.927 -2.0035 -0.6668  1.5989
 9403SOL    HW229109   3.087   6.520   1.009  0.8262  0.0833 -0.3785
 9404SOL     OW29110   4.134   1.747   5.422  0.2162 -0.4028 -0.2616
 9404SOL    HW129111   4.176   1.803   5.494  0.0219 -0.5938  0.0008
 9404SOL    HW229112   4.152   1.789   5.333 -2.0405  1.5285  0.0761
 9405SOL     OW29113   1.381   3.566   3.728  0.6313 -0.0398  0.2695
 9405SOL    HW129114   1.474   3.603   3.737  0.1380  1.3094 -0.0513
 9405SOL    HW229115   1.335   3.570   3.816  0.7853 -0.4858  0.3741
 9406SOL     OW29116   1.085   5.337   0.137  0.0208  0.5972 -0.8590
 9406SOL    HW129117   1.062   5.390   0.218  0.7620 -0.0899 -0.1781
 9406SOL    HW229118   1.183   5.319   0.135 -0.2021 -0.7472 -1.0552
 9407SOL     OW29119   1.651   2.515   4.528 -0.3231  0.5241 -0.3985
 9407SOL    HW129120   1.678   2.577   4.454  2.9853 -0.9023 -0.5817
 9407SOL    HW229121   1.725   2.450   4.545 -1.2733  0.2406  3.6478
 9408SOL     OW29122   3.477   2.074   2.758  0.0594 -0.1545  0.0934
 9408SOL    HW129123   3.460   1.983   2.797 -1.4877  0.3754  0.7382
 9408SOL    HW229124   3.436   2.079   2.667  0.9105 -0.3747 -0.3067
 9409SOL     OW29125   6.093   4.686   5.430  0.0421  0.7508 -0.4807
 9409SOL    HW129126   6.032   4.627   5.377  0.7949 -1.1430  0.6760
 9409SOL    HW229127   6.183   4.689   5.386  0.5131 -0.4047  0.3497
 9410SOL     OW29128   0.238   6.632   6.643  0.6861  0.2351  0.1540
 9410SOL    HW129129   0.154   6.686   6.652  2.1109  2.3173  2.2433
 9410SOL    HW229130   0.224   6.542   6.684 -0.4229  0.6784  0.7944
 9411SOL     OW29131   6.182   6.077   4.396 -0.3294  0.6997  0.2980
 9411SOL    HW129132   6.195   6.119   4.486 -1.4158  3.1779 -0.6173
 9411SOL    HW229133   6.247   6.002   4.385 -0.6650 -0.1772  3.4014
 9412SOL     OW29134   2.990   4.833   0.958 -0.1067  0.5469 -0.3365
 9412SOL    HW129135   3.012   4.764   0.889 -0.2015  0.4049 -0.2230
 9412SOL    HW229136   3.014   4.799   1.048 -0.6798  0.4387 -0.2232
 9413SOL     OW29137   1.154   2.019   2.248 -0.2052 -0.0039  0.0007
 9413SOL    HW129138   1.072   1.991   2.199  0.4788 -1.4025 -0.4085
 9413SOL    HW229139   1.201   2.091   2.196 -0.4573 -0.1684 -0.4650
 9414SOL     OW29140   2.252   1.473   3.984  0.2091  0.4079 -0.2832
 9414SOL    HW129141   2.183   1.404   3.958 -0.4553  0.8518  0.2775
 9414SOL    HW229142   2.331   1.465   3.923  0.4998 -1.3751  0.2543
 9415SOL     OW29143   2.359   5.035   1.560 -0.0743  0.0148 -0.2960
 9415SOL    HW129144   2.341   4.995   1.469 -1.2505 -0.7957  0.2611
 9415SOL    HW229145   2.349   5.134   1.556  3.0310  0.3909 -1.7518
 9416SOL     OW29146   1.471   2.051   0.386 -0.1452  0.2092  0.1119
 9416SOL    HW129147   1.397   2.117   0.398 -0.5510 -0.0038 -1.0460
 9416SOL    HW229148   1.492   2.008   0.473 -1.1868  0.4830  0.5177
 9417SOL     OW29149   1.236   5.419   1.607  0.1150 -0.1900 -0.4018
 9417SOL    HW129150   1.280   5.332   1.630 -3.2713 -2.5815 -1.9970
 9417SOL    HW229151   1.205   5.465   1.690  0.2702 -1.5189  0.4113
 9418SOL     OW29152   6.733   1.846   2.412 -0.0617 -0.0850 -0.0852
 9418SOL    HW129153   6.832   1.855   2.400  0.3396 -1.7444  1.6801
 9418SOL    HW229154   6.704   1.754   2.386 -1.2165  0.4487 -0.7938
 9419SOL     OW29155   3.919   3.374   1.370 -0.1164  0.3576 -0.5697
 9419SOL    HW129156   3.954   3.454   1.321 -1.6830  2.4162  1.4472
 9419SOL    HW229157   3.932   3.386   1.469  0.5355 -2.4205 -0.2112
 9420SOL     OW29158   2.048   0.365   0.380 -0.2396  0.4013 -0.1377
 9420SOL    HW129159   2.025   0.434   0.311 -1.0049  0.6369  0.3453
 9420SOL    HW229160   1.964   0.328   0.420  0.1900 -0.0397  0.3747
 9421SOL     OW29161   1.921   0.658   2.746 -0.2274 -0.4167 -0.0555
 9421SOL    HW129162   1.940   0.754   2.722 -1.0914 -0.1362  0.3390
 9421SOL    HW229163   1.837   0.654   2.800  0.2218 -1.3196  0.5895
 9422SOL     OW29164   6.990   3.031   0.495  0.2448  0.0245  0.4129
 9422SOL    HW129165   6.932   2.958   0.459  0.7525 -0.2820  0.2111
 9422SOL    HW229166   6.991   3.107   0.430 -0.7072  0.4434  0.8640
 9423SOL     OW29167   6.970   3.962   3.492  0.2579 -0.4313 -0.0716
 9423SOL    HW129168   6.937   3.932   3.581  2.9053  0.6863  1.3792
 9423SOL    HW229169   6.897   4.012   3.444 -1.9282 -2.9517  0.4168
 9424SOL     OW29170   5.643   0.716   5.344 -0.3036  0.9178 -0.0102
 9424SOL    HW129171   5.633   0.701   5.443  1.8692 -0.8124  0.0354
 9424SOL    HW229172   5.728   0.766   5.327 -1.6975  3.1354 -0.9628
 9425SOL     OW29173   3.034   4.170   1.209 -0.3275  0.5769 -0.2137
 9425SOL    HW129174   3.035   4.270   1.201 -0.1716  0.5583 -0.4436
 9425SOL    HW229175   3.128   4.137   1.218 -0.4575  0.5709  1.4471
 9426SOL     OW29176   5.102   0.406   3.352  0.2415  0.4574 -0.1538
 9426SOL    HW129177   5.190   0.407   3.400  1.3663 -1.3743 -1.9761
 9426SOL    HW229178   5.089   0.492   3.303  1.1758  0.6482 -0.0788
 9427SOL     OW29179   5.492   1.771   2.102 -0.1106 -0.4242 -0.0102
 9427SOL    HW129180   5.566   1.705   2.113 -0.4950 -0.7294  0.8201
 9427SOL    HW229181   5.480   1.822   2.187  0.2661  0.8236 -0.6660
 9428SOL     OW29182   6.411   2.658   5.135 -0.1591  0.4677 -0.0676
 9428SOL    HW129183   6.446   2.564   5.145 -0.2025  0.4250 -0.3027
 9428SOL    HW229184   6.455   2.701   5.056 -0.2243  0.6043 -0.0285
 9429SOL     OW29185   5.124   6.825   5.232  0.5516  0.6963  0.0681
 9429SOL    HW129186   5.048   6.820   5.168  1.0505  0.2617 -0.5098
 9429SOL    HW229187   5.203   6.865   5.187  0.2032  2.7239  1.1441
 9430SOL     OW29188   1.606   4.730   5.844 -0.4858 -0.4530  0.0928
 9430SOL    HW129189   1.690   4.687   5.876 -0.3010 -0.7662 -0.8026
 9430SOL    HW229190   1.576   4.687   5.759 -1.3259 -0.0645  0.1802
 9431SOL     OW29191   3.481   6.491   0.061 -0.3849  0.2496 -0.4971
 9431SOL    HW129192   3.468   6.560  -0.010  0.6619  0.0315 -0.9229
 9431SOL    HW229193   3.578   6.483   0.082 -0.4701 -1.1940 -0.5674
 9432SOL     OW29194   5.367   2.499   3.989 -0.7248 -0.2802  0.2942
 9432SOL    HW129195   5.369   2.425   3.921 -0.9715 -0.5952  0.6240
 9432SOL    HW229196   5.437   2.481   4.058 -0.9997 -0.3761  0.5488
 9433SOL     OW29197   0.184   3.631   1.394 -0.0593 -0.5759  0.1652
 9433SOL    HW129198   0.266   3.650   1.341  0.2572 -2.2841  0.0088
 9433SOL    HW229199   0.108   3.610   1.332 -0.1025 -0.9953  0.3611
 9434SOL     OW29200   5.098   1.208   6.753  0.0031 -0.1102 -0.2575
 9434SOL    HW129201   5.138   1.200   6.662  1.2879  1.0588  0.1701
 9434SOL    HW229202   5.130   1.132   6.810 -2.1485 -1.8350 -1.1888
 9435SOL     OW29203   2.965   3.928   6.894  0.7227  0.1260  0.5010
 9435SOL    HW129204   2.964   3.829   6.880 -0.2073  0.2713 -0.6522
 9435SOL    HW229205   2.993   3.949   6.988 -1.2396 -1.3192  1.4673
 9436SOL     OW29206   2.860   6.305   4.601 -0.3723 -0.1988 -0.2186
 9436SOL    HW129207   2.920   6.384   4.591  0.6611 -0.3644  3.3003
 9436SOL    HW229208   2.791   6.324   4.671 -0.0589 -2.3620  0.7636
 9437SOL     OW29209   1.124   2.519   1.970 -0.1850  0.6250  0.1536
 9437SOL    HW129210   1.080   2.599   2.012 -0.1944 -0.1423  1.6666
 9437SOL    HW229211   1.222   2.523   1.987 -0.2623  0.0059  0.7977
 9438SOL     OW29212   1.794   2.169   6.233  0.0107  0.1310  0.4966
 9438SOL    HW129213   1.827   2.168   6.328 -0.2377  1.2512  0.6110
 9438SOL    HW229214   1.702   2.207   6.230 -0.2297 -0.4831 -0.1293
 9439SOL     OW29215   0.697   0.862   2.482 -0.7664  0.1306 -0.1499
 9439SOL    HW129216   0.672   0.779   2.433 -0.4023 -0.1878  0.2039
 9439SOL    HW229217   0.777   0.904   2.438 -1.6552  0.9432 -1.0489
 9440SOL     OW29218   1.854   4.708   5.970  0.7960  0.2904 -0.0783
 9440SOL    HW129219   1.889   4.798   5.995  0.5476  0.0890  1.0645
 9440SOL    HW229220   1.917   4.664   5.905  1.2289  1.0343 -0.1686
 9441SOL     OW29221   4.079   1.506   6.419 -0.0200 -1.3205 -0.5547
 9441SOL    HW129222   4.136   1.448   6.477 -1.1576 -0.0402  1.9813
 9441SOL    HW229223   4.133   1.584   6.386  0.3167 -1.3661 -0.1205
 9442SOL     OW29224   3.967   5.079   5.795  0.1190 -0.5945  0.4243
 9442SOL    HW129225   3.973   5.060   5.893 -0.0975  1.1911  0.8221
 9442SOL    HW229226   3.880   5.125   5.776  0.1585 -0.9264 -0.6190
 9443SOL     OW29227   6.081   0.866   2.165 -1.0013 -0.5950 -0.2311
 9443SOL    HW129228   6.090   0.837   2.261 -2.8427 -2.0393 -0.4235
 9443SOL    HW229229   6.016   0.941   2.160  1.8278  2.0393 -0.0294
 9444SOL     OW29230   4.917   4.712   1.303  0.5391 -0.7923 -0.7281
 9444SOL    HW129231   4.860   4.759   1.370  0.9333  1.2503 -1.7331
 9444SOL    HW229232   4.998   4.675   1.348  0.6220  0.2307 -0.0026
 9445SOL     OW29233   5.629   4.311   3.705  0.0203 -0.0542  0.1872
 9445SOL    HW129234   5.531   4.324   3.716 -0.7686 -4.0162 -0.5182
 9445SOL    HW229235   5.658   4.347   3.616 -1.2944 -0.6484 -0.5183
 9446SOL     OW29236   6.361   2.023   3.338 -0.0886 -0.4509 -0.5997
 9446SOL    HW129237   6.372   1.979   3.249 -0.8235  0.4481 -1.1494
 9446SOL    HW229238   6.274   1.996   3.378  0.5467 -1.4047  0.1845
 9447SOL     OW29239   0.426   3.214   2.871 -0.6514 -0.3040 -0.7537
 9447SOL    HW129240   0.326   3.209   2.871 -0.6136 -1.1662 -0.3134
 9447SOL    HW229241   0.454   3.305   2.841 -1.5788  0.2883  0.0962
 9448SOL     OW29242   0.198   6.903   4.746 -0.6702  0.1362  0.8217
 9448SOL    HW129243   0.215   6.957   4.664 -0.5993 -1.2639 -0.1217
 9448SOL    HW229244   0.277   6.907   4.807  0.4123 -0.9664 -0.4501
 9449SOL     OW29245   4.446   6.109   6.636 -0.0305 -0.2275 -0.3243
 9449SOL    HW129246   4.470   6.014   6.621 -1.7188 -0.4804 -1.7832
 9449SOL    HW229247   4.400   6.145   6.555  0.3333  1.7574  0.2934
 9450SOL     OW29248   5.329   4.952   2.301 -0.8973  0.3780  0.2423
 9450SOL    HW129249   5.349   4.857   2.325 -1.2961 -0.0309 -0.9752
 9450SOL    HW229250   5.322   5.006   2.385 -1.3659 -0.8073  0.9990
 9451SOL     OW29251   1.513   2.192   5.524  0.0750 -0.0771  0.0372
 9451SOL    HW129252   1.608   2.220   5.540  0.1461 -0.4540  0.2803
 9451SOL    HW229253   1.452   2.268   5.547  0.3996  0.8803 -1.9583
 9452SOL     OW29254   5.193   1.217   1.858  0.2588  0.5759 -0.1832
 9452SOL    HW129255   5.254   1.289   1.889  0.2708  0.6276 -0.3253
 9452SOL    HW229256   5.230   1.128   1.882  0.4777  0.6006 -0.4268
 9453SOL     OW29257   1.449   1.294   3.851  0.1949 -0.0851 -0.7110
 9453SOL    HW129258   1.378   1.303   3.781 -0.7785  0.8558  0.3597
 9453SOL    HW229259   1.439   1.206   3.897  0.2032 -0.2724 -1.0590
 9454SOL     OW29260   2.392   6.376   6.352  0.3138  0.5044  0.0892
 9454SOL    HW129261   2.473   6.430   6.377 -0.3844  1.6230  0.0393
 9454SOL    HW229262   2.312   6.436   6.350 -0.4444 -0.4917 -0.3037
 9455SOL     OW29263   0.596   1.905   3.881 -0.4574 -0.1874 -0.0420
 9455SOL    HW129264   0.616   1.996   3.845 -2.9230  0.6953  0.6141
 9455SOL    HW229265   0.527   1.860   3.824 -0.2387 -1.1190  0.3959
 9456SOL     OW29266   3.840   3.658   4.395  0.6246  0.0163 -0.2329
 9456SOL    HW129267   3.937   3.639   4.379  1.2778  1.2437  1.8942
 9456SOL    HW229268   3.826   3.680   4.491 -1.5497  1.1481 -0.7559
 9457SOL     OW29269   5.202   3.761   3.808  0.4234  0.2439 -0.5523
 9457SOL    HW129270   5.187   3.666   3.836  2.3945  0.2765  0.8226
 9457SOL    HW229271   5.148   3.822   3.866  0.1761  0.0459 -0.5704
 9458SOL     OW29272   5.336   0.884   4.742  0.6426 -0.2594 -0.3039
 9458SOL    HW129273   5.420   0.875   4.795  0.9639 -1.6715 -1.0065
 9458SOL    HW229274   5.348   0.956   4.673  1.0619 -0.0694 -0.0413
 9459SOL     OW29275   4.731   5.414   5.243 -0.8945 -0.3164 -0.1612
 9459SOL    HW129276   4.656   5.478   5.262  0.6561  1.3980  0.5390
 9459SOL    HW229277   4.744   5.354   5.321 -0.1063  0.9252  0.6963
 9460SOL     OW29278   5.845   3.672   0.134 -0.4043  0.4100  0.1832
 9460SOL    HW129279   5.817   3.576   0.137 -0.5116  0.3431 -1.7221
 9460SOL    HW229280   5.944   3.678   0.147 -0.2999 -0.0310 -0.3623
 9461SOL     OW29281   4.186   5.859   3.395  0.5475  0.1082  0.6340
 9461SOL    HW129282   4.087   5.865   3.384  0.6481  0.0502 -0.4058
 9461SOL    HW229283   4.218   5.770   3.364  1.0696  0.5968 -0.2530
 9462SOL     OW29284   3.689   3.234   6.918 -0.3087 -0.4781 -0.1776
 9462SOL    HW129285   3.742   3.194   6.844  0.5406  1.6909 -0.8418
 9462SOL    HW229286   3.598   3.194   6.920  0.4567 -2.3305 -0.7867
 9463SOL     OW29287   3.731   4.223   1.316  0.5258  0.3950  0.1727
 9463SOL    HW129288   3.677   4.145   1.346  0.2419  0.5509  0.0751
 9463SOL    HW229289   3.697   4.307   1.359 -0.4011  0.7400 -1.1637
 9464SOL     OW29290   6.522   3.136   4.286 -0.0168  0.7362  0.4024
 9464SOL    HW129291   6.543   3.234   4.279 -0.4637  0.8701  0.8470
 9464SOL    HW229292   6.458   3.111   4.213 -0.4618  0.9413  0.7138
 9465SOL     OW29293   4.182   1.008   5.922  0.4040  0.5686 -0.1785
 9465SOL    HW129294   4.092   1.023   5.961  0.1981 -2.1560  0.6198
 9465SOL    HW229295   4.175   1.002   5.822 -0.3365  0.2226 -0.1115
 9466SOL     OW29296   2.618   4.583   4.432 -0.2918 -0.0769  0.2457
 9466SOL    HW129297   2.592   4.647   4.360 -0.8316  0.6380  1.0432
 9466SOL    HW229298   2.698   4.618   4.481  0.5570 -0.9462 -0.4908
 9467SOL     OW29299   6.961   2.659   4.693  1.0245  0.5391  0.2580
 9467SOL    HW129300   6.956   2.758   4.703  1.4524  0.4379  1.6621
 9467SOL    HW229301   6.979   2.617   4.782  0.3190 -0.8467 -0.2217
 9468SOL     OW29302   6.389   2.263   6.387 -1.1242 -0.2430  0.0564
 9468SOL    HW129303   6.345   2.260   6.297 -0.8918 -1.2356 -0.0344
 9468SOL    HW229304   6.415   2.171   6.414  1.5082  0.3509 -0.1994
 9469SOL     OW29305   6.913   2.058   5.060 -0.0215  0.3636 -0.1403
 9469SOL    HW129306   6.945   2.149   5.086  1.1774 -0.4594  1.4940
 9469SOL    HW229307   6.937   2.040   4.965 -1.0709  2.0553 -0.7667
 9470SOL     OW29308   1.371   2.691   1.702 -0.5313 -0.1552 -0.2053
 9470SOL    HW129309   1.386   2.610   1.758 -0.4996 -1.2543 -1.7222
 9470SOL    HW229310   1.450   2.704   1.641 -0.3810  1.2329  0.2478
 9471SOL     OW29311   3.225   6.815   1.128 -0.3422  0.0573  0.1146
 9471SOL    HW129312   3.197   6.812   1.032  0.1262  2.3909 -0.1456
 9471SOL    HW229313   3.154   6.772   1.185 -0.0325 -2.5550 -1.3161
 9472SOL     OW29314   0.490   2.868   0.799  0.1016  0.0630  0.2951
 9472SOL    HW129315   0.453   2.939   0.739  0.1978  1.1575  1.4802
 9472SOL    HW229316   0.449   2.876   0.890  0.4451 -1.1271  0.5764
 9473SOL     OW29317   4.727   1.723   3.349 -0.4391  0.4515  0.1208
 9473SOL    HW129318   4.680   1.766   3.272 -1.9490  0.6822  1.1333
 9473SOL    HW229319   4.763   1.634   3.320 -1.2757  0.3846 -0.7696
 9474SOL     OW29320   4.200   0.725   4.098 -0.7525 -0.0040 -0.2179
 9474SOL    HW129321   4.228   0.713   4.194 -1.0993 -1.2184 -0.2612
 9474SOL    HW229322   4.166   0.818   4.086  0.2386  0.4885  0.5964
 9475SOL     OW29323   5.806   5.454   2.823  0.6489  0.1638  0.3518
 9475SOL    HW129324   5.761   5.516   2.888 -1.4731  0.6377 -1.4156
 9475SOL    HW229325   5.822   5.365   2.866  0.0260  0.7061  1.7416
 9476SOL     OW29326   0.831   6.070   4.940  0.3966  0.1816  0.3740
 9476SOL    HW129327   0.792   6.135   4.875 -0.2372 -1.7959 -1.3566
 9476SOL    HW229328   0.914   6.030   4.902 -0.3025 -1.4427  0.4412
 9477SOL     OW29329   6.711   6.363   6.202 -0.6230  0.1699 -0.0123
 9477SOL    HW129330   6.705   6.272   6.241 -1.0537  0.2354  0.0799
 9477SOL    HW229331   6.771   6.361   6.122 -1.6011 -0.4670 -0.7618
 9478SOL     OW29332   5.049   5.955   3.059  0.2268 -0.0559 -0.2218
 9478SOL    HW129333   5.012   5.993   3.143  1.3872 -0.5150  0.5228
 9478SOL    HW229334   5.027   5.857   3.055  1.4776 -0.3911  0.3464
 9479SOL     OW29335   3.615   6.838   3.267  0.4499 -0.5876 -0.4526
 9479SOL    HW129336   3.710   6.810   3.258  0.8681  0.5902  0.0306
 9479SOL    HW229337   3.571   6.786   3.340  1.1470 -0.1738  0.2914
 9480SOL     OW29338   4.371   6.825   6.053  0.2700  0.4526 -0.3500
 9480SOL    HW129339   4.344   6.918   6.078 -0.5918 -0.1389  1.0502
 9480SOL    HW229340   4.298   6.783   5.998 -1.4017 -0.7782  2.5448
 9481SOL     OW29341   5.745   1.590   3.131 -0.4601 -0.1919  0.3439
 9481SOL    HW129342   5.713   1.497   3.113  0.1326 -0.2381 -0.5185
 9481SOL    HW229343   5.668   1.647   3.158 -0.9438 -0.7637  0.1927
 9482SOL     OW29344   1.634   4.303   0.463  0.1825  0.0206 -0.1353
 9482SOL    HW129345   1.706   4.237   0.485  1.6204  1.6371  0.1670
 9482SOL    HW229346   1.666   4.368   0.394 -0.8045  1.0600  0.3391
 9483SOL     OW29347   3.762   1.626   4.276  0.0312 -0.2161  0.3166
 9483SOL    HW129348   3.749   1.558   4.348 -1.1047  0.5029  0.8002
 9483SOL    HW229349   3.736   1.586   4.188  0.4276 -0.7561  0.4356
 9484SOL     OW29350   0.668   1.232   4.115 -0.1582  0.3635 -0.1413
 9484SOL    HW129351   0.580   1.272   4.139 -1.2328 -2.4000  0.9226
 9484SOL    HW229352   0.731   1.242   4.191  0.3705  1.9971 -0.7565
 9485SOL     OW29353   5.951   3.273   5.388 -0.2243 -0.0547 -0.2538
 9485SOL    HW129354   5.999   3.299   5.472 -1.5533  1.5648  0.0563
 9485SOL    HW229355   5.995   3.317   5.310 -0.1168 -0.0171 -0.1728
 9486SOL     OW29356   2.040   2.040   5.159  0.0173 -0.2078 -0.2688
 9486SOL    HW129357   2.037   2.138   5.137  1.5197 -0.2731 -0.8446
 9486SOL    HW229358   2.059   2.028   5.256  0.0689  0.0637 -0.2457
 9487SOL     OW29359   2.486   6.194   4.705 -0.2220  0.3940 -0.3265
 9487SOL    HW129360   2.389   6.203   4.684 -0.3080 -0.7220 -0.4689
 9487SOL    HW229361   2.531   6.282   4.693 -0.8948  0.5565 -2.0381
 9488SOL     OW29362   0.061   5.159   6.177 -0.1080 -0.4665  0.3395
 9488SOL    HW129363   0.087   5.253   6.155  0.7234 -0.6398  0.5377
 9488SOL    HW229364  -0.020   5.134   6.124 -0.1335  0.2468  0.0269
 9489SOL     OW29365   4.080   0.568   4.878  0.1146  0.4384  0.4708
 9489SOL    HW129366   4.148   0.640   4.867 -0.9797  1.0591 -4.1860
 9489SOL    HW229367   3.992   0.608   4.902 -0.3026  0.6713 -1.3023
 9490SOL     OW29368   0.491   2.097   6.832 -0.2424  0.0006 -0.3557
 9490SOL    HW129369   0.472   2.001   6.852 -0.7977  0.3100  0.6747
 9490SOL    HW229370   0.429   2.129   6.761  0.2063 -0.4985 -0.9850
 9491SOL     OW29371   4.855   5.335   2.821 -0.4060 -0.2412 -0.0216
 9491SOL    HW129372   4.763   5.321   2.784 -0.8237 -0.9406  1.2530
 9491SOL    HW229373   4.856   5.313   2.918  0.4439  2.5182  0.6760
 9492SOL     OW29374   0.421   5.883   5.295  0.1171 -0.0676 -0.4551
 9492SOL    HW129375   0.389   5.806   5.240  1.3456 -0.2675 -0.9282
 9492SOL    HW229376   0.484   5.939   5.240  0.4983  0.3555  0.3966
 9493SOL     OW29377   0.738   2.832   3.812  0.2677 -0.0747  0.1293
 9493SOL    HW129378   0.834   2.811   3.792  0.0399 -1.9781  0.7629
 9493SOL    HW229379   0.732   2.882   3.898  0.7181  0.6189 -0.2342
 9494SOL     OW29380   6.911   4.035   6.332 -0.5080  0.0057 -0.4226
 9494SOL    HW129381   6.944   4.118   6.286 -2.1153  0.0189 -1.6033
 9494SOL    HW229382   6.813   4.025   6.316 -0.7794 -0.9479  1.5719
 9495SOL     OW29383   1.055   2.036   2.545  0.3870  0.2992  0.1348
 9495SOL    HW129384   1.101   2.063   2.460 -0.5510  1.2940 -0.0794
 9495SOL    HW229385   1.122   1.995   2.607  0.8856 -1.4908 -1.4957
 9496SOL     OW29386   5.361   2.382   5.726 -0.1616 -0.9359 -1.0394
 9496SOL    HW129387   5.419   2.301   5.725 -0.9272 -1.4920 -1.5409
 9496SOL    HW229388   5.390   2.443   5.800 -0.3440 -2.2296  0.1468
 9497SOL     OW29389   0.366   0.950   6.586 -0.6944  0.1308 -0.5395
 9497SOL    HW129390   0.407   0.862   6.612 -1.3105 -0.1239 -0.4118
 9497SOL    HW229391   0.313   0.986   6.662  2.8209  2.6715  0.9992
 9498SOL     OW29392   1.196   3.541   0.566  0.7608 -0.6092  0.1191
 9498SOL    HW129393   1.185   3.527   0.665  0.8537 -2.2580 -0.0704
 9498SOL    HW229394   1.181   3.454   0.519  0.7615  0.1498 -1.3227
 9499SOL     OW29395   1.193   4.911   4.281  0.4836 -0.3884  0.2348
 9499SOL    HW129396   1.104   4.893   4.323  0.5170 -0.9666  0.0554
 9499SOL    HW229397   1.229   4.998   4.317 -0.2112 -0.0785  0.1989
 9500SOL     OW29398   5.843   0.793   1.051 -0.2947 -0.1704  0.3032
 9500SOL    HW129399   5.789   0.780   0.968 -1.3399  0.0756  0.9326
 9500SOL    HW229400   5.893   0.709   1.072 -0.5257 -0.4409 -0.2076
 9501SOL     OW29401   0.210   3.343   1.498 -0.5399  0.7177 -0.4125
 9501SOL    HW129402   0.189   3.436   1.527 -0.2658  0.4683  0.6444
 9501SOL    HW229403   0.233   3.288   1.578 -1.3537 -0.4316 -0.9334
 9502SOL     OW29404   1.797   5.071   5.015  0.8550 -0.0902 -0.0622
 9502SOL    HW129405   1.762   4.982   4.985  0.2830  0.3066 -0.5987
 9502SOL    HW229406   1.819   5.067   5.113  2.2987 -1.2621 -0.3922
 9503SOL     OW29407   6.255   6.091   3.850 -0.5478 -0.0043 -0.4025
 9503SOL    HW129408   6.340   6.050   3.818 -1.0025 -0.8131 -0.5955
 9503SOL    HW229409   6.211   6.140   3.775  0.2110  1.2425 -0.0647
 9504SOL     OW29410   0.487   4.903   1.974 -0.5127  0.0105  0.1394
 9504SOL    HW129411   0.506   4.980   2.034  0.3835  0.6240 -0.8898
 9504SOL    HW229412   0.426   4.838   2.020 -0.0835  0.5972  1.5725
 9505SOL     OW29413   5.090   4.360   5.525  0.9035 -0.2992  0.0070
 9505SOL    HW129414   5.151   4.439   5.530  0.9494 -0.2873 -0.5930
 9505SOL    HW229415   5.007   4.385   5.474  0.2347 -0.2190  1.0988
 9506SOL     OW29416   4.905   0.224   0.639  0.4647  0.6300 -0.5806
 9506SOL    HW129417   4.842   0.148   0.656  0.4246  0.8006  0.0272
 9506SOL    HW229418   4.854   0.310   0.642  0.7477  0.7770  0.0148
 9507SOL     OW29419   2.030   6.266   0.624  0.2553  0.4240  0.1567
 9507SOL    HW129420   1.932   6.277   0.610 -0.0632 -1.4052  0.6959
 9507SOL    HW229421   2.070   6.354   0.649 -1.2371  1.2014 -0.0697
 9508SOL     OW29422   4.939   2.620   2.594 -0.4898 -0.5456 -0.3412
 9508SOL    HW129423   4.923   2.672   2.510 -1.3037 -2.3275 -1.3365
 9508SOL    HW229424   4.858   2.625   2.652 -0.1797  0.1250  0.0456
 9509SOL     OW29425   0.532   6.639   6.158 -0.8514 -0.1882  0.4497
 9509SOL    HW129426   0.440   6.675   6.144  0.5610  3.6639  0.0147
 9509SOL    HW229427   0.545   6.619   6.255 -1.8269  0.1824  0.6736
 9510SOL     OW29428   4.553   1.408   6.810  0.3925 -0.0860 -0.0681
 9510SOL    HW129429   4.513   1.331   6.760  2.1381 -1.1093  0.0263
 9510SOL    HW229430   4.546   1.391   6.909 -1.7054  1.2358  0.0871
 9511SOL     OW29431   4.510   1.288   4.110 -0.1920  1.0243  0.1187
 9511SOL    HW129432   4.473   1.199   4.137  0.8329  0.8212  0.9295
 9511SOL    HW229433   4.556   1.279   4.021  2.8472 -0.1350  1.6676
 9512SOL     OW29434   2.643   4.667   0.945 -0.4451 -0.0920 -0.5684
 9512SOL    HW129435   2.681   4.576   0.959 -0.4900 -0.0288 -0.0378
 9512SOL    HW229436   2.686   4.709   0.865  1.3198  0.3541  0.5650
 9513SOL     OW29437   1.546   1.163   5.781 -1.0707  0.3101  0.1414
 9513SOL    HW129438   1.602   1.233   5.735 -0.7822 -0.0883 -0.1246
 9513SOL    HW229439   1.526   1.089   5.717  1.2540 -1.3774  1.2163
 9514SOL     OW29440   2.297   0.296   2.624 -0.0913  0.0830  0.8963
 9514SOL    HW129441   2.263   0.274   2.715 -1.8841  3.8618  1.3502
 9514SOL    HW229442   2.331   0.390   2.624 -1.5397  0.7351 -2.6479
 9515SOL     OW29443   5.424   0.519   0.697 -0.5161  0.5116 -0.0827
 9515SOL    HW129444   5.507   0.465   0.681 -0.8597  0.3450 -1.4125
 9515SOL    HW229445   5.368   0.474   0.766  0.3198  0.4357  0.5682
 9516SOL     OW29446   4.388   0.624   3.927 -0.2961  0.0732  0.4312
 9516SOL    HW129447   4.309   0.658   3.979  0.0172 -0.4035  1.2333
 9516SOL    HW229448   4.355   0.573   3.847 -0.7891  0.3987  0.4189
 9517SOL     OW29449   0.483   3.498   3.653 -0.1025  0.3088 -0.1553
 9517SOL    HW129450   0.439   3.487   3.564  0.0259 -0.6930 -0.1011
 9517SOL    HW229451   0.570   3.545   3.641 -0.6722  1.3450 -0.3893
 9518SOL     OW29452   2.719   2.085   1.196 -0.0108 -0.0464  0.4881
 9518SOL    HW129453   2.652   2.055   1.264  0.8125 -0.7800  0.9970
 9518SOL    HW229454   2.713   2.184   1.184 -0.7448 -0.0215  0.9851
 9519SOL     OW29455   2.146   3.689   1.604 -0.5078 -0.0389  0.4199
 9519SOL    HW129456   2.244   3.686   1.624  0.1077 -1.1165 -2.3032
 9519SOL    HW229457   2.098   3.625   1.665  0.7283 -0.7906  0.6532
 9520SOL     OW29458   6.388   4.296   0.869 -0.2779 -0.1638 -0.3561
 9520SOL    HW129459   6.325   4.220   0.880  0.7463 -1.1205 -0.8705
 9520SOL    HW229460   6.392   4.322   0.772 -1.0126  0.9176 -0.1186
 9521SOL     OW29461   6.058   2.908   0.932  0.1030  0.2836  0.1105
 9521SOL    HW129462   6.147   2.939   0.898 -0.4454  0.5031 -1.1760
 9521SOL    HW229463   5.995   2.986   0.935 -0.0442  0.1439  1.0820
 9522SOL     OW29464   6.703   6.056   2.801  0.1940 -0.2340 -0.0969
 9522SOL    HW129465   6.700   6.100   2.891  0.0842  0.2218 -0.3254
 9522SOL    HW229466   6.661   6.115   2.733  1.2469 -0.1155 -0.6505
 9523SOL     OW29467   2.463   4.011   0.809 -0.0217 -0.1454 -0.1052
 9523SOL    HW129468   2.434   3.945   0.878 -0.0311 -2.3900 -2.0958
 9523SOL    HW229469   2.405   4.002   0.728  0.7260  1.5241 -0.8740
 9524SOL     OW29470   2.923   0.592   1.414 -0.1880  0.0017 -0.5969
 9524SOL    HW129471   2.875   0.647   1.481  0.0478  0.4935 -0.8282
 9524SOL    HW229472   2.906   0.495   1.433 -1.6847  0.1613 -0.9820
 9525SOL     OW29473   0.229   1.518   1.058  0.5111  0.0604  0.1652
 9525SOL    HW129474   0.292   1.553   1.127 -1.3780 -0.2389  2.1680
 9525SOL    HW229475   0.209   1.422   1.077  1.0444 -0.4625 -1.7086
 9526SOL     OW29476   0.524   1.179   6.972 -0.3742  0.4418  0.8025
 9526SOL    HW129477   0.517   1.091   6.923  0.1922  1.5390 -1.3620
 9526SOL    HW229478   0.482   1.251   6.917  0.9115  1.8752  1.6280
 9527SOL     OW29479   1.572   3.233   5.082 -0.1836 -0.0548  0.6429
 9527SOL    HW129480   1.631   3.154   5.064 -0.6945 -0.1047 -1.0310
 9527SOL    HW229481   1.607   3.284   5.159  1.7128 -0.4184  0.0744
 9528SOL     OW29482   2.420   1.762   0.887 -0.0244  0.1096  0.1235
 9528SOL    HW129483   2.382   1.686   0.834 -0.3316  0.0896  0.3733
 9528SOL    HW229484   2.484   1.726   0.955  0.0993  0.1066  0.0074
 9529SOL     OW29485   5.448   3.376   3.883 -0.0642  0.2435  0.5813
 9529SOL    HW129486   5.424   3.441   3.811 -0.2087  1.1832  1.4656
 9529SOL    HW229487   5.365   3.328   3.913 -0.0414  0.0144  0.2786
 9530SOL     OW29488   6.815   1.728   4.942  0.2652  0.4968  0.1276
 9530SOL    HW129489   6.813   1.814   4.993 -0.1196 -0.2368  1.4051
 9530SOL    HW229490   6.904   1.717   4.899  0.0479  1.9036 -0.7374
 9531SOL     OW29491   1.916   3.592   6.874  0.4219  0.1379 -0.2851
 9531SOL    HW129492   1.987   3.602   6.944  0.9140 -1.3492 -0.5210
 9531SOL    HW229493   1.930   3.660   6.802  3.1558 -1.5763 -1.5621
 9532SOL     OW29494   3.608   1.584   4.689 -0.4715 -0.7471 -0.4122
 9532SOL    HW129495   3.685   1.642   4.714 -1.5681  0.2771  0.7023
 9532SOL    HW229496   3.574   1.538   4.771 -1.9201 -0.0890 -0.6293
 9533SOL     OW29497   0.915   6.240   2.718 -0.1595 -0.0521 -0.2110
 9533SOL    HW129498   0.909   6.149   2.759 -0.6291 -0.7637 -1.7895
 9533SOL    HW229499   0.889   6.309   2.786  0.1076 -1.0859  0.9777
 9534SOL     OW29500   4.230   0.181   5.746 -0.2526  0.1407 -0.4566
 9534SOL    HW129501   4.270   0.166   5.836  0.2183 -0.0910 -0.7003
 9534SOL    HW229502   4.292   0.146   5.675 -1.2230 -0.9267 -0.8131
 9535SOL     OW29503   5.651   5.433   4.302  0.0147 -0.4744 -0.4941
 9535SOL    HW129504   5.726   5.419   4.236 -0.0788 -0.5754 -0.5786
 9535SOL    HW229505   5.689   5.438   4.394  0.1888  0.0471 -0.5882
 9536SOL     OW29506   1.280   5.146   1.647 -0.5594 -0.0038 -0.1812
 9536SOL    HW129507   1.204   5.100   1.601 -1.2657  1.7446 -0.8536
 9536SOL    HW229508   1.262   5.149   1.746 -1.3110  0.2800 -0.3184
 9537SOL     OW29509   0.753   2.776   1.139 -0.7506 -0.2687  0.3749
 9537SOL    HW129510   0.724   2.871   1.127 -1.9357 -0.5799  0.6771
 9537SOL    HW229511   0.810   2.748   1.061 -1.0813  0.4241 -0.1208
 9538SOL     OW29512   0.734   4.966   5.708 -0.3245 -0.1480  0.4480
 9538SOL    HW129513   0.730   4.980   5.808 -0.5825  1.8373  0.2157
 9538SOL    HW229514   0.816   5.010   5.672 -0.7986  0.1090 -0.3348
 9539SOL     OW29515   1.781   6.023   6.383  0.2146 -0.1009  0.0803
 9539SOL    HW129516   1.682   6.020   6.393  0.1902 -0.6314 -0.3228
 9539SOL    HW229517   1.816   5.933   6.358  0.9076 -0.1603  1.1835
 9540SOL     OW29518   4.291   2.331   1.032 -0.5160 -0.0701 -0.1207
 9540SOL    HW129519   4.275   2.420   0.991  1.3519  1.5034  2.3347
 9540SOL    HW229520   4.350   2.277   0.972 -0.3984  0.9335 -0.9300
 9541SOL     OW29521   2.368   5.888   2.593  0.5906 -0.3927  0.2528
 9541SOL    HW129522   2.452   5.879   2.646  0.7192  2.0532  0.6094
 9541SOL    HW229523   2.352   5.985   2.573 -1.1623 -0.9640 -1.4358
 9542SOL     OW29524   4.537   2.247   0.450  0.6948 -0.5714 -0.4619
 9542SOL    HW129525   4.488   2.160   0.439 -1.4848  0.5727 -0.2933
 9542SOL    HW229526   4.548   2.267   0.547 -1.2016  0.5661 -0.4421
 9543SOL     OW29527   3.208   1.549   0.117  0.1478  0.1049 -0.2601
 9543SOL    HW129528   3.264   1.530   0.197 -1.0110 -0.5532  0.4360
 9543SOL    HW229529   3.249   1.622   0.063  0.1780  1.6478  1.7369
 9544SOL     OW29530   4.777   4.059   3.022 -0.5749 -0.6990 -0.0867
 9544SOL    HW129531   4.849   4.116   2.983 -1.3317  0.1323 -0.2943
 9544SOL    HW229532   4.812   3.967   3.037  0.7085 -0.1466  0.3953
 9545SOL     OW29533   1.389   2.751   5.324  0.4383  0.0695 -0.1006
 9545SOL    HW129534   1.353   2.842   5.306 -0.6631 -0.4545 -0.6709
 9545SOL    HW229535   1.418   2.744   5.419  1.4510  1.3031 -0.2965
 9546SOL     OW29536   4.892   0.864   6.287 -0.2762  0.0767  0.6645
 9546SOL    HW129537   4.793   0.851   6.297 -0.1314 -1.5511  0.1590
 9546SOL    HW229538   4.939   0.828   6.368 -0.0497  0.3178  0.6433
 9547SOL     OW29539   2.161   3.870   3.671  0.0063  0.6311  0.2379
 9547SOL    HW129540   2.066   3.900   3.666 -0.0740  0.2864 -0.3890
 9547SOL    HW229541   2.165   3.778   3.711  0.1251  0.8525  0.7468
 9548SOL     OW29542   6.646   1.216   1.830  0.4563 -0.7036 -0.2835
 9548SOL    HW129543   6.648   1.173   1.920 -3.3891 -0.3846  0.1152
 9548SOL    HW229544   6.631   1.314   1.840 -3.4967 -1.0621 -1.0822
 9549SOL     OW29545   6.860   3.462   6.887  0.0718  0.1535 -0.1735
 9549SOL    HW129546   6.910   3.517   6.954  0.4060  0.7163 -0.8718
 9549SOL    HW229547   6.877   3.497   6.795 -0.1872 -0.7587 -0.5843
 9550SOL     OW29548   5.206   4.514   2.263  0.4962 -0.2632 -0.9852
 9550SOL    HW129549   5.254   4.427   2.248 -1.0561 -1.0349 -1.6829
 9550SOL    HW229550   5.146   4.505   2.342  0.4519  0.2369 -0.9619
 9551SOL     OW29551   2.782   1.833   1.786  0.0616  0.1297 -0.0649
 9551SOL    HW129552   2.798   1.921   1.831  0.0967 -0.3397  0.8588
 9551SOL    HW229553   2.774   1.847   1.687  1.2868  1.0214 -0.0599
 9552SOL     OW29554   3.916   1.171   3.767  0.5998 -0.4196  0.2378
 9552SOL    HW129555   3.884   1.097   3.825 -0.3372 -1.0815 -1.0661
 9552SOL    HW229556   3.907   1.258   3.815  0.2053 -0.9809  1.1993
 9553SOL     OW29557   6.089   1.381   6.235  0.2442  0.6875  0.5070
 9553SOL    HW129558   6.176   1.342   6.263  0.2919  0.2366 -0.2489
 9553SOL    HW229559   6.044   1.320   6.169 -0.3579  1.2040  0.4276
 9554SOL     OW29560   6.847   2.937   1.987 -0.2636  0.1579  0.4545
 9554SOL    HW129561   6.805   2.892   1.908  0.9168  0.5867 -0.4393
 9554SOL    HW229562   6.945   2.945   1.972 -0.0758  0.5509  1.8304
 9555SOL     OW29563   6.782   3.014   5.775  0.0430  0.0237 -0.4296
 9555SOL    HW129564   6.761   3.069   5.695 -1.5883 -0.6038 -0.4604
 9555SOL    HW229565   6.749   3.061   5.857 -0.6494 -0.5323 -0.3838
 9556SOL     OW29566   3.468   3.679   6.705 -0.1967  0.2636  0.0256
 9556SOL    HW129567   3.488   3.771   6.669  1.6219 -0.8619 -2.0912
 9556SOL    HW229568   3.509   3.669   6.795 -0.1836  1.4484  0.1693
 9557SOL     OW29569   3.179   4.833   2.016 -0.8841  0.0759  0.5915
 9557SOL    HW129570   3.124   4.774   1.957 -1.6566  0.9578  0.4069
 9557SOL    HW229571   3.139   4.836   2.108 -0.3232 -0.4030  0.8591
 9558SOL     OW29572   6.684   5.716   1.019  0.4628  0.3333  0.1837
 9558SOL    HW129573   6.604   5.749   0.969  1.0354  2.5928  0.6662
 9558SOL    HW229574   6.767   5.758   0.981  1.1562  0.0756  1.3648
 9559SOL     OW29575   4.076   4.894   0.869  0.1967  0.1004  0.0193
 9559SOL    HW129576   4.048   4.981   0.828 -0.7745 -0.2167 -0.0197
 9559SOL    HW229577   4.168   4.902   0.906 -0.7372  1.8850  2.1541
 9560SOL     OW29578   5.623   5.895   0.434 -1.0415 -0.0386  0.1342
 9560SOL    HW129579   5.665   5.807   0.415  0.1615  1.1570 -3.5847
 9560SOL    HW229580   5.663   5.935   0.517  0.4519 -1.7282  0.2719
 9561SOL     OW29581   5.460   4.337   4.300 -0.7632  0.1256 -0.1230
 9561SOL    HW129582   5.535   4.273   4.281 -1.3592 -0.2206 -1.3898
 9561SOL    HW229583   5.486   4.429   4.270 -0.9150 -0.0343 -0.7557
 9562SOL     OW29584   1.971   5.136   0.599 -0.0910  0.8609 -0.0455
 9562SOL    HW129585   1.926   5.075   0.664 -0.0011 -0.1503 -0.9073
 9562SOL    HW229586   1.920   5.222   0.594 -1.4670  0.0515 -0.3806
 9563SOL     OW29587   3.787   3.195   4.470 -0.5818  0.0079 -0.1125
 9563SOL    HW129588   3.730   3.273   4.445 -0.4262  0.0950 -0.1921
 9563SOL    HW229589   3.866   3.227   4.522 -1.0788 -0.2005  0.7943
 9564SOL     OW29590   0.978   4.034   1.240 -0.5915 -0.0338 -0.1221
 9564SOL    HW129591   0.918   4.000   1.312  0.7939  2.0804  2.1987
 9564SOL    HW229592   0.947   4.124   1.210  0.8871  0.7810  0.6206
 9565SOL     OW29593   1.676   3.839   4.243  0.2631  0.2077  0.3997
 9565SOL    HW129594   1.740   3.778   4.289 -1.3850 -2.0012 -0.0804
 9565SOL    HW229595   1.715   3.867   4.155  0.9481 -0.3808  0.5032
 9566SOL     OW29596   3.871   5.443   3.559  0.4899  0.1772 -0.8761
 9566SOL    HW129597   3.916   5.418   3.473  2.7377 -1.5455  0.7020
 9566SOL    HW229598   3.912   5.526   3.595  0.0076  0.5205 -1.1017
 9567SOL     OW29599   6.580   6.868   5.234 -0.5090  0.3844 -0.4323
 9567SOL    HW129600   6.617   6.778   5.212  0.0401 -0.1796  2.4412
 9567SOL    HW229601   6.655   6.930   5.256 -1.0001  0.7868  0.1357
 9568SOL     OW29602   2.852   3.945   5.084 -0.1455  0.0894 -0.2884
 9568SOL    HW129603   2.783   3.943   5.156 -0.4898  3.5113 -0.3690
 9568SOL    HW229604   2.808   3.947   4.994  0.1236  0.0412 -0.4242
 9569SOL     OW29605   1.794   6.228   1.490 -0.4610  0.4076 -0.2319
 9569SOL    HW129606   1.807   6.145   1.436  2.1171 -0.6220  1.7589
 9569SOL    HW229607   1.857   6.299   1.457 -1.4897  1.0524 -0.8645
 9570SOL     OW29608   1.217   3.974   1.371  0.0869  0.0334  0.3130
 9570SOL    HW129609   1.189   4.011   1.460 -0.8631 -0.8742  0.4064
 9570SOL    HW229610   1.142   3.982   1.306  0.2371 -0.7154  0.0341
 9571SOL     OW29611   0.610   2.702   5.763 -0.3023  0.0099 -0.1376
 9571SOL    HW129612   0.662   2.785   5.780  0.0270 -0.0175 -0.9285
 9571SOL    HW229613   0.528   2.724   5.710 -1.5800  0.1734  1.8263
 9572SOL     OW29614   3.835   4.872   3.636 -0.3110  0.8738  0.1190
 9572SOL    HW129615   3.908   4.805   3.652  2.1972  3.6352  0.9536
 9572SOL    HW229616   3.833   4.939   3.710 -2.4423  2.0320 -0.8800
 9573SOL     OW29617   1.048   3.790   6.435  0.1322 -0.4978 -0.5746
 9573SOL    HW129618   1.020   3.866   6.493 -0.3063  2.0176 -3.7765
 9573SOL    HW229619   1.147   3.777   6.444  0.1317  0.0884  0.4463
 9574SOL     OW29620   1.843   0.388   1.610  0.1886  0.2744  0.2548
 9574SOL    HW129621   1.861   0.479   1.571 -0.4338  1.1686  1.9433
 9574SOL    HW229622   1.795   0.332   1.544  0.8626  1.0632 -0.9386
 9575SOL     OW29623   4.300   5.809   2.970 -0.2708  0.7601 -0.2343
 9575SOL    HW129624   4.252   5.746   3.030  1.0267  1.6224  1.8248
 9575SOL    HW229625   4.368   5.861   3.023  0.7102  1.8286 -2.3934
 9576SOL     OW29626   1.065   2.511   5.424  0.2256 -0.2891  0.1871
 9576SOL    HW129627   1.105   2.540   5.336 -0.8205 -1.6651 -0.7857
 9576SOL    HW229628   1.133   2.520   5.496  0.7605  1.9950 -0.5273
 9577SOL     OW29629   3.775   0.446   5.490 -0.0501  0.9867 -0.4126
 9577SOL    HW129630   3.775   0.363   5.546  0.3779  0.9496 -0.4680
 9577SOL    HW229631   3.794   0.525   5.548 -1.7039  1.2186 -0.1203
 9578SOL     OW29632   1.743   2.960   2.059  0.3349 -0.1498 -0.4986
 9578SOL    HW129633   1.791   2.875   2.040  2.4388  0.8047  0.2153
 9578SOL    HW229634   1.720   3.006   1.973 -0.5839 -1.2738 -0.8777
 9579SOL     OW29635   3.243   0.399   1.372  0.4172 -0.2902 -0.3949
 9579SOL    HW129636   3.270   0.439   1.460  0.4465 -1.2709  0.0506
 9579SOL    HW229637   3.323   0.393   1.312  0.2056  1.3441 -0.9001
 9580SOL     OW29638   5.766   0.374   6.956 -0.0384 -0.0698  0.1273
 9580SOL    HW129639   5.827   0.324   6.896 -0.9233  1.3715 -2.1130
 9580SOL    HW229640   5.818   0.414   7.032  1.5279 -0.0656 -0.9149
 9581SOL     OW29641   4.034   6.545   0.956  0.2679 -0.1933  0.4717
 9581SOL    HW129642   4.086   6.461   0.967 -0.0296 -0.7218 -1.6967
 9581SOL    HW229643   4.091   6.615   0.914 -0.2632 -0.1987 -0.2671
 9582SOL     OW29644   2.794   4.129   1.434 -0.2113 -0.0975  0.4030
 9582SOL    HW129645   2.749   4.215   1.409  1.0497  0.7871  1.1034
 9582SOL    HW229646   2.867   4.109   1.370  0.9484  0.5280  1.4874
 9583SOL     OW29647   5.845   4.893   2.069  0.0616  0.0111  0.2421
 9583SOL    HW129648   5.759   4.935   2.096  0.3400  0.3177  0.6678
 9583SOL    HW229649   5.837   4.856   1.977  0.2678  2.3075 -0.7537
 9584SOL     OW29650   3.132   1.555   1.386  0.1240  1.1598  0.1006
 9584SOL    HW129651   3.087   1.472   1.418  0.0117  0.3672 -1.9637
 9584SOL    HW229652   3.225   1.559   1.424  0.8457 -0.9700 -1.2681
 9585SOL     OW29653   5.995   4.665   6.410  0.0193  0.0276 -0.0062
 9585SOL    HW129654   5.962   4.571   6.412  1.8919 -0.7014 -1.3185
 9585SOL    HW229655   5.954   4.714   6.333  1.5075 -0.7473 -1.3616
 9586SOL     OW29656   0.945   2.033   4.012  0.2409 -0.6820 -0.1455
 9586SOL    HW129657   0.945   2.124   3.972 -0.0381 -1.3981 -1.8738
 9586SOL    HW229658   0.987   1.968   3.948 -0.3336 -1.9107  0.6695
 9587SOL     OW29659   1.478   5.064   0.690  0.4051  0.4048  0.3541
 9587SOL    HW129660   1.431   5.111   0.616 -0.3329 -0.1958  0.4298
 9587SOL    HW229661   1.419   4.992   0.727  1.5323 -0.6381  0.1870
 9588SOL     OW29662   5.019   4.741   5.913 -0.1341  0.6558  0.6958
 9588SOL    HW129663   4.976   4.652   5.927  1.2770  0.0532  1.4021
 9588SOL    HW229664   5.064   4.770   5.998  1.4576  0.8951 -0.1798
 9589SOL     OW29665   4.879   2.954   5.582 -0.7326 -0.1731 -0.4241
 9589SOL    HW129666   4.847   3.049   5.585 -0.3136 -0.0234 -0.5092
 9589SOL    HW229667   4.946   2.940   5.656 -0.9806 -0.4735 -0.2540
 9590SOL     OW29668   3.762   5.730   4.760  0.6538 -0.2153 -0.2926
 9590SOL    HW129669   3.718   5.641   4.754 -0.4082 -0.0219  2.9568
 9590SOL    HW229670   3.806   5.740   4.849 -0.6692  3.0911  0.1433
 9591SOL     OW29671   6.011   0.661   0.673  0.3561  0.0492  0.2933
 9591SOL    HW129672   6.032   0.575   0.627  1.6751 -0.1465  1.1942
 9591SOL    HW229673   5.915   0.661   0.702 -0.1584 -0.3271 -1.3322
 9592SOL     OW29674   5.349   5.657   3.500  0.1237 -0.2864  0.6998
 9592SOL    HW129675   5.275   5.723   3.486  1.1713  0.4082 -2.3141
 9592SOL    HW229676   5.313   5.564   3.494 -0.7095  0.0295  0.7145
 9593SOL     OW29677   5.908   5.181   1.696 -0.1958  0.1559  0.6551
 9593SOL    HW129678   5.899   5.084   1.715 -1.5296  0.4424  1.6281
 9593SOL    HW229679   5.953   5.227   1.773  0.8675  0.2517 -0.0055
 9594SOL     OW29680   6.006   6.725   4.228  0.4014  0.0253  0.5501
 9594SOL    HW129681   5.906   6.723   4.224  0.3578  1.2599  0.7396
 9594SOL    HW229682   6.042   6.646   4.178 -0.6661 -0.7037  0.8850
 9595SOL     OW29683   1.719   2.520   5.380  0.0332  0.3580 -0.5318
 9595SOL    HW129684   1.778   2.506   5.460  1.1535  0.6984 -1.2677
 9595SOL    HW229685   1.704   2.432   5.335 -0.9649  0.0953  0.2812
 9596SOL     OW29686   1.374   1.223   4.588 -0.3083  0.2431  0.3012
 9596SOL    HW129687   1.381   1.150   4.655 -2.1678 -0.9980 -0.7473
 9596SOL    HW229688   1.422   1.197   4.504  0.3863  0.9506  0.4653
 9597SOL     OW29689   3.349   6.228   5.180 -0.0151 -0.0896 -0.7464
 9597SOL    HW129690   3.395   6.145   5.147  0.8494 -0.1605  0.5499
 9597SOL    HW229691   3.401   6.266   5.256 -0.4169  1.6487 -1.3003
 9598SOL     OW29692   6.619   0.799   6.588  0.0691  0.4602 -0.1113
 9598SOL    HW129693   6.653   0.878   6.640  0.3573  0.9212 -0.9828
 9598SOL    HW229694   6.530   0.771   6.626  2.0143 -1.8062  3.2859
 9599SOL     OW29695   3.071   0.898   1.035  0.3074  0.3960 -0.8477
 9599SOL    HW129696   3.016   0.821   1.066 -0.4706  1.1029 -0.4130
 9599SOL    HW229697   3.150   0.865   0.985 -0.9390 -0.6522 -2.2298
 9600SOL     OW29698   0.730   4.626   4.689 -0.1086  0.2750  0.3851
 9600SOL    HW129699   0.807   4.628   4.752  3.1050 -2.6114 -2.9441
 9600SOL    HW229700   0.742   4.696   4.619 -0.9759  0.3334  0.2789
 9601SOL     OW29701   3.397   5.934   3.579  1.0135 -0.1482  0.3296
 9601SOL    HW129702   3.450   5.854   3.554 -1.6209 -1.9045 -0.0948
 9601SOL    HW229703   3.313   5.938   3.524  0.5763  2.3738  1.0189
 9602SOL     OW29704   0.128   1.684   3.020 -0.2259  0.5639 -0.2656
 9602SOL    HW129705   0.131   1.616   2.946 -0.2357  1.0690 -0.7337
 9602SOL    HW229706   0.218   1.688   3.065 -0.7012 -1.0275  0.9428
 9603SOL     OW29707   4.100   5.669   3.090 -0.0406 -0.5054  0.1288
 9603SOL    HW129708   4.033   5.738   3.116  0.0305  0.4248 -1.9415
 9603SOL    HW229709   4.053   5.588   3.055 -0.0982 -0.6695  0.5829
 9604SOL     OW29710   5.284   1.416   1.146  0.0705 -0.2772  0.0266
 9604SOL    HW129711   5.204   1.402   1.206 -1.0080  1.0367 -1.0231
 9604SOL    HW229712   5.253   1.456   1.059  1.7725 -0.7518 -0.8270
 9605SOL     OW29713   5.237   3.754   3.095  0.5626  0.2916  0.7215
 9605SOL    HW129714   5.184   3.805   3.163  0.6583  0.6672  0.5182
 9605SOL    HW229715   5.252   3.812   3.014  2.7125  0.8083  1.4286
 9606SOL     OW29716   1.857   4.659   3.359 -0.0797 -0.3287  0.1958
 9606SOL    HW129717   1.937   4.633   3.305  1.2722  1.0885  1.4329
 9606SOL    HW229718   1.884   4.724   3.430 -2.1446 -0.6414  1.3504
 9607SOL     OW29719   1.138   4.364   3.454  0.2280 -0.0045  0.2711
 9607SOL    HW129720   1.115   4.275   3.494  0.4377 -0.4851 -0.6360
 9607SOL    HW229721   1.227   4.394   3.489 -0.2557  0.2829  1.2679
 9608SOL     OW29722   5.217   5.512   1.898 -0.0217 -0.2272 -0.2689
 9608SOL    HW129723   5.140   5.538   1.840 -0.6688  1.8791  1.4024
 9608SOL    HW229724   5.188   5.441   1.962 -0.1332 -0.4902 -0.6075
 9609SOL     OW29725   6.917   4.352   5.927  1.2669  0.0767  0.7825
 9609SOL    HW129726   6.945   4.343   6.022  1.4572 -1.0021  0.6318
 9609SOL    HW229727   6.895   4.262   5.889  0.7873  0.5376 -0.0728
 9610SOL     OW29728   4.706   0.241   6.528  0.5123 -0.1138 -0.2409
 9610SOL    HW129729   4.640   0.179   6.572 -1.6271  1.9774 -0.2958
 9610SOL    HW229730   4.781   0.259   6.591 -0.9231  0.4085  1.3951
 9611SOL     OW29731   6.093   6.830   6.103 -0.1282  0.2500  0.5351
 9611SOL    HW129732   6.053   6.883   6.177 -1.3764 -0.4589  0.3990
 9611SOL    HW229733   6.029   6.759   6.074  1.2446 -0.9423  0.2992
 9612SOL     OW29734   0.401   2.365   3.150  0.0688 -0.2658  0.2642
 9612SOL    HW129735   0.382   2.284   3.096  0.7758  0.7434 -1.5708
 9612SOL    HW229736   0.492   2.401   3.127 -0.0986  0.8672  1.2540
 9613SOL     OW29737   5.287   2.542   6.363 -0.4309  0.0119  0.1606
 9613SOL    HW129738   5.265   2.447   6.387  2.5645 -0.6111  0.8724
 9613SOL    HW229739   5.271   2.600   6.443 -0.9506 -0.1233  0.1597
 9614SOL     OW29740   0.115   4.313   1.989  0.3025  0.1177 -0.1020
 9614SOL    HW129741   0.151   4.232   1.942  0.3658 -0.2767  0.6067
 9614SOL    HW229742   0.016   4.307   1.994  0.3160  0.0077  0.0697
 9615SOL     OW29743   0.488   6.683   2.879  0.1559 -0.1483 -0.6008
 9615SOL    HW129744   0.523   6.596   2.846  0.3494 -0.6533  0.8815
 9615SOL    HW229745   0.467   6.676   2.976 -0.6283  1.2170 -0.6456
 9616SOL     OW29746   4.801   0.454   3.501  0.3552 -0.1550  0.5396
 9616SOL    HW129747   4.863   0.481   3.427  0.8063 -0.3622  0.8338
 9616SOL    HW229748   4.825   0.503   3.585 -2.1799  2.5405 -0.1818
 9617SOL     OW29749   2.351   6.628   2.122  0.1048  0.0297 -0.4016
 9617SOL    HW129750   2.430   6.602   2.066 -0.0306  0.8360 -0.9826
 9617SOL    HW229751   2.284   6.555   2.122  0.6395 -0.4703 -0.2945
 9618SOL     OW29752   0.395   1.628   2.354 -0.0225 -0.5324  0.4565
 9618SOL    HW129753   0.349   1.542   2.377 -0.3779 -0.5568 -0.3047
 9618SOL    HW229754   0.486   1.609   2.319 -1.0362 -0.8580 -2.3004
 9619SOL     OW29755   3.115   1.839   2.984  0.1034  0.0939 -0.1681
 9619SOL    HW129756   3.020   1.829   3.012  0.0963 -0.3595 -0.3392
 9619SOL    HW229757   3.118   1.861   2.886  0.2232 -2.1522 -0.7089
 9620SOL     OW29758   4.358   5.542   6.918 -0.0367  0.3674  0.4557
 9620SOL    HW129759   4.377   5.618   6.981  0.1793  2.1325 -1.6206
 9620SOL    HW229760   4.259   5.529   6.910 -0.1137  1.1100  0.0982
 9621SOL     OW29761   5.114   0.482   0.428  0.1327 -0.1015 -0.6139
 9621SOL    HW129762   5.153   0.414   0.490 -0.6981  1.2556  1.5005
 9621SOL    HW229763   5.162   0.569   0.440  0.1500  0.1263 -2.1387
 9622SOL     OW29764   2.428   0.881   0.381 -0.0914  0.3748  0.1276
 9622SOL    HW129765   2.361   0.807   0.375  1.5934 -1.5286  2.5991
 9622SOL    HW229766   2.483   0.882   0.298 -1.2579  0.0456 -0.6862
 9623SOL     OW29767   1.820   2.170   1.354 -0.5096 -0.0936 -0.3603
 9623SOL    HW129768   1.762   2.243   1.389  0.5848  0.4156  0.4662
 9623SOL    HW229769   1.789   2.082   1.390  0.3268  0.3665  1.6271
 9624SOL     OW29770   5.665   3.537   1.259  0.4785 -0.0969 -0.3721
 9624SOL    HW129771   5.737   3.544   1.328  1.8680 -1.0222 -1.6736
 9624SOL    HW229772   5.609   3.456   1.278  1.1667 -0.6341 -0.5923
 9625SOL     OW29773   3.187   5.747   1.636  0.4402  0.3087  0.1775
 9625SOL    HW129774   3.178   5.842   1.606 -0.6182 -0.2137 -1.2991
 9625SOL    HW229775   3.199   5.689   1.556  1.3893 -0.7890  1.0875
 9626SOL     OW29776   3.404   6.515   6.684  0.4437 -0.6233 -0.1363
 9626SOL    HW129777   3.499   6.534   6.661  0.4300  0.6802  0.7863
 9626SOL    HW229778   3.366   6.591   6.736 -0.8153 -1.5616  0.3822
 9627SOL     OW29779   4.088   2.133   3.460 -0.2932  0.0247  0.6194
 9627SOL    HW129780   4.178   2.174   3.476  0.7105 -1.6399 -0.4870
 9627SOL    HW229781   4.045   2.178   3.381  1.5807 -2.0725 -1.7480
 9628SOL     OW29782   1.305   0.770   2.789  0.1360 -0.3044  0.5968
 9628SOL    HW129783   1.315   0.860   2.749  0.3831 -0.2739  0.7264
 9628SOL    HW229784   1.336   0.700   2.725 -1.0779 -0.3789  0.0662
 9629SOL     OW29785   0.693   6.783   6.002 -0.1174  0.2417 -0.3401
 9629SOL    HW129786   0.619   6.752   6.062 -0.0891 -0.0074 -0.4352
 9629SOL    HW229787   0.774   6.805   6.057  0.5731 -1.8727 -0.4433
 9630SOL     OW29788   4.481   1.826   6.295  0.3440 -0.4073 -0.2804
 9630SOL    HW129789   4.574   1.791   6.291  0.9850  0.9474  1.4929
 9630SOL    HW229790   4.472   1.905   6.233  0.2078 -0.8291 -0.8114
 9631SOL     OW29791   6.072   1.282   6.863  0.0537  0.1176  0.4164
 9631SOL    HW129792   5.997   1.330   6.817  0.8323  0.8684 -0.1041
 9631SOL    HW229793   6.156   1.335   6.853  1.3359 -2.0884 -1.5278
 9632SOL     OW29794   6.919   4.678   3.059 -0.3440 -0.3339  0.2056
 9632SOL    HW129795   6.824   4.694   3.085 -0.7710 -0.3884 -1.2414
 9632SOL    HW229796   6.931   4.582   3.034 -0.3243  0.0141 -1.1941
 9633SOL     OW29797   6.449   2.001   6.385  0.2067  0.3166  0.2442
 9633SOL    HW129798   6.461   1.932   6.457  1.6416 -0.2950 -0.5348
 9633SOL    HW229799   6.507   1.978   6.307 -0.1349  1.8156 -0.4878
 9634SOL     OW29800   3.583   0.397   0.495  0.4314 -0.7403 -0.8351
 9634SOL    HW129801   3.518   0.466   0.461  0.8685 -0.9146 -2.0653
 9634SOL    HW229802   3.672   0.439   0.509  0.3585 -0.7639 -0.2887
 9635SOL     OW29803   1.015   6.468   4.469 -0.0095  0.3543 -0.2465
 9635SOL    HW129804   1.103   6.508   4.445 -0.7822  1.0036 -2.1437
 9635SOL    HW229805   0.990   6.497   4.562  2.6630 -1.5194  1.1801
 9636SOL     OW29806   1.561   3.453   6.372 -0.1413  0.0324  0.0135
 9636SOL    HW129807   1.574   3.548   6.342 -0.6398  0.1279  0.1050
 9636SOL    HW229808   1.476   3.444   6.422  0.2544 -0.3222  0.6368
 9637SOL     OW29809   0.768   1.998   2.904  0.6065 -0.5032 -0.4275
 9637SOL    HW129810   0.673   2.020   2.929  1.5069  2.3380  0.8975
 9637SOL    HW229811   0.779   1.899   2.903 -2.1568 -0.9227  0.2222
 9638SOL     OW29812   6.636   1.994   2.867  0.1983  0.8727  0.0583
 9638SOL    HW129813   6.608   1.952   2.780 -0.2112  0.4041  0.4089
 9638SOL    HW229814   6.628   1.926   2.940  1.5219  0.9648  0.3028
 9639SOL     OW29815   6.947   0.493   4.580  0.3164 -0.4427  0.0181
 9639SOL    HW129816   6.969   0.417   4.519 -0.1602  1.3686 -2.5577
 9639SOL    HW229817   6.875   0.549   4.539  2.7622  3.1579  0.2058
 9640SOL     OW29818   4.573   0.867   1.639  0.0451 -0.1195  0.5842
 9640SOL    HW129819   4.526   0.877   1.727 -1.7355  0.5685 -0.3979
 9640SOL    HW229820   4.626   0.950   1.620 -0.4765  0.1931  0.4934
 9641SOL     OW29821   4.491   5.287   0.729 -0.1920 -0.3214  0.0968
 9641SOL    HW129822   4.443   5.302   0.815 -1.3162 -2.0911 -0.1828
 9641SOL    HW229823   4.458   5.352   0.660  0.4342  0.8406  0.8643
 9642SOL     OW29824   3.855   2.144   6.705 -0.6110  0.2312 -0.3608
 9642SOL    HW129825   3.845   2.049   6.734  0.3803 -0.3325 -1.7720
 9642SOL    HW229826   3.855   2.203   6.786 -0.3551 -1.0371  0.6030
 9643SOL     OW29827   6.788   1.233   6.700 -0.8104 -0.3924 -0.3860
 9643SOL    HW129828   6.866   1.281   6.740  0.3404 -0.6975 -2.1322
 9643SOL    HW229829   6.704   1.260   6.747  0.0914  1.5024  0.2337
 9644SOL     OW29830   3.083   1.509   2.400  0.7578 -0.2888  0.1479
 9644SOL    HW129831   2.990   1.483   2.373  1.6062 -3.2502 -0.2050
 9644SOL    HW229832   3.132   1.544   2.319  0.4566 -0.2862 -0.0352
 9645SOL     OW29833   5.153   2.531   5.189  0.0712 -0.0013  0.3122
 9645SOL    HW129834   5.205   2.615   5.206  2.0570 -1.0951 -0.0440
 9645SOL    HW229835   5.216   2.457   5.166 -1.5486 -1.8017  1.3617
 9646SOL     OW29836   4.901   2.592   0.192 -0.2349 -0.1195 -0.0674
 9646SOL    HW129837   4.996   2.603   0.221 -0.7126 -0.7502  1.8866
 9646SOL    HW229838   4.896   2.522   0.120  0.6583 -0.9286  0.6322
 9647SOL     OW29839   4.588   4.473   5.084  0.2124 -0.4834  0.8663
 9647SOL    HW129840   4.492   4.482   5.057  0.0929 -0.3697  1.3260
 9647SOL    HW229841   4.631   4.401   5.030  0.4481  0.9261 -0.9326
 9648SOL     OW29842   2.519   2.036   6.089  0.0072  0.0419 -0.1945
 9648SOL    HW129843   2.595   2.089   6.125 -0.3490  0.0145  0.6331
 9648SOL    HW229844   2.550   1.944   6.067  0.5713  0.5045 -1.4065
 9649SOL     OW29845   0.416   4.393   6.565  0.5656  0.5532  0.0377
 9649SOL    HW129846   0.418   4.348   6.654 -1.3577 -1.4085 -0.7907
 9649SOL    HW229847   0.395   4.490   6.577  0.1005  0.2800  1.7056
 9650SOL     OW29848   6.890   4.137   5.053 -0.0102 -0.3789 -0.5596
 9650SOL    HW129849   6.903   4.101   4.961 -0.2861  1.2438 -1.2802
 9650SOL    HW229850   6.870   4.235   5.047  0.6842 -0.0920  1.2711
 9651SOL     OW29851   4.717   1.887   2.458 -0.0890  0.6089  0.1738
 9651SOL    HW129852   4.625   1.861   2.432  0.2821 -1.1411  0.4637
 9651SOL    HW229853   4.768   1.919   2.378 -0.2531 -0.6246 -0.4356
 9652SOL     OW29854   6.460   3.610   2.149  0.4237  0.5371 -0.5384
 9652SOL    HW129855   6.420   3.612   2.057  2.0173  0.6280 -1.2603
 9652SOL    HW229856   6.548   3.657   2.148  0.4555  0.5641  1.0589
 9653SOL     OW29857   3.854   3.265   6.275 -0.6562 -0.1795 -0.0644
 9653SOL    HW129858   3.755   3.276   6.287 -0.6780  0.4806 -0.7509
 9653SOL    HW229859   3.898   3.263   6.365 -1.2084  0.4627  0.2337
 9654SOL     OW29860   2.953   6.553   4.533 -0.3222  0.0762 -0.5661
 9654SOL    HW129861   2.872   6.610   4.517 -0.0003  1.2564  1.7422
 9654SOL    HW229862   3.035   6.609   4.529  0.2437 -0.7595 -0.9506
 9655SOL     OW29863   5.799   3.079   1.253  0.0669  0.5408 -0.1158
 9655SOL    HW129864   5.868   3.069   1.181  0.3916  1.4721  0.0535
 9655SOL    HW229865   5.803   3.000   1.314  1.6596  1.0174  0.4523
 9656SOL     OW29866   1.152   1.737   1.715 -0.8222  0.4944 -0.4912
 9656SOL    HW129867   1.096   1.771   1.639  1.8368  0.9188 -2.4195
 9656SOL    HW229868   1.163   1.638   1.707  0.1578  0.6501 -1.2057
 9657SOL     OW29869   5.971   3.429   6.179  0.3962 -0.1696 -0.5302
 9657SOL    HW129870   6.060   3.413   6.138  0.1027  0.3752 -1.3970
 9657SOL    HW229871   5.905   3.362   6.143  0.4437 -0.5797  0.1164
 9658SOL     OW29872   3.760   3.945   5.211  0.6007  0.4013 -0.2798
 9658SOL    HW129873   3.742   3.962   5.308  1.3681  0.6550 -0.1742
 9658SOL    HW229874   3.739   3.850   5.189  0.7847  0.2428  0.2246
 9659SOL     OW29875   4.690   5.302   4.411  0.0666 -0.0685 -0.1770
 9659SOL    HW129876   4.744   5.365   4.355  0.0211 -0.6873 -0.9315
 9659SOL    HW229877   4.597   5.296   4.374  0.6453 -2.2406 -1.5051
 9660SOL     OW29878   4.243   1.949   0.065 -0.2282 -0.4624  0.3613
 9660SOL    HW129879   4.264   1.854   0.041 -2.3888 -1.3021  1.4978
 9660SOL    HW229880   4.328   1.999   0.081  0.9571 -2.2322 -0.1210
 9661SOL     OW29881   6.428   6.702   1.681 -0.2923 -0.5547  0.0750
 9661SOL    HW129882   6.522   6.734   1.696 -0.0421 -1.4707  0.5684
 9661SOL    HW229883   6.369   6.781   1.663  0.5517  0.0437 -0.1800
 9662SOL     OW29884   6.692   4.499   1.433  0.0640 -0.4844 -0.5275
 9662SOL    HW129885   6.604   4.456   1.452 -0.2880 -0.7544 -2.5291
 9662SOL    HW229886   6.679   4.578   1.373  1.0447  0.4700  0.4595
 9663SOL     OW29887   0.385   2.115   5.375  0.1994  0.3594  0.6761
 9663SOL    HW129888   0.423   2.023   5.381 -2.0112 -0.7147 -0.4714
 9663SOL    HW229889   0.433   2.167   5.305  1.6638  0.2375  1.5415
 9664SOL     OW29890   4.314   6.715   4.600  0.0237 -0.0283  0.0927
 9664SOL    HW129891   4.226   6.668   4.597  0.2787 -0.4928 -0.2860
 9664SOL    HW229892   4.363   6.687   4.682 -0.3973  0.6359  0.5793
 9665SOL     OW29893   1.550   3.190   6.288 -0.6279 -0.7278 -0.0254
 9665SOL    HW129894   1.550   3.278   6.335  0.8020 -1.0367  0.6219
 9665SOL    HW229895   1.569   3.204   6.191  0.1254 -0.3347  0.1668
 9666SOL     OW29896   6.268   3.131   1.568  0.0720 -0.0104 -0.4182
 9666SOL    HW129897   6.292   3.131   1.471  0.0096  2.9414 -0.5102
 9666SOL    HW229898   6.170   3.117   1.578  0.2687 -1.9167 -0.6092
 9667SOL     OW29899   1.953   5.316   2.602  0.0872 -0.2068  0.1650
 9667SOL    HW129900   1.918   5.404   2.569  3.0964  1.6730  1.6041
 9667SOL    HW229901   2.008   5.273   2.530 -0.2717 -0.2618 -0.0793
 9668SOL     OW29902   4.775   1.761   5.626 -0.2223 -0.1914 -0.1332
 9668SOL    HW129903   4.699   1.700   5.651  1.6914 -3.2176 -1.2160
 9668SOL    HW229904   4.758   1.800   5.536 -1.0171  0.1475  0.1498
 9669SOL     OW29905   1.721   4.182   5.641 -0.5358 -0.3851 -1.0357
 9669SOL    HW129906   1.651   4.252   5.652  0.1649  0.1264  0.5502
 9669SOL    HW229907   1.688   4.095   5.678 -0.3887 -0.1669 -0.3748
 9670SOL     OW29908   2.419   2.127   4.629 -0.1282 -0.7950  0.6532
 9670SOL    HW129909   2.422   2.119   4.729 -2.4102  0.3608  0.8800
 9670SOL    HW229910   2.510   2.113   4.592  0.7888 -1.2045  2.9031
 9671SOL     OW29911   1.456   1.714   3.260 -0.3889 -0.4039 -0.4223
 9671SOL    HW129912   1.484   1.759   3.344  0.3157 -1.5711 -0.0024
 9671SOL    HW229913   1.505   1.627   3.251  1.7904  0.9426 -3.4484
 9672SOL     OW29914   4.193   0.164   6.689 -0.3923 -0.2139  0.5405
 9672SOL    HW129915   4.253   0.234   6.649 -2.2944  0.1714 -1.9349
 9672SOL    HW229916   4.221   0.074   6.658 -0.5071 -0.1276  0.1828
 9673SOL     OW29917   5.476   1.765   5.435 -0.5286 -0.5166 -0.2767
 9673SOL    HW129918   5.427   1.683   5.405 -1.3286 -0.5936  1.1169
 9673SOL    HW229919   5.539   1.740   5.509 -0.7114  0.1126  0.0951
 9674SOL     OW29920   1.012   6.154   2.249  0.9661 -0.3931  0.3129
 9674SOL    HW129921   1.023   6.147   2.150 -2.4206  0.1095 -0.2202
 9674SOL    HW229922   1.028   6.249   2.278 -1.4645  0.2982 -0.3961
 9675SOL     OW29923   3.967   6.712   0.101 -0.6140 -0.2510  0.1098
 9675SOL    HW129924   3.961   6.783   0.031 -1.3508  1.7628  2.0790
 9675SOL    HW229925   4.023   6.636   0.068 -0.0252  1.1022 -2.1964
 9676SOL     OW29926   0.467   3.918   6.154  0.0056  0.0302  0.1697
 9676SOL    HW129927   0.450   3.903   6.057  2.3536 -0.1296 -0.2759
 9676SOL    HW229928   0.544   3.861   6.184 -0.2647  0.5336  1.9821
 9677SOL     OW29929   6.791   3.994   0.279  0.7259 -0.5224 -0.7286
 9677SOL    HW129930   6.701   4.037   0.282  1.1144  0.3252 -0.7086
 9677SOL    HW229931   6.824   3.978   0.372 -0.1735 -2.5730 -0.7025
 9678SOL     OW29932   4.483   0.573   0.424 -0.2660 -0.0095  0.6920
 9678SOL    HW129933   4.555   0.504   0.420 -1.0312 -0.7606 -0.3892
 9678SOL    HW229934   4.476   0.608   0.517  1.6247  0.2315  0.7900
 9679SOL     OW29935   5.617   6.513   1.844 -0.2034 -0.2553 -0.1071
 9679SOL    HW129936   5.532   6.540   1.799  0.8672  1.3815 -1.2724
 9679SOL    HW229937   5.681   6.476   1.776  1.0841  1.3350  0.1688
 9680SOL     OW29938   4.990   3.713   2.832  0.1140  0.0323 -0.4201
 9680SOL    HW129939   4.959   3.622   2.802  0.5312 -0.2532  0.0034
 9680SOL    HW229940   5.060   3.746   2.769  0.2706 -0.1283 -0.3308
 9681SOL     OW29941   3.176   5.995   1.518  0.7526 -0.0970 -0.3156
 9681SOL    HW129942   3.274   5.974   1.518  0.7176 -0.2610 -0.2937
 9681SOL    HW229943   3.159   6.072   1.581  0.4328 -2.1581  2.2923
 9682SOL     OW29944   5.404   5.212   5.607  0.4888 -0.3727  0.7505
 9682SOL    HW129945   5.324   5.161   5.577  0.2443  0.9809 -1.0239
 9682SOL    HW229946   5.380   5.271   5.684 -1.0836  2.1968 -1.5370
 9683SOL     OW29947   1.645   2.009   5.105 -0.2034 -0.3466  0.3237
 9683SOL    HW129948   1.702   2.011   5.186 -1.8098  1.2075  1.5165
 9683SOL    HW229949   1.555   2.048   5.126 -0.6198  0.3318 -2.2392
 9684SOL     OW29950   0.413   5.297   6.912 -0.3964 -0.7188 -0.0039
 9684SOL    HW129951   0.498   5.301   6.965 -0.7487 -0.6704  0.5623
 9684SOL    HW229952   0.427   5.239   6.831  0.2688 -0.4367 -0.0944
 9685SOL     OW29953   5.050   0.160   5.319  0.2056  0.3008  0.2356
 9685SOL    HW129954   5.039   0.138   5.223 -1.1012  0.4639  0.3399
 9685SOL    HW229955   5.137   0.209   5.332  1.4920 -1.6558 -0.5063
 9686SOL     OW29956   6.321   5.603   2.067  0.1391 -0.0083 -0.1877
 9686SOL    HW129957   6.322   5.660   2.149 -0.3678  0.8660 -0.7802
 9686SOL    HW229958   6.228   5.596   2.032  0.5506  0.7892 -1.4927
 9687SOL     OW29959   2.173   4.033   4.542  0.2353  0.5270 -0.0230
 9687SOL    HW129960   2.174   4.003   4.637  0.3282  0.3997 -0.0651
 9687SOL    HW229961   2.191   3.956   4.481 -1.4616  0.2700 -0.2424
 9688SOL     OW29962   2.760   4.426   6.587 -0.3782 -0.6685  0.1091
 9688SOL    HW129963   2.800   4.513   6.557  1.9898 -1.7100  0.0178
 9688SOL    HW229964   2.831   4.368   6.625 -1.6106 -3.1169 -1.0742
 9689SOL     OW29965   3.920   1.196   0.698 -0.2053  0.5481  0.1749
 9689SOL    HW129966   4.013   1.232   0.690 -0.4191  0.9405 -0.6733
 9689SOL    HW229967   3.855   1.272   0.704 -0.6640  0.3539 -1.6816
 9690SOL     OW29968   1.932   5.839   4.249 -0.7292  0.0343 -0.1364
 9690SOL    HW129969   1.888   5.840   4.160  1.2900  1.4859 -1.2252
 9690SOL    HW229970   2.031   5.846   4.237 -0.3806  0.0571  2.2292
 9691SOL     OW29971   2.350   3.739   5.672  0.3455  0.2825  0.3480
 9691SOL    HW129972   2.434   3.787   5.696  0.5913 -0.6023  1.3556
 9691SOL    HW229973   2.357   3.643   5.701  0.1377 -0.5818 -2.2140
 9692SOL     OW29974   3.926   1.538   5.608 -0.0611  0.4677 -0.5311
 9692SOL    HW129975   3.920   1.636   5.627 -0.6662  0.7456 -1.9434
 9692SOL    HW229976   3.944   1.488   5.692  0.1639  1.7841  0.2288
 9693SOL     OW29977   4.097   3.958   6.356  0.3020 -0.7006  0.0424
 9693SOL    HW129978   4.016   3.955   6.297  1.1321 -0.4038 -1.1410
 9693SOL    HW229979   4.178   3.933   6.303  0.7825 -2.8317  1.6492
 9694SOL     OW29980   1.652   0.565   5.670  0.0686 -0.4021 -0.0057
 9694SOL    HW129981   1.705   0.481   5.667 -0.0207 -0.4405 -0.5881
 9694SOL    HW229982   1.588   0.562   5.747  0.6959 -0.4785  0.5207
 9695SOL     OW29983   0.287   2.117   2.616 -0.0915  0.0439 -0.3034
 9695SOL    HW129984   0.197   2.161   2.614  0.5914  1.5743  0.4964
 9695SOL    HW229985   0.279   2.026   2.656 -1.7161 -1.0675 -2.9015
 9696SOL     OW29986   3.744   5.586   0.690  0.0855 -0.1725 -0.1115
 9696SOL    HW129987   3.740   5.537   0.603 -1.0016  0.9524 -0.7234
 9696SOL    HW229988   3.728   5.522   0.765  1.0556 -1.1574 -0.7107
 9697SOL     OW29989   4.958   3.342   2.572  0.5595 -0.1999 -0.0822
 9697SOL    HW129990   5.044   3.341   2.522 -0.2074 -0.7316 -1.4469
 9697SOL    HW229991   4.901   3.418   2.539  0.0593 -0.5399 -0.0255
 9698SOL     OW29992   1.676   5.067   5.314 -0.1587  0.0635  0.2879
 9698SOL    HW129993   1.670   4.977   5.357  0.2752  0.5090  1.3020
 9698SOL    HW229994   1.622   5.067   5.230 -0.3605 -1.0681  0.4040
 9699SOL     OW29995   6.952   4.276   0.324  0.0208  0.1506 -0.1528
 9699SOL    HW129996   6.989   4.210   0.258 -0.6957 -0.9043  0.4613
 9699SOL    HW229997   6.982   4.368   0.300  3.7170 -0.6446  0.7391
 9700SOL     OW29998   3.372   3.430   0.556  0.4015 -0.2027 -0.0886
 9700SOL    HW129999   3.466   3.397   0.556  0.9711  1.3571  0.6732
 9700SOL    HW230000   3.365   3.516   0.506  0.1075  1.4896  2.6650
 9701SOL     OW30001   2.452   2.819   1.756 -0.2644  0.3570  0.2969
 9701SOL    HW130002   2.369   2.874   1.766 -0.3559  0.1195  0.8673
 9701SOL    HW230003   2.524   2.875   1.717 -0.1008  1.1426  1.6653
 9702SOL     OW30004   1.784   4.993   4.633 -0.5600 -0.5367  0.1802
 9702SOL    HW130005   1.853   4.942   4.684 -0.2162 -0.8995 -0.6308
 9702SOL    HW230006   1.788   4.967   4.536 -1.6246 -0.3267  0.0707
 9703SOL     OW30007   3.768   4.302   0.010  0.0942  0.3305 -0.1189
 9703SOL    HW130008   3.769   4.287  -0.089  1.1514  0.3687 -0.1314
 9703SOL    HW230009   3.783   4.214   0.056  1.8301  0.6107 -0.0735
 9704SOL     OW30010   6.571   2.214   6.686 -0.3948 -0.3323 -0.5462
 9704SOL    HW130011   6.616   2.221   6.597  0.4303  1.7445 -0.0424
 9704SOL    HW230012   6.629   2.163   6.749  1.0174  1.6465 -0.1306
 9705SOL     OW30013   0.657   2.337   2.567  0.4059  0.5021 -0.3586
 9705SOL    HW130014   0.738   2.289   2.601 -0.0300 -0.5154 -0.7004
 9705SOL    HW230015   0.577   2.310   2.622 -0.0888 -0.2326 -1.3940
 9706SOL     OW30016   5.562   2.492   1.426  0.4123 -0.3657  0.1476
 9706SOL    HW130017   5.471   2.484   1.465  0.8713 -1.8431  1.0087
 9706SOL    HW230018   5.566   2.442   1.339  0.6950 -1.3631  0.7131
 9707SOL     OW30019   2.581   5.984   4.138  0.2531  0.5639  0.3199
 9707SOL    HW130020   2.630   5.915   4.191 -2.2956 -1.4857  0.1817
 9707SOL    HW230021   2.549   6.057   4.199 -0.1050 -0.2324  1.1029
 9708SOL     OW30022   2.057   4.131   6.276  0.0840  0.5347  0.0514
 9708SOL    HW130023   2.088   4.198   6.343 -0.7230 -0.3417  1.3475
 9708SOL    HW230024   2.110   4.046   6.286 -0.5370  0.1414  0.1029
 9709SOL     OW30025   0.431   5.878   3.641 -0.0015 -0.3097  0.0236
 9709SOL    HW130026   0.355   5.942   3.651 -0.0723 -0.2526 -0.8242
 9709SOL    HW230027   0.489   5.908   3.565  0.9466 -0.2736  0.7479
 9710SOL     OW30028   5.425   0.865   5.284  0.2365 -0.1458 -0.6265
 9710SOL    HW130029   5.425   0.878   5.185  0.2976 -1.1832 -0.7677
 9710SOL    HW230030   5.519   0.851   5.315  0.1712 -0.2284 -0.4686
 9711SOL     OW30031   0.799   6.184   3.621  0.0474  0.3891 -0.4444
 9711SOL    HW130032   0.846   6.132   3.550  1.2497  1.1471 -0.2260
 9711SOL    HW230033   0.730   6.243   3.579 -1.1694 -1.1511 -0.7140
 9712SOL     OW30034   1.517   4.583   1.775  0.2579  0.1971  0.4899
 9712SOL    HW130035   1.462   4.664   1.759 -0.7557 -0.1067  2.2481
 9712SOL    HW230036   1.479   4.506   1.723 -1.9818 -0.3778  2.8069
 9713SOL     OW30037   1.818   5.471   0.406 -0.3414  0.1955  0.0787
 9713SOL    HW130038   1.726   5.489   0.371 -0.1826 -0.2206 -0.5757
 9713SOL    HW230039   1.880   5.545   0.378 -0.5215  0.5795  0.6958
 9714SOL     OW30040   4.429   2.416   5.666 -0.7362 -0.2058  0.2631
 9714SOL    HW130041   4.445   2.370   5.579 -1.8841 -1.0382  0.4614
 9714SOL    HW230042   4.467   2.508   5.663  0.3589 -0.6574 -0.6600
 9715SOL     OW30043   3.605   3.266   6.347  0.2456  0.3810  0.3736
 9715SOL    HW130044   3.510   3.278   6.316  0.1618 -0.2913  0.3640
 9715SOL    HW230045   3.618   3.172   6.380  0.7521  0.6317  0.9186
 9716SOL     OW30046   6.625   4.538   5.388  0.3070 -0.2178 -0.7313
 9716SOL    HW130047   6.594   4.444   5.403  2.0989 -0.6793  0.3786
 9716SOL    HW230048   6.680   4.568   5.466  0.3586  1.5143 -1.3871
 9717SOL     OW30049   5.764   6.159   6.757 -0.2202  0.0737 -0.3943
 9717SOL    HW130050   5.680   6.146   6.810  0.9407  0.0325  1.5310
 9717SOL    HW230051   5.788   6.073   6.711 -1.3613  0.1749 -1.2431
 9718SOL     OW30052   5.360   0.505   3.105  0.0430  0.4158 -0.2927
 9718SOL    HW130053   5.410   0.583   3.068  2.1224 -0.8541 -0.3638
 9718SOL    HW230054   5.366   0.505   3.205  1.2170 -0.3048 -0.3342
 9719SOL     OW30055   2.309   5.526   0.530  0.5070  0.0201  0.7383
 9719SOL    HW130056   2.347   5.609   0.488  2.6747 -0.5958  1.3484
 9719SOL    HW230057   2.275   5.465   0.458 -0.3515  1.0502  0.2370
 9720SOL     OW30058   1.578   4.039   5.247  0.1295 -0.0167  0.8461
 9720SOL    HW130059   1.586   3.975   5.171  0.5267  1.0595 -0.0516
 9720SOL    HW230060   1.665   4.042   5.297  0.8240  1.3254 -0.3799
 9721SOL     OW30061   5.099   0.114   2.752 -0.0101 -0.6086 -0.4997
 9721SOL    HW130062   5.118   0.085   2.846 -2.0059 -2.1030 -0.5148
 9721SOL    HW230063   5.103   0.214   2.747  0.5392 -0.5285  1.0564
 9722SOL     OW30064   4.888   6.924   4.094 -0.1615  0.0465 -0.1969
 9722SOL    HW130065   4.880   6.845   4.033  1.0391 -0.3801  0.1634
 9722SOL    HW230066   4.978   6.922   4.139  0.0354  1.8323 -0.4717
 9723SOL     OW30067   1.466   3.115   4.148  0.1056 -0.0590 -0.1674
 9723SOL    HW130068   1.483   3.131   4.245 -3.0467 -1.7034  0.7931
 9723SOL    HW230069   1.370   3.136   4.128  0.4289 -0.7208 -2.7162
 9724SOL     OW30070   5.113   3.279   4.640  0.1924  0.3867 -0.0598
 9724SOL    HW130071   5.135   3.235   4.553  1.3465  2.0107 -0.6356
 9724SOL    HW230072   5.152   3.371   4.641  0.5758  0.2392  2.3727
 9725SOL     OW30073   1.069   3.930   5.684  0.3052 -0.2772  0.5633
 9725SOL    HW130074   1.123   3.876   5.618  3.3949  0.8425  1.9683
 9725SOL    HW230075   1.090   4.027   5.673 -1.3606  0.2029  1.3290
 9726SOL     OW30076   4.483   1.249   5.850  0.0376  0.1820 -0.2073
 9726SOL    HW130077   4.575   1.287   5.843  0.0417  0.2952  0.4313
 9726SOL    HW230078   4.452   1.253   5.945  0.2834 -2.0151  0.0061
 9727SOL     OW30079   3.923   2.199   3.704 -0.6642  0.2071  0.4187
 9727SOL    HW130080   3.999   2.207   3.641 -1.0376  0.8542  0.0314
 9727SOL    HW230081   3.844   2.158   3.657 -1.0844  1.0983  0.3165
 9728SOL     OW30082   5.339   6.911   0.345 -0.1987  0.2262  0.4254
 9728SOL    HW130083   5.392   6.918   0.260  0.1996 -0.4178  0.6138
 9728SOL    HW230084   5.311   6.817   0.360 -0.7874  0.4384  0.7065
 9729SOL     OW30085   1.210   0.168   3.209 -0.1116  0.3675 -0.3997
 9729SOL    HW130086   1.138   0.229   3.244 -0.2852  1.3751 -2.4052
 9729SOL    HW230087   1.184   0.073   3.225 -1.2375  0.7481  0.1310
 9730SOL     OW30088   3.760   2.564   0.301 -0.5285  0.6400  0.2004
 9730SOL    HW130089   3.857   2.566   0.326  0.0238 -0.9049 -1.5953
 9730SOL    HW230090   3.705   2.544   0.382  0.6751  1.0861  1.1578
 9731SOL     OW30091   6.249   2.013   0.703 -0.3342  0.2345 -0.3128
 9731SOL    HW130092   6.158   2.032   0.668 -0.7699 -0.6039  0.3232
 9731SOL    HW230093   6.271   1.917   0.688  0.3573  0.3766 -0.2511
 9732SOL     OW30094   1.084   1.296   2.095  0.0162 -0.2040 -0.2094
 9732SOL    HW130095   1.153   1.368   2.090 -0.8761  0.5783 -2.6875
 9732SOL    HW230096   1.117   1.214   2.049 -0.1230 -0.3663 -0.0272
 9733SOL     OW30097   0.682   4.585   6.042  0.4690  0.0828  0.2080
 9733SOL    HW130098   0.627   4.613   5.963  2.3785  1.4991 -0.7101
 9733SOL    HW230099   0.689   4.661   6.107  2.2590  0.3765 -0.2772
 9734SOL     OW30100   3.319   4.898   5.691 -0.2237 -0.1396  0.0893
 9734SOL    HW130101   3.408   4.863   5.662 -0.0608  0.5630 -0.2921
 9734SOL    HW230102   3.324   4.926   5.786  0.2122  0.6806 -0.1657
 9735SOL     OW30103   5.984   6.924   6.350 -0.4046 -0.1154 -0.6774
 9735SOL    HW130104   5.888   6.941   6.331 -0.4110  2.2122  0.9303
 9735SOL    HW230105   5.993   6.856   6.422 -1.0604  1.5819  1.0983
 9736SOL     OW30106   6.893   4.913   3.803  0.1977 -0.1373  0.0916
 9736SOL    HW130107   6.941   4.990   3.761  2.4818  0.9920  4.1925
 9736SOL    HW230108   6.957   4.838   3.817 -0.2767 -0.2410  1.9031
 9737SOL     OW30109   3.319   5.829   2.796 -0.3819 -0.7457 -0.2840
 9737SOL    HW130110   3.350   5.743   2.836  1.4605 -0.8939 -1.9132
 9737SOL    HW230111   3.333   5.828   2.697 -1.5701  0.9262 -0.5205
 9738SOL     OW30112   0.076   4.397   1.128 -0.2976 -0.6451  0.2437
 9738SOL    HW130113  -0.005   4.448   1.099 -0.9970 -0.8389  1.7738
 9738SOL    HW230114   0.055   4.299   1.132  0.3221 -0.8079 -0.3329
 9739SOL     OW30115   1.585   1.945   1.940 -0.2658 -0.5056 -0.1622
 9739SOL    HW130116   1.674   1.909   1.913  0.2403 -0.4929  1.3515
 9739SOL    HW230117   1.526   1.952   1.860  1.4770  0.6511 -1.4323
 9740SOL     OW30118   1.658   3.679   6.112  0.6119  0.1895  0.2290
 9740SOL    HW130119   1.597   3.710   6.039 -0.5720 -2.2674  0.0982
 9740SOL    HW230120   1.722   3.611   6.076  1.2159  0.2654  1.1249
 9741SOL     OW30121   3.661   2.904   6.174 -0.5826 -0.1736 -0.2267
 9741SOL    HW130122   3.610   2.819   6.166 -0.7741 -0.1531  0.6253
 9741SOL    HW230123   3.709   2.906   6.262  0.8953 -0.1904 -1.0029
 9742SOL     OW30124   2.103   2.429   4.892  0.2245  0.2906  0.0278
 9742SOL    HW130125   2.156   2.351   4.926 -0.6661 -0.2810  0.1505
 9742SOL    HW230126   2.160   2.511   4.892  0.7102 -0.0278  1.4211
 9743SOL     OW30127   1.544   2.856   3.475 -0.7435 -0.1556 -0.2141
 9743SOL    HW130128   1.553   2.949   3.440 -1.6754  0.2372  0.5500
 9743SOL    HW230129   1.635   2.820   3.499 -0.4850  1.0664  0.7528
 9744SOL     OW30130   3.920   5.065   4.182 -0.3993  0.0759 -0.0657
 9744SOL    HW130131   3.962   5.018   4.105  1.5961 -0.0384  1.0401
 9744SOL    HW230132   3.846   5.123   4.148  0.8976  0.6276 -2.1833
 9745SOL     OW30133   1.579   0.735   4.125 -0.1332  0.0109  0.1194
 9745SOL    HW130134   1.552   0.806   4.190 -1.1503 -0.5925  0.3854
 9745SOL    HW230135   1.518   0.736   4.046  0.3807 -0.0093 -0.2831
 9746SOL     OW30136   0.165   5.278   3.973  0.0183  0.9924 -0.3028
 9746SOL    HW130137   0.167   5.275   4.073 -1.3683  2.1338 -0.2035
 9746SOL    HW230138   0.104   5.206   3.939 -0.3596  1.2786 -0.2469
 9747SOL     OW30139   1.042   0.908   6.938  0.3593  0.1540  0.5782
 9747SOL    HW130140   0.993   0.924   7.023 -2.3518  0.4806 -0.9201
 9747SOL    HW230141   0.994   0.838   6.884  0.3771  1.8575 -1.8267
 9748SOL     OW30142   1.349   2.853   4.010  0.3040 -0.4972 -0.3624
 9748SOL    HW130143   1.307   2.911   3.940  1.9422  0.5136 -0.5578
 9748SOL    HW230144   1.418   2.793   3.968 -0.4577 -1.7057  0.0353
 9749SOL     OW30145   2.763   0.821   0.573 -0.3960 -0.0551 -0.2935
 9749SOL    HW130146   2.815   0.852   0.493 -1.9128  0.8671 -0.9792
 9749SOL    HW230147   2.698   0.892   0.599 -1.2235 -1.1077  0.6093
 9750SOL     OW30148   1.233   2.640   0.080 -0.2687 -0.1083  0.4686
 9750SOL    HW130149   1.180   2.594   0.009  0.6277 -0.9561  0.3235
 9750SOL    HW230150   1.323   2.664   0.043  0.0558 -0.1890  1.1999
 9751SOL     OW30151   1.817   0.331   5.606  0.7327 -0.3853  0.6040
 9751SOL    HW130152   1.903   0.303   5.649  0.9088  0.7039  0.9641
 9751SOL    HW230153   1.833   0.347   5.508  1.2645  1.1606  0.9287
 9752SOL     OW30154   2.848   0.773   6.634 -0.2623 -0.8636 -0.0817
 9752SOL    HW130155   2.834   0.818   6.722  0.4584  1.1684 -0.9377
 9752SOL    HW230156   2.843   0.674   6.645  0.5635 -0.6834  2.3773
 9753SOL     OW30157   4.565   2.044   2.919  0.3237  0.2969 -0.1248
 9753SOL    HW130158   4.631   2.119   2.907 -0.9397  1.7573  1.4076
 9753SOL    HW230159   4.511   2.033   2.836 -0.8819  2.5948  0.2620
 9754SOL     OW30160   2.066   3.432   0.172  0.1897  0.2734  0.4837
 9754SOL    HW130161   2.079   3.531   0.161  1.1948 -0.0448 -1.8478
 9754SOL    HW230162   1.977   3.415   0.214 -0.3641  2.1429  0.1910
 9755SOL     OW30163   1.118   2.482   6.872 -0.1107  0.0268 -0.5131
 9755SOL    HW130164   1.023   2.451   6.875  0.4879 -1.8768  0.2690
 9755SOL    HW230165   1.180   2.404   6.885  1.4905  1.6214  3.1237
 9756SOL     OW30166   0.325   4.882   3.902 -0.0482  0.2420  0.0655
 9756SOL    HW130167   0.361   4.947   3.835 -0.7038  2.0742  1.4111
 9756SOL    HW230168   0.360   4.903   3.993 -0.6231 -1.0422  0.6246
 9757SOL     OW30169   1.699   1.241   1.988 -0.2816 -0.0741  0.7692
 9757SOL    HW130170   1.664   1.268   1.898  0.1708 -0.0871  0.5831
 9757SOL    HW230171   1.679   1.312   2.054 -1.8461 -0.6719  0.9734
 9758SOL     OW30172   2.942   0.020   5.007 -0.1682  0.2436  0.6794
 9758SOL    HW130173   3.041   0.011   4.997  0.1588 -0.0646  3.4270
 9758SOL    HW230174   2.896  -0.033   4.936  1.6223  0.1482 -0.4554
 9759SOL     OW30175   2.371   0.212   0.684  0.0018  0.0293  0.0821
 9759SOL    HW130176   2.417   0.227   0.596  0.5599  0.6769  0.4734
 9759SOL    HW230177   2.295   0.148   0.671  0.7925 -0.8001 -0.6424
 9760SOL     OW30178   0.828   5.633   6.944 -0.0647 -0.0341 -0.0895
 9760SOL    HW130179   0.927   5.619   6.940  0.1703  0.6318  2.1165
 9760SOL    HW230180   0.799   5.636   7.040 -2.0380  1.1099 -0.6725
 9761SOL     OW30181   3.058   6.400   3.079  0.1846 -0.0342 -0.0391
 9761SOL    HW130182   3.033   6.318   3.028 -0.5604  1.8698 -2.9745
 9761SOL    HW230183   2.976   6.453   3.101  0.5823 -0.3014  2.4426
 9762SOL     OW30184   2.638   4.150   6.046 -0.4480  0.5364 -0.0835
 9762SOL    HW130185   2.655   4.155   6.145 -1.1308 -0.4341  0.0990
 9762SOL    HW230186   2.714   4.104   6.001  1.1940  3.4005 -0.4275
 9763SOL     OW30187   5.947   5.056   6.915 -0.1547  0.3266 -0.5546
 9763SOL    HW130188   6.040   5.094   6.915  0.7516 -1.6969  0.7198
 9763SOL    HW230189   5.952   4.956   6.921 -2.4387  0.1794 -0.2015
 9764SOL     OW30190   3.374   1.207   0.601  0.3977 -0.2906 -0.3362
 9764SOL    HW130191   3.464   1.168   0.622 -0.4797 -1.2931  1.8905
 9764SOL    HW230192   3.364   1.294   0.650  0.5402  0.3830 -1.4708
 9765SOL     OW30193   2.587   1.481   1.496 -0.1880 -0.3087  0.4030
 9765SOL    HW130194   2.638   1.481   1.409  2.3744  2.9063  1.7043
 9765SOL    HW230195   2.649   1.454   1.570 -0.8211  1.9146  1.8351
 9766SOL     OW30196   5.380   2.463   4.867  0.1540  0.5139 -0.3321
 9766SOL    HW130197   5.331   2.447   4.781  3.4304 -1.9912 -1.9745
 9766SOL    HW230198   5.330   2.422   4.943 -0.2439 -2.2273 -1.9549
 9767SOL     OW30199   6.259   5.489   0.916 -0.3735 -0.4186 -0.1659
 9767SOL    HW130200   6.201   5.439   0.852 -2.4476  1.9625 -0.3131
 9767SOL    HW230201   6.232   5.585   0.917  2.5148  0.4799  1.0889
 9768SOL     OW30202   4.433   0.304   3.959 -0.0786  0.1992 -0.1936
 9768SOL    HW130203   4.343   0.301   3.917  0.2598  2.6278 -1.2300
 9768SOL    HW230204   4.424   0.286   4.058 -1.3679 -1.6081 -0.5831
 9769SOL     OW30205   1.093   1.840   0.591  0.2732  0.0436 -0.0206
 9769SOL    HW130206   1.155   1.817   0.666  0.9680 -1.2484 -0.9640
 9769SOL    HW230207   1.014   1.778   0.593  0.8819 -0.8018 -1.0351
 9770SOL     OW30208   0.169   3.278   0.700  0.2302 -0.2381  0.3068
 9770SOL    HW130209   0.162   3.324   0.612  0.1010  0.4823  0.6885
 9770SOL    HW230210   0.082   3.233   0.721  0.3811 -0.7268 -0.0990
 9771SOL     OW30211   1.636   0.264   2.893  0.0452 -0.1026  0.3277
 9771SOL    HW130212   1.624   0.167   2.916 -0.2143 -0.6467 -1.8800
 9771SOL    HW230213   1.548   0.303   2.866  0.2697  0.5557  0.5405
 9772SOL     OW30214   2.556   5.657   4.665  0.0906 -0.0563 -0.5518
 9772SOL    HW130215   2.634   5.641   4.605  0.3150  0.4870 -0.4101
 9772SOL    HW230216   2.501   5.574   4.671  1.6544 -1.0491  0.7974
 9773SOL     OW30217   3.576   4.115   5.896  0.3943  0.5883  0.2943
 9773SOL    HW130218   3.596   4.080   5.987 -2.1419  2.0040  1.5105
 9773SOL    HW230219   3.495   4.069   5.859 -0.8529  2.5294  0.4280
 9774SOL     OW30220   0.088   3.420   4.343  0.2057  0.1211  0.1554
 9774SOL    HW130221   0.062   3.331   4.378  1.4296  0.6367  2.5648
 9774SOL    HW230222   0.131   3.474   4.415  1.4015  1.9088 -1.7581
 9775SOL     OW30223   6.191   3.298   1.773  0.2361 -0.6092 -0.0379
 9775SOL    HW130224   6.266   3.250   1.727  1.0411 -0.1749  0.7780
 9775SOL    HW230225   6.108   3.290   1.719  0.4275 -2.5931 -0.1355
 9776SOL     OW30226   4.825   5.214   0.888 -0.2730  0.3946 -0.0787
 9776SOL    HW130227   4.749   5.187   0.947  0.6450 -0.1678  0.8792
 9776SOL    HW230228   4.853   5.307   0.911 -0.2070  0.3392  0.0644
 9777SOL     OW30229   5.217   3.783   6.146 -0.6277  0.0442  0.4753
 9777SOL    HW130230   5.294   3.803   6.086 -0.4767  1.4084  1.0775
 9777SOL    HW230231   5.201   3.685   6.149 -0.0688 -0.1180 -1.0699
 9778SOL     OW30232   1.726   5.604   1.536  0.1378 -0.2859  0.4274
 9778SOL    HW130233   1.632   5.637   1.526  0.2008  0.5154  2.0867
 9778SOL    HW230234   1.727   5.524   1.596  0.3374 -1.4993 -1.1307
 9779SOL     OW30235   2.454   2.552   2.844 -0.1016 -0.0719 -0.4198
 9779SOL    HW130236   2.505   2.518   2.765 -0.6844 -1.3196 -0.2866
 9779SOL    HW230237   2.432   2.649   2.831  1.0954  0.1241 -1.0938
 9780SOL     OW30238   3.894   1.893   6.792 -0.0516  0.0851 -0.2432
 9780SOL    HW130239   3.925   1.811   6.744 -2.0538 -0.2290 -1.0833
 9780SOL    HW230240   3.968   1.961   6.792  1.3090 -1.3278 -0.3688
 9781SOL     OW30241   4.323   0.558   1.880 -0.2739 -0.1261 -0.6065
 9781SOL    HW130242   4.263   0.565   1.959 -0.0363  0.9399 -0.5098
 9781SOL    HW230243   4.377   0.473   1.886  0.0479  0.1483  0.5799
 9782SOL     OW30244   5.813   0.683   4.206 -0.0718 -0.0445  0.1711
 9782SOL    HW130245   5.816   0.687   4.306  1.0439 -1.3029  0.2138
 9782SOL    HW230246   5.800   0.588   4.176  0.7938  0.1499 -0.8881
 9783SOL     OW30247   6.906   1.631   6.835  0.2562  0.0279  0.2744
 9783SOL    HW130248   6.830   1.641   6.771  0.4643 -1.2764 -0.1946
 9783SOL    HW230249   6.964   1.712   6.830  1.9304 -1.1718 -3.4297
 9784SOL     OW30250   3.411   4.957   5.977 -0.6801  0.3685 -0.2739
 9784SOL    HW130251   3.511   4.962   5.984 -0.6342  0.6089 -0.9505
 9784SOL    HW230252   3.370   5.007   6.053 -0.3675 -3.3294  2.5705
 9785SOL     OW30253   3.387   5.338   3.634 -0.3383 -0.3349 -0.2326
 9785SOL    HW130254   3.307   5.278   3.632  0.0164 -0.8750  0.8556
 9785SOL    HW230255   3.362   5.424   3.680 -0.2790 -0.5347  0.1778
 9786SOL     OW30256   1.110   0.730   3.036  0.2209  0.0311  0.0821
 9786SOL    HW130257   1.169   0.777   2.969  0.4582 -0.4183 -0.0252
 9786SOL    HW230258   1.070   0.649   2.994  0.4568 -0.3157  0.5227
 9787SOL     OW30259   4.848   3.219   5.051  0.2677 -0.0408 -0.1683
 9787SOL    HW130260   4.910   3.187   4.979  2.0354  1.7117  0.4630
 9787SOL    HW230261   4.834   3.317   5.040 -0.3787  0.0346  1.2086
 9788SOL     OW30262   5.062   5.477   1.197 -0.2667  0.7032 -0.0617
 9788SOL    HW130263   5.138   5.462   1.260  0.0592  0.1100 -0.5833
 9788SOL    HW230264   4.976   5.451   1.241 -0.0826  0.6313  0.2584
 9789SOL     OW30265   3.265   4.936   6.979 -0.0647  0.2000 -0.4129
 9789SOL    HW130266   3.337   5.005   6.968 -0.1266  0.7592  2.1918
 9789SOL    HW230267   3.178   4.981   6.996 -0.2157 -0.4913  0.7216
 9790SOL     OW30268   4.105   5.502   0.726 -0.0795  0.3607  0.3866
 9790SOL    HW130269   4.017   5.455   0.729 -0.2022  0.5186 -0.3929
 9790SOL    HW230270   4.118   5.555   0.809 -0.4528 -0.1439  0.7687
 9791SOL     OW30271   0.530   0.694   5.411  0.3499 -0.1290 -0.2793
 9791SOL    HW130272   0.596   0.633   5.366 -0.6651 -1.0218 -0.6079
 9791SOL    HW230273   0.468   0.639   5.468 -0.1184  0.6958  0.0209
 9792SOL     OW30274   2.085   0.197   5.103 -0.7415 -0.5832 -0.4006
 9792SOL    HW130275   2.018   0.251   5.052 -0.8651 -3.0629 -3.0550
 9792SOL    HW230276   2.043   0.163   5.187 -1.9980 -0.0332 -0.7842
 9793SOL     OW30277   1.568   6.329   6.960  0.2298  0.2612 -0.3072
 9793SOL    HW130278   1.625   6.248   6.969  0.4398  0.3512 -0.8086
 9793SOL    HW230279   1.511   6.339   7.042  1.3367  0.4898  0.4634
 9794SOL     OW30280   2.203   5.015   4.308  0.1026  0.6642  0.2225
 9794SOL    HW130281   2.247   4.926   4.321  1.1903  1.1908  0.2693
 9794SOL    HW230282   2.243   5.082   4.372  0.7110  1.6550 -1.1521
 9795SOL     OW30283   0.148   0.331   2.388  0.4742  0.4066 -0.2205
 9795SOL    HW130284   0.241   0.334   2.352  1.1927 -2.5227  1.0869
 9795SOL    HW230285   0.150   0.299   2.483 -1.8488  0.9451  0.0740
 9796SOL     OW30286   0.662   0.661   2.807  0.5011  0.4605 -0.0429
 9796SOL    HW130287   0.621   0.729   2.868  1.1772  0.0622  0.8678
 9796SOL    HW230288   0.747   0.698   2.768 -0.2976  1.0012 -1.3575
 9797SOL     OW30289   4.106   3.199   2.312  0.1417 -0.8072  0.1931
 9797SOL    HW130290   4.179   3.158   2.257 -0.0702  0.4171 -1.0318
 9797SOL    HW230291   4.022   3.146   2.301  1.0900 -3.0773  2.7060
 9798SOL     OW30292   4.141   3.082   5.979  0.1099  0.4506  0.0210
 9798SOL    HW130293   4.046   3.065   6.008 -0.6364  0.9177 -1.9959
 9798SOL    HW230294   4.143   3.161   5.918  1.6752 -0.1228 -0.6990
 9799SOL     OW30295   3.689   3.988   1.668  0.3210  0.5843 -0.3017
 9799SOL    HW130296   3.751   3.990   1.747  0.4986  0.8711 -0.4442
 9799SOL    HW230297   3.681   4.080   1.630 -0.0050  0.5020 -0.4319
 9800SOL     OW30298   5.006   2.180   0.266 -0.1908  0.2015 -0.3073
 9800SOL    HW130299   5.106   2.183   0.267 -0.2091  0.8644  0.5915
 9800SOL    HW230300   4.972   2.227   0.184  0.2194  0.4926 -0.3128
 9801SOL     OW30301   1.410   6.112   1.302  0.0000  0.0762 -0.1862
 9801SOL    HW130302   1.465   6.032   1.326  0.0108  0.0575 -0.2705
 9801SOL    HW230303   1.465   6.195   1.317  0.1709  0.0407 -0.5922
 9802SOL     OW30304   0.502   6.799   4.342  0.2232 -0.1567 -0.1499
 9802SOL    HW130305   0.425   6.854   4.375  0.0737  0.4950 -1.5163
 9802SOL    HW230306   0.556   6.767   4.420 -1.8930 -1.3558  0.9103
 9803SOL     OW30307   5.501   3.245   0.645 -0.0447  0.1731 -0.1258
 9803SOL    HW130308   5.407   3.240   0.677  0.2793 -0.0502  0.8565
 9803SOL    HW230309   5.563   3.228   0.722  0.7755 -1.5579 -1.1113
 9804SOL     OW30310   3.897   1.515   3.784 -0.0968 -0.3112  0.4734
 9804SOL    HW130311   3.839   1.553   3.712 -0.5057 -2.7827 -0.5985
 9804SOL    HW230312   3.988   1.555   3.778 -1.0207  2.0773  0.8651
 9805SOL     OW30313   3.005   3.283   5.418 -0.7318 -0.1898 -0.1720
 9805SOL    HW130314   3.040   3.209   5.476 -0.0272 -0.5291 -1.0140
 9805SOL    HW230315   2.982   3.247   5.328 -0.9046  0.5201 -0.4194
 9806SOL     OW30316   5.748   0.547   6.646 -0.3697 -0.2820  0.3221
 9806SOL    HW130317   5.727   0.479   6.577  1.3858 -0.0963 -0.4440
 9806SOL    HW230318   5.759   0.502   6.735  1.8892 -1.2376 -0.3656
 9807SOL     OW30319   4.276   0.554   1.630  0.2359 -0.6833 -0.2293
 9807SOL    HW130320   4.292   0.568   1.728 -3.4076 -1.6929  0.6768
 9807SOL    HW230321   4.335   0.615   1.577  0.9534  1.3225  2.6476
 9808SOL     OW30322   3.075   0.893   0.447 -0.8834  0.8486 -0.7932
 9808SOL    HW130323   3.090   0.914   0.544  0.7687  0.3045 -0.8928
 9808SOL    HW230324   3.112   0.802   0.427  0.2736  1.5929 -2.2518
 9809SOL     OW30325   1.348   5.923   5.543  0.4523 -0.6102 -0.1768
 9809SOL    HW130326   1.344   5.921   5.443  0.1898  1.4617 -0.2441
 9809SOL    HW230327   1.441   5.945   5.572  0.4806 -1.0044  0.0343
 9810SOL     OW30328   6.137   0.143   5.431 -0.2256 -0.5646 -0.4438
 9810SOL    HW130329   6.125   0.206   5.507 -0.6218  1.2157 -1.9239
 9810SOL    HW230330   6.234   0.130   5.413 -0.1368 -0.7528  0.1464
 9811SOL     OW30331   1.539   0.760   6.743 -0.0157 -0.4437  0.4201
 9811SOL    HW130332   1.607   0.833   6.734  0.5296 -0.8382  1.2261
 9811SOL    HW230333   1.454   0.797   6.781 -0.3672  0.1046 -0.8451
 9812SOL     OW30334   0.080   0.530   5.541 -0.3087  0.2983  0.2408
 9812SOL    HW130335   0.115   0.519   5.448 -3.6375 -0.3238 -1.0882
 9812SOL    HW230336   0.092   0.445   5.591  1.9919  0.8012  0.6452
 9813SOL     OW30337   4.358   1.180   6.083 -0.4785 -0.2443 -0.2364
 9813SOL    HW130338   4.377   1.156   6.178 -1.2264  1.1840  0.3029
 9813SOL    HW230339   4.333   1.097   6.032  0.7900 -1.1654  0.5664
 9814SOL     OW30340   5.635   2.562   2.324  0.2893  0.3606  0.1997
 9814SOL    HW130341   5.695   2.518   2.390 -2.3628 -3.4777  0.3440
 9814SOL    HW230342   5.609   2.496   2.253 -1.3612  2.7417 -1.5696
 9815SOL     OW30343   6.350   1.759   5.291 -0.1066  0.7539 -0.2842
 9815SOL    HW130344   6.353   1.770   5.191  3.4400  3.7179 -0.0713
 9815SOL    HW230345   6.407   1.682   5.317 -1.1127 -0.0840 -0.5069
 9816SOL     OW30346   6.204   5.897   1.153  0.3482 -0.3078 -0.3503
 9816SOL    HW130347   6.178   5.858   1.065 -0.4068 -2.3834  0.7250
 9816SOL    HW230348   6.125   5.943   1.194 -0.1019 -1.6861  0.3953
 9817SOL     OW30349   4.966   1.853   5.026 -0.1417  0.1336  0.3142
 9817SOL    HW130350   5.006   1.943   5.042 -1.0805  0.4543  0.9455
 9817SOL    HW230351   5.029   1.797   4.973 -0.1064  1.6329 -1.3045
 9818SOL     OW30352   6.931   3.682   3.961 -0.1897 -0.5788 -0.7269
 9818SOL    HW130353   6.930   3.582   3.967 -0.4939 -0.6677 -2.0704
 9818SOL    HW230354   7.017   3.717   3.999 -0.2500 -1.3099  0.1138
 9819SOL     OW30355   1.336   3.754   6.358 -0.2383  0.5088 -0.0881
 9819SOL    HW130356   1.317   3.667   6.312 -0.8506 -0.5809  2.1011
 9819SOL    HW230357   1.313   3.830   6.297 -0.3473 -0.8349 -1.7967
 9820SOL     OW30358   0.779   5.951   1.985  0.2931 -0.7470  0.4294
 9820SOL    HW130359   0.800   5.926   1.891  1.7912  0.5367  0.3797
 9820SOL    HW230360   0.680   5.959   1.997  0.1178  0.3459 -1.3935
 9821SOL     OW30361   5.028   5.191   3.719 -0.4196 -0.6947  0.3072
 9821SOL    HW130362   5.097   5.149   3.777  1.5924  0.3890 -1.1561
 9821SOL    HW230363   4.983   5.121   3.663  1.5320 -1.1667 -0.7445
 9822SOL     OW30364   0.795   1.781   0.006  1.1170 -0.2180  0.1727
 9822SOL    HW130365   0.826   1.857  -0.051  1.6050  2.1457  3.3073
 9822SOL    HW230366   0.862   1.763   0.078  0.0000 -2.1937  0.8068
 9823SOL     OW30367   4.602   4.598   6.031  0.1384 -0.2653 -0.9370
 9823SOL    HW130368   4.548   4.519   6.001  0.5726 -0.8153 -0.3261
 9823SOL    HW230369   4.700   4.574   6.027  0.2127 -0.5283  1.2556
 9824SOL     OW30370   4.986   5.579   0.391  0.2107 -0.0961  0.0458
 9824SOL    HW130371   4.981   5.558   0.489  0.8691 -1.0248 -0.1091
 9824SOL    HW230372   4.987   5.678   0.379  0.9687  0.0392  1.0402
 9825SOL     OW30373   4.989   6.262   1.090  0.3521 -0.1999 -0.1385
 9825SOL    HW130374   5.000   6.216   1.178  0.4206  0.2283  0.0780
 9825SOL    HW230375   5.035   6.209   1.019  0.3995 -0.4836  0.0991
 9826SOL     OW30376   1.783   2.787   5.419 -0.2653 -0.3393  0.0381
 9826SOL    HW130377   1.727   2.705   5.403 -1.8504  0.8615 -0.8146
 9826SOL    HW230378   1.739   2.845   5.487  1.1271 -0.4019  1.0387
 9827SOL     OW30379   3.427   3.856   2.444  0.0922  0.0521  0.1485
 9827SOL    HW130380   3.345   3.867   2.499  0.3062 -0.6310  0.6125
 9827SOL    HW230381   3.466   3.947   2.424 -0.3422  0.3385  0.5744
 9828SOL     OW30382   5.881   5.674   6.043 -0.4110 -0.3911  0.1605
 9828SOL    HW130383   5.832   5.590   6.020 -1.1286 -0.2192  0.9971
 9828SOL    HW230384   5.867   5.742   5.971 -1.6435 -0.2562  0.4984
 9829SOL     OW30385   5.140   0.025   2.290 -0.3287 -0.5935 -0.2465
 9829SOL    HW130386   5.130   0.016   2.389  1.7993  0.1166  0.0770
 9829SOL    HW230387   5.056   0.064   2.252 -1.5253 -1.7235  1.1256
 9830SOL     OW30388   5.161   5.774   6.811 -0.3173 -0.1513  0.0257
 9830SOL    HW130389   5.196   5.826   6.889 -0.3492 -0.3599  0.1794
 9830SOL    HW230390   5.139   5.681   6.840 -0.0298 -0.3244 -0.2995
 9831SOL     OW30391   1.457   5.643   1.518  0.0512  0.1407  0.1361
 9831SOL    HW130392   1.463   5.621   1.421  0.8523  0.3486  0.1264
 9831SOL    HW230393   1.362   5.654   1.544 -0.1527  0.4985 -0.7225
 9832SOL     OW30394   3.567   1.963   0.142  0.5671  0.1478  0.1260
 9832SOL    HW130395   3.491   2.021   0.112  0.1995  0.2117  1.1698
 9832SOL    HW230396   3.534   1.870   0.157  0.6164  0.2485  0.8964
 9833SOL     OW30397   3.570   2.867   3.092  0.2896 -1.0105  0.0261
 9833SOL    HW130398   3.499   2.808   3.128  2.0938 -2.5961  1.1730
 9833SOL    HW230399   3.583   2.849   2.994 -2.5254  1.1321 -0.8742
 9834SOL     OW30400   5.021   0.879   0.981 -0.1566  0.2323 -0.0560
 9834SOL    HW130401   4.978   0.900   1.069  0.1787  0.5999  0.0257
 9834SOL    HW230402   5.077   0.796   0.990 -1.2798 -0.5857 -0.3119
 9835SOL     OW30403   3.439   3.677   4.844  0.2991 -0.3360  0.5760
 9835SOL    HW130404   3.354   3.713   4.805 -0.9255 -1.7493  1.8353
 9835SOL    HW230405   3.499   3.753   4.869 -1.3653  0.7781  1.3562
 9836SOL     OW30406   0.253   2.367   0.126 -0.0092 -0.1469  0.3404
 9836SOL    HW130407   0.314   2.401   0.055 -0.5652 -1.7904 -0.9911
 9836SOL    HW230408   0.162   2.354   0.088 -0.1305 -1.8167  1.1149
 9837SOL     OW30409   3.747   2.074   0.915 -0.1096 -0.1392  0.1294
 9837SOL    HW130410   3.767   2.164   0.876  0.1148  1.2100  3.1010
 9837SOL    HW230411   3.830   2.020   0.920  0.0494  0.0636 -0.2705
 9838SOL     OW30412   6.803   2.097   6.407 -0.7028 -0.5623  0.3893
 9838SOL    HW130413   6.798   2.068   6.503 -0.0135 -3.5039 -0.3825
 9838SOL    HW230414   6.894   2.134   6.388 -0.8202 -0.0319  0.8306
 9839SOL     OW30415   4.597   4.483   0.774  0.2801  0.1623  0.3471
 9839SOL    HW130416   4.515   4.514   0.725 -0.2624 -1.7457 -0.0286
 9839SOL    HW230417   4.571   4.416   0.843  1.6136 -1.3434 -0.5407
 9840SOL     OW30418   4.699   2.403   0.055 -0.3950 -0.8714  0.3075
 9840SOL    HW130419   4.602   2.405   0.081 -0.8125  0.8542 -1.2323
 9840SOL    HW230420   4.713   2.458  -0.027  2.2856  0.8524  1.7894
 9841SOL     OW30421   3.072   6.678   2.819 -0.0391  0.4827  0.1984
 9841SOL    HW130422   3.171   6.668   2.830 -0.0334 -0.2111 -0.4034
 9841SOL    HW230423   3.053   6.755   2.759  0.1517  0.3625 -0.0169
 9842SOL     OW30424   6.087   1.434   5.118 -0.3107  0.1457 -0.1083
 9842SOL    HW130425   6.174   1.438   5.169 -0.8919  0.7198  0.8800
 9842SOL    HW230426   6.012   1.421   5.182 -0.8011 -2.8770 -1.1470
 9843SOL     OW30427   5.889   6.636   1.227  0.2269  0.2864 -0.2451
 9843SOL    HW130428   5.814   6.688   1.268  0.2548  0.0500  0.1167
 9843SOL    HW230429   5.946   6.696   1.173  1.4345  1.0780  1.7990
 9844SOL     OW30430   2.536   4.890   4.520 -0.1569  0.5551 -0.1040
 9844SOL    HW130431   2.549   4.942   4.604  0.4815 -0.6486  0.5668
 9844SOL    HW230432   2.609   4.823   4.510  1.2181  2.2734 -2.9055
 9845SOL     OW30433   1.622   3.573   1.303 -0.0564  0.0124 -0.4359
 9845SOL    HW130434   1.656   3.499   1.245  0.0711  0.6462 -1.1868
 9845SOL    HW230435   1.695   3.603   1.364 -0.6316 -1.7072  1.2057
 9846SOL     OW30436   5.278   2.052   3.387  0.6607 -0.3026  0.6598
 9846SOL    HW130437   5.211   2.088   3.452 -0.6032 -1.5778  0.1364
 9846SOL    HW230438   5.353   2.008   3.437  0.3131 -0.2210  1.2658
 9847SOL     OW30439   6.174   2.649   1.888 -0.3594  0.4845  0.0979
 9847SOL    HW130440   6.200   2.743   1.864  1.7195  0.2746  1.2631
 9847SOL    HW230441   6.166   2.641   1.988 -0.7017 -0.5172  0.0022
 9848SOL     OW30442   5.771   0.602   0.801  0.4817 -0.2675  0.2520
 9848SOL    HW130443   5.758   0.516   0.750 -1.1677  0.6868 -1.0201
 9848SOL    HW230444   5.714   0.600   0.883 -0.9749  0.2926 -0.7066
 9849SOL     OW30445   2.111   2.622   6.152  0.6318  0.4222  0.1941
 9849SOL    HW130446   2.172   2.694   6.185  2.7252 -0.8060 -0.8150
 9849SOL    HW230447   2.051   2.660   6.081 -0.0474  1.7098  1.3979
 9850SOL     OW30448   2.306   2.705   0.202 -0.2342 -0.1083  0.0931
 9850SOL    HW130449   2.312   2.797   0.165 -0.9637  0.0367  0.3283
 9850SOL    HW230450   2.382   2.689   0.265  1.1788 -0.4421 -1.5966
 9851SOL     OW30451   1.260   1.274   4.975  0.9855  0.0280 -0.2322
 9851SOL    HW130452   1.246   1.370   4.953  0.2632  0.2162  0.9144
 9851SOL    HW230453   1.280   1.265   5.073 -1.4007 -1.1480  0.2280
 9852SOL     OW30454   0.463   5.615   0.076  0.8365  0.0341 -0.5825
 9852SOL    HW130455   0.414   5.646   0.158  0.3912 -0.6594 -0.5823
 9852SOL    HW230456   0.535   5.682   0.053  0.7005  0.4356  0.1316
 9853SOL     OW30457   5.093   4.256   1.305  0.6913 -0.0059 -0.1375
 9853SOL    HW130458   5.024   4.190   1.277  1.5711 -0.9611 -0.1212
 9853SOL    HW230459   5.049   4.336   1.346 -0.4353 -0.1318 -1.0800
 9854SOL     OW30460   6.010   3.751   1.302 -0.3600 -0.1897 -0.1192
 9854SOL    HW130461   6.058   3.780   1.385  0.5709 -2.2658  0.1238
 9854SOL    HW230462   5.997   3.830   1.242  2.0325  0.7510  0.4662
 9855SOL     OW30463   1.500   1.582   5.127  0.1073 -0.0991 -0.1951
 9855SOL    HW130464   1.517   1.509   5.193  0.3673 -0.7845 -0.9979
 9855SOL    HW230465   1.587   1.614   5.089  0.0162  0.8242  0.3430
 9856SOL     OW30466   5.678   5.710   5.609  0.8625 -0.7239 -0.0959
 9856SOL    HW130467   5.653   5.704   5.512 -1.1353 -0.3510  0.3497
 9856SOL    HW230468   5.777   5.709   5.618  1.1167  0.3810 -2.2239
 9857SOL     OW30469   3.107   2.686   6.143 -0.1367  0.0333 -0.0481
 9857SOL    HW130470   3.008   2.693   6.153 -0.0997  1.6678 -0.4375
 9857SOL    HW230471   3.130   2.659   6.050 -0.2068  1.0559 -0.3710
 9858SOL     OW30472   0.999   5.620   2.816  0.0363  0.0020 -0.0031
 9858SOL    HW130473   0.969   5.557   2.888 -1.4622  0.4747 -0.1631
 9858SOL    HW230474   0.924   5.683   2.794  0.0700 -0.7452 -2.6440
 9859SOL     OW30475   5.182   0.680   3.559 -0.7105 -0.0413 -0.1136
 9859SOL    HW130476   5.179   0.665   3.460 -0.9080 -0.9130  0.0172
 9859SOL    HW230477   5.143   0.770   3.580 -2.1394 -0.4912 -0.7123
 9860SOL     OW30478   5.466   4.896   5.794 -0.2373  0.2111  0.2389
 9860SOL    HW130479   5.369   4.885   5.771  0.4397  0.9031 -3.6121
 9860SOL    HW230480   5.482   4.988   5.831 -1.0501 -0.0104  1.1760
 9861SOL     OW30481   2.177   3.768   1.347  0.0103  0.5280  0.2511
 9861SOL    HW130482   2.156   3.724   1.434 -0.2853 -0.2886 -0.2249
 9861SOL    HW230483   2.261   3.822   1.357  0.1822  0.1522  0.9392
 9862SOL     OW30484   5.827   1.728   0.741 -0.0622  0.1825 -0.4167
 9862SOL    HW130485   5.881   1.787   0.681  1.3710 -1.0547 -0.3967
 9862SOL    HW230486   5.860   1.634   0.735 -1.3151 -0.3685  0.6810
 9863SOL     OW30487   1.104   3.239   4.344  0.4341  0.3582  0.6030
 9863SOL    HW130488   1.063   3.323   4.309  0.5865 -0.6962 -2.3500
 9863SOL    HW230489   1.113   3.172   4.270  0.7324 -2.1388  2.7255
 9864SOL     OW30490   6.301   2.475   4.500 -0.0227 -0.1144  0.4285
 9864SOL    HW130491   6.290   2.377   4.481 -1.1777  0.1712 -0.4582
 9864SOL    HW230492   6.261   2.497   4.589  1.0287 -0.5759  1.0478
 9865SOL     OW30493   4.628   6.569   3.324 -0.0086  0.0378 -0.1984
 9865SOL    HW130494   4.696   6.496   3.321 -1.9435 -1.8558 -1.6079
 9865SOL    HW230495   4.578   6.565   3.410  0.0215 -0.1822 -0.1907
 9866SOL     OW30496   5.630   0.835   1.243  0.5068  0.5961  0.3859
 9866SOL    HW130497   5.708   0.855   1.183  1.5576  1.7170  2.0513
 9866SOL    HW230498   5.581   0.920   1.263 -0.4809  0.0695  0.2781
 9867SOL     OW30499   6.996   3.529   3.738 -0.1313 -0.0322 -0.1722
 9867SOL    HW130500   6.952   3.606   3.691  0.2405  1.8909  2.4000
 9867SOL    HW230501   7.070   3.563   3.796 -0.5613 -2.2001  1.8044
 9868SOL     OW30502   5.503   2.248   2.447 -0.2627 -0.1628  0.1861
 9868SOL    HW130503   5.421   2.241   2.391 -0.4312 -4.4478  0.6063
 9868SOL    HW230504   5.506   2.337   2.491 -3.5772  0.9193 -1.4382
 9869SOL     OW30505   6.421   2.637   3.141  0.0534  0.4878 -0.2859
 9869SOL    HW130506   6.520   2.630   3.130  0.0654  1.5420 -1.0370
 9869SOL    HW230507   6.387   2.557   3.190  1.1632 -0.3001 -0.7617
 9870SOL     OW30508   6.581   1.770   5.855 -0.0778 -0.1954 -0.4403
 9870SOL    HW130509   6.604   1.761   5.758 -0.6839 -1.0806 -0.5148
 9870SOL    HW230510   6.616   1.691   5.905  0.4818  0.4000  0.1169
 9871SOL     OW30511   6.788   0.185   2.468  0.3653 -0.0745  0.4518
 9871SOL    HW130512   6.702   0.222   2.505  0.1074  1.5684 -1.5944
 9871SOL    HW230513   6.843   0.147   2.543 -1.7211 -0.3441  1.9371
 9872SOL     OW30514   2.469   5.665   5.424  0.3655  0.3818 -0.3373
 9872SOL    HW130515   2.444   5.661   5.327 -0.1932 -0.7683 -0.1638
 9872SOL    HW230516   2.565   5.692   5.433  1.2098 -2.0235 -1.3460
 9873SOL     OW30517   1.671   1.358   4.662  0.3580 -0.0480 -0.0168
 9873SOL    HW130518   1.618   1.361   4.747 -1.3355  0.1057 -1.0328
 9873SOL    HW230519   1.633   1.287   4.602  1.8704 -0.5312 -0.4420
 9874SOL     OW30520   3.790   6.683   5.092 -0.7608  0.1502  0.1416
 9874SOL    HW130521   3.860   6.681   5.164 -0.6980  0.1435  0.0809
 9874SOL    HW230522   3.834   6.669   5.003 -0.8213  0.2931  0.0893
 9875SOL     OW30523   5.466   0.528   6.119 -0.2245 -0.3614  0.6443
 9875SOL    HW130524   5.463   0.628   6.122  1.5334 -0.1931 -1.2333
 9875SOL    HW230525   5.388   0.494   6.067  2.0163  0.5102 -3.7127
 9876SOL     OW30526   0.188   0.608   1.713  0.0169  0.0305 -0.2592
 9876SOL    HW130527   0.244   0.663   1.651  0.5075 -0.1140  0.0535
 9876SOL    HW230528   0.236   0.595   1.799 -0.8417  0.5791  0.3104
 9877SOL     OW30529   2.645   0.415   3.087 -0.0970  0.1214  0.2704
 9877SOL    HW130530   2.737   0.387   3.061 -0.9057 -0.7798 -1.8712
 9877SOL    HW230531   2.594   0.442   3.005 -1.5287  1.2835  1.4904
 9878SOL     OW30532   6.703   2.226   2.659 -0.6243 -0.2761  0.8276
 9878SOL    HW130533   6.693   2.192   2.752 -0.6523 -1.2087  0.5003
 9878SOL    HW230534   6.612   2.234   2.616 -0.5628 -0.5687  0.6390
 9879SOL     OW30535   4.119   6.213   5.043  0.2701 -0.2752  0.4062
 9879SOL    HW130536   4.025   6.199   5.010  0.2228  0.3787  0.2595
 9879SOL    HW230537   4.122   6.192   5.141 -0.2705  0.6991  0.6465
 9880SOL     OW30538   0.141   0.814   3.055 -0.3280 -0.3418  0.6544
 9880SOL    HW130539   0.075   0.768   2.995  0.5986 -0.4427 -0.3192
 9880SOL    HW230540   0.129   0.782   3.149 -0.9581 -1.1448  0.3132
 9881SOL     OW30541   0.539   4.596   2.353 -0.0828 -0.3761 -0.2068
 9881SOL    HW130542   0.597   4.525   2.314 -0.5648 -1.7365  1.4266
 9881SOL    HW230543   0.446   4.587   2.317 -0.0692 -0.3678 -0.2436
 9882SOL     OW30544   3.817   4.057   4.895  0.4736  0.0183 -0.1430
 9882SOL    HW130545   3.871   4.018   4.969  1.4756  0.5426 -0.5742
 9882SOL    HW230546   3.874   4.065   4.813 -0.2223  0.7045 -0.5702
 9883SOL     OW30547   6.623   3.891   3.768 -0.8160  0.2084  0.4534
 9883SOL    HW130548   6.723   3.880   3.767 -0.8242 -0.1826  2.0355
 9883SOL    HW230549   6.600   3.984   3.798 -0.9341  0.0212  0.9495
 9884SOL     OW30550   0.083   6.078   3.436  0.1654  0.3043 -0.0827
 9884SOL    HW130551   0.070   6.174   3.462  1.9414  0.9010 -1.2110
 9884SOL    HW230552   0.021   6.055   3.362  1.1692  1.2753 -1.2814
 9885SOL     OW30553   6.159   2.489   1.106  0.2568 -0.0186 -0.0179
 9885SOL    HW130554   6.149   2.488   1.206  0.2167 -2.0996  0.0013
 9885SOL    HW230555   6.136   2.398   1.070 -4.6312  1.7967 -2.4201
 9886SOL     OW30556   0.370   3.761   2.055  0.5957 -0.5500  0.0083
 9886SOL    HW130557   0.271   3.772   2.052  0.5927 -0.6724 -0.3623
 9886SOL    HW230558   0.393   3.689   2.120  0.3150 -1.9792 -1.4250
 9887SOL     OW30559   5.005   6.059   1.857 -0.3421  0.0860 -0.5358
 9887SOL    HW130560   5.010   6.106   1.769 -1.4311 -0.1347 -0.7311
 9887SOL    HW230561   5.053   6.112   1.927 -0.1023  0.6284 -1.1108
 9888SOL     OW30562   1.485   2.399   4.072 -0.2169  0.0428  0.1475
 9888SOL    HW130563   1.464   2.478   4.130  2.0383 -0.1259  1.3033
 9888SOL    HW230564   1.443   2.317   4.111  0.9152  0.0073  1.3578
 9889SOL     OW30565   4.047   5.958   1.783  0.8355 -0.1725  0.0457
 9889SOL    HW130566   4.016   5.911   1.866  1.4250 -2.0988 -0.7766
 9889SOL    HW230567   3.970   5.971   1.721  0.5679  0.4761  0.4980
 9890SOL     OW30568   1.819   1.138   5.927  0.5278 -0.4430 -0.1230
 9890SOL    HW130569   1.870   1.203   5.870  0.8906  0.7049  1.4619
 9890SOL    HW230570   1.722   1.143   5.903  0.5592  0.6418 -0.0945
 9891SOL     OW30571   6.059   0.957   0.961 -0.3019 -0.7587 -0.6027
 9891SOL    HW130572   5.979   0.910   1.000 -1.0697 -0.9130 -2.2875
 9891SOL    HW230573   6.051   0.959   0.862  0.9206  0.8443 -0.6979
 9892SOL     OW30574   1.478   6.205   5.320 -0.3202  0.2850 -0.4129
 9892SOL    HW130575   1.459   6.300   5.296 -0.4169  0.2906 -0.3104
 9892SOL    HW230576   1.576   6.195   5.340 -0.1657  0.2085 -1.1554
 9893SOL     OW30577   4.847   0.248   2.879 -0.0382  0.2256  0.0806
 9893SOL    HW130578   4.854   0.158   2.836  1.0126  0.4678 -0.2889
 9893SOL    HW230579   4.938   0.280   2.906  0.0781  2.4071 -2.4283
 9894SOL     OW30580   2.648   2.314   2.083  0.3544  0.4126  0.1116
 9894SOL    HW130581   2.745   2.319   2.060  0.4213 -1.4876 -0.2537
 9894SOL    HW230582   2.630   2.228   2.131 -1.0008  1.1541  0.9858
 9895SOL     OW30583   0.104   3.750   1.007  0.0666 -0.0579  0.5715
 9895SOL    HW130584   0.084   3.847   1.015  0.0615 -0.0120  0.0040
 9895SOL    HW230585   0.183   3.737   0.948 -1.2774 -0.5205 -1.1987
 9896SOL     OW30586   6.376   2.980   2.528  0.2778 -0.2608  0.4988
 9896SOL    HW130587   6.418   3.040   2.597  1.1776  0.9797 -1.0450
 9896SOL    HW230588   6.280   3.007   2.515  0.4452  0.3090  0.4108
 9897SOL     OW30589   1.438   3.385   2.255  0.0000  0.2720  0.3829
 9897SOL    HW130590   1.387   3.390   2.170  3.2737 -0.2893 -1.7778
 9897SOL    HW230591   1.451   3.290   2.281  1.0353  0.3337  0.1409
 9898SOL     OW30592   6.713   1.677   2.114  0.7191  0.2565 -0.3015
 9898SOL    HW130593   6.766   1.757   2.086  0.0582  1.0530  0.6056
 9898SOL    HW230594   6.617   1.691   2.089  0.2922  0.5497  1.3714
 9899SOL     OW30595   5.983   4.229   0.982 -0.0871 -0.7351 -0.5097
 9899SOL    HW130596   5.930   4.306   1.016  0.9657 -0.4905  0.6225
 9899SOL    HW230597   5.974   4.224   0.882 -0.2352  0.7875 -0.5903
 9900SOL     OW30598   2.780   5.031   2.853 -0.6459  0.3339 -0.6809
 9900SOL    HW130599   2.835   5.079   2.785 -0.2628  2.1529  0.8452
 9900SOL    HW230600   2.708   5.092   2.886 -1.2953 -0.7795  0.0091
 9901SOL     OW30601   6.616   4.153   0.502 -0.1468  0.4087  0.6045
 9901SOL    HW130602   6.698   4.153   0.559 -0.3743 -0.8695  0.9618
 9901SOL    HW230603   6.609   4.240   0.453  2.1055  0.0752 -0.4286
 9902SOL     OW30604   0.495   1.057   0.666 -0.2121  0.5140 -0.2771
 9902SOL    HW130605   0.547   1.026   0.745 -0.3440 -0.8497 -0.7065
 9902SOL    HW230606   0.405   1.089   0.696 -0.4653 -0.4986  0.0773
 9903SOL     OW30607   6.752   1.485   4.600 -0.2547 -0.6178  0.1816
 9903SOL    HW130608   6.691   1.439   4.535  1.7906 -0.2014 -2.1899
 9903SOL    HW230609   6.816   1.419   4.639  1.1709 -0.2803 -1.4522
 9904SOL     OW30610   1.281   4.805   3.352  0.5596 -0.6375 -0.4021
 9904SOL    HW130611   1.200   4.758   3.389 -0.6378  0.4785 -1.5011
 9904SOL    HW230612   1.339   4.739   3.306  0.0609 -1.4018  0.0333
 9905SOL     OW30613   2.282   1.126   4.563  0.4677  0.6768 -0.2445
 9905SOL    HW130614   2.289   1.109   4.465 -0.6528 -0.7336 -0.1169
 9905SOL    HW230615   2.188   1.150   4.587  0.6609  0.7154  0.5205
 9906SOL     OW30616   3.427   5.173   5.699 -0.0607  0.5013 -0.0422
 9906SOL    HW130617   3.399   5.250   5.642 -1.9741  0.3896  0.6473
 9906SOL    HW230618   3.375   5.091   5.673  0.8465 -0.1782  0.2295
 9907SOL     OW30619   0.300   1.956   4.152 -0.7661  0.2228 -0.3786
 9907SOL    HW130620   0.323   2.035   4.095  1.1495 -1.8301 -2.6430
 9907SOL    HW230621   0.380   1.930   4.207 -1.5448  0.0948  0.7346
 9908SOL     OW30622   5.671   2.048   0.718  0.2253 -0.2083  0.3513
 9908SOL    HW130623   5.612   1.974   0.751 -0.2817 -0.3518 -0.8265
 9908SOL    HW230624   5.676   2.044   0.618 -0.6360  1.9773  0.1752
 9909SOL     OW30625   0.095   5.753   2.943 -0.1294 -0.7947 -0.3342
 9909SOL    HW130626   0.007   5.766   2.897  1.5413  0.7213 -3.4160
 9909SOL    HW230627   0.144   5.676   2.902  0.4801 -0.8787  0.5202
 9910SOL     OW30628   4.654   1.380   4.303  0.0121 -0.0119  0.0135
 9910SOL    HW130629   4.596   1.327   4.242  0.2733 -0.5036  0.1890
 9910SOL    HW230630   4.616   1.472   4.314 -0.2418 -0.0435 -0.5826
 9911SOL     OW30631   5.457   0.571   6.417 -0.2247 -0.6702  0.2260
 9911SOL    HW130632   5.433   0.548   6.322 -3.0078 -1.9834  1.1479
 9911SOL    HW230633   5.434   0.494   6.477 -0.7933  1.0034  2.2674
 9912SOL     OW30634   3.209   6.877   0.844 -0.3655 -0.4130 -0.0348
 9912SOL    HW130635   3.208   6.976   0.827  1.8075 -0.1305  1.0372
 9912SOL    HW230636   3.256   6.831   0.769  1.4484 -0.1964  0.9005
 9913SOL     OW30637   6.577   1.513   0.757 -0.0470  0.2296 -0.2400
 9913SOL    HW130638   6.525   1.586   0.712  0.1181  1.5448  1.6028
 9913SOL    HW230639   6.668   1.546   0.778  0.1335 -0.6282  0.3554
 9914SOL     OW30640   6.924   5.491   5.594 -0.0132 -0.1260  0.5640
 9914SOL    HW130641   6.922   5.420   5.524  0.9984  0.2525  0.1456
 9914SOL    HW230642   6.849   5.556   5.578 -0.1837 -0.4058  0.2228
 9915SOL     OW30643   0.269   0.159   2.947  0.4997 -0.3722 -0.1179
 9915SOL    HW130644   0.235   0.230   3.009  0.1852  0.8014 -1.5705
 9915SOL    HW230645   0.228   0.071   2.971  0.7965 -0.0731  1.6409
 9916SOL     OW30646   0.463   6.264   3.976  0.7263 -0.0787 -0.1332
 9916SOL    HW130647   0.391   6.299   4.034  0.1822 -1.3291 -0.0177
 9916SOL    HW230648   0.497   6.177   4.013  0.6692 -0.6834 -1.4264
 9917SOL     OW30649   4.185   1.417   3.886 -0.0212 -0.1144  0.5255
 9917SOL    HW130650   4.210   1.323   3.905  0.4483 -0.4393 -1.5075
 9917SOL    HW230651   4.243   1.454   3.813 -0.4805  1.6136  0.9738
 9918SOL     OW30652   4.696   4.053   6.807 -0.3355  1.0311 -0.4178
 9918SOL    HW130653   4.719   4.038   6.711 -0.2216 -2.2717  0.0202
 9918SOL    HW230654   4.598   4.041   6.820 -0.3211  1.2758 -0.0578
 9919SOL     OW30655   5.583   3.601   5.659  0.8806  0.3819 -0.2697
 9919SOL    HW130656   5.653   3.671   5.667  2.0196 -0.7049 -0.3313
 9919SOL    HW230657   5.594   3.553   5.571  1.9950 -1.7401  0.9450
 9920SOL     OW30658   0.396   4.936   3.491  0.0613 -0.0768 -0.0670
 9920SOL    HW130659   0.399   5.000   3.567  0.5742 -0.3005  0.1062
 9920SOL    HW230660   0.439   4.850   3.518 -1.3388 -0.7904 -0.0303
 9921SOL     OW30661   6.571   2.336   4.112  0.2643 -0.0772 -0.8108
 9921SOL    HW130662   6.631   2.413   4.136  0.0559  0.0558 -0.7113
 9921SOL    HW230663   6.565   2.328   4.013  2.2600 -1.5061 -0.8709
 9922SOL     OW30664   4.785   6.341   1.488  0.1332 -0.0804 -0.3399
 9922SOL    HW130665   4.784   6.268   1.556 -0.2888  0.6372  0.4447
 9922SOL    HW230666   4.867   6.396   1.500  0.6962 -0.6954 -1.2449
 9923SOL     OW30667   4.952   5.939   6.762 -0.0187 -0.2526  0.1673
 9923SOL    HW130668   4.989   5.972   6.676  1.2635 -1.5620  0.1718
 9923SOL    HW230669   4.997   5.853   6.787  0.1015  0.3950  2.4472
 9924SOL     OW30670   6.827   4.659   0.597  0.0399 -0.1494  0.0561
 9924SOL    HW130671   6.849   4.709   0.513  0.9278 -0.6393 -0.0133
 9924SOL    HW230672   6.860   4.565   0.590  2.4510  0.4370  1.8941
 9925SOL     OW30673   3.896   3.002   4.716  0.2422 -0.4022  0.2841
 9925SOL    HW130674   3.927   3.093   4.689  1.4101 -0.6764  0.6364
 9925SOL    HW230675   3.939   2.933   4.657 -1.1219 -0.7053 -0.3878
 9926SOL     OW30676   0.783   4.355   5.886  0.6880  0.1667 -0.8581
 9926SOL    HW130677   0.712   4.386   5.949  1.7528  2.5037 -0.6960
 9926SOL    HW230678   0.793   4.256   5.892 -1.2439  0.0158  0.4728
 9927SOL     OW30679   2.939   3.154   5.196 -0.0676  0.4586 -0.2389
 9927SOL    HW130680   2.844   3.130   5.217  0.3632 -1.0369  0.0897
 9927SOL    HW230681   2.942   3.196   5.105 -1.1202  1.2614  0.0597
 9928SOL     OW30682   4.229   3.530   0.078 -0.7780  1.4761 -0.0073
 9928SOL    HW130683   4.170   3.520  -0.002 -1.1607  2.0378  0.1964
 9928SOL    HW230684   4.173   3.557   0.157 -0.4342  0.7526  0.4957
 9929SOL     OW30685   5.471   3.319   0.216 -0.4731 -0.5448  0.0441
 9929SOL    HW130686   5.456   3.242   0.154 -1.1040  0.0448 -0.5328
 9929SOL    HW230687   5.385   3.344   0.260 -0.5376  0.6316 -0.7151
 9930SOL     OW30688   1.581   4.285   4.471 -0.1558  0.4876  0.1612
 9930SOL    HW130689   1.540   4.253   4.557  0.0777  2.4492  1.0526
 9930SOL    HW230690   1.574   4.213   4.402 -0.6299 -1.0396  1.7221
 9931SOL     OW30691   3.163   5.439   6.718 -0.1961 -0.1674  0.4161
 9931SOL    HW130692   3.211   5.517   6.677  0.3947 -1.5599 -1.6880
 9931SOL    HW230693   3.142   5.371   6.648 -1.5242 -1.5225  2.0239
 9932SOL     OW30694   2.649   4.499   6.135 -0.2144  0.3647 -0.2316
 9932SOL    HW130695   2.598   4.508   6.221 -1.7093  0.2840 -1.0707
 9932SOL    HW230696   2.614   4.420   6.085  0.7983  0.2820 -0.8247
 9933SOL     OW30697   6.870   0.826   2.910  0.6239 -0.1774  0.1446
 9933SOL    HW130698   6.854   0.772   2.992  2.7776  0.4568  1.0352
 9933SOL    HW230699   6.799   0.897   2.903 -0.9762 -1.7125  0.0902
 9934SOL     OW30700   4.332   0.140   1.048  0.1445 -0.2160 -0.8259
 9934SOL    HW130701   4.382   0.112   1.130 -0.7641  0.7777  0.0921
 9934SOL    HW230702   4.385   0.115   0.967  0.6153 -2.0990  0.0015
 9935SOL     OW30703   4.830   2.989   4.443  0.1174  0.7001 -0.1019
 9935SOL    HW130704   4.902   2.920   4.456 -0.4752  0.0769 -0.0797
 9935SOL    HW230705   4.827   3.049   4.523 -2.5598 -2.2396  2.2600
 9936SOL     OW30706   4.231   5.898   1.033 -0.7162  0.1041  0.2009
 9936SOL    HW130707   4.200   5.932   0.944  2.3311 -0.9496 -1.3920
 9936SOL    HW230708   4.312   5.948   1.062 -1.4461  0.1762  2.2718
 9937SOL     OW30709   5.105   5.247   2.821 -0.2462 -0.0097 -0.2921
 9937SOL    HW130710   5.011   5.279   2.811 -0.4723 -1.1042 -2.1038
 9937SOL    HW230711   5.111   5.183   2.898 -0.6189  1.2652  0.8210
 9938SOL     OW30712   2.621   4.506   5.759  0.2484  0.7322 -0.1877
 9938SOL    HW130713   2.550   4.438   5.772  0.8143  0.5149  2.0363
 9938SOL    HW230714   2.709   4.471   5.793  0.8099  2.0907 -0.1460
 9939SOL     OW30715   5.260   6.220   1.398  0.5419  0.5979 -0.3085
 9939SOL    HW130716   5.192   6.155   1.363 -0.6830 -0.0553  2.9452
 9939SOL    HW230717   5.343   6.171   1.424  0.1374  0.5035  0.8561
 9940SOL     OW30718   0.692   5.231   4.255  0.4411 -0.2582 -0.5914
 9940SOL    HW130719   0.600   5.209   4.287  0.1891 -0.3076 -1.3323
 9940SOL    HW230720   0.691   5.245   4.156  1.3644 -1.0007 -0.7239
 9941SOL     OW30721   5.220   2.567   2.575 -0.1460 -0.0611  0.4963
 9941SOL    HW130722   5.125   2.569   2.605 -0.7474 -0.0306 -1.2822
 9941SOL    HW230723   5.253   2.660   2.559 -0.8242 -0.1319 -1.7016
 9942SOL     OW30724   6.322   2.874   1.145  0.5276 -0.2220 -0.2056
 9942SOL    HW130725   6.330   2.895   1.048  0.7227  1.6432  0.1803
 9942SOL    HW230726   6.412   2.858   1.183  0.5934  0.5068 -0.0429
 9943SOL     OW30727   5.458   6.104   6.460  0.2392 -0.3712  0.0990
 9943SOL    HW130728   5.542   6.054   6.440  0.1063  0.1683 -2.1295
 9943SOL    HW230729   5.380   6.054   6.425 -0.4578 -0.9975  2.3955
 9944SOL     OW30730   6.101   1.168   1.963  0.2359  0.1674 -0.1203
 9944SOL    HW130731   6.068   1.103   2.032  3.0232 -1.5194 -0.2051
 9944SOL    HW230732   6.084   1.130   1.872  0.0556  0.5069 -0.2258
 9945SOL     OW30733   0.618   2.151   5.693  0.1542 -0.0677 -0.5421
 9945SOL    HW130734   0.523   2.122   5.693 -0.2663  1.2514 -0.8530
 9945SOL    HW230735   0.672   2.088   5.637 -0.1530 -1.9123  1.1490
 9946SOL     OW30736   4.185   4.927   4.562 -0.2332 -0.9393 -0.4613
 9946SOL    HW130737   4.219   5.015   4.531  0.4275 -1.2816 -0.7059
 9946SOL    HW230738   4.121   4.890   4.495 -0.4848 -0.6686 -0.3737
 9947SOL     OW30739   4.269   5.613   2.530 -0.3856 -0.5597  0.2278
 9947SOL    HW130740   4.238   5.644   2.619  1.0620 -0.0674  0.5948
 9947SOL    HW230741   4.284   5.692   2.471  1.0665 -0.6853  0.3904
 9948SOL     OW30742   5.226   0.441   3.648  0.1678  0.4703  0.1865
 9948SOL    HW130743   5.160   0.433   3.722  1.2183  1.3576  1.2683
 9948SOL    HW230744   5.233   0.536   3.619 -0.2780  0.1271 -1.1237
 9949SOL     OW30745   0.196   0.954   4.270 -0.0747  0.3886  0.1110
 9949SOL    HW130746   0.106   0.912   4.285 -0.2238  0.8946  0.6187
 9949SOL    HW230747   0.225   1.002   4.352  0.0166  1.4465 -0.5259
 9950SOL     OW30748   1.157   6.071   2.982  0.2005 -0.0665  0.1047
 9950SOL    HW130749   1.105   6.034   2.906  0.4637 -1.0124  0.3781
 9950SOL    HW230750   1.254   6.074   2.959  0.0248  2.0496 -0.5482
 9951SOL     OW30751   0.020   6.211   0.715 -0.5691  0.1928 -0.4603
 9951SOL    HW130752   0.025   6.129   0.657 -0.6663  0.4708 -0.8681
 9951SOL    HW230753   0.105   6.262   0.708 -0.1749 -0.3166  0.4687
 9952SOL     OW30754   0.019   1.968   0.057 -0.0578  0.0094 -0.2449
 9952SOL    HW130755  -0.032   1.954   0.142 -0.0475  0.5685 -0.1438
 9952SOL    HW230756   0.098   2.027   0.075  0.5064 -0.6730 -0.4448
 9953SOL     OW30757   0.800   4.576   5.717  0.2166 -0.3542  0.1401
 9953SOL    HW130758   0.786   4.501   5.781  0.3145  0.3202  0.9718
 9953SOL    HW230759   0.717   4.630   5.710 -0.4839 -1.5842 -1.8911
 9954SOL     OW30760   2.692   2.155   4.519  0.1173  0.1316  0.1820
 9954SOL    HW130761   2.707   2.193   4.611  0.3321 -0.8114  0.5429
 9954SOL    HW230762   2.780   2.130   4.479 -0.0534 -0.3812  0.1212
 9955SOL     OW30763   1.215   3.874   3.957  0.3568  0.2314 -0.2147
 9955SOL    HW130764   1.289   3.810   3.978  0.5574  0.1707 -1.0612
 9955SOL    HW230765   1.166   3.897   4.041  0.5192 -0.7404  0.1567
 9956SOL     OW30766   5.849   3.655   3.977  0.0914  0.4263  0.2198
 9956SOL    HW130767   5.784   3.637   4.051 -1.1973 -1.6339 -1.3316
 9956SOL    HW230768   5.930   3.597   3.989 -0.3790 -0.3431 -0.2881
 9957SOL     OW30769   3.899   5.729   3.619 -0.1518  0.0723 -0.2928
 9957SOL    HW130770   3.887   5.804   3.554 -0.5904  0.4335  0.1989
 9957SOL    HW230771   3.981   5.746   3.674  0.9008 -0.8180 -1.5184
 9958SOL     OW30772   1.723   0.591   3.302  0.1668  0.2998  1.0900
 9958SOL    HW130773   1.647   0.548   3.253  0.2585  0.4253  0.8383
 9958SOL    HW230774   1.809   0.548   3.276  0.0080 -1.3277  2.9677
 9959SOL     OW30775   3.966   0.354   3.024 -0.4266  0.2809  0.7592
 9959SOL    HW130776   3.999   0.266   3.057 -1.8119 -0.1052  1.1872
 9959SOL    HW230777   3.916   0.400   3.097 -1.5786  0.4295 -0.0984
 9960SOL     OW30778   3.715   0.378   2.167 -0.8848  0.3026  0.3217
 9960SOL    HW130779   3.777   0.390   2.244 -0.9903  0.0754  0.4422
 9960SOL    HW230780   3.768   0.351   2.086 -0.6744  1.2995  0.1069
 9961SOL     OW30781   4.715   3.041   6.460  0.4552  0.4012 -0.9452
 9961SOL    HW130782   4.676   3.097   6.388 -0.5710 -1.1385 -1.6346
 9961SOL    HW230783   4.813   3.061   6.470  0.5563  0.8025 -2.6060
 9962SOL     OW30784   0.158   0.167   2.616 -0.5237 -0.2985  0.2590
 9962SOL    HW130785   0.116   0.128   2.698  0.7277 -1.3828  0.4146
 9962SOL    HW230786   0.188   0.092   2.556  0.8389  0.4487 -0.0158
 9963SOL     OW30787   0.377   3.597   2.259  0.4812  0.2948  0.1119
 9963SOL    HW130788   0.293   3.569   2.212  1.0533 -0.3431 -0.5775
 9963SOL    HW230789   0.424   3.515   2.292  0.5320  0.6886  1.0328
 9964SOL     OW30790   6.635   3.383   1.865  0.1077  0.1773 -0.2512
 9964SOL    HW130791   6.583   3.322   1.805  1.8888 -0.1697 -1.5284
 9964SOL    HW230792   6.602   3.477   1.854  0.0057  0.0261 -1.3224
 9965SOL     OW30793   5.779   3.452   1.705 -1.2560 -0.0243 -0.0875
 9965SOL    HW130794   5.846   3.430   1.776 -2.3043 -3.5919 -0.0091
 9965SOL    HW230795   5.800   3.399   1.622 -1.6294  2.0125 -1.5728
 9966SOL     OW30796   3.665   0.816   0.547  0.3168 -0.4022  1.1657
 9966SOL    HW130797   3.663   0.766   0.461  0.8737 -1.0157  1.4945
 9966SOL    HW230798   3.761   0.829   0.575  0.1427 -0.1132  1.6367
 9967SOL     OW30799   0.766   5.970   2.297 -0.0122 -0.4389 -0.2518
 9967SOL    HW130800   0.682   5.988   2.246 -0.3976 -0.3148  0.4040
 9967SOL    HW230801   0.828   6.048   2.289  0.0862 -0.5778 -0.8318
 9968SOL     OW30802   6.716   3.390   3.751 -0.0766  0.2010 -0.1722
 9968SOL    HW130803   6.736   3.484   3.778 -0.1339 -0.2663  1.6517
 9968SOL    HW230804   6.798   3.334   3.763  0.1505  0.1099 -1.8849
 9969SOL     OW30805   5.444   3.664   3.231 -0.4877 -0.3485  0.6512
 9969SOL    HW130806   5.361   3.677   3.176 -0.9094 -0.3248  1.2846
 9969SOL    HW230807   5.477   3.753   3.264 -1.9731 -0.5686  2.9401
 9970SOL     OW30808   5.307   6.633   1.104  0.3944  0.5339 -0.1731
 9970SOL    HW130809   5.322   6.545   1.059 -2.4068 -0.2737  0.2636
 9970SOL    HW230810   5.298   6.619   1.203  2.2008  1.6759  0.1853
 9971SOL     OW30811   6.362   6.095   3.136 -0.3529 -0.0457  0.0512
 9971SOL    HW130812   6.348   6.001   3.168 -1.1199  0.4014  1.0752
 9971SOL    HW230813   6.366   6.157   3.215 -1.8011  1.0246 -0.6591
 9972SOL     OW30814   2.129   1.372   2.713  0.5419  0.5072  0.5778
 9972SOL    HW130815   2.035   1.346   2.691 -0.1158  0.8183  2.8345
 9972SOL    HW230816   2.131   1.417   2.802  2.8138  0.7691  0.4384
 9973SOL     OW30817   6.773   6.556   5.447  0.7382  0.9542  0.0092
 9973SOL    HW130818   6.802   6.652   5.452 -0.2907  1.2258  1.1533
 9973SOL    HW230819   6.686   6.545   5.495 -0.3701 -0.1162 -2.0886
 9974SOL     OW30820   3.186   1.343   5.497  0.2491 -0.5861  0.1550
 9974SOL    HW130821   3.244   1.423   5.481 -0.2421 -0.7057 -2.8224
 9974SOL    HW230822   3.092   1.364   5.471 -0.2653 -1.5941  1.1071
 9975SOL     OW30823   3.434   3.004   5.759 -0.0308 -0.5160 -0.1766
 9975SOL    HW130824   3.428   2.982   5.856 -0.1056  2.0374  0.4601
 9975SOL    HW230825   3.347   2.986   5.715 -2.2511  4.0925  1.6662
 9976SOL     OW30826   4.367   5.504   3.773 -0.4062  0.0845 -0.0248
 9976SOL    HW130827   4.269   5.509   3.752 -0.4124 -1.0805 -0.3610
 9976SOL    HW230828   4.389   5.569   3.845 -1.6945 -0.5272  0.9748
 9977SOL     OW30829   0.742   3.878   1.742  0.1950 -0.4318  0.0523
 9977SOL    HW130830   0.806   3.810   1.779  0.1767 -0.6233 -0.2667
 9977SOL    HW230831   0.649   3.847   1.760  0.1796 -0.8100 -0.6611
 9978SOL     OW30832   1.084   2.405   2.940  0.1630 -0.9442 -0.3390
 9978SOL    HW130833   1.016   2.385   3.011  1.0690 -1.2964  0.4495
 9978SOL    HW230834   1.042   2.396   2.850 -0.7663 -1.4203  0.1313
 9979SOL     OW30835   4.528   4.841   1.031  0.5652  0.2775 -0.0475
 9979SOL    HW130836   4.438   4.810   1.064 -0.1976  1.7300 -0.6892
 9979SOL    HW230837   4.590   4.762   1.027  0.4116 -0.2644  3.7039
 9980SOL     OW30838   6.358   0.608   5.317 -0.0569 -0.5362  0.0891
 9980SOL    HW130839   6.443   0.612   5.264 -0.0990  0.3719  0.0847
 9980SOL    HW230840   6.285   0.569   5.260  0.0157 -0.0118 -0.3628
 9981SOL     OW30841   2.975   3.703   5.959  0.4347 -0.4247  0.6486
 9981SOL    HW130842   2.924   3.725   5.876  0.3720  1.3858  1.1270
 9981SOL    HW230843   2.914   3.708   6.038  1.0129  0.3803  1.0638
 9982SOL     OW30844   4.076   6.816   6.773  0.2303  0.0457  0.0280
 9982SOL    HW130845   4.163   6.813   6.724 -0.5881  0.5603 -1.5158
 9982SOL    HW230846   4.084   6.881   6.850  0.4969  2.0907 -1.6182
 9983SOL     OW30847   1.010   6.460   5.489  0.1853  0.3366  0.3388
 9983SOL    HW130848   1.074   6.388   5.515  0.1151  0.5537  1.1415
 9983SOL    HW230849   0.953   6.485   5.568 -1.5858 -0.5381 -0.6034
 9984SOL     OW30850   1.357   4.388   0.103 -0.3563 -0.3474  0.1394
 9984SOL    HW130851   1.413   4.339   0.035  1.8303  1.8530  0.2377
 9984SOL    HW230852   1.291   4.324   0.142  1.0320 -2.7250 -1.1017
 9985SOL     OW30853   5.600   6.086   2.943  0.2016  0.7124 -0.5279
 9985SOL    HW130854   5.555   6.136   2.870  1.0117  2.2969  0.0043
 9985SOL    HW230855   5.660   6.148   2.994 -0.8284 -0.1312  1.9021
 9986SOL     OW30856   0.359   5.481   6.005  0.0784  0.4328  0.3490
 9986SOL    HW130857   0.272   5.465   6.052 -0.4815  0.3652 -0.6681
 9986SOL    HW230858   0.400   5.393   5.980  0.9214  0.4333  1.6369
 9987SOL     OW30859   5.995   6.879   2.953 -0.4452  0.0862  0.1545
 9987SOL    HW130860   6.060   6.837   3.016 -0.4669 -0.6279 -0.2922
 9987SOL    HW230861   5.956   6.809   2.893  1.1631  0.9781 -2.1051
 9988SOL     OW30862   5.499   2.128   3.820 -0.0814 -0.0126 -0.0663
 9988SOL    HW130863   5.539   2.106   3.730  0.5373 -1.6091  0.5581
 9988SOL    HW230864   5.445   2.212   3.813  0.7770  0.4483 -1.6952
 9989SOL     OW30865   0.188   0.952   3.306 -0.8756  0.1092  0.3195
 9989SOL    HW130866   0.184   0.853   3.313  0.4718 -0.0485 -0.6838
 9989SOL    HW230867   0.256   0.978   3.237 -3.2780  1.6644 -1.6580
 9990SOL     OW30868   1.994   3.444   2.170  0.2681  0.0842  0.0890
 9990SOL    HW130869   1.933   3.370   2.142 -0.1035 -1.0186  3.3800
 9990SOL    HW230870   2.084   3.431   2.128 -0.1055 -1.6553 -0.2463
 9991SOL     OW30871   2.587   5.351   0.663 -0.5414 -0.0278 -0.6364
 9991SOL    HW130872   2.685   5.363   0.674 -0.6487 -1.1123  2.4432
 9991SOL    HW230873   2.544   5.439   0.647  0.7854  0.6433 -0.6289
 9992SOL     OW30874   3.080   2.131   2.619 -0.2897 -0.3867 -0.0375
 9992SOL    HW130875   3.015   2.143   2.544 -0.1783 -0.0384 -0.0820
 9992SOL    HW230876   3.163   2.183   2.600 -0.6504  0.5287  0.7860
 9993SOL     OW30877   0.256   5.406   2.222 -0.4450  0.3250 -0.6958
 9993SOL    HW130878   0.345   5.364   2.241 -0.4985  0.3148 -0.4618
 9993SOL    HW230879   0.194   5.337   2.185 -1.8948 -0.9935  3.5993
 9994SOL     OW30880   4.591   4.331   6.212 -0.5684  0.2326  0.0007
 9994SOL    HW130881   4.558   4.413   6.167 -1.6412  1.7083  3.1583
 9994SOL    HW230882   4.519   4.262   6.215  0.3684 -1.0127 -2.7544
 9995SOL     OW30883   0.876   6.329   6.454 -0.2769 -0.8649 -0.5127
 9995SOL    HW130884   0.907   6.424   6.445 -1.2361 -0.6416 -1.9015
 9995SOL    HW230885   0.815   6.321   6.533 -0.0558 -0.3586 -0.2865
 9996SOL     OW30886   1.258   6.584   4.307 -0.0500 -0.2440 -0.1556
 9996SOL    HW130887   1.252   6.491   4.343  0.1513 -0.5351 -0.8587
 9996SOL    HW230888   1.343   6.626   4.337  0.1415 -0.5049 -0.3225
 9997SOL     OW30889   3.141   3.767   4.948 -0.8789  0.1255 -0.9331
 9997SOL    HW130890   3.199   3.843   4.919 -1.5747  1.3321  0.6934
 9997SOL    HW230891   3.051   3.774   4.904 -0.7767 -0.0524 -1.1720
 9998SOL     OW30892   2.119   2.646   3.733 -0.2886 -0.1053  0.0299
 9998SOL    HW130893   2.204   2.676   3.776  1.9109 -2.0979 -2.5881
 9998SOL    HW230894   2.075   2.724   3.688  1.2533  0.6020 -0.3041
 9999SOL     OW30895   6.970   6.756   1.445 -0.1559 -0.5055  0.5490
 9999SOL    HW130896   7.065   6.745   1.418  0.5873  0.4101  2.5491
 9999SOL    HW230897   6.948   6.854   1.451 -1.0104 -0.6989  0.7528
10000SOL     OW30898   6.943   6.223   1.547  0.0471  0.9677 -0.0025
10000SOL    HW130899   6.906   6.215   1.639  0.4612  1.5137  0.2197
10000SOL    HW230900   6.974   6.317   1.532 -0.1303  0.9145 -0.7399
10001SOL     OW30901   0.852   1.113   3.098  0.1712  0.3998  0.9586
10001SOL    HW130902   0.817   1.195   3.142 -2.4450 -0.0850 -0.0640
10001SOL    HW230903   0.815   1.105   3.006  1.1088 -1.4653  0.6860
10002SOL     OW30904   5.997   1.336   4.886  0.7623  0.1354  0.6306
10002SOL    HW130905   6.052   1.390   4.951  1.8883 -0.3557  0.1176
10002SOL    HW230906   5.998   1.240   4.914  0.6773  0.0279  0.2611
10003SOL     OW30907   4.965   4.855   4.411  0.1917  0.4261  0.2376
10003SOL    HW130908   4.974   4.908   4.326  2.3401 -0.3702 -0.0962
10003SOL    HW230909   4.870   4.829   4.424 -0.1679  0.3798 -2.0605
10004SOL     OW30910   0.577   0.049   1.907 -0.4004 -0.5204  0.1562
10004SOL    HW130911   0.480   0.074   1.900 -0.0626  0.2617 -2.9806
10004SOL    HW230912   0.632   0.109   1.849  1.9584 -1.2987  1.4352
10005SOL     OW30913   2.782   6.128   3.524 -0.2730  0.2190 -0.2135
10005SOL    HW130914   2.860   6.078   3.488 -0.4986  0.6175 -1.2930
10005SOL    HW230915   2.753   6.198   3.458 -0.5214  1.1757  0.8582
10006SOL     OW30916   1.918   6.244   0.065  0.0907 -0.3311 -0.0332
10006SOL    HW130917   1.935   6.291   0.151 -2.2490  3.1268 -1.2211
10006SOL    HW230918   2.001   6.244   0.010  1.1370 -0.9822  1.5103
10007SOL     OW30919   4.372   6.229   5.496 -0.2337  0.3785 -0.2541
10007SOL    HW130920   4.370   6.284   5.413 -2.8471  1.2038  0.2667
10007SOL    HW230921   4.362   6.288   5.576 -1.2126 -0.6799  0.4379
10008SOL     OW30922   6.188   6.813   3.134 -0.8034  0.1973 -0.4377
10008SOL    HW130923   6.192   6.911   3.117  0.3505  0.3198  0.4622
10008SOL    HW230924   6.166   6.797   3.230 -1.5942 -0.4451 -0.7102
10009SOL     OW30925   5.983   0.486   3.371  0.1939 -0.0759  0.1473
10009SOL    HW130926   5.992   0.586   3.369 -0.0221 -0.0471  0.4004
10009SOL    HW230927   5.890   0.461   3.344 -0.1603 -0.1287  1.3386
10010SOL     OW30928   2.154   3.169   0.072 -0.1731 -0.3088 -0.0760
10010SOL    HW130929   2.096   3.102   0.117  0.5818 -0.2797  0.9765
10010SOL    HW230930   2.127   3.261   0.101 -0.0961 -0.2542 -0.1783
10011SOL     OW30931   5.166   4.642   5.339 -0.1866  0.4581  0.0708
10011SOL    HW130932   5.149   4.728   5.388  2.0726  0.7429  0.4620
10011SOL    HW230933   5.232   4.587   5.390  0.6527 -0.1644 -1.6070
10012SOL     OW30934   4.156   6.989   6.956  0.3740 -0.4700 -0.3196
10012SOL    HW130935   4.184   7.080   6.926  0.6549 -1.0027 -1.7600
10012SOL    HW230936   4.187   6.974   7.050  1.9117  0.2524 -0.6816
10013SOL     OW30937   1.547   6.926   2.516  0.1999 -0.4769  0.0992
10013SOL    HW130938   1.630   6.965   2.478 -0.3054 -0.1974 -0.7534
10013SOL    HW230939   1.538   6.831   2.486  1.0507 -1.0375  1.5631
10014SOL     OW30940   0.180   6.670   2.308 -0.0261 -0.0435  0.1183
10014SOL    HW130941   0.223   6.659   2.219 -0.6012  0.3274 -0.2080
10014SOL    HW230942   0.081   6.661   2.300 -0.0819 -0.0569  0.7256
10015SOL     OW30943   4.292   1.553   1.514 -0.1876 -0.2316 -0.3698
10015SOL    HW130944   4.340   1.517   1.433 -0.8715 -0.9238 -0.4715
10015SOL    HW230945   4.305   1.491   1.591  0.9306  0.7064  0.2324
10016SOL     OW30946   0.407   5.335   5.539 -0.1966 -0.2828 -0.9819
10016SOL    HW130947   0.333   5.378   5.591 -1.2691 -3.8984  0.8206
10016SOL    HW230948   0.439   5.398   5.468 -2.5477  2.7633  0.4320
10017SOL     OW30949   6.535   6.662   4.132 -0.2888 -0.1868  0.0596
10017SOL    HW130950   6.566   6.605   4.208  0.1940 -1.7106 -1.2333
10017SOL    HW230951   6.462   6.723   4.164  0.2846 -0.3882  1.8567
10018SOL     OW30952   2.344   0.360   1.470  0.3672  0.4132 -0.4892
10018SOL    HW130953   2.357   0.262   1.491  3.1439  1.0612  1.4594
10018SOL    HW230954   2.335   0.372   1.371 -1.8402 -1.9243 -0.6694
10019SOL     OW30955   5.919   1.689   6.075  0.3857  0.1527 -0.3624
10019SOL    HW130956   5.933   1.631   6.156 -0.5269 -1.5348 -1.3693
10019SOL    HW230957   6.007   1.728   6.048  0.9033 -0.1723  0.7667
10020SOL     OW30958   2.588   4.790   5.388 -0.5193  0.6471  0.0954
10020SOL    HW130959   2.667   4.772   5.329 -0.0198  1.3852  0.5319
10020SOL    HW230960   2.616   4.848   5.465 -1.2100 -0.1064  0.9378
10021SOL     OW30961   6.986   2.290   5.183 -0.1365  0.0967 -0.7688
10021SOL    HW130962   7.076   2.329   5.160 -0.5823  1.4419 -0.3132
10021SOL    HW230963   6.917   2.362   5.178 -0.9211 -0.5428  0.5816
10022SOL     OW30964   6.634   2.061   2.253 -0.4749 -0.2154 -0.5222
10022SOL    HW130965   6.689   2.048   2.170  0.4981 -1.3716  0.2706
10022SOL    HW230966   6.650   1.985   2.315  0.2038  1.5179  1.5313
10023SOL     OW30967   4.753   0.079   5.955 -0.0120 -0.0945 -0.7464
10023SOL    HW130968   4.703   0.138   5.891  1.3082 -0.5024 -2.2222
10023SOL    HW230969   4.812   0.017   5.903  3.0179  1.2145  0.8891
10024SOL     OW30970   1.347   5.346   0.138  0.0936  0.0348 -0.0501
10024SOL    HW130971   1.409   5.361   0.061  3.5975 -0.2209  2.5390
10024SOL    HW230972   1.351   5.250   0.166 -1.8231 -0.0713  0.0005
10025SOL     OW30973   4.234   0.459   3.760  0.1500 -0.2120  0.0646
10025SOL    HW130974   4.169   0.522   3.718  0.3350  1.0077  1.5239
10025SOL    HW230975   4.271   0.398   3.691 -1.1076  0.3442 -1.1337
10026SOL     OW30976   1.370   2.718   6.807 -0.3185  0.0897  0.1619
10026SOL    HW130977   1.276   2.689   6.822 -0.1231 -0.4357  0.4034
10026SOL    HW230978   1.422   2.643   6.768  0.2451  0.0402  0.9821
10027SOL     OW30979   2.108   6.096   3.643  0.2409 -0.3112  0.2207
10027SOL    HW130980   2.063   6.100   3.554  2.7361  3.5332 -1.1245
10027SOL    HW230981   2.186   6.034   3.638  0.6180  0.2037 -0.4405
10028SOL     OW30982   2.729   2.846   5.423 -0.2531  0.1376  0.6117
10028SOL    HW130983   2.689   2.757   5.400  0.7263  0.2582 -1.9171
10028SOL    HW230984   2.680   2.918   5.374 -0.0866  0.8288  1.4480
10029SOL     OW30985   3.623   6.856   1.879  0.1405 -0.4023  0.1637
10029SOL    HW130986   3.588   6.794   1.949 -0.5318 -0.0717  0.1231
10029SOL    HW230987   3.604   6.951   1.905  0.1526 -0.2614 -0.3192
10030SOL     OW30988   5.725   6.342   0.414  0.2691 -0.0272 -0.4236
10030SOL    HW130989   5.799   6.408   0.431 -0.5608  1.0829 -0.9711
10030SOL    HW230990   5.757   6.274   0.348  0.7037  0.6514 -0.9418
10031SOL     OW30991   0.150   5.940   5.948 -0.0640 -0.1815 -0.7186
10031SOL    HW130992   0.101   5.916   6.032 -0.8544 -0.0522 -1.1274
10031SOL    HW230993   0.225   6.002   5.970 -1.2521  1.1463 -0.2893
10032SOL     OW30994   2.843   0.280   0.985 -0.5289 -0.7000 -0.2988
10032SOL    HW130995   2.940   0.303   0.979 -0.7953  0.5005 -0.3328
10032SOL    HW230996   2.820   0.255   1.079 -0.0853 -1.5065 -0.3992
10033SOL     OW30997   6.985   3.731   5.732 -0.3580  0.3533 -0.5995
10033SOL    HW130998   6.959   3.634   5.727  0.3530  0.1293 -0.1103
10033SOL    HW230999   6.924   3.778   5.796  0.0453 -0.0417  0.0940
10034SOL     OW31000   2.523   0.894   1.679 -0.2140  0.2777 -0.1345
10034SOL    HW131001   2.443   0.942   1.644 -1.2420 -0.5311  1.0033
10034SOL    HW231002   2.547   0.931   1.769  0.2133 -0.0206 -0.1202
10035SOL     OW31003   0.127   1.654   4.352  0.1028  0.5057  0.2638
10035SOL    HW131004   0.126   1.570   4.298  0.0617  0.8908 -0.3494
10035SOL    HW231005   0.051   1.653   4.417 -0.2019  0.2917 -0.0916
10036SOL     OW31006   6.711   0.451   4.800  0.5232  0.0930  0.1894
10036SOL    HW131007   6.763   0.421   4.720 -0.9750 -1.1381 -0.3597
10036SOL    HW231008   6.696   0.373   4.861  1.8880  1.0670  1.8636
10037SOL     OW31009   6.893   5.029   5.069 -0.5824  0.2319 -0.6417
10037SOL    HW131010   6.861   4.935   5.063 -1.0631  0.3162  0.4215
10037SOL    HW231011   6.932   5.046   5.160 -0.0250  0.9113 -0.9952
10038SOL     OW31012   2.364   6.145   6.523  0.1621 -0.8801  0.2017
10038SOL    HW131013   2.398   6.224   6.471  1.6194 -0.6397  1.4422
10038SOL    HW231014   2.292   6.099   6.470  2.3774 -1.4133 -2.6062
10039SOL     OW31015   0.284   4.594   2.219  0.0917  0.0158  0.1745
10039SOL    HW131016   0.256   4.598   2.315  0.5850  0.6358  0.2980
10039SOL    HW231017   0.206   4.613   2.160 -1.8694 -5.8935  0.1414
10040SOL     OW31018   2.370   4.726   4.101  0.2668 -0.3564 -0.6000
10040SOL    HW131019   2.406   4.640   4.065 -3.9564 -1.9303 -1.6201
10040SOL    HW231020   2.369   4.722   4.201  1.5128 -0.8108 -0.5901
10041SOL     OW31021   5.768   2.164   2.446 -0.7709 -0.2295 -0.2697
10041SOL    HW131022   5.669   2.155   2.440 -0.9728  1.1163  0.5221
10041SOL    HW231023   5.792   2.260   2.459  0.6255 -0.5639 -0.1781
10042SOL     OW31024   6.262   6.455   2.337  0.3295 -0.0096  0.4750
10042SOL    HW131025   6.219   6.425   2.251  2.3517 -2.2458  0.1161
10042SOL    HW231026   6.214   6.413   2.414  0.8885 -1.2780  0.1642
10043SOL     OW31027   5.915   1.366   0.774  0.7787  0.0907 -0.4138
10043SOL    HW131028   5.966   1.324   0.849  0.7016 -0.0399 -0.4339
10043SOL    HW231029   5.824   1.392   0.806  1.0581  0.8414 -0.2253
10044SOL     OW31030   2.557   4.631   2.717 -0.3259 -0.5238  0.1303
10044SOL    HW131031   2.511   4.559   2.665 -0.0920 -0.7849  0.2807
10044SOL    HW231032   2.632   4.668   2.662  1.4865 -2.4683  1.1630
10045SOL     OW31033   4.295   6.436   5.028  0.4671 -1.0972 -0.0103
10045SOL    HW131034   4.227   6.363   5.028  1.1755 -1.7701  0.1385
10045SOL    HW231035   4.260   6.514   4.976  0.0008 -1.8273 -0.8250
10046SOL     OW31036   0.465   6.363   5.475 -0.0702  0.2219  0.0849
10046SOL    HW131037   0.473   6.263   5.484 -1.5091  0.2080  2.0156
10046SOL    HW231038   0.523   6.407   5.544  1.9641  0.8289 -1.9268
10047SOL     OW31039   5.742   5.105   5.678 -0.2661 -0.4491 -0.4906
10047SOL    HW131040   5.793   5.154   5.749  0.5978  1.2651 -2.1936
10047SOL    HW231041   5.804   5.077   5.606 -1.6635  2.8830 -3.3024
10048SOL     OW31042   4.489   1.740   5.431  0.2106  0.3499  0.0299
10048SOL    HW131043   4.487   1.811   5.360 -1.2847  0.5379  0.2209
10048SOL    HW231044   4.460   1.779   5.518 -0.6005 -0.4595  0.1420
10049SOL     OW31045   1.955   2.949   4.822 -0.3840  0.1264 -0.3762
10049SOL    HW131046   1.928   3.021   4.885 -1.4914 -0.5462 -0.0653
10049SOL    HW231047   2.050   2.924   4.839 -0.5601  0.1985  0.7826
10050SOL     OW31048   0.190   1.327   1.544 -0.0880  0.1294  0.5799
10050SOL    HW131049   0.193   1.380   1.629 -1.6156 -0.1868  0.8556
10050SOL    HW231050   0.227   1.236   1.560 -0.7429 -0.0668  1.0268
10051SOL     OW31051   1.209   6.254   5.494  0.3473  0.0661 -0.0745
10051SOL    HW131052   1.208   6.184   5.566 -1.8024 -0.4366 -0.5419
10051SOL    HW231053   1.211   6.209   5.404  0.2243  0.6444 -0.3690
10052SOL     OW31054   3.988   6.944   5.120 -0.0777  0.3940 -0.8463
10052SOL    HW131055   3.895   6.980   5.129  0.2980  1.5028 -1.2812
10052SOL    HW231056   3.989   6.849   5.150 -1.5009  0.1475 -1.4681
10053SOL     OW31057   5.578   6.826   2.416  0.1670  0.5535 -0.3604
10053SOL    HW131058   5.571   6.863   2.509 -1.5590  1.2968 -0.7522
10053SOL    HW231059   5.511   6.753   2.404 -0.5480  1.3581 -1.4101
10054SOL     OW31060   2.046   6.085   1.972  0.3571  0.4161 -0.2873
10054SOL    HW131061   2.038   6.124   2.064  2.1083  0.3074 -0.0533
10054SOL    HW231062   2.052   6.159   1.905 -1.0198  0.4954 -0.3470
10055SOL     OW31063   6.774   6.751   3.994  0.2165 -0.3082 -0.4674
10055SOL    HW131064   6.680   6.738   4.025  0.9963 -1.6801  1.4723
10055SOL    HW231065   6.783   6.717   3.900 -1.0621 -0.7860 -0.4389
10056SOL     OW31066   3.191   4.534   0.347  0.2348  0.0616  0.0897
10056SOL    HW131067   3.179   4.601   0.273 -0.0501 -0.4071 -0.2959
10056SOL    HW231068   3.281   4.546   0.389  0.8352 -0.3471 -1.0383
10057SOL     OW31069   6.008   5.552   3.841  0.0000  0.0187 -0.2808
10057SOL    HW131070   5.988   5.477   3.905 -0.2687  0.3050 -0.0263
10057SOL    HW231071   6.097   5.536   3.798  0.6881  0.3514  0.9563
10058SOL     OW31072   5.864   5.236   2.949 -0.2499  0.3730  0.7495
10058SOL    HW131073   5.834   5.143   2.972 -0.6412  0.1957 -0.4253
10058SOL    HW231074   5.936   5.264   3.013 -0.7806 -0.3706  1.6961
10059SOL     OW31075   6.529   4.663   2.840  0.1131 -0.0407 -0.1653
10059SOL    HW131076   6.564   4.753   2.866  1.8868 -0.6029 -0.4633
10059SOL    HW231077   6.437   4.673   2.801  0.5242  1.7228 -0.7848
10060SOL     OW31078   0.888   5.225   0.008  0.5328 -0.1557  0.4392
10060SOL    HW131079   0.966   5.272   0.050  0.5166 -1.0515  1.5021
10060SOL    HW231080   0.803   5.271   0.035  0.5995  0.0237  0.3510
10061SOL     OW31081   0.754   0.704   4.241 -0.6730 -0.5002 -0.0240
10061SOL    HW131082   0.704   0.786   4.216 -1.1094 -0.5394  0.6888
10061SOL    HW231083   0.853   0.722   4.240 -0.7184 -0.3038 -1.0164
10062SOL     OW31084   0.332   0.888   1.786 -0.1598  0.1197  0.5827
10062SOL    HW131085   0.368   0.796   1.805  1.8514  0.0498 -2.7632
10062SOL    HW231086   0.237   0.881   1.755  0.4247 -1.0592 -1.0613
10063SOL     OW31087   5.245   2.186   1.939  0.0957 -0.3996  0.5657
10063SOL    HW131088   5.240   2.281   1.969  0.4806 -0.1728 -0.0776
10063SOL    HW231089   5.259   2.127   2.019 -1.3358 -0.0433  1.1132
10064SOL     OW31090   4.069   3.799   1.685 -0.8811  0.1581  0.1591
10064SOL    HW131091   4.101   3.757   1.770  0.2973  0.1791 -0.2537
10064SOL    HW231092   4.076   3.899   1.692 -0.4983  0.1491 -0.0649
10065SOL     OW31093   1.499   2.464   3.823 -0.3560  0.1844  0.7165
10065SOL    HW131094   1.529   2.385   3.769  0.2059  1.3334 -0.7037
10065SOL    HW231095   1.479   2.434   3.917  1.9442 -1.2757  0.8246
10066SOL     OW31096   5.942   6.546   6.729  0.1311  0.6802 -0.1643
10066SOL    HW131097   5.877   6.620   6.747  1.5747  1.4494  2.2846
10066SOL    HW231098   5.895   6.472   6.680 -2.1236  1.8891  0.0239
10067SOL     OW31099   0.841   0.944   1.593 -0.4562 -0.2432 -0.4831
10067SOL    HW131100   0.903   1.005   1.544  0.4968 -2.0668 -1.6375
10067SOL    HW231101   0.848   0.961   1.692 -0.0127  1.2674 -0.7513
10068SOL     OW31102   1.381   5.175   0.452 -0.3946  0.0309  0.1024
10068SOL    HW131103   1.284   5.180   0.424  0.4448 -0.5217 -3.4229
10068SOL    HW231104   1.411   5.265   0.482 -0.9287  1.5442 -3.3431
10069SOL     OW31105   5.694   6.906   0.560  0.3527  0.6876  0.1738
10069SOL    HW131106   5.598   6.934   0.559  0.1565  0.0310  0.2956
10069SOL    HW231107   5.700   6.807   0.568  1.0492  0.7738  0.8646
10070SOL     OW31108   5.698   4.529   4.232 -0.4324  0.4897 -0.3150
10070SOL    HW131109   5.659   4.514   4.323 -1.4820 -2.7206 -1.1699
10070SOL    HW231110   5.662   4.614   4.194 -2.9370  0.0478  0.8511
10071SOL     OW31111   2.170   3.210   1.795  0.2435  0.0395  0.0933
10071SOL    HW131112   2.258   3.222   1.750  0.5842 -0.7857  0.5172
10071SOL    HW231113   2.163   3.271   1.874  0.7895 -0.5009  0.5636
10072SOL     OW31114   1.331   3.297   3.767  0.7225  0.1679 -0.0095
10072SOL    HW131115   1.428   3.274   3.773  0.5413 -0.7563 -0.3693
10072SOL    HW231116   1.320   3.393   3.741  1.5228  0.6134  1.2037
10073SOL     OW31117   0.594   5.626   2.147 -0.4111  0.2551  0.2141
10073SOL    HW131118   0.645   5.540   2.135 -2.6187 -0.8873 -1.5848
10073SOL    HW231119   0.644   5.700   2.103  0.4640 -0.4951 -0.1059
10074SOL     OW31120   2.042   4.483   5.565 -0.6363  0.4016 -0.5149
10074SOL    HW131121   2.074   4.468   5.471  0.7426  1.6385 -0.2766
10074SOL    HW231122   2.055   4.400   5.619  0.9889  0.4512 -0.7796
10075SOL     OW31123   5.352   6.845   5.433 -0.3374  0.3894  0.7143
10075SOL    HW131124   5.304   6.846   5.521 -1.0410  1.0571  0.3271
10075SOL    HW231125   5.290   6.874   5.360  0.3166  0.1002  0.0279
10076SOL     OW31126   6.057   5.090   3.277 -0.4126 -0.4032  0.3100
10076SOL    HW131127   5.979   5.028   3.266 -1.2722  0.2553  2.2070
10076SOL    HW231128   6.054   5.130   3.369  1.5647  0.4855  0.0261
10077SOL     OW31129   3.039   0.414   2.666  0.4144 -0.5355  0.3010
10077SOL    HW131130   3.043   0.452   2.574 -0.2299 -0.7492  0.1783
10077SOL    HW231131   3.074   0.482   2.732  1.3330 -0.5646 -0.1427
10078SOL     OW31132   1.689   0.289   4.559 -0.0283 -0.8290 -0.2545
10078SOL    HW131133   1.717   0.349   4.484  0.1519 -0.1205  0.3720
10078SOL    HW231134   1.754   0.212   4.565 -0.0551 -0.9054 -0.8279
10079SOL     OW31135   2.704   6.946   5.980 -0.6950 -0.3018 -0.3048
10079SOL    HW131136   2.629   6.885   6.003 -0.2216 -0.2498  1.5026
10079SOL    HW231137   2.703   7.025   6.042  0.8911 -0.3556 -0.1699
10080SOL     OW31138   2.679   1.149   3.601  0.7091 -0.3208 -0.4861
10080SOL    HW131139   2.761   1.127   3.547  1.3868 -0.9052  0.7376
10080SOL    HW231140   2.608   1.082   3.584 -0.9349  2.0886 -4.2839
10081SOL     OW31141   3.479   3.301   3.097  0.0696 -0.2682 -0.2530
10081SOL    HW131142   3.474   3.263   3.189 -1.6320  1.0211  0.2393
10081SOL    HW231143   3.566   3.348   3.085 -0.1095  0.4281  1.0741
10082SOL     OW31144   4.626   5.421   3.758  0.4107 -0.1899  0.0438
10082SOL    HW131145   4.649   5.343   3.816 -0.4355  1.2349  2.4621
10082SOL    HW231146   4.528   5.437   3.762  0.6023  1.1534 -0.1681
10083SOL     OW31147   3.474   6.339   4.770  0.0103  0.0967  0.2812
10083SOL    HW131148   3.574   6.341   4.760  0.3453  1.8913  2.9864
10083SOL    HW231149   3.434   6.410   4.712 -0.0083 -1.9618 -2.4354
10084SOL     OW31150   4.866   1.388   3.407 -0.0656  0.1390 -0.2775
10084SOL    HW131151   4.830   1.424   3.321 -1.0641 -0.3373 -0.0781
10084SOL    HW231152   4.962   1.415   3.417 -0.0405  0.5115 -1.3576
10085SOL     OW31153   4.606   4.518   3.012  0.2808  0.5528 -0.1628
10085SOL    HW131154   4.702   4.547   3.018  0.2210  0.5538  0.9761
10085SOL    HW231155   4.548   4.584   3.061  0.0710 -1.1303  1.9828
10086SOL     OW31156   1.344   3.791   0.926  0.5296  0.1645  0.2113
10086SOL    HW131157   1.356   3.790   0.827 -1.4467  0.8213 -0.0633
10086SOL    HW231158   1.290   3.712   0.954 -0.4754  0.9536  0.5311
10087SOL     OW31159   5.803   0.941   3.238 -0.6308  0.5693  0.1430
10087SOL    HW131160   5.824   1.038   3.247  2.4060  0.0187  0.2683
10087SOL    HW231161   5.771   0.905   3.326 -0.0621  1.1426  0.5935
10088SOL     OW31162   2.313   0.987   5.706  0.4831  0.1310 -0.0923
10088SOL    HW131163   2.294   0.998   5.804 -1.0942 -0.2851 -0.3214
10088SOL    HW231164   2.377   0.911   5.693  1.0395  0.4643  0.6342
10089SOL     OW31165   2.326   4.473   0.365 -0.4356  0.5116 -0.0144
10089SOL    HW131166   2.292   4.567   0.366 -0.8627  0.3790 -1.1615
10089SOL    HW231167   2.282   4.422   0.292  0.6367 -0.2715 -0.1472
10090SOL     OW31168   0.579   1.027   6.443  0.1025 -0.2739 -0.5766
10090SOL    HW131169   0.483   1.015   6.469  0.5588 -1.2118  0.7217
10090SOL    HW231170   0.607   0.950   6.385 -0.2722  0.6806 -2.1051
10091SOL     OW31171   6.616   2.136   4.905  0.3998  0.1006  0.1957
10091SOL    HW131172   6.543   2.189   4.947 -1.0041 -1.4295 -0.1831
10091SOL    HW231173   6.702   2.187   4.909 -0.8037  2.2142  0.0986
10092SOL     OW31174   3.988   2.871   0.544 -0.2169 -0.3394  0.1596
10092SOL    HW131175   4.027   2.789   0.502 -0.3955 -0.5209  0.3490
10092SOL    HW231176   4.061   2.939   0.557 -0.4769  0.4680 -2.1861
10093SOL     OW31177   5.259   4.822   3.721 -0.1326  0.5516  0.7294
10093SOL    HW131178   5.232   4.871   3.804 -0.2344  0.3188  0.8367
10093SOL    HW231179   5.188   4.756   3.697  0.4556 -0.2746  1.1803
10094SOL     OW31180   4.570   3.092   1.235  0.4799 -0.1367 -0.1776
10094SOL    HW131181   4.475   3.099   1.204  0.4516  2.3894  0.2695
10094SOL    HW231182   4.628   3.064   1.159 -0.2509  1.1520 -1.2634
10095SOL     OW31183   5.272   3.747   2.392 -0.1917 -0.5169 -0.4336
10095SOL    HW131184   5.360   3.728   2.348  0.2603 -2.9427  1.2719
10095SOL    HW231185   5.263   3.845   2.408  2.2881 -0.2040 -0.5324
10096SOL     OW31186   5.915   0.665   1.376  0.1947  0.6862  0.6297
10096SOL    HW131187   5.950   0.758   1.362  0.9570  0.4789  1.0954
10096SOL    HW231188   5.920   0.642   1.473  1.1226 -0.2588  0.3730
10097SOL     OW31189   3.668   2.982   5.638  0.4196  0.0830 -0.6729
10097SOL    HW131190   3.581   2.987   5.689 -0.1510  1.2418 -1.7005
10097SOL    HW231191   3.738   2.943   5.697 -0.6840 -0.4479  0.3485
10098SOL     OW31192   0.267   0.370   3.150 -0.2369 -0.2902  0.2709
10098SOL    HW131193   0.297   0.451   3.101  0.9425 -0.9213 -0.0947
10098SOL    HW231194   0.274   0.386   3.249 -0.6623  0.2812  0.2109
10099SOL     OW31195   1.881   3.645   6.528  0.2614 -0.1037  0.7523
10099SOL    HW131196   1.855   3.705   6.452  0.0751 -0.8344  0.2299
10099SOL    HW231197   1.801   3.627   6.585 -0.5959 -2.6308 -1.0477
10100SOL     OW31198   1.264   1.075   2.728 -0.2007 -0.2544 -0.1144
10100SOL    HW131199   1.316   1.133   2.664 -0.8209  1.2626  0.7085
10100SOL    HW231200   1.288   1.099   2.822 -1.5940 -0.2552  0.2678
10101SOL     OW31201   0.155   6.130   2.290  0.5278  0.0336  0.5401
10101SOL    HW131202   0.242   6.084   2.305  1.6428  1.3089 -1.4920
10101SOL    HW231203   0.099   6.076   2.227  2.0566  1.4902 -2.2762
10102SOL     OW31204   6.245   3.254   3.162  0.1280 -0.0410  0.3280
10102SOL    HW131205   6.195   3.201   3.094  1.3698  1.1674 -1.6263
10102SOL    HW231206   6.181   3.308   3.216 -0.8135 -0.0728 -0.7221
10103SOL     OW31207   4.538   6.756   6.541  0.2016  0.3281  0.5658
10103SOL    HW131208   4.568   6.660   6.540 -1.6707 -0.2818 -0.1786
10103SOL    HW231209   4.609   6.813   6.500  1.2464 -0.7459  0.8084
10104SOL     OW31210   3.587   1.849   0.567  0.0425 -0.2235  0.3296
10104SOL    HW131211   3.542   1.762   0.589 -1.4493  0.7202  1.1541
10104SOL    HW231212   3.543   1.923   0.617  0.9922  1.0925 -0.7106
10105SOL     OW31213   6.549   4.266   4.916 -0.1072  0.1337  0.3407
10105SOL    HW131214   6.547   4.363   4.891 -0.6405  0.1693  0.5235
10105SOL    HW231215   6.610   4.253   4.994 -0.9568  0.5008  1.0765
10106SOL     OW31216   1.826   3.036   4.205 -0.0774  0.0027 -0.0390
10106SOL    HW131217   1.885   3.110   4.173  0.3713 -0.9052 -1.3821
10106SOL    HW231218   1.762   3.010   4.132 -0.9527 -0.2208  0.7849
10107SOL     OW31219   6.952   0.087   3.748 -0.2995  0.2576  0.0373
10107SOL    HW131220   6.946   0.098   3.649 -1.2903 -0.0322  0.0500
10107SOL    HW231221   7.019   0.017   3.771 -2.0555 -1.7359 -0.5882
10108SOL     OW31222   1.012   1.109   6.372 -0.3886 -0.0135 -0.1893
10108SOL    HW131223   1.103   1.121   6.332 -0.7270 -0.0687 -0.9985
10108SOL    HW231224   0.943   1.134   6.305 -0.9728  0.5646  0.6027
10109SOL     OW31225   5.086   1.108   2.714  0.1966 -0.1368 -0.3845
10109SOL    HW131226   5.057   1.032   2.655  2.0858  0.3408 -2.0553
10109SOL    HW231227   5.070   1.195   2.667 -1.7645  0.5734  1.4299
10110SOL     OW31228   3.295   3.113   0.406 -0.5417  0.0916  0.3380
10110SOL    HW131229   3.261   3.168   0.482  0.1310 -0.4396  1.0347
10110SOL    HW231230   3.345   3.172   0.342 -0.4436  0.4147  0.7113
10111SOL     OW31231   5.398   0.047   2.616  0.0974  0.2931 -0.1323
10111SOL    HW131232   5.377   0.068   2.521 -1.9366  0.5471  0.3289
10111SOL    HW231233   5.332   0.092   2.676  1.5132  0.3993  1.4473
10112SOL     OW31234   5.467   3.647   6.921  0.5096  0.3877 -0.0759
10112SOL    HW131235   5.474   3.733   6.972  1.3463  0.5993 -0.5431
10112SOL    HW231236   5.558   3.615   6.895  0.1432 -0.1213 -0.7816
10113SOL     OW31237   1.844   6.297   3.450  0.0985 -0.1155  0.0445
10113SOL    HW131238   1.808   6.353   3.525 -2.6085 -0.5993 -0.7888
10113SOL    HW231239   1.929   6.338   3.417 -0.3916  2.0116  1.1831
10114SOL     OW31240   6.409   6.205   6.328 -0.5095 -0.3814  0.2100
10114SOL    HW131241   6.462   6.127   6.360  0.3126 -0.2337 -0.7548
10114SOL    HW231242   6.454   6.290   6.356  0.6667 -0.2322 -1.9004
10115SOL     OW31243   4.830   2.353   4.400  0.7662 -0.2831  0.0957
10115SOL    HW131244   4.755   2.418   4.417 -1.5976 -3.0547  1.0524
10115SOL    HW231245   4.856   2.357   4.304 -0.1354  1.2098 -0.1212
10116SOL     OW31246   3.871   3.461   5.720  0.2984  0.2849 -0.1148
10116SOL    HW131247   3.839   3.540   5.667 -1.4837 -0.6883 -0.6073
10116SOL    HW231248   3.888   3.385   5.657 -1.6975 -0.8415  0.6127
10117SOL     OW31249   0.884   6.448   5.195 -0.0031  0.0678 -0.3605
10117SOL    HW131250   0.835   6.367   5.229 -1.3839  0.6080 -0.9898
10117SOL    HW231251   0.935   6.490   5.270  1.2157 -1.7013 -0.1526
10118SOL     OW31252   2.412   5.315   4.921  0.7834  0.7257  0.4993
10118SOL    HW131253   2.497   5.275   4.955  0.4462 -2.2735 -1.7800
10118SOL    HW231254   2.335   5.273   4.969  0.4731 -0.5744 -1.0407
10119SOL     OW31255   1.302   3.245   0.858  0.4477  0.7789  0.0976
10119SOL    HW131256   1.355   3.166   0.888 -0.3273  0.0022 -0.5383
10119SOL    HW231257   1.279   3.302   0.938  1.0764  0.4124  0.5500
10120SOL     OW31258   6.139   1.518   4.621  0.0797  0.8994  0.0677
10120SOL    HW131259   6.077   1.570   4.681  0.4299  1.9584 -0.4540
10120SOL    HW231260   6.214   1.578   4.591  1.4950 -0.4165  0.8639
10121SOL     OW31261   3.285   6.512   3.721 -0.0096  0.8284 -1.1707
10121SOL    HW131262   3.294   6.413   3.725 -3.2554  0.4739  0.3064
10121SOL    HW231263   3.338   6.554   3.795  1.6679  0.2761 -2.0260
10122SOL     OW31264   5.970   3.989   1.183 -0.0494 -0.1860 -0.4758
10122SOL    HW131265   5.884   4.026   1.215 -0.0908 -0.5587 -0.1445
10122SOL    HW231266   6.031   4.063   1.155 -0.2110  0.1159 -0.0353
10123SOL     OW31267   0.007   2.205   3.722 -0.1987 -0.1036  0.6558
10123SOL    HW131268  -0.088   2.176   3.708  0.0025  0.1211 -1.5621
10123SOL    HW231269   0.060   2.129   3.759 -1.1408 -0.3510  1.5427
10124SOL     OW31270   2.362   3.959   1.385 -0.2322 -0.0600  0.0779
10124SOL    HW131271   2.341   4.049   1.423  0.6272  0.7166 -1.1991
10124SOL    HW231272   2.457   3.958   1.354 -0.6448 -0.9275 -1.2076
10125SOL     OW31273   6.327   5.283   0.610  0.3439  0.2546  0.0961
10125SOL    HW131274   6.231   5.281   0.638 -0.4338  0.8231 -2.2487
10125SOL    HW231275   6.365   5.374   0.628 -0.1553  0.6259 -0.6532
10126SOL     OW31276   2.526   5.033   2.194  0.0279  0.5299 -0.1470
10126SOL    HW131277   2.622   5.035   2.166  0.0328 -2.6326 -0.7238
10126SOL    HW231278   2.473   4.979   2.129 -1.8583  0.9001  1.0010
10127SOL     OW31279   2.201   4.539   6.207 -0.3214  0.1983 -0.5704
10127SOL    HW131280   2.176   4.488   6.124  0.6869 -0.8213 -0.2844
10127SOL    HW231281   2.268   4.609   6.183  1.9408 -1.7422 -0.3236
10128SOL     OW31282   1.685   2.841   0.269 -0.0296 -0.2373  0.1600
10128SOL    HW131283   1.783   2.859   0.277 -0.4760  2.3305  0.5980
10128SOL    HW231284   1.649   2.815   0.359 -0.1048  0.9809  0.4997
10129SOL     OW31285   0.184   6.323   5.673 -0.0288 -0.2908 -0.6032
10129SOL    HW131286   0.178   6.392   5.745  0.8771 -1.1948  0.3885
10129SOL    HW231287   0.173   6.366   5.583 -1.0170  0.8802  0.0620
10130SOL     OW31288   6.048   0.425   3.059 -0.4086  0.5352  0.1131
10130SOL    HW131289   5.967   0.369   3.077  1.1298 -1.5997  0.6732
10130SOL    HW231290   6.062   0.488   3.135 -2.0867  1.6744 -0.4629
10131SOL     OW31291   3.412   1.767   1.214  0.4596 -0.0842  0.0178
10131SOL    HW131292   3.321   1.806   1.232  0.6658  0.3965  0.0320
10131SOL    HW231293   3.465   1.831   1.159 -0.0851 -1.4377 -2.1642
10132SOL     OW31294   5.730   6.315   4.969  0.2659 -0.6084 -0.3947
10132SOL    HW131295   5.678   6.292   5.052  1.2441  0.8514  0.6691
10132SOL    HW231296   5.827   6.297   4.985  0.7254  1.5478 -0.4678
10133SOL     OW31297   0.393   1.557   2.706  0.4154  0.3840  0.5816
10133SOL    HW131298   0.458   1.535   2.633 -0.3722 -0.2378  0.0493
10133SOL    HW231299   0.373   1.655   2.705  1.7905  0.6994  1.1471
10134SOL     OW31300   5.350   0.849   3.848  0.5226 -0.0158 -0.2023
10134SOL    HW131301   5.369   0.837   3.750  0.7600 -0.5879 -0.0902
10134SOL    HW231302   5.252   0.866   3.861  0.3864 -0.5777 -0.4837
10135SOL     OW31303   6.126   2.673   5.751 -0.2282 -1.0666 -0.2046
10135SOL    HW131304   6.125   2.723   5.664  1.6104 -1.1841 -0.3371
10135SOL    HW231305   6.143   2.738   5.826 -1.0124 -1.0806 -0.0013
10136SOL     OW31306   0.855   2.866   3.283 -0.1384 -0.3304 -0.4008
10136SOL    HW131307   0.923   2.893   3.352  0.1228 -0.5973 -0.5514
10136SOL    HW231308   0.869   2.921   3.201 -1.5349  1.2124  0.3250
10137SOL     OW31309   0.992   5.809   3.739 -0.4994  0.2421 -0.4922
10137SOL    HW131310   1.085   5.810   3.703 -1.0344 -1.2582 -2.0830
10137SOL    HW231311   0.927   5.796   3.664 -1.9510  0.5013  0.6649
10138SOL     OW31312   4.387   5.252   5.166 -0.3055  0.7775 -0.5588
10138SOL    HW131313   4.341   5.304   5.094 -1.2295  0.7730  0.0040
10138SOL    HW231314   4.323   5.236   5.241  0.2181 -0.4442 -0.3534
10139SOL     OW31315   1.578   3.260   5.989 -0.0295 -0.2576 -0.4140
10139SOL    HW131316   1.527   3.204   5.924  0.0348  0.4972 -1.1435
10139SOL    HW231317   1.662   3.212   6.016 -1.3812 -1.7856  1.2991
10140SOL     OW31318   3.919   4.893   5.600 -0.2339 -0.3961  0.4813
10140SOL    HW131319   3.966   4.943   5.673  0.6640  0.2640 -0.5041
10140SOL    HW231320   3.978   4.820   5.566 -0.7370 -0.8477  0.5812
10141SOL     OW31321   6.407   1.350   5.617 -0.1144  0.1434 -0.3844
10141SOL    HW131322   6.411   1.276   5.684  0.4411 -0.4868 -1.0980
10141SOL    HW231323   6.497   1.359   5.573 -0.6129  0.2023 -1.4099
10142SOL     OW31324   4.089   0.919   6.279 -0.1052 -0.4308 -0.5045
10142SOL    HW131325   4.061   0.995   6.338  0.0181 -0.2343 -0.6996
10142SOL    HW231326   4.075   0.832   6.328  1.0021 -0.2154  0.2289
10143SOL     OW31327   3.562   0.577   1.231 -0.5591  0.1288 -0.0474
10143SOL    HW131328   3.493   0.505   1.224  0.1851 -1.2417  4.0888
10143SOL    HW231329   3.521   0.660   1.268 -0.1049 -0.7615  2.6423
10144SOL     OW31330   1.024   0.977   2.780 -0.0334  0.6178  0.2909
10144SOL    HW131331   1.014   0.884   2.743 -3.0195  0.9865 -0.0872
10144SOL    HW231332   1.106   1.019   2.742 -0.5922 -0.5879 -2.4913
10145SOL     OW31333   3.083   3.172   6.516 -0.4224  0.4472 -0.0696
10145SOL    HW131334   3.133   3.254   6.545 -1.0200  0.8104 -0.0678
10145SOL    HW231335   2.985   3.188   6.521 -0.5512  0.3852 -1.8823
10146SOL     OW31336   2.937   6.304   1.914 -0.1165  0.8651  0.5669
10146SOL    HW131337   3.003   6.370   1.878 -0.6102  1.1390  0.1454
10146SOL    HW231338   2.979   6.250   1.987  0.8888  0.3572 -0.3624
10147SOL     OW31339   4.202   4.109   6.572 -0.1447  0.1073 -1.0782
10147SOL    HW131340   4.142   4.050   6.518 -0.7093 -2.3249  1.9403
10147SOL    HW231341   4.296   4.075   6.568 -0.4947 -1.2585  0.7809
10148SOL     OW31342   2.664   1.439   0.818  0.0282 -0.2842  0.1085
10148SOL    HW131343   2.701   1.347   0.812 -0.2798 -0.3797 -0.3608
10148SOL    HW231344   2.677   1.487   0.731  0.1712  0.1101  0.3425
10149SOL     OW31345   6.994   5.551   1.530 -0.2329  0.2742  0.0274
10149SOL    HW131346   7.027   5.541   1.624  0.7313 -2.8304 -0.5051
10149SOL    HW231347   7.072   5.561   1.468 -0.8750  2.8212 -0.4879
10150SOL     OW31348   2.026   0.065   5.334  0.3304 -0.3212  0.4420
10150SOL    HW131349   1.955   0.037   5.397 -0.7030  0.8364 -0.1518
10150SOL    HW231350   2.037  -0.004   5.263  0.2320 -0.7882  0.8743
10151SOL     OW31351   5.367   5.015   5.234 -0.0798 -0.2786 -0.2105
10151SOL    HW131352   5.442   5.010   5.300  0.8935  2.0814 -1.0479
10151SOL    HW231353   5.360   4.929   5.185  1.4641 -0.8719  0.5413
10152SOL     OW31354   6.356   3.024   3.728  0.1624  0.1481 -0.6688
10152SOL    HW131355   6.386   3.016   3.633  0.2784 -0.9867 -0.5409
10152SOL    HW231356   6.413   3.091   3.775  0.8424 -0.1275 -1.0919
10153SOL     OW31357   2.954   4.347   6.358 -0.2838  0.0488 -0.1220
10153SOL    HW131358   2.922   4.442   6.360 -0.7747 -0.1100 -0.3474
10153SOL    HW231359   3.049   4.344   6.389  0.1339  0.7648 -1.2782
10154SOL     OW31360   6.164   4.659   3.101  0.2944  0.8216 -0.3636
10154SOL    HW131361   6.202   4.749   3.077  0.2344  0.6143 -1.2720
10154SOL    HW231362   6.115   4.666   3.188  0.7703  1.5362 -0.1421
10155SOL     OW31363   2.177   0.454   4.774 -0.3788 -0.1177  0.3677
10155SOL    HW131364   2.165   0.531   4.711 -0.5370  0.3697  0.9814
10155SOL    HW231365   2.172   0.488   4.868  0.2535 -0.7745  0.6413
10156SOL     OW31366   5.781   2.613   4.115 -0.5121  0.2738 -0.2892
10156SOL    HW131367   5.808   2.673   4.040  0.2077  1.8335  1.1342
10156SOL    HW231368   5.847   2.538   4.124 -0.5517  0.1338 -1.1311
10157SOL     OW31369   4.643   4.649   2.348 -0.1742  0.1434 -0.0095
10157SOL    HW131370   4.674   4.563   2.389  1.3497 -0.3162 -1.9811
10157SOL    HW231371   4.583   4.628   2.270  0.3343  0.8533 -0.5959
10158SOL     OW31372   5.472   5.674   0.874 -0.0052 -0.7957 -0.7985
10158SOL    HW131373   5.552   5.683   0.933 -0.0094 -0.4317 -0.8445
10158SOL    HW231374   5.479   5.740   0.799 -1.3766  0.7643  0.3707
10159SOL     OW31375   5.188   3.995   3.980  0.1345  0.3787  0.0895
10159SOL    HW131376   5.184   3.946   4.067  0.1822 -1.2523 -0.7887
10159SOL    HW231377   5.281   3.992   3.944  0.0967  0.9823 -0.0755
10160SOL     OW31378   2.613   1.433   1.077  0.4708  0.6165  0.0966
10160SOL    HW131379   2.599   1.528   1.106 -0.6859  0.0241  1.5730
10160SOL    HW231380   2.620   1.430   0.977 -2.6546  1.9343 -0.2786
10161SOL     OW31381   4.785   1.723   5.935 -0.9661 -0.1884  0.3087
10161SOL    HW131382   4.708   1.724   5.872 -0.4550 -1.9075 -0.3911
10161SOL    HW231383   4.752   1.735   6.029 -1.9815 -0.1343 -0.0497
10162SOL     OW31384   1.433   2.093   5.227 -0.1683 -0.0785  0.2307
10162SOL    HW131385   1.397   2.018   5.282 -0.0659 -0.0920  0.2799
10162SOL    HW231386   1.358   2.154   5.200  0.1002  1.4574  2.6600
10163SOL     OW31387   1.173   3.450   5.820 -0.0478 -0.4623  0.8005
10163SOL    HW131388   1.136   3.384   5.754 -0.6802  1.8659 -1.3381
10163SOL    HW231389   1.101   3.477   5.884 -1.1663  1.3371 -1.0882
10164SOL     OW31390   2.247   2.425   1.447 -0.2065  0.6629  0.2008
10164SOL    HW131391   2.300   2.355   1.399 -0.8558  1.2303 -1.4182
10164SOL    HW231392   2.238   2.506   1.389 -1.2141  1.3083  1.2049
10165SOL     OW31393   5.141   3.551   2.218 -0.0952 -0.4052 -0.5205
10165SOL    HW131394   5.208   3.604   2.269  1.1873 -0.7821 -1.7594
10165SOL    HW231395   5.081   3.612   2.166 -1.0992 -0.0439  1.0091
10166SOL     OW31396   3.334   5.479   1.441  0.3262  0.1936 -0.8582
10166SOL    HW131397   3.362   5.383   1.447  0.0788  0.1899  1.4711
10166SOL    HW231398   3.247   5.485   1.393 -0.2106 -0.9209 -0.0987
10167SOL     OW31399   1.578   4.425   4.876  0.3225  0.5000 -1.1739
10167SOL    HW131400   1.480   4.447   4.878 -0.0270 -1.0139  0.2363
10167SOL    HW231401   1.626   4.492   4.819 -1.4309  1.6371 -1.3861
10168SOL     OW31402   4.157   0.385   6.857  0.2568  0.5276  0.1199
10168SOL    HW131403   4.086   0.369   6.925  0.9950 -0.0972  0.7627
10168SOL    HW231404   4.168   0.303   6.800 -0.0685  0.8978 -0.4872
10169SOL     OW31405   6.361   5.369   4.910 -0.6325 -0.3406  0.3679
10169SOL    HW131406   6.422   5.314   4.967 -0.8977 -0.6350  0.3679
10169SOL    HW231407   6.387   5.357   4.814 -0.3196 -0.0060  0.4047
10170SOL     OW31408   6.621   6.543   4.385  0.0253 -0.2380 -0.5664
10170SOL    HW131409   6.718   6.549   4.408 -0.3335  0.2762  0.9302
10170SOL    HW231410   6.585   6.456   4.418 -0.3015  0.1166  0.0117
10171SOL     OW31411   5.037   4.955   6.997  0.2017 -0.0878 -0.1250
10171SOL    HW131412   5.087   4.928   7.080  1.9566  0.9111 -0.8048
10171SOL    HW231413   5.036   4.879   6.933 -0.0295 -0.4363  0.2815
10172SOL     OW31414   6.806   0.286   3.853 -0.5965  0.0263 -0.0898
10172SOL    HW131415   6.854   0.326   3.931 -1.5835  2.7853 -0.7603
10172SOL    HW231416   6.868   0.225   3.803  1.1667  0.9660  0.8614
10173SOL     OW31417   4.339   0.429   2.690  0.0747  0.0915 -0.1071
10173SOL    HW131418   4.256   0.431   2.746  0.2024  0.7707  0.0629
10173SOL    HW231419   4.364   0.334   2.672  0.7551 -0.2114  2.0922
10174SOL     OW31420   1.972   6.824   0.003 -0.4822 -0.2936 -0.3354
10174SOL    HW131421   1.961   6.726   0.016  0.7948 -0.5636 -1.1324
10174SOL    HW231422   1.907   6.873   0.061 -1.0882 -1.5987  0.1166
10175SOL     OW31423   2.410   4.048   5.648 -0.1199  0.0600  0.7993
10175SOL    HW131424   2.451   4.003   5.569  0.2036 -0.2721  1.1542
10175SOL    HW231425   2.345   4.117   5.616 -0.6346 -0.6628  0.2518
10176SOL     OW31426   5.340   1.680   5.084  0.1233  0.1853 -0.3791
10176SOL    HW131427   5.255   1.631   5.064 -0.1829  0.3389  0.5303
10176SOL    HW231428   5.320   1.777   5.102  0.4924  0.2242 -0.1624
10177SOL     OW31429   3.718   5.520   2.261  0.3697 -0.4555  0.1770
10177SOL    HW131430   3.798   5.466   2.286  1.4301  0.8496 -0.2420
10177SOL    HW231431   3.677   5.560   2.343  1.8987  1.1935  0.1866
10178SOL     OW31432   2.488   0.755   0.803  0.3310 -0.4687  0.1872
10178SOL    HW131433   2.407   0.741   0.746  0.9159  0.5209 -0.9611
10178SOL    HW231434   2.496   0.853   0.825  1.8394 -0.3309 -0.7832
10179SOL     OW31435   6.831   4.850   2.650  0.4405  0.3019 -0.5105
10179SOL    HW131436   6.869   4.927   2.599  1.5328 -0.6126 -1.1193
10179SOL    HW231437   6.787   4.884   2.734  1.6790  1.5069 -0.3120
10180SOL     OW31438   5.241   4.009   6.542 -0.3633  0.0751  0.1304
10180SOL    HW131439   5.324   4.026   6.596 -0.8098 -1.3185  1.3194
10180SOL    HW231440   5.168   4.069   6.574 -0.8291 -1.2301  1.6333
10181SOL     OW31441   4.788   4.121   6.337 -0.4027 -0.2181  0.2830
10181SOL    HW131442   4.775   4.134   6.435 -0.9967 -0.1957  0.2079
10181SOL    HW231443   4.787   4.210   6.291 -0.8528 -0.2754  0.1772
10182SOL     OW31444   4.282   2.883   5.707 -0.2598 -0.0397 -0.5820
10182SOL    HW131445   4.369   2.926   5.728  0.6243 -1.7872 -0.4600
10182SOL    HW231446   4.207   2.947   5.725  0.9112  1.0514  0.5813
10183SOL     OW31447   0.226   0.136   5.679  0.1643  0.5629 -0.2219
10183SOL    HW131448   0.147   0.198   5.678  0.0604  0.4521  0.5427
10183SOL    HW231449   0.310   0.190   5.689 -0.0689  0.5139  3.0277
10184SOL     OW31450   5.476   3.708   1.178 -0.5645  0.0341  0.3719
10184SOL    HW131451   5.544   3.654   1.227  0.3148  1.2825  0.5867
10184SOL    HW231452   5.517   3.744   1.094 -1.7747 -1.3251 -0.8630
10185SOL     OW31453   6.735   5.154   5.427 -0.1404 -0.4586  0.1880
10185SOL    HW131454   6.680   5.218   5.373  0.3014 -1.1235 -1.0935
10185SOL    HW231455   6.831   5.182   5.423  0.0688 -1.2400 -0.4651
10186SOL     OW31456   5.605   2.651   3.369 -0.6703 -0.4389 -0.0729
10186SOL    HW131457   5.574   2.674   3.277  3.5476  1.0215 -1.3729
10186SOL    HW231458   5.652   2.563   3.368  1.2794  0.5551  0.1030
10187SOL     OW31459   3.815   1.531   2.321 -0.2167 -0.3056 -0.1286
10187SOL    HW131460   3.855   1.570   2.404  0.7730 -0.1200 -0.6842
10187SOL    HW231461   3.749   1.595   2.282  1.4025  0.8997 -1.0447
10188SOL     OW31462   5.300   4.551   2.886  0.4933  0.3098  0.4642
10188SOL    HW131463   5.241   4.628   2.910 -0.1568  0.5016 -1.6024
10188SOL    HW231464   5.283   4.475   2.949 -0.4658  1.0645  1.1429
10189SOL     OW31465   1.406   3.134   5.851 -0.2739  0.0453 -0.4279
10189SOL    HW131466   1.337   3.197   5.888  0.4508 -0.2826  1.6228
10189SOL    HW231467   1.359   3.060   5.802 -1.5847 -0.8423  1.9405
10190SOL     OW31468   1.407   6.771   5.433 -0.4586 -0.1126  0.5369
10190SOL    HW131469   1.323   6.730   5.470  0.1273 -0.6002  1.3483
10190SOL    HW231470   1.383   6.848   5.374 -1.5163 -0.7223  0.1429
10191SOL     OW31471   4.949   4.744   2.199  0.4783  0.1993  0.5135
10191SOL    HW131472   5.033   4.758   2.147 -0.2845 -1.3931 -1.2210
10191SOL    HW231473   4.928   4.828   2.250  1.7245  1.5135 -1.0205
10192SOL     OW31474   4.227   3.038   0.515 -0.3464 -0.0849 -0.9711
10192SOL    HW131475   4.210   3.135   0.532  0.4804 -0.2562  1.1330
10192SOL    HW231476   4.307   3.029   0.456  2.0583  0.5539  1.9746
10193SOL     OW31477   2.479   3.404   0.050 -0.6843  0.0780 -0.0243
10193SOL    HW131478   2.548   3.332   0.042 -1.0005 -0.3236  0.7798
10193SOL    HW231479   2.402   3.371   0.103 -0.5472  1.2182  0.9232
10194SOL     OW31480   4.917   3.081   2.728 -0.4154 -0.4271  1.2421
10194SOL    HW131481   4.867   3.015   2.672 -0.8370 -0.6530  1.8703
10194SOL    HW231482   4.917   3.170   2.683  0.5264 -0.9483  0.1780
10195SOL     OW31483   3.193   6.709   6.768 -0.3227  0.5697  0.3485
10195SOL    HW131484   3.119   6.725   6.833 -1.0538 -1.0108 -0.0573
10195SOL    HW231485   3.156   6.667   6.685  1.1567 -1.3102  0.5778
10196SOL     OW31486   6.656   5.563   5.110 -0.7309 -0.5404 -0.1039
10196SOL    HW131487   6.754   5.585   5.101 -0.6992 -0.7447 -0.2507
10196SOL    HW231488   6.603   5.647   5.103 -0.4741 -0.1877  1.5819
10197SOL     OW31489   4.677   1.807   4.164 -0.6131  0.1702  0.6859
10197SOL    HW131490   4.717   1.764   4.244 -1.5902  0.2794  1.2485
10197SOL    HW231491   4.684   1.745   4.086  0.1271 -0.0315  0.9036
10198SOL     OW31492   6.062   3.907   6.689  0.0867 -0.2199 -0.4226
10198SOL    HW131493   6.071   4.006   6.682  1.3889 -0.2031  0.9724
10198SOL    HW231494   6.139   3.870   6.741 -1.6673 -1.6695  1.3021
10199SOL     OW31495   1.300   4.538   2.779 -0.5653 -0.6431 -0.2432
10199SOL    HW131496   1.349   4.523   2.693 -1.9606  0.9032 -1.3779
10199SOL    HW231497   1.323   4.629   2.814  1.1003 -1.7741  1.8584
10200SOL     OW31498   1.452   5.957   4.942 -0.4419 -0.2913 -0.4239
10200SOL    HW131499   1.457   5.859   4.961  0.8528  0.1087  1.5999
10200SOL    HW231500   1.369   5.995   4.982 -0.0952 -0.2715  0.2753
10201SOL     OW31501   0.307   3.606   5.173  0.3359  0.9492 -1.0297
10201SOL    HW131502   0.218   3.650   5.175  0.2870  0.9144  1.3768
10201SOL    HW231503   0.377   3.672   5.201  0.5287  0.1131  0.6143
10202SOL     OW31504   2.007   6.751   6.716 -0.7456 -0.0278  0.2489
10202SOL    HW131505   1.993   6.769   6.813  2.7790  1.3944  0.6621
10202SOL    HW231506   1.980   6.657   6.694 -2.1786 -0.1846  2.4086
10203SOL     OW31507   1.243   3.410   1.102 -0.1289  0.3256 -0.6736
10203SOL    HW131508   1.197   3.352   1.169  0.7765  1.0540  0.6303
10203SOL    HW231509   1.296   3.481   1.150  1.5924  0.0941 -2.1091
10204SOL     OW31510   2.280   0.364   4.337 -0.0302  0.1796  0.3082
10204SOL    HW131511   2.208   0.299   4.361 -0.7960  1.2620  1.0697
10204SOL    HW231512   2.285   0.435   4.407  2.2168 -0.1957  0.5949
10205SOL     OW31513   4.212   1.726   6.313  0.0142 -0.3110 -0.8298
10205SOL    HW131514   4.146   1.745   6.240  0.2561  0.5562 -0.8271
10205SOL    HW231515   4.295   1.780   6.299  0.4340 -0.8371 -0.4216
10206SOL     OW31516   4.077   2.951   0.113 -0.5611 -0.0946  0.2044
10206SOL    HW131517   4.150   2.900   0.159 -1.3526  0.0845  1.7326
10206SOL    HW231518   3.992   2.897   0.117 -1.0106  0.6160  0.3542
10207SOL     OW31519   1.012   6.064   6.529 -0.6633  0.1266  0.6996
10207SOL    HW131520   1.086   6.082   6.464 -0.8022  0.0046  0.5075
10207SOL    HW231521   0.986   6.150   6.574 -0.2619  0.1327  0.9208
10208SOL     OW31522   5.265   5.138   2.110 -0.1851 -0.2763 -0.1332
10208SOL    HW131523   5.278   5.063   2.175  0.5515 -0.6117 -0.6495
10208SOL    HW231524   5.267   5.102   2.017  0.1069  0.3787 -0.3863
10209SOL     OW31525   5.293   4.010   3.307  0.2183  0.4780  0.5875
10209SOL    HW131526   5.371   3.971   3.356 -0.0439 -1.8287 -0.7252
10209SOL    HW231527   5.209   3.964   3.336 -0.3152  1.1237  0.0847
10210SOL     OW31528   3.228   6.477   5.614 -0.3180  0.6221  0.2676
10210SOL    HW131529   3.172   6.429   5.546 -0.2584 -0.0330  0.6750
10210SOL    HW231530   3.304   6.418   5.642  0.8624  1.6741 -0.6280
10211SOL     OW31531   6.295   6.088   2.373 -0.0837  0.5229 -0.3891
10211SOL    HW131532   6.298   6.116   2.469  1.7381 -1.8273  0.3518
10211SOL    HW231533   6.252   5.998   2.366  0.6815  0.2242 -1.6069
10212SOL     OW31534   5.490   0.830   6.383 -0.2090  0.1055 -0.0655
10212SOL    HW131535   5.492   0.732   6.399  0.2970  0.2521  0.8162
10212SOL    HW231536   5.447   0.849   6.294  2.7929 -1.1542 -1.9450
10213SOL     OW31537   5.457   2.136   2.136 -0.1946  0.2205 -0.0342
10213SOL    HW131538   5.449   2.072   2.212 -0.9686 -0.1246 -0.3953
10213SOL    HW231539   5.530   2.104   2.074 -0.2484 -0.0519  0.0399
10214SOL     OW31540   3.519   4.837   0.539  0.0647  0.6898  0.1960
10214SOL    HW131541   3.458   4.814   0.615 -0.6853  0.1441 -0.5604
10214SOL    HW231542   3.475   4.905   0.481 -0.4341 -0.6973 -1.1111
10215SOL     OW31543   5.783   4.108   0.006  0.3963 -0.1817 -0.2688
10215SOL    HW131544   5.788   4.119   0.105  1.0729 -0.2191 -0.2896
10215SOL    HW231545   5.823   4.020  -0.020  2.5885  0.8726 -0.7592
10216SOL     OW31546   6.162   0.004   5.013  0.7651  0.2632  0.0500
10216SOL    HW131547   6.250  -0.031   4.980  1.0235  0.1130  0.8678
10216SOL    HW231548   6.117  -0.067   5.068  1.1380  1.0488  1.4416
10217SOL     OW31549   4.252   6.430   2.005 -0.4936  0.1059 -0.3003
10217SOL    HW131550   4.152   6.435   2.005 -0.5183  0.6217  1.8297
10217SOL    HW231551   4.281   6.335   1.993 -1.2529 -0.1362 -0.2567
10218SOL     OW31552   3.975   4.132   1.424  0.0884 -0.9575 -0.1458
10218SOL    HW131553   3.885   4.138   1.381  0.9193  2.8130 -1.6837
10218SOL    HW231554   4.037   4.083   1.363 -0.1978 -1.0350 -0.3821
10219SOL     OW31555   0.891   1.420   2.812  0.3837 -0.6779 -0.3980
10219SOL    HW131556   0.991   1.415   2.821  0.7167  1.6942 -1.9890
10219SOL    HW231557   0.865   1.401   2.718 -0.4679  0.4594 -0.4126
10220SOL     OW31558   0.984   1.397   0.648  0.2186  0.3221  0.1100
10220SOL    HW131559   0.940   1.384   0.737  2.1056 -0.2414  0.9929
10220SOL    HW231560   0.914   1.394   0.576 -1.0121 -2.5492  1.2684
10221SOL     OW31561   0.543   2.329   0.785  0.1174  0.7386 -0.0333
10221SOL    HW131562   0.524   2.255   0.850 -3.1502  1.0143 -0.4955
10221SOL    HW231563   0.501   2.414   0.819 -0.6631  1.1541 -1.9198
10222SOL     OW31564   0.127   2.376   1.323  0.1149 -0.4368  0.1231
10222SOL    HW131565   0.065   2.443   1.282  0.5919  0.5103  0.9178
10222SOL    HW231566   0.221   2.395   1.295  0.0740 -1.9237 -1.1482
10223SOL     OW31567   1.515   5.617   5.515 -0.7877 -0.2816  0.0176
10223SOL    HW131568   1.419   5.640   5.530 -1.6495 -3.2178 -0.1703
10223SOL    HW231569   1.521   5.550   5.441  1.3993 -0.3562  0.2058
10224SOL     OW31570   0.926   4.784   0.766  0.6711  0.2768 -0.1652
10224SOL    HW131571   0.955   4.703   0.714  0.5616 -0.5952  1.0743
10224SOL    HW231572   0.941   4.866   0.712  1.6186 -0.5024 -1.1179
10225SOL     OW31573   5.185   6.316   3.469 -0.4168 -0.1979  0.1415
10225SOL    HW131574   5.175   6.398   3.413  1.0454  0.1457  0.3449
10225SOL    HW231575   5.246   6.252   3.423 -0.3538 -0.5284  0.6735
10226SOL     OW31576   1.867   4.051   6.753 -0.2124  0.2818  0.0956
10226SOL    HW131577   1.886   4.149   6.749 -0.6592  0.3536 -0.3633
10226SOL    HW231578   1.947   4.000   6.722  0.9824  0.3840  2.7111
10227SOL     OW31579   0.863   5.418   3.753 -0.4316  0.0272 -0.3744
10227SOL    HW131580   0.859   5.383   3.660  0.6341  3.4791 -1.8692
10227SOL    HW231581   0.956   5.448   3.774 -0.7330 -0.3390  1.6767
10228SOL     OW31582   1.964   5.767   0.646  0.6867 -0.2003  0.4006
10228SOL    HW131583   1.969   5.735   0.551  1.2511 -1.5358  0.8471
10228SOL    HW231584   2.049   5.813   0.670  0.8587 -0.5611  0.4884
10229SOL     OW31585   6.978   2.612   4.394 -0.4457 -0.0652 -0.1871
10229SOL    HW131586   7.003   2.528   4.346  0.8325  1.0618 -1.6068
10229SOL    HW231587   6.966   2.593   4.492 -0.2742 -1.8939 -0.4974
10230SOL     OW31588   4.140   3.475   6.552  0.4471  0.0976  0.4741
10230SOL    HW131589   4.156   3.440   6.460 -0.8986 -1.7636  0.8959
10230SOL    HW231590   4.196   3.424   6.617  2.1301  2.0415  0.6580
10231SOL     OW31591   6.983   3.655   1.688 -0.0166 -0.3126  0.4544
10231SOL    HW131592   7.000   3.745   1.649 -2.4474  0.6555  1.4128
10231SOL    HW231593   7.067   3.621   1.730  1.5100  0.5070 -1.7435
10232SOL     OW31594   4.989   2.886   6.903 -0.1749 -0.0380 -0.0133
10232SOL    HW131595   5.021   2.928   6.988  2.0197 -0.2869 -0.6751
10232SOL    HW231596   5.016   2.790   6.901 -0.9490 -0.2561 -0.6374
10233SOL     OW31597   2.392   6.008   6.809  0.1954  0.0654 -0.6072
10233SOL    HW131598   2.323   5.968   6.748  0.9449 -2.3752  0.0517
10233SOL    HW231599   2.409   6.103   6.782  0.0200 -0.7094 -3.7500
10234SOL     OW31600   2.348   1.081   1.552 -0.7253 -0.6127  0.5668
10234SOL    HW131601   2.390   1.165   1.519  0.9559 -1.6251  0.0091
10234SOL    HW231602   2.288   1.101   1.629 -1.9181  1.3347 -0.7935
10235SOL     OW31603   5.584   1.234   5.135 -0.1598  0.4400 -0.1728
10235SOL    HW131604   5.549   1.266   5.224 -0.3496  0.3478 -0.2143
10235SOL    HW231605   5.672   1.189   5.149 -0.7335 -0.6167  0.1315
10236SOL     OW31606   3.419   1.073   3.256 -0.2051 -0.2878  0.2776
10236SOL    HW131607   3.437   0.981   3.288 -0.8001 -0.0097  1.4530
10236SOL    HW231608   3.471   1.090   3.172 -0.2617 -1.7540 -0.0838
10237SOL     OW31609   2.551   1.841   2.390  0.5998 -0.4283  0.1138
10237SOL    HW131610   2.485   1.898   2.438  1.4408  1.2301 -0.6200
10237SOL    HW231611   2.643   1.859   2.425  1.1144  0.1434 -1.4344
10238SOL     OW31612   0.054   1.878   6.163 -0.0723  0.0669 -0.3924
10238SOL    HW131613  -0.029   1.833   6.196  0.0769  1.0371  1.4780
10238SOL    HW231614   0.128   1.811   6.156 -0.5581 -0.4856 -0.3239
10239SOL     OW31615   0.520   0.014   3.992 -0.0464 -0.3862 -0.5519
10239SOL    HW131616   0.599   0.040   3.936  0.7778 -4.3795 -1.5655
10239SOL    HW231617   0.551  -0.006   4.085  0.2269 -1.9833 -0.9577
10240SOL     OW31618   4.805   3.673   1.779  0.7532 -0.1741 -0.2032
10240SOL    HW131619   4.872   3.646   1.709  1.4221  1.3100 -0.1900
10240SOL    HW231620   4.718   3.627   1.762  1.2118 -0.6495 -1.3901
10241SOL     OW31621   6.655   0.735   6.321  0.4101  0.0802  0.2742
10241SOL    HW131622   6.637   0.738   6.419  1.1153 -1.7139  0.5045
10241SOL    HW231623   6.658   0.828   6.284 -2.5144  0.7159  1.4176
10242SOL     OW31624   1.393   0.631   5.556  0.3771 -0.1111 -0.1489
10242SOL    HW131625   1.462   0.563   5.534  0.1771  0.2131 -1.8925
10242SOL    HW231626   1.434   0.703   5.612  1.3592 -0.1435 -0.8103
10243SOL     OW31627   4.149   5.276   6.691  0.3601  0.4994  0.7984
10243SOL    HW131628   4.147   5.177   6.698 -2.4532  0.2708 -1.3987
10243SOL    HW231629   4.244   5.308   6.684  1.2851 -2.0330  0.8771
10244SOL     OW31630   3.576   6.456   1.309  0.0594 -0.5088 -0.3474
10244SOL    HW131631   3.550   6.537   1.257 -0.0672 -0.9908 -1.0594
10244SOL    HW231632   3.529   6.455   1.397  0.2628  0.3118 -0.2242
10245SOL     OW31633   1.916   4.864   3.042 -0.6271 -0.9555 -0.0857
10245SOL    HW131634   1.989   4.846   3.108 -0.8217 -1.5607 -0.0314
10245SOL    HW231635   1.849   4.926   3.082 -0.0744 -0.2783 -0.1867
10246SOL     OW31636   3.700   3.766   2.944 -0.0040  0.0184  0.7730
10246SOL    HW131637   3.743   3.699   2.884 -0.1611  1.8370 -1.4824
10246SOL    HW231638   3.771   3.819   2.992  0.1494 -0.3994  1.0097
10247SOL     OW31639   2.490   1.670   5.467  0.2901  0.0240 -0.3431
10247SOL    HW131640   2.583   1.646   5.496  0.0745  0.0832  0.4448
10247SOL    HW231641   2.425   1.634   5.534 -0.0972  2.1540  0.5313
10248SOL     OW31642   1.246   4.462   4.277  0.2290  0.0270 -0.2385
10248SOL    HW131643   1.289   4.537   4.327 -0.6260  0.2675  0.1457
10248SOL    HW231644   1.185   4.499   4.208  1.3557 -0.3067 -1.4429
10249SOL     OW31645   5.265   5.840   1.355  0.4455 -0.6049 -0.2151
10249SOL    HW131646   5.206   5.830   1.435 -0.6256 -2.3072 -1.1600
10249SOL    HW231647   5.225   5.791   1.278  3.1667 -1.9625 -0.8776
10250SOL     OW31648   3.867   5.063   1.964  0.2315  0.1938  0.6257
10250SOL    HW131649   3.868   5.157   1.929  0.1429 -0.0357  0.0072
10250SOL    HW231650   3.942   5.051   2.029  1.0419  0.3138 -0.2781
10251SOL     OW31651   3.096   1.291   6.817  0.1840 -0.4073  0.3041
10251SOL    HW131652   3.059   1.336   6.898  1.1087  1.6945 -0.3851
10251SOL    HW231653   3.154   1.214   6.846 -2.4484 -2.1393  1.4622
10252SOL     OW31654   4.895   5.050   4.749  0.6361 -0.2169  0.7766
10252SOL    HW131655   4.912   5.036   4.846  2.5149  0.7296  0.6164
10252SOL    HW231656   4.810   5.004   4.724  0.4652 -1.0575  2.7073
10253SOL     OW31657   5.600   5.718   6.226 -0.3322 -0.6265  0.3804
10253SOL    HW131658   5.506   5.750   6.222  0.2691  1.1649 -0.2632
10253SOL    HW231659   5.643   5.726   6.136  1.1096  0.8254  1.1448
10254SOL     OW31660   5.962   0.732   1.664 -0.2098  0.1078  0.1583
10254SOL    HW131661   6.002   0.804   1.721  0.2106  0.0158 -0.0144
10254SOL    HW231662   5.936   0.654   1.721  0.2851 -0.0158  0.2155
10255SOL     OW31663   0.536   5.538   3.608  0.5633 -0.1942  0.8436
10255SOL    HW131664   0.614   5.598   3.589  0.8976 -1.2220 -1.4478
10255SOL    HW231665   0.566   5.442   3.604 -0.7786 -0.6106 -0.0836
10256SOL     OW31666   2.610   0.535   6.381 -0.4147  0.7450  0.3235
10256SOL    HW131667   2.608   0.500   6.475 -0.1326  2.3361  0.9483
10256SOL    HW231668   2.519   0.569   6.356 -0.0636  2.0346  0.7216
10257SOL     OW31669   1.496   5.979   0.021 -0.2365 -0.1620  0.1613
10257SOL    HW131670   1.479   5.880   0.015 -1.2152  0.0229 -0.3688
10257SOL    HW231671   1.585   5.999  -0.021 -1.0726 -0.5589 -1.9277
10258SOL     OW31672   2.160   4.870   3.165  0.0454 -0.2739 -0.1959
10258SOL    HW131673   2.248   4.913   3.184  0.3162 -0.0076 -1.8993
10258SOL    HW231674   2.162   4.775   3.196 -0.1602  0.5327  2.5486
10259SOL     OW31675   3.937   6.895   1.888  0.2958  0.4419 -0.6193
10259SOL    HW131676   3.948   6.949   1.805  0.6603  0.1436 -0.7679
10259SOL    HW231677   3.842   6.865   1.896 -0.4019  2.7254  0.4799
10260SOL     OW31678   3.460   0.509   5.232  0.5684 -0.7514  0.3847
10260SOL    HW131679   3.421   0.480   5.145 -0.0848 -1.3279  0.8618
10260SOL    HW231680   3.387   0.527   5.298  1.0622 -2.3345  1.4482
10261SOL     OW31681   5.319   5.513   4.527  0.2187 -0.3233  0.2127
10261SOL    HW131682   5.379   5.449   4.574  1.1014 -1.4126 -2.2563
10261SOL    HW231683   5.373   5.574   4.468 -0.9571 -0.6595 -1.2990
10262SOL     OW31684   3.972   6.594   4.468  0.3349 -0.5967 -0.1875
10262SOL    HW131685   3.980   6.563   4.374  1.3909  0.6284 -0.5284
10262SOL    HW231686   3.973   6.694   4.470 -1.7564 -0.5341  0.9630
10263SOL     OW31687   6.046   5.222   1.004  0.2992 -0.3780  0.0834
10263SOL    HW131688   6.143   5.217   0.979  0.0490 -1.6643 -0.7166
10263SOL    HW231689   5.993   5.162   0.944 -1.1378  1.0033 -0.0941
10264SOL     OW31690   5.070   3.466   0.993 -0.5587  0.6806  0.3858
10264SOL    HW131691   5.088   3.513   1.079 -1.4829  0.3063  0.7927
10264SOL    HW231692   5.009   3.388   1.009  0.2998 -0.1810 -0.4031
10265SOL     OW31693   5.014   1.246   1.076 -0.4411  0.0236  0.6185
10265SOL    HW131694   5.011   1.164   1.134 -0.2971 -0.9946 -0.7660
10265SOL    HW231695   5.086   1.235   1.007 -1.4367  0.6503 -0.5522
10266SOL     OW31696   5.216   3.341   0.650  0.6182  0.2441 -0.6286
10266SOL    HW131697   5.222   3.378   0.557  3.2286 -0.1422 -0.6850
10266SOL    HW231698   5.260   3.405   0.713  2.6041 -1.3834 -0.3044
10267SOL     OW31699   1.056   3.452   3.161  0.4776 -0.3440  0.0620
10267SOL    HW131700   1.053   3.423   3.065  2.1368 -0.6559  0.0813
10267SOL    HW231701   1.025   3.547   3.168  1.0927 -0.0601 -0.8970
10268SOL     OW31702   3.587   4.356   6.112 -0.0006  0.1617 -0.7354
10268SOL    HW131703   3.651   4.425   6.147 -1.4699  1.5936 -0.7177
10268SOL    HW231704   3.580   4.281   6.177  1.6309 -0.0347 -0.7401
10269SOL     OW31705   2.599   5.111   6.628  0.1614 -0.2403 -0.5161
10269SOL    HW131706   2.511   5.118   6.580 -1.7289 -0.4514  2.6588
10269SOL    HW231707   2.621   5.199   6.670  0.0513 -0.8825  0.9439
10270SOL     OW31708   6.665   3.287   0.490 -0.0257 -0.0993 -0.0214
10270SOL    HW131709   6.587   3.334   0.448 -2.7712 -4.1882 -0.0339
10270SOL    HW231710   6.666   3.304   0.588 -0.1814  0.9008 -0.1828
10271SOL     OW31711   6.841   0.189   2.981  0.2892 -0.8228 -0.2832
10271SOL    HW131712   6.776   0.161   3.051 -1.8292 -1.4494 -2.3511
10271SOL    HW231713   6.908   0.251   3.021 -1.4090 -0.3328  2.0596
10272SOL     OW31714   5.752   4.915   5.868 -0.3712 -0.1160 -0.0384
10272SOL    HW131715   5.727   4.966   5.786 -0.3113  0.5301  0.3428
10272SOL    HW231716   5.681   4.925   5.937 -0.2059 -0.2826  0.1568
10273SOL     OW31717   6.531   0.469   0.165  0.4156 -0.1223 -0.1832
10273SOL    HW131718   6.520   0.481   0.067 -1.0744  0.9424  0.0874
10273SOL    HW231719   6.488   0.545   0.214  1.3810 -0.4678  1.3025
10274SOL     OW31720   2.179   5.838   5.815 -0.3250 -0.6735 -0.3796
10274SOL    HW131721   2.154   5.888   5.732 -1.5852  0.2947  0.5574
10274SOL    HW231722   2.102   5.837   5.879  0.4616 -1.8112  0.6033
10275SOL     OW31723   2.999   6.283   2.500 -0.0178 -0.0346 -0.1353
10275SOL    HW131724   3.012   6.311   2.405  0.1391 -0.7754 -0.3407
10275SOL    HW231725   2.901   6.282   2.521  0.0050  1.4640  0.1372
10276SOL     OW31726   4.840   3.171   1.789  0.1098 -0.0506 -0.0370
10276SOL    HW131727   4.901   3.162   1.868 -0.2076  1.2032  0.3895
10276SOL    HW231728   4.763   3.108   1.799  0.8379 -0.9687 -0.1075
10277SOL     OW31729   4.833   1.604   0.434  0.4476 -0.7045 -0.7263
10277SOL    HW131730   4.926   1.640   0.435  0.6884 -1.2970 -1.2709
10277SOL    HW231731   4.799   1.599   0.528  0.2632  1.2580 -0.6594
10278SOL     OW31732   3.108   0.151   5.234 -0.6597 -0.5652  0.0633
10278SOL    HW131733   3.171   0.080   5.264  2.2927  1.2111 -1.3940
10278SOL    HW231734   3.064   0.193   5.313 -0.5399 -2.3001  1.0953
10279SOL     OW31735   5.534   1.651   1.114  0.2352 -0.1327  0.3420
10279SOL    HW131736   5.561   1.642   1.209 -0.9462 -1.0189  0.6189
10279SOL    HW231737   5.445   1.698   1.108  0.0567 -0.5254 -0.2791
10280SOL     OW31738   6.010   3.432   0.872 -0.5274 -0.0119 -0.0133
10280SOL    HW131739   5.961   3.461   0.790 -1.2879  0.4328  0.5804
10280SOL    HW231740   5.982   3.490   0.949  0.0362 -0.5382  0.5948
10281SOL     OW31741   0.369   3.510   4.218  0.1787 -0.5518  0.2090
10281SOL    HW131742   0.344   3.430   4.163 -1.5377  0.2881 -0.3316
10281SOL    HW231743   0.292   3.574   4.219  0.6335  0.0339  2.5873
10282SOL     OW31744   1.587   1.212   4.408  0.3369 -0.5590  0.3388
10282SOL    HW131745   1.652   1.137   4.395  1.1777  0.1054  0.6070
10282SOL    HW231746   1.624   1.296   4.369 -1.2033 -0.5381 -1.2102
10283SOL     OW31747   3.662   3.614   0.221 -0.9882  0.1659 -0.8509
10283SOL    HW131748   3.677   3.517   0.240 -2.5490  0.1888  0.7359
10283SOL    HW231749   3.735   3.668   0.263 -0.6036 -0.2526 -0.9677
10284SOL     OW31750   0.356   3.162   6.441  0.2940  0.3853 -0.0457
10284SOL    HW131751   0.273   3.165   6.385  0.9447  1.0695 -0.9911
10284SOL    HW231752   0.379   3.066   6.461 -0.1814  0.1516 -0.5806
10285SOL     OW31753   0.129   0.170   4.574 -0.1314 -0.2613  0.3273
10285SOL    HW131754   0.033   0.182   4.599  0.0986 -1.0521  1.6774
10285SOL    HW231755   0.187   0.226   4.633  0.3041 -0.6449  0.2744
10286SOL     OW31756   4.117   4.668   5.740  0.2912 -0.3394 -0.6077
10286SOL    HW131757   4.094   4.729   5.816  0.0948 -1.0532 -0.0799
10286SOL    HW231758   4.129   4.575   5.775  0.1642 -0.6847 -1.4575
10287SOL     OW31759   4.133   2.277   1.892  0.0255 -0.4645  0.3350
10287SOL    HW131760   4.064   2.204   1.888  1.1244 -1.4577 -1.3515
10287SOL    HW231761   4.126   2.334   1.810 -0.4676  1.0808  1.3845
10288SOL     OW31762   5.501   4.415   0.454  0.0046  1.1451 -0.7485
10288SOL    HW131763   5.530   4.474   0.379 -0.3340  4.2770  1.3840
10288SOL    HW231764   5.403   4.396   0.445 -0.0867  1.7070 -0.9907
10289SOL     OW31765   0.135   1.408   1.933 -0.2203 -0.2848 -0.1489
10289SOL    HW131766   0.205   1.448   1.873  0.2196 -0.1831  0.4249
10289SOL    HW231767   0.051   1.463   1.928 -1.2082 -1.8116 -2.8194
10290SOL     OW31768   0.057   4.139   5.404 -1.1360  0.1022 -0.1244
10290SOL    HW131769   0.086   4.075   5.333 -2.8136 -2.5490  1.3790
10290SOL    HW231770   0.130   4.147   5.473 -0.1944  1.3231 -1.2207
10291SOL     OW31771   3.934   1.100   2.787  0.3243  0.4156 -0.1001
10291SOL    HW131772   3.906   1.004   2.781 -0.3366  0.6363 -0.5709
10291SOL    HW231773   4.026   1.105   2.826 -0.7092 -0.2490  2.6481
10292SOL     OW31774   6.258   0.822   1.946  0.7339  0.0097  0.0436
10292SOL    HW131775   6.268   0.728   1.914  1.1471 -1.9373  5.0387
10292SOL    HW231776   6.177   0.830   2.003  1.1744  2.5255  0.4664
10293SOL     OW31777   5.332   2.659   4.222 -0.0540  0.2078  0.0308
10293SOL    HW131778   5.402   2.725   4.194  0.2733 -0.0431  0.2455
10293SOL    HW231779   5.344   2.574   4.171 -1.1677  0.6772 -1.0637
10294SOL     OW31780   6.103   3.489   1.340  0.3945  0.4488  0.5088
10294SOL    HW131781   6.042   3.568   1.339  0.6927  0.6918  1.1164
10294SOL    HW231782   6.056   3.411   1.382  0.9635  1.0384  2.3398
10295SOL     OW31783   2.026   6.484   5.718 -0.3679  0.3157  0.1695
10295SOL    HW131784   2.065   6.575   5.709 -2.3507  1.0858 -1.5933
10295SOL    HW231785   1.954   6.485   5.787 -1.8255  0.7028 -1.2824
10296SOL     OW31786   6.624   3.334   2.851 -0.6802 -0.1408 -0.6992
10296SOL    HW131787   6.603   3.422   2.895 -1.2885 -1.9716  3.0675
10296SOL    HW231788   6.721   3.313   2.864 -1.1478 -1.3436  1.2986
10297SOL     OW31789   1.464   5.653   6.985 -0.1404 -0.6423 -0.3602
10297SOL    HW131790   1.475   5.572   6.927 -1.7976 -1.0170 -0.1922
10297SOL    HW231791   1.371   5.655   7.022  0.8015 -0.3121  2.1631
10298SOL     OW31792   1.436   0.803   6.496  0.0344 -0.2025 -0.1315
10298SOL    HW131793   1.471   0.754   6.576  0.8959 -0.9551 -0.9359
10298SOL    HW231794   1.504   0.798   6.422 -0.9402  0.0572 -1.0694
10299SOL     OW31795   4.800   0.326   6.171  0.8225 -0.1405 -0.2125
10299SOL    HW131796   4.753   0.257   6.116 -0.5826  0.3365  0.3449
10299SOL    HW231797   4.868   0.281   6.229  0.4199 -0.9736 -0.3710
10300SOL     OW31798   4.764   4.635   5.203  0.3236  0.4392 -0.8224
10300SOL    HW131799   4.851   4.615   5.247 -0.4716  1.8862  1.5570
10300SOL    HW231800   4.721   4.549   5.174  1.7580 -0.4079 -0.5452
10301SOL     OW31801   6.509   2.117   3.552 -0.7728  0.9844 -0.1496
10301SOL    HW131802   6.485   2.088   3.460  2.3347  0.4375 -0.8864
10301SOL    HW231803   6.484   2.046   3.618  0.8671 -0.5961 -1.1524
10302SOL     OW31804   0.930   5.303   2.007  0.2311  0.0378  0.4531
10302SOL    HW131805   0.905   5.359   2.086 -0.0096 -1.6032  1.5784
10302SOL    HW231806   0.865   5.320   1.933 -1.3137 -0.5053  1.6234
10303SOL     OW31807   1.891   3.523   5.125  0.0738 -0.0140  0.4026
10303SOL    HW131808   1.882   3.622   5.110 -0.0084 -0.3706 -2.4826
10303SOL    HW231809   1.956   3.485   5.059 -2.5616 -2.3619 -1.0871
10304SOL     OW31810   1.147   2.155   5.670 -0.1492 -0.3200  0.1628
10304SOL    HW131811   1.134   2.108   5.757  1.6617  2.9793  2.4209
10304SOL    HW231812   1.076   2.225   5.660  0.2610 -0.0001 -0.5419
10305SOL     OW31813   6.636   2.510   4.524 -0.4310 -0.1381  0.6038
10305SOL    HW131814   6.551   2.460   4.542 -0.8656  0.7196  1.0221
10305SOL    HW231815   6.710   2.445   4.507 -1.2947 -0.9000 -0.3633
10306SOL     OW31816   3.830   0.504   0.515  1.2304 -0.3141 -0.0275
10306SOL    HW131817   3.884   0.448   0.577 -1.1596 -1.5995  1.0556
10306SOL    HW231818   3.862   0.493   0.422  2.3708 -1.5333  0.4856
10307SOL     OW31819   5.024   5.252   4.315  0.4960 -0.0087  0.2609
10307SOL    HW131820   5.109   5.203   4.336  1.4402  1.8521  0.9840
10307SOL    HW231821   5.010   5.325   4.382 -1.1688  0.3694 -0.4463
10308SOL     OW31822   2.272   1.273   2.995 -0.5366  0.1291 -0.0033
10308SOL    HW131823   2.334   1.324   2.935 -1.5664  2.4484  0.7487
10308SOL    HW231824   2.219   1.338   3.050 -0.9561 -1.8521  2.0962
10309SOL     OW31825   5.955   4.536   4.394  0.3540  0.6348 -0.1499
10309SOL    HW131826   5.972   4.439   4.409  0.9908  0.7209 -0.2621
10309SOL    HW231827   5.861   4.550   4.363 -0.7269  0.3362  2.6868
10310SOL     OW31828   1.412   2.454   1.880  0.3563 -0.2144 -0.2776
10310SOL    HW131829   1.458   2.395   1.814  0.0746 -0.1566 -0.5258
10310SOL    HW231830   1.456   2.445   1.969  0.1226 -1.0325 -0.2405
10311SOL     OW31831   6.782   6.733   6.896  0.3734  0.7233 -0.3315
10311SOL    HW131832   6.805   6.667   6.968 -1.5374  2.0695  1.6091
10311SOL    HW231833   6.690   6.715   6.862  0.4528  1.3963 -0.9202
10312SOL     OW31834   1.283   4.572   3.134 -0.1972 -0.0806 -0.0676
10312SOL    HW131835   1.195   4.603   3.100 -0.9510 -0.5833  1.3450
10312SOL    HW231836   1.272   4.484   3.180  0.1740  1.7310  3.8556
10313SOL     OW31837   3.410   0.307   4.848 -0.5161 -0.1810  0.1078
10313SOL    HW131838   3.492   0.278   4.799  0.7127 -0.1763  2.0924
10313SOL    HW231839   3.329   0.286   4.792  0.8607  2.1952 -3.1201
10314SOL     OW31840   0.806   5.042   6.838  0.2608  0.1882 -0.1790
10314SOL    HW131841   0.846   5.123   6.881 -1.2143  0.6867  0.3164
10314SOL    HW231842   0.877   4.972   6.826  1.4541  1.3591 -0.1819
10315SOL     OW31843   1.202   2.606   5.181 -0.4975 -0.3139  0.1307
10315SOL    HW131844   1.230   2.524   5.131 -0.8838 -0.3477 -0.0286
10315SOL    HW231845   1.279   2.638   5.237  0.6375  0.8466 -1.9437
10316SOL     OW31846   4.883   0.567   6.310  0.4304 -0.1744 -0.2648
10316SOL    HW131847   4.884   0.509   6.228 -0.0250  1.5738 -1.5742
10316SOL    HW231848   4.798   0.554   6.359 -1.0905  1.5433 -2.2558
10317SOL     OW31849   6.833   5.373   4.438 -0.0513 -0.0287 -0.3983
10317SOL    HW131850   6.931   5.376   4.420  0.4846 -0.7274  2.0571
10317SOL    HW231851   6.801   5.464   4.465 -0.0671  0.1436 -0.9676
10318SOL     OW31852   2.698   6.381   0.930  0.2567 -0.0022  0.3452
10318SOL    HW131853   2.745   6.309   0.982 -0.8003 -0.5986  0.5115
10318SOL    HW231854   2.663   6.450   0.993  0.4079  0.1413  0.2725
10319SOL     OW31855   6.400   1.612   3.856  0.5081  0.5814 -0.3782
10319SOL    HW131856   6.437   1.629   3.947  3.4579 -3.9721 -0.4043
10319SOL    HW231857   6.475   1.595   3.792 -1.4751 -1.7332 -2.3308
10320SOL     OW31858   2.755   5.064   4.710 -0.3167  0.4823 -0.0114
10320SOL    HW131859   2.734   5.022   4.798  1.1179  1.6598  0.9370
10320SOL    HW231860   2.850   5.047   4.687 -1.0962 -1.3665 -2.2756
10321SOL     OW31861   6.117   0.583   6.342  0.0826 -0.8223  0.6636
10321SOL    HW131862   6.111   0.557   6.439 -0.0681 -1.9540  0.3699
10321SOL    HW231863   6.031   0.561   6.296 -0.9015  2.2370  0.8085
10322SOL     OW31864   5.242   5.613   0.640 -0.2311 -0.2077 -0.6402
10322SOL    HW131865   5.145   5.590   0.637  0.0742 -1.4956 -1.5413
10322SOL    HW231866   5.291   5.543   0.692  0.4018 -0.3359 -1.3917
10323SOL     OW31867   6.920   6.791   5.475  0.0768 -0.8038  0.2485
10323SOL    HW131868   6.902   6.880   5.517 -0.5589 -0.7331 -0.1598
10323SOL    HW231869   6.982   6.803   5.397 -0.9852 -0.5334 -0.5735
10324SOL     OW31870   0.000   1.387   4.985  0.5341 -0.0124 -0.1803
10324SOL    HW131871  -0.084   1.335   5.000 -0.5053  1.5951 -0.1942
10324SOL    HW231872   0.008   1.459   5.054  0.7700  1.2272 -1.4552
10325SOL     OW31873   2.692   5.028   1.095 -0.1947 -0.1693 -0.1364
10325SOL    HW131874   2.644   5.055   1.011  0.6176 -0.7160 -0.7866
10325SOL    HW231875   2.788   5.014   1.075  0.2665  0.8932  1.1465
10326SOL     OW31876   2.869   2.898   1.328 -0.6514  0.6375  0.2545
10326SOL    HW131877   2.945   2.958   1.351  0.2321 -0.5528  0.5200
10326SOL    HW231878   2.866   2.821   1.392 -0.5023 -0.6961 -1.2813
10327SOL     OW31879   3.854   2.819   0.127 -0.1178 -0.5065  0.0508
10327SOL    HW131880   3.813   2.741   0.078 -3.1450  1.5269 -0.9575
10327SOL    HW231881   3.814   2.825   0.219 -0.5734  0.3331 -0.1938
10328SOL     OW31882   0.804   0.311   5.877  0.3216 -0.5866  0.1287
10328SOL    HW131883   0.824   0.350   5.967 -0.9614  0.7484 -0.1045
10328SOL    HW231884   0.733   0.366   5.832 -2.1811 -3.6007  0.0356
10329SOL     OW31885   5.016   2.264   3.827  0.2508 -0.1323 -0.3393
10329SOL    HW131886   5.029   2.269   3.728  0.0337 -0.5530 -0.3926
10329SOL    HW231887   5.034   2.170   3.858 -0.3860 -0.1699 -0.0786
10330SOL     OW31888   1.744   5.112   3.223 -0.1280 -0.2094  0.0668
10330SOL    HW131889   1.663   5.088   3.275 -0.1285 -0.1458  0.0960
10330SOL    HW231890   1.821   5.127   3.284 -0.4520  1.1771  0.1740
10331SOL     OW31891   1.832   5.701   3.809  0.2253 -0.1827  0.0182
10331SOL    HW131892   1.881   5.723   3.725  0.1264 -0.6574 -0.1676
10331SOL    HW231893   1.733   5.709   3.793  0.2215  2.2880  0.8038
10332SOL     OW31894   3.995   4.900   3.016 -0.1430  0.3775 -0.0571
10332SOL    HW131895   3.913   4.859   3.055  1.0993 -0.4120  1.8997
10332SOL    HW231896   4.061   4.827   2.993  1.6418  1.0917  2.3718
10333SOL     OW31897   2.949   4.762   0.551 -0.1878 -0.1890  0.0288
10333SOL    HW131898   3.007   4.707   0.612 -2.4461 -2.0041  0.7066
10333SOL    HW231899   2.965   4.736   0.456 -0.3782 -1.2287  0.2683
10334SOL     OW31900   4.468   1.555   4.541  0.4618 -0.0856  0.2493
10334SOL    HW131901   4.409   1.608   4.602  0.1695 -0.3230  0.1748
10334SOL    HW231902   4.430   1.556   4.449  0.4715 -0.3994  0.2412
10335SOL     OW31903   0.732   2.494   5.914  0.0324  0.7697  0.4184
10335SOL    HW131904   0.680   2.569   5.876  0.4562  1.3408  0.9359
10335SOL    HW231905   0.826   2.496   5.878 -0.3229 -0.3553 -0.6493
10336SOL     OW31906   0.321   1.783   6.188  0.4660  0.1521 -0.5369
10336SOL    HW131907   0.350   1.688   6.200 -0.1583 -0.0420 -0.5409
10336SOL    HW231908   0.399   1.838   6.157  1.5051  0.1553  1.8225
10337SOL     OW31909   1.219   6.655   5.569 -0.2355  0.2042  0.1801
10337SOL    HW131910   1.139   6.600   5.547  0.2410  0.1924 -1.7799
10337SOL    HW231911   1.194   6.728   5.633 -1.3057 -1.0481  1.2322
10338SOL     OW31912   6.404   2.809   0.603 -0.8107 -0.1600  0.2396
10338SOL    HW131913   6.494   2.819   0.560 -0.5174  1.4290  1.1221
10338SOL    HW231914   6.338   2.865   0.554 -1.1875 -0.8225 -0.0175
10339SOL     OW31915   4.102   3.823   0.090 -0.2632 -0.3755 -0.2215
10339SOL    HW131916   4.201   3.817   0.080 -0.4202 -0.5111 -1.9803
10339SOL    HW231917   4.071   3.749   0.150  0.6844 -0.3208  0.3644
10340SOL     OW31918   5.678   3.195   5.797  0.5457 -0.3764  0.0718
10340SOL    HW131919   5.625   3.225   5.717  1.9834 -0.5003 -0.9476
10340SOL    HW231920   5.684   3.095   5.798  0.1124 -0.4063  0.6371
10341SOL     OW31921   5.875   4.644   0.725  0.2655  0.3906 -0.7636
10341SOL    HW131922   5.886   4.632   0.824  0.3707 -2.0277 -1.0046
10341SOL    HW231923   5.785   4.611   0.697  0.8143 -0.4303 -1.6391
10342SOL     OW31924   1.757   3.832   2.037 -0.2021  0.1665  0.2491
10342SOL    HW131925   1.765   3.733   2.024  1.4934 -0.1314  2.7559
10342SOL    HW231926   1.829   3.878   1.985 -1.7179  0.2751 -1.8869
10343SOL     OW31927   0.405   6.654   1.388 -0.0028 -0.2672  0.3265
10343SOL    HW131928   0.331   6.687   1.330 -0.0418 -1.0592 -0.0872
10343SOL    HW231929   0.451   6.577   1.344 -0.0263 -0.8819  1.3380
10344SOL     OW31930   3.560   2.876   5.000 -0.1041 -0.2401  0.3859
10344SOL    HW131931   3.586   2.959   5.049 -0.1491  0.5299 -0.8658
10344SOL    HW231932   3.555   2.800   5.065  2.3669  0.1702  1.1859
10345SOL     OW31933   6.592   0.073   4.458 -0.3519  0.1181  0.0437
10345SOL    HW131934   6.523   0.099   4.526 -2.3188 -1.5540 -1.1865
10345SOL    HW231935   6.610  -0.025   4.465  2.3043  0.5854  0.6102
10346SOL     OW31936   4.243   1.052   1.454  0.3643 -0.3098 -0.0014
10346SOL    HW131937   4.218   1.067   1.550  0.8664  1.1905 -0.0875
10346SOL    HW231938   4.298   0.969   1.446  0.2822 -0.4665  0.9916
10347SOL     OW31939   4.660   0.470   4.907 -0.0620 -0.2296  0.4174
10347SOL    HW131940   4.680   0.416   4.825 -0.9954  0.4181 -0.2520
10347SOL    HW231941   4.622   0.410   4.977 -0.6770 -0.5343 -0.1594
10348SOL     OW31942   1.764   1.814   4.244 -0.5247 -1.0149  0.1677
10348SOL    HW131943   1.787   1.863   4.328 -2.3023 -0.9779  0.6748
10348SOL    HW231944   1.848   1.784   4.199  0.5458  0.7599  0.8604
10349SOL     OW31945   2.043   4.555   6.964  0.0243  0.7110  0.4221
10349SOL    HW131946   2.092   4.467   6.960 -0.2897  0.5575 -0.2403
10349SOL    HW231947   2.023   4.577   7.059 -0.8318 -0.4725  0.5432
10350SOL     OW31948   3.700   0.013   3.875 -0.2692 -0.1638 -0.5291
10350SOL    HW131949   3.651   0.080   3.930 -0.5841 -1.1886  0.4945
10350SOL    HW231950   3.643  -0.016   3.798  0.4758  1.8529 -1.9153
10351SOL     OW31951   0.719   4.804   4.489 -0.6560  0.1008 -0.4953
10351SOL    HW131952   0.649   4.775   4.424 -3.2724  1.2760  1.5987
10351SOL    HW231953   0.683   4.876   4.547  1.3197 -1.1865  2.6021
10352SOL     OW31954   6.309   6.112   4.128  0.2823 -0.4262  0.2880
10352SOL    HW131955   6.268   6.128   4.039  1.1779  0.1232 -0.0338
10352SOL    HW231956   6.243   6.065   4.187 -0.5989 -0.0603 -0.3905
10353SOL     OW31957   5.569   3.560   5.390  0.1357 -0.0038  0.3227
10353SOL    HW131958   5.550   3.658   5.386 -1.5868 -0.3388 -0.6473
10353SOL    HW231959   5.615   3.532   5.305  0.8994  0.0074  0.7280
10354SOL     OW31960   2.315   2.788   3.567  0.2114  0.7447  0.4458
10354SOL    HW131961   2.321   2.690   3.547 -1.0288  0.7184  0.1050
10354SOL    HW231962   2.338   2.803   3.663 -0.8983 -0.0863  0.8804
10355SOL     OW31963   4.473   6.192   0.076 -0.0549 -0.2726 -0.1474
10355SOL    HW131964   4.394   6.211   0.017 -0.4658 -1.3187  0.0436
10355SOL    HW231965   4.447   6.125   0.146  0.5472  0.6228  0.9595
10356SOL     OW31966   2.836   5.204   5.967 -0.1421 -0.8739 -0.0494
10356SOL    HW131967   2.849   5.105   5.972 -0.0263 -0.8048  1.2608
10356SOL    HW231968   2.753   5.229   6.016  1.1591 -0.0732  1.8427
10357SOL     OW31969   6.159   6.878   5.519  0.1130  0.5875 -0.1445
10357SOL    HW131970   6.233   6.887   5.586 -2.0449  0.0150  2.5049
10357SOL    HW231971   6.112   6.966   5.509  1.0451  0.9373 -1.7788
10358SOL     OW31972   6.866   2.159   0.910 -0.2991  0.1006 -0.2620
10358SOL    HW131973   6.923   2.077   0.921  0.3017  0.5567  0.0991
10358SOL    HW231974   6.824   2.158   0.819 -0.2613 -0.5839 -0.2774
10359SOL     OW31975   6.098   5.845   3.976  0.4928 -0.1105  0.0475
10359SOL    HW131976   6.069   5.784   3.901  1.1628 -0.6979  0.2501
10359SOL    HW231977   6.129   5.932   3.938 -0.9030  0.2859 -0.2149
10360SOL     OW31978   1.187   6.197   6.348  0.8216  0.0141 -0.0900
10360SOL    HW131979   1.245   6.276   6.367  0.3514  0.6541 -1.2359
10360SOL    HW231980   1.105   6.226   6.298 -1.0680 -0.6850  2.3456
10361SOL     OW31981   6.987   5.958   5.716  0.4693  0.5872 -0.5895
10361SOL    HW131982   7.046   5.961   5.797 -0.2760  1.8423 -0.0607
10361SOL    HW231983   7.038   5.920   5.639  0.3841 -3.4028  1.0871
10362SOL     OW31984   2.764   5.640   6.662  0.1832  0.0248 -0.2898
10362SOL    HW131985   2.722   5.693   6.589  0.6809  0.8986  0.0338
10362SOL    HW231986   2.791   5.550   6.627 -2.2356 -0.7185 -0.4061
10363SOL     OW31987   0.037   4.619   4.026 -0.0954  0.5619  0.4139
10363SOL    HW131988  -0.044   4.674   4.044  0.1232  0.4850  1.6861
10363SOL    HW231989   0.083   4.653   3.944 -1.7089  0.2526 -0.6646
10364SOL     OW31990   0.792   1.011   0.435 -0.2629  0.5831 -0.1505
10364SOL    HW131991   0.781   0.913   0.455 -0.7282  0.6898  0.1336
10364SOL    HW231992   0.857   1.022   0.361 -1.8088 -0.0887 -1.6843
10365SOL     OW31993   6.174   1.218   1.609 -0.5122  0.5940  1.1683
10365SOL    HW131994   6.145   1.254   1.520 -1.0884 -1.9754  0.2102
10365SOL    HW231995   6.274   1.214   1.613 -0.4750  1.1473  0.8170
10366SOL     OW31996   0.459   5.731   2.363 -0.2250 -0.3864 -0.0990
10366SOL    HW131997   0.365   5.731   2.332 -0.4800  1.2673  0.6063
10366SOL    HW231998   0.518   5.690   2.293 -1.3220 -0.5271 -0.9513
10367SOL     OW31999   3.700   6.747   5.901  0.6577  0.4255 -0.1933
10367SOL    HW132000   3.724   6.650   5.910  1.7796  0.5448 -1.4436
10367SOL    HW232001   3.604   6.760   5.925  0.8153 -0.7659  1.2515
10368SOL     OW32002   1.971   5.129   1.835 -0.1487  0.5079  0.0550
10368SOL    HW132003   1.908   5.109   1.909 -1.0579  0.8593 -0.6046
10368SOL    HW232004   2.063   5.141   1.871  0.0634 -2.4311  0.7901
10369SOL     OW32005   5.189   1.788   6.319 -0.0486  0.2209  0.4517
10369SOL    HW132006   5.165   1.778   6.416  1.0624  0.7927  0.8036
10369SOL    HW232007   5.276   1.836   6.311 -0.3152  0.5260 -0.8573
10370SOL     OW32008   5.704   4.279   2.120 -0.4835  0.4227 -0.2538
10370SOL    HW132009   5.762   4.307   2.043 -1.6441  1.7924 -0.6681
10370SOL    HW232010   5.608   4.300   2.099 -1.0031 -0.6600  0.9203
10371SOL     OW32011   4.941   0.889   6.012 -0.1989 -0.2381 -0.4440
10371SOL    HW132012   4.901   0.861   6.100  0.8158 -3.2208 -0.8198
10371SOL    HW232013   4.868   0.924   5.953 -1.1097  0.6107  1.1071
10372SOL     OW32014   3.384   1.293   0.106 -0.7560 -0.2981 -0.5208
10372SOL    HW132015   3.367   1.211   0.160  0.9363 -0.4406 -0.1231
10372SOL    HW232016   3.395   1.371   0.168 -0.4664 -0.1433 -0.7658
10373SOL     OW32017   3.593   6.427   2.366 -0.3099  0.3725  0.4190
10373SOL    HW132018   3.630   6.511   2.326 -0.8901 -0.6783 -2.6235
10373SOL    HW232019   3.663   6.381   2.420  1.3606  0.8207 -1.2552
10374SOL     OW32020   6.056   2.644   3.400 -0.9823  0.1579  0.0742
10374SOL    HW132021   5.997   2.564   3.388 -0.7040  0.0290 -0.4549
10374SOL    HW232022   6.035   2.712   3.330 -0.4655  0.0921 -0.1428
10375SOL     OW32023   6.786   0.463   6.833 -0.0384  0.2910  0.0226
10375SOL    HW132024   6.864   0.521   6.810  0.4586 -0.7497 -1.0794
10375SOL    HW232025   6.819   0.380   6.880 -0.4802 -0.0768 -0.3082
10376SOL     OW32026   3.085   4.677   5.905 -0.2442 -0.5979 -0.6372
10376SOL    HW132027   3.139   4.663   5.988  0.3952  0.6381 -0.8309
10376SOL    HW232028   3.131   4.743   5.846 -2.1484  0.8116 -0.6373
10377SOL     OW32029   5.551   2.217   0.424  0.1783 -0.2946 -0.0856
10377SOL    HW132030   5.510   2.303   0.393 -0.7529 -0.8789 -0.5116
10377SOL    HW232031   5.499   2.182   0.502 -0.1140 -1.0179 -0.5979
10378SOL     OW32032   5.075   4.335   3.818  0.0392  0.1010 -0.1035
10378SOL    HW132033   5.058   4.371   3.910 -0.6482  1.5367 -0.7613
10378SOL    HW232034   4.998   4.276   3.791  0.6616 -1.0398  0.5677
10379SOL     OW32035   5.173   4.816   1.599 -0.5087 -0.3476 -0.1450
10379SOL    HW132036   5.163   4.888   1.529  2.2837  2.4610  2.0659
10379SOL    HW232037   5.093   4.817   1.659  0.4102  2.7757  1.2574
10380SOL     OW32038   4.486   2.492   0.636  0.2748  0.0544 -0.0555
10380SOL    HW132039   4.573   2.454   0.668 -0.3538 -0.3416  1.2548
10380SOL    HW232040   4.461   2.570   0.693  0.5729  1.2320 -1.4870
10381SOL     OW32041   4.628   4.762   4.991 -0.1095 -0.0969 -0.4008
10381SOL    HW132042   4.689   4.713   5.054  0.6185 -0.3425 -1.2830
10381SOL    HW232043   4.615   4.708   4.909 -0.1776  0.7052 -0.9259
10382SOL     OW32044   4.394   3.311   0.199 -0.1121  0.0452  0.3690
10382SOL    HW132045   4.358   3.402   0.178 -4.1283 -0.4568  3.8344
10382SOL    HW232046   4.349   3.243   0.140  0.9950  0.0410 -0.4936
10383SOL     OW32047   1.041   4.733   4.608 -0.2322 -0.0198 -0.3913
10383SOL    HW132048   1.097   4.688   4.539 -2.0298 -1.8225 -0.7547
10383SOL    HW232049   0.946   4.704   4.599 -0.6231 -0.0111  2.5865
10384SOL     OW32050   2.138   4.540   6.646  0.0782  0.0080 -0.2907
10384SOL    HW132051   2.066   4.605   6.672  0.1504  0.1186 -0.3625
10384SOL    HW232052   2.190   4.579   6.570 -1.2627 -1.0685 -1.8302
10385SOL     OW32053   0.874   6.196   1.012  0.0871 -0.8669  0.0767
10385SOL    HW132054   0.883   6.246   0.926 -0.9734 -1.4712 -0.4021
10385SOL    HW232055   0.782   6.211   1.049  1.3017  1.5825  2.5219
10386SOL     OW32056   5.689   0.389   0.393  0.0901  0.2230 -0.1610
10386SOL    HW132057   5.657   0.335   0.315  0.5458  0.1672 -0.3118
10386SOL    HW232058   5.660   0.484   0.382 -0.4025  0.0841 -0.0761
10387SOL     OW32059   3.477   6.697   3.458  0.6304 -0.1989  0.1474
10387SOL    HW132060   3.468   6.603   3.491 -0.7924 -0.5815 -1.2046
10387SOL    HW232061   3.428   6.759   3.519  1.2165 -0.3764  0.8098
10388SOL     OW32062   3.601   2.574   5.852  0.1271 -0.6600 -0.0483
10388SOL    HW132063   3.638   2.616   5.769 -1.1866  0.8491  0.0823
10388SOL    HW232064   3.547   2.494   5.828  0.6169 -0.8475 -0.5398
10389SOL     OW32065   1.975   1.302   5.751 -0.0884  0.0100 -0.0787
10389SOL    HW132066   2.036   1.247   5.694 -1.5201 -0.5119 -1.1796
10389SOL    HW232067   2.028   1.371   5.800  1.4571 -0.8716 -0.4280
10390SOL     OW32068   4.767   1.502   3.185 -0.1008 -0.1026 -0.4663
10390SOL    HW132069   4.697   1.540   3.124  1.1006  2.4619 -0.3643
10390SOL    HW232070   4.857   1.517   3.145  0.5250 -3.9422 -0.9160
10391SOL     OW32071   2.510   0.477   5.257  1.0798 -0.1378  0.0954
10391SOL    HW132072   2.460   0.396   5.229  0.4640  0.7109 -1.3880
10391SOL    HW232073   2.516   0.480   5.357 -0.9864 -0.7789  0.2832
10392SOL     OW32074   4.014   4.281   1.142  0.1948  0.1119 -0.2542
10392SOL    HW132075   3.957   4.200   1.135  1.0794 -0.5452 -0.0312
10392SOL    HW232076   4.035   4.300   1.238  1.0784 -0.1877 -0.3755
10393SOL     OW32077   6.198   1.240   2.812 -0.7802 -0.5921  0.1357
10393SOL    HW132078   6.216   1.165   2.876  0.3591  0.7900  1.5327
10393SOL    HW232079   6.280   1.297   2.805 -1.4675  0.2601 -1.2546
10394SOL     OW32080   5.799   4.580   3.963 -0.1532 -0.1618  0.1436
10394SOL    HW132081   5.764   4.573   4.057 -1.2807 -0.7343 -0.2996
10394SOL    HW232082   5.883   4.634   3.963  0.1027 -0.5186  1.5392
10395SOL     OW32083   1.487   3.751   0.684  0.3066 -0.1302 -0.0112
10395SOL    HW132084   1.510   3.654   0.692 -1.3480 -0.4152  2.1568
10395SOL    HW232085   1.570   3.804   0.669  1.5543 -1.6728  1.1398
10396SOL     OW32086   6.800   3.751   1.884  0.6864  0.3052 -0.5839
10396SOL    HW132087   6.704   3.765   1.858  0.8789 -1.5199 -2.5492
10396SOL    HW232088   6.845   3.694   1.815  2.8221 -0.1058  1.0550
10397SOL     OW32089   3.168   6.498   1.426 -0.2133  0.3185 -0.4170
10397SOL    HW132090   3.239   6.434   1.456  1.0200  1.5962 -0.5348
10397SOL    HW232091   3.116   6.456   1.351  0.9474 -0.3316 -0.8954
10398SOL     OW32092   0.270   2.158   1.067 -0.0032 -0.5883 -0.0428
10398SOL    HW132093   0.343   2.122   1.010 -0.3293  0.3159 -1.0553
10398SOL    HW232094   0.227   2.236   1.022 -0.1919  0.2337  1.4963
10399SOL     OW32095   3.901   4.794   1.781  0.2821  0.5819 -0.0248
10399SOL    HW132096   3.948   4.772   1.695  0.7068  0.6650  0.1846
10399SOL    HW232097   3.931   4.731   1.852  1.4517  1.7779  0.5695
10400SOL     OW32098   6.859   1.372   3.348 -0.1860 -0.8343  0.2010
10400SOL    HW132099   6.764   1.403   3.343  0.0234 -0.2328 -0.1657
10400SOL    HW232100   6.916   1.431   3.291  0.1113 -2.4067 -1.2336
10401SOL     OW32101   3.350   1.013   1.148 -0.2243 -0.0010  0.1299
10401SOL    HW132102   3.367   1.009   1.050  1.0758 -0.0369  0.3386
10401SOL    HW232103   3.375   1.103   1.183 -2.0594  0.5225  0.2155
10402SOL     OW32104   3.912   1.770   6.188  0.2413 -0.4133  0.0264
10402SOL    HW132105   3.919   1.827   6.270 -0.5123 -1.5743  0.9330
10402SOL    HW232106   3.817   1.771   6.155  0.6389  0.4724 -1.1810
10403SOL     OW32107   5.035   0.460   4.827  0.1933 -0.0791 -0.1553
10403SOL    HW132108   5.034   0.439   4.729  0.3366 -1.2167  0.0702
10403SOL    HW232109   4.968   0.403   4.874  0.8475 -0.2847  0.5430
10404SOL     OW32110   4.456   4.441   6.826  0.0168  0.1374 -0.0988
10404SOL    HW132111   4.409   4.384   6.893 -0.3660  1.2606  0.6201
10404SOL    HW232112   4.431   4.413   6.734  1.1574 -1.9423  0.1749
10405SOL     OW32113   0.440   3.684   0.527 -0.3538 -0.0994 -0.4131
10405SOL    HW132114   0.371   3.645   0.589 -1.4757  0.3608 -1.3417
10405SOL    HW232115   0.452   3.780   0.549  0.3404 -0.2795  0.0330
10406SOL     OW32116   1.968   3.793   0.538 -0.5710 -0.0604 -0.0109
10406SOL    HW132117   2.024   3.714   0.562 -0.4609 -0.7285 -2.2012
10406SOL    HW232118   2.021   3.877   0.551  0.1889 -0.5350  0.0206
10407SOL     OW32119   3.297   4.255   6.655 -0.3751 -0.5839 -0.2597
10407SOL    HW132120   3.332   4.312   6.730  1.8591 -3.1130  0.7796
10407SOL    HW232121   3.253   4.174   6.694 -2.9560  0.0359 -1.7014
10408SOL     OW32122   6.045   6.635   5.482 -0.5505  0.6906  0.3097
10408SOL    HW132123   6.115   6.570   5.509 -1.1091 -0.3472 -0.6545
10408SOL    HW232124   6.077   6.728   5.501 -0.5169  0.1305  3.5399
10409SOL     OW32125   6.117   1.000   0.240  0.6296 -0.0543  0.4633
10409SOL    HW132126   6.151   0.909   0.218  1.6280  0.6751 -1.2767
10409SOL    HW232127   6.034   1.018   0.187  0.5567  0.1318  0.6390
10410SOL     OW32128   5.016   2.681   6.518 -0.3401  0.6345  0.6587
10410SOL    HW132129   5.090   2.652   6.579 -1.1649  0.5360  1.6332
10410SOL    HW232130   4.988   2.604   6.461  1.3753  1.0761 -0.8990
10411SOL     OW32131   6.397   6.022   3.531  0.5407  0.6018 -0.1864
10411SOL    HW132132   6.417   5.996   3.625  0.3874  0.1851 -0.2684
10411SOL    HW232133   6.438   5.956   3.468  0.2012  0.5881 -0.3969
10412SOL     OW32134   2.298   4.925   1.302  0.4735 -0.6127 -0.3447
10412SOL    HW132135   2.325   4.942   1.207 -0.5729 -1.5420 -0.8262
10412SOL    HW232136   2.202   4.949   1.315  0.9137  0.6491  0.8109
10413SOL     OW32137   3.876   6.754   3.312  0.1979 -0.0162  0.2376
10413SOL    HW132138   3.888   6.658   3.290  1.1724  0.2884 -0.6621
10413SOL    HW232139   3.910   6.771   3.405  0.8875 -0.3861  0.0635
10414SOL     OW32140   3.977   5.101   5.003  0.1706  0.2016 -0.7683
10414SOL    HW132141   4.006   5.092   5.098 -0.6983  0.2201 -0.4990
10414SOL    HW232142   3.899   5.163   4.997  0.9755  1.1873 -1.6491
10415SOL     OW32143   5.317   3.422   2.065 -0.0061  0.3488  0.2758
10415SOL    HW132144   5.383   3.490   2.033  0.3954  0.2457  0.8613
10415SOL    HW232145   5.245   3.467   2.118  0.2689  0.3252  0.6778
10416SOL     OW32146   5.777   0.014   4.646 -0.0620 -0.3243  0.2831
10416SOL    HW132147   5.692   0.066   4.655  0.6428  0.6812  1.4406
10416SOL    HW232148   5.787  -0.049   4.723  1.2744  1.1850  1.4177
10417SOL     OW32149   4.284   1.366   6.533 -0.1495  0.3630 -0.1133
10417SOL    HW132150   4.383   1.370   6.516 -0.1741 -0.4683 -0.5051
10417SOL    HW232151   4.267   1.367   6.632  0.3508 -1.1082  0.0111
10418SOL     OW32152   4.694   0.957   5.589 -0.5734 -0.1601  0.7631
10418SOL    HW132153   4.605   0.999   5.607 -0.1258  0.6285  1.2405
10418SOL    HW232154   4.716   0.965   5.492 -1.2908 -0.9197  0.5296
10419SOL     OW32155   1.895   5.357   6.676  0.3182  0.1401  0.0680
10419SOL    HW132156   1.888   5.393   6.769  1.3139  1.6716 -0.4088
10419SOL    HW232157   1.813   5.381   6.624 -0.7860 -1.7468  0.8323
10420SOL     OW32158   5.098   3.899   0.441 -0.5317  0.2903 -0.6326
10420SOL    HW132159   5.105   3.999   0.441 -0.1668  0.2906  0.9343
10420SOL    HW232160   5.023   3.871   0.500 -0.7332 -0.3680 -1.1896
10421SOL     OW32161   1.499   4.769   2.693 -0.2411  0.5099  0.1995
10421SOL    HW132162   1.530   4.858   2.658 -0.3433  1.3100  2.0516
10421SOL    HW232163   1.576   4.706   2.698  0.6832  1.7223  2.4656
10422SOL     OW32164   0.531   1.232   3.564  0.0245  0.3797 -0.1399
10422SOL    HW132165   0.441   1.270   3.544  0.4121  1.2666 -0.2465
10422SOL    HW232166   0.573   1.284   3.638  0.6201  0.2390 -0.3734
10423SOL     OW32167   6.458   4.624   1.066  0.3320 -0.2166 -0.5794
10423SOL    HW132168   6.471   4.530   1.034 -1.3641  0.1325 -2.4553
10423SOL    HW232169   6.408   4.623   1.153  0.3911 -1.0207 -0.5455
10424SOL     OW32170   2.791   0.185   3.326 -0.7010  0.1785 -0.0156
10424SOL    HW132171   2.831   0.107   3.278  0.2995  1.6272 -1.6490
10424SOL    HW232172   2.693   0.191   3.304 -1.2935 -1.7390  1.7547
10425SOL     OW32173   5.165   0.979   3.216  0.1075 -0.5275 -0.4077
10425SOL    HW132174   5.079   0.962   3.168 -0.5700  0.7150  0.3047
10425SOL    HW232175   5.149   1.045   3.289  1.1924 -2.0149  1.2540
10426SOL     OW32176   0.141   6.498   5.862 -0.0485  0.3477  0.0837
10426SOL    HW132177   0.050   6.515   5.826  0.2977 -1.4080 -1.8062
10426SOL    HW232178   0.134   6.444   5.946 -0.7623 -0.9777 -0.7884
10427SOL     OW32179   0.865   0.629   5.840 -0.3272 -0.3654 -0.2010
10427SOL    HW132180   0.873   0.723   5.871  2.9327 -0.6903  0.3594
10427SOL    HW232181   0.842   0.569   5.917  1.0844 -0.3736  0.2533
10428SOL     OW32182   6.027   3.527   3.613 -0.1149  0.1984  0.3054
10428SOL    HW132183   6.116   3.492   3.643 -0.8110 -1.3325  0.6949
10428SOL    HW232184   5.955   3.463   3.642 -1.3357  1.3729 -0.0613
10429SOL     OW32185   4.732   6.098   0.904 -0.1097  0.7889 -0.0944
10429SOL    HW132186   4.730   6.128   0.999  2.8594 -3.1347  1.5364
10429SOL    HW232187   4.664   6.025   0.890 -0.0786  0.8790 -0.7737
10430SOL     OW32188   1.824   5.680   1.222 -0.4613  0.4871  0.3015
10430SOL    HW132189   1.890   5.738   1.270 -0.9629  0.6547  0.8005
10430SOL    HW232190   1.732   5.701   1.254 -0.7497  0.1713 -0.3032
10431SOL     OW32191   2.716   2.941   0.355  0.1267 -0.1702  0.1725
10431SOL    HW132192   2.660   2.873   0.308 -1.2277  0.6961  0.4717
10431SOL    HW232193   2.774   2.895   0.422 -0.1564 -1.1114 -0.2041
10432SOL     OW32194   5.279   6.418   1.582 -0.3378 -0.6717 -0.1536
10432SOL    HW132195   5.261   6.388   1.489 -1.0626 -0.2954 -0.1366
10432SOL    HW232196   5.347   6.357   1.624  1.0013 -0.0494 -1.3632
10433SOL     OW32197   5.480   3.047   4.805  0.0316  0.2032  0.0572
10433SOL    HW132198   5.499   2.992   4.886 -0.6305 -0.9613 -0.5611
10433SOL    HW232199   5.413   3.000   4.747 -0.0417  1.3439 -0.8265
10434SOL     OW32200   4.185   2.306   4.598 -0.2394 -0.1490  0.1304
10434SOL    HW132201   4.205   2.312   4.696 -0.3832 -0.3337  0.1722
10434SOL    HW232202   4.088   2.285   4.585 -0.3706  0.5690 -0.0661
10435SOL     OW32203   5.577   4.843   0.765 -0.9760  0.3043 -0.1436
10435SOL    HW132204   5.532   4.918   0.815  0.5160  0.8313  0.4579
10435SOL    HW232205   5.660   4.816   0.813 -0.0380  0.1113 -1.7926
10436SOL     OW32206   5.025   2.131   4.995  0.0013 -0.5207 -0.4808
10436SOL    HW132207   5.020   2.108   4.898 -1.1532  1.1427 -0.8540
10436SOL    HW232208   5.020   2.230   5.006  0.9843 -0.6279  1.2451
10437SOL     OW32209   4.128   3.371   2.842 -0.6961  0.3781  0.5767
10437SOL    HW132210   4.098   3.467   2.849 -0.2497  0.4599  1.5298
10437SOL    HW232211   4.223   3.368   2.813 -0.6744  0.2269  0.6634
10438SOL     OW32212   5.794   4.078   0.312 -0.3769  0.5065  0.3679
10438SOL    HW132213   5.764   3.984   0.322 -0.4793  0.4083 -0.6965
10438SOL    HW232214   5.893   4.081   0.298 -0.4572  0.4925 -0.2487
10439SOL     OW32215   4.917   3.315   3.548 -0.0045  0.0520  0.0950
10439SOL    HW132216   4.899   3.293   3.644  0.1413  0.1927  0.1555
10439SOL    HW232217   4.941   3.412   3.541  1.5980 -0.3115  0.1467
10440SOL     OW32218   4.225   1.277   2.085  0.0186  0.2061  0.5189
10440SOL    HW132219   4.245   1.345   2.015 -0.6801  0.8042  0.8694
10440SOL    HW232220   4.127   1.255   2.083  0.4870 -2.0594 -0.6716
10441SOL     OW32221   0.100   1.689   1.586 -0.0963  0.1626 -0.0556
10441SOL    HW132222   0.018   1.634   1.568  0.1519  0.0890 -1.0227
10441SOL    HW232223   0.072   1.780   1.617 -0.5684  0.3302 -0.9275
10442SOL     OW32224   4.061   0.624   0.814  0.0876 -0.4107  0.3427
10442SOL    HW132225   4.118   0.654   0.889 -1.6122  2.1434  0.7344
10442SOL    HW232226   3.989   0.563   0.848 -0.2632  0.1927  0.6994
10443SOL     OW32227   2.173   6.637   6.069  0.1062 -0.1901 -0.6752
10443SOL    HW132228   2.201   6.640   5.973 -1.8727 -1.9758 -1.3644
10443SOL    HW232229   2.195   6.725   6.112  2.3768  0.1517 -2.3178
10444SOL     OW32230   0.968   4.122   0.859 -0.0782 -0.0709 -0.4291
10444SOL    HW132231   0.955   4.030   0.894  1.4595  0.2433  1.1275
10444SOL    HW232232   1.033   4.119   0.782  0.0151 -0.2804 -0.3435
10445SOL     OW32233   3.646   1.433   0.083  0.3947  0.1036  0.1784
10445SOL    HW132234   3.585   1.509   0.062 -1.7325 -1.6162 -0.1286
10445SOL    HW232235   3.617   1.389   0.168  1.2125 -0.7712  0.0211
10446SOL     OW32236   6.331   3.261   4.896  0.0353 -0.4290  0.4323
10446SOL    HW132237   6.395   3.333   4.923  0.4874 -1.2698  1.7113
10446SOL    HW232238   6.238   3.286   4.925 -0.4288  1.1567 -2.1156
10447SOL     OW32239   1.387   2.633   3.539 -0.2959  0.3503 -0.0679
10447SOL    HW132240   1.448   2.712   3.525  2.1012 -1.7623 -3.0844
10447SOL    HW232241   1.400   2.597   3.631  0.9245  1.6430  0.3153
10448SOL     OW32242   0.193   1.646   0.467 -0.1827 -0.2298 -0.8430
10448SOL    HW132243   0.221   1.685   0.379  1.1411 -0.8425 -0.7176
10448SOL    HW232244   0.216   1.549   0.470  1.0504  0.0642  0.6634
10449SOL     OW32245   4.831   1.094   4.205  0.3443 -0.0021 -0.1170
10449SOL    HW132246   4.766   1.091   4.281 -0.5126  0.2791 -0.8182
10449SOL    HW232247   4.916   1.136   4.236 -0.4496  1.3313  0.3731
10450SOL     OW32248   5.930   6.370   3.959 -0.3705 -0.7395 -0.1996
10450SOL    HW132249   5.969   6.415   4.040 -0.9215 -1.9398  0.7725
10450SOL    HW232250   5.959   6.418   3.877 -1.9963  2.2568  0.8016
10451SOL     OW32251   3.129   2.070   0.363 -0.1490 -0.4118 -0.1646
10451SOL    HW132252   3.136   1.971   0.379 -0.8819 -0.2331  1.3459
10451SOL    HW232253   3.046   2.090   0.311 -1.6950 -0.3391  2.2103
10452SOL     OW32254   6.988   0.951   3.512 -0.0716 -0.0088 -0.5224
10452SOL    HW132255   7.013   0.946   3.608  0.5322 -0.3437 -0.6881
10452SOL    HW232256   7.065   0.918   3.456 -0.5277 -0.1184 -1.0962
10453SOL     OW32257   2.400   1.639   0.495  0.2656 -0.0932 -0.1758
10453SOL    HW132258   2.490   1.598   0.479 -0.1686 -0.4785 -1.7594
10453SOL    HW232259   2.409   1.739   0.492  0.7687 -0.1095  0.4949
10454SOL     OW32260   1.453   1.051   3.991 -0.0374 -0.8689  0.4021
10454SOL    HW132261   1.545   1.017   3.975 -0.0396 -0.7804  0.2075
10454SOL    HW232262   1.387   0.978   3.976 -0.0986 -0.5917 -0.7250
10455SOL     OW32263   0.404   6.322   3.724 -0.0370 -0.4814  0.4227
10455SOL    HW132264   0.431   6.293   3.816  3.0483 -0.7000 -0.4441
10455SOL    HW232265   0.406   6.422   3.718 -1.1704 -0.4269  0.8228
10456SOL     OW32266   0.090   6.653   0.974  0.2742  0.2496 -0.1562
10456SOL    HW132267   0.042   6.740   0.968 -0.2791 -0.0049  0.4522
10456SOL    HW232268   0.024   6.578   0.972  0.4675 -0.0662  2.1970
10457SOL     OW32269   3.241   2.884   2.159  0.2263 -0.3267  0.2504
10457SOL    HW132270   3.340   2.874   2.160  0.2641 -0.7044 -1.7178
10457SOL    HW232271   3.198   2.803   2.200  0.7311 -0.6533  0.1369
10458SOL     OW32272   3.691   0.091   6.220 -0.2842 -0.5536  0.5654
10458SOL    HW132273   3.612   0.034   6.241  0.2007 -0.5850  2.4369
10458SOL    HW232274   3.773   0.034   6.216 -0.3349 -0.5875 -1.7652
10459SOL     OW32275   2.950   0.362   0.183  0.0608  0.4826  0.3944
10459SOL    HW132276   2.885   0.409   0.243 -1.4573 -0.6875 -0.2661
10459SOL    HW232277   2.934   0.264   0.188  1.4584  0.2097 -0.1930
10460SOL     OW32278   2.346   1.294   6.688 -0.0453 -0.9283 -0.1722
10460SOL    HW132279   2.397   1.304   6.603 -0.2275 -0.7733 -0.2633
10460SOL    HW232280   2.329   1.384   6.728 -1.3934 -0.8699 -0.8240
10461SOL     OW32281   5.505   3.308   4.722 -0.0005  0.1682 -0.9366
10461SOL    HW132282   5.536   3.317   4.627  1.4666  0.3521 -0.4657
10461SOL    HW232283   5.507   3.212   4.749 -0.3776  0.1206 -1.0674
10462SOL     OW32284   4.155   5.014   6.819 -0.1184 -0.2855  0.0436
10462SOL    HW132285   4.074   5.022   6.878  0.8258  0.2733  1.3003
10462SOL    HW232286   4.237   5.013   6.876  0.8226  0.2879 -1.2732
10463SOL     OW32287   5.279   3.548   0.815  0.7163  0.5202 -0.0732
10463SOL    HW132288   5.247   3.642   0.801  2.6729  1.2221 -0.0546
10463SOL    HW232289   5.223   3.505   0.885  0.0836  1.8214  0.2616
10464SOL     OW32290   2.328   5.181   4.493  0.5800 -0.1043 -0.7086
10464SOL    HW132291   2.377   5.256   4.450  1.4973  0.2971  0.9317
10464SOL    HW232292   2.387   5.138   4.562 -0.4946 -1.2722 -0.4806
10465SOL     OW32293   1.173   1.657   5.487  0.0843 -0.0400  0.1699
10465SOL    HW132294   1.180   1.754   5.509  0.2255  0.4948 -1.9958
10465SOL    HW232295   1.078   1.627   5.497 -0.3299  0.8356 -1.0081
10466SOL     OW32296   6.605   5.182   2.724 -0.1650  0.2252 -0.4738
10466SOL    HW132297   6.599   5.247   2.800  1.7465  1.7214 -1.5033
10466SOL    HW232298   6.561   5.222   2.643  0.7834  0.1685 -1.0412
10467SOL     OW32299   2.176   0.502   2.953 -0.1883 -0.1853 -0.0031
10467SOL    HW132300   2.080   0.506   2.979 -0.8209 -0.5940 -2.0861
10467SOL    HW232301   2.231   0.550   3.021 -1.8046 -0.3031  1.4422
10468SOL     OW32302   1.499   5.234   4.893 -0.3329 -0.6794  0.1794
10468SOL    HW132303   1.572   5.243   4.826 -0.1860  0.5985  0.4904
10468SOL    HW232304   1.428   5.174   4.856 -0.3895  0.2095 -1.2446
10469SOL     OW32305   5.773   2.688   5.147 -0.0836 -0.6022 -0.1274
10469SOL    HW132306   5.721   2.615   5.190 -0.2974 -0.4555 -0.1320
10469SOL    HW232307   5.782   2.669   5.049 -2.5068  0.6880 -0.6969
10470SOL     OW32308   6.988   4.175   2.389  0.3597  0.4459  0.2430
10470SOL    HW132309   7.042   4.237   2.446  1.0311 -1.4243  1.7678
10470SOL    HW232310   7.048   4.132   2.321 -0.3139  2.1953 -1.5323
10471SOL     OW32311   4.467   1.494   5.543  0.0451  1.2712 -0.3347
10471SOL    HW132312   4.511   1.412   5.508  0.0087  0.1287  2.0695
10471SOL    HW232313   4.487   1.571   5.483  0.7536 -0.3118 -2.2279
10472SOL     OW32314   0.596   5.135   3.349 -0.0774  1.1996  0.2264
10472SOL    HW132315   0.672   5.083   3.312  0.4781  0.2602  2.4801
10472SOL    HW232316   0.510   5.091   3.325  0.3785 -1.0080  2.2436
10473SOL     OW32317   4.160   1.496   1.893 -0.3115 -0.0495  0.0814
10473SOL    HW132318   4.070   1.537   1.882 -0.8700 -1.0693  0.6406
10473SOL    HW232319   4.230   1.567   1.898 -1.4698  1.0142  3.4109
10474SOL     OW32320   0.827   4.069   5.958 -0.8343  0.5910 -0.3899
10474SOL    HW132321   0.802   4.014   6.038  0.7218 -0.1787 -0.3851
10474SOL    HW232322   0.813   4.015   5.875 -2.9453  1.5705 -0.7219
10475SOL     OW32323   3.047   2.661   5.455  0.6109 -0.6287  0.3533
10475SOL    HW132324   3.109   2.621   5.387 -1.9704 -1.5769 -1.6064
10475SOL    HW232325   3.016   2.751   5.424 -0.9583 -1.2690 -0.0033
10476SOL     OW32326   0.564   0.051   5.777  0.1245 -0.5365 -0.5218
10476SOL    HW132327   0.485  -0.010   5.784 -0.4579  0.3590  2.1115
10476SOL    HW232328   0.644   0.007   5.819 -0.2862  0.3725  1.3458
10477SOL     OW32329   6.568   6.466   0.640 -0.4585 -0.4779  0.0609
10477SOL    HW132330   6.597   6.383   0.592  1.3490  1.2048 -1.9702
10477SOL    HW232331   6.594   6.459   0.736 -2.3087 -3.1056  0.4709
10478SOL     OW32332   5.104   4.503   4.448 -0.6386  0.0864 -0.2668
10478SOL    HW132333   5.021   4.491   4.393 -0.7401  1.3055 -0.4238
10478SOL    HW232334   5.156   4.582   4.413  0.4572 -0.4999 -0.0077
10479SOL     OW32335   5.211   4.873   2.603 -0.4663  0.4476 -0.4246
10479SOL    HW132336   5.246   4.794   2.554  2.5403  1.3071  0.1144
10479SOL    HW232337   5.139   4.917   2.549 -0.0055 -0.8415 -2.1653
10480SOL     OW32338   0.730   6.851   0.352  0.2127  0.0094 -0.2746
10480SOL    HW132339   0.763   6.827   0.444  0.3100  1.5186  0.1038
10480SOL    HW232340   0.685   6.771   0.312 -0.1332 -0.5847  1.2126
10481SOL     OW32341   6.540   4.897   1.410  0.2298 -0.0751  0.2546
10481SOL    HW132342   6.606   4.851   1.350  0.8654  0.7168  0.3240
10481SOL    HW232343   6.490   4.966   1.358 -0.5002 -0.6314  0.2195
10482SOL     OW32344   2.109   2.607   5.183 -0.3254 -0.0208  0.2283
10482SOL    HW132345   2.186   2.618   5.119 -1.2032  0.5095 -0.7576
10482SOL    HW232346   2.053   2.530   5.154 -1.2316  0.7747 -0.1857
10483SOL     OW32347   5.537   3.607   6.196  0.2082 -0.0157 -0.1832
10483SOL    HW132348   5.474   3.629   6.270 -0.4475 -1.5942 -0.2358
10483SOL    HW232349   5.574   3.691   6.158  0.5682  0.8479  1.9220
10484SOL     OW32350   1.151   0.227   3.854  0.3657  0.1957 -0.5592
10484SOL    HW132351   1.153   0.306   3.915 -0.6339 -1.4846  1.8171
10484SOL    HW232352   1.068   0.173   3.872  1.3490 -1.7523 -1.5529
10485SOL     OW32353   5.632   0.623   4.621 -0.2799 -0.2377 -0.3817
10485SOL    HW132354   5.642   0.540   4.566  1.6266  0.4743 -1.2086
10485SOL    HW232355   5.683   0.697   4.578  0.9294  0.4783  2.1071
10486SOL     OW32356   6.435   2.281   1.090  0.2198  0.2827 -0.1048
10486SOL    HW132357   6.522   2.296   1.138 -0.2560  1.3189  0.4887
10486SOL    HW232358   6.360   2.292   1.155 -0.4071  0.8222 -0.9074
10487SOL     OW32359   1.513   4.305   3.915  0.3120 -0.0920  0.4193
10487SOL    HW132360   1.508   4.208   3.937  0.0716 -0.0502  0.5541
10487SOL    HW232361   1.609   4.334   3.913  0.3327  0.1333  2.4421
10488SOL     OW32362   6.302   2.033   2.941 -0.1480  0.2925 -0.2221
10488SOL    HW132363   6.306   1.982   2.855  1.2691  0.8349 -0.5004
10488SOL    HW232364   6.365   2.110   2.938 -1.4543  1.4560  0.6056
10489SOL     OW32365   4.910   2.932   3.529 -0.2444  0.3742 -0.1258
10489SOL    HW132366   4.857   2.851   3.553  0.6057 -0.3328 -0.5640
10489SOL    HW232367   4.915   2.940   3.430  3.1349 -1.4931 -0.2835
10490SOL     OW32368   5.016   6.850   5.485 -0.5152  0.2524 -0.0288
10490SOL    HW132369   5.052   6.846   5.392  0.8964  0.5784  0.4794
10490SOL    HW232370   5.090   6.837   5.551 -1.4071  0.4889  1.0653
10491SOL     OW32371   2.634   2.186   1.777 -0.0674 -0.2376 -0.1634
10491SOL    HW132372   2.662   2.282   1.766  0.7473 -0.3758  0.5679
10491SOL    HW232373   2.705   2.137   1.828 -0.1720 -1.3898 -1.0952
10492SOL     OW32374   1.084   0.008   1.022  0.2166  0.5907 -0.5366
10492SOL    HW132375   1.176   0.025   0.987 -0.1653  2.5400 -0.7256
10492SOL    HW232376   1.054   0.086   1.077 -0.8883 -0.5156  0.5130
10493SOL     OW32377   0.225   4.949   6.017  0.2282  0.4794  0.7631
10493SOL    HW132378   0.272   4.966   6.104  0.4770  1.9320  0.3786
10493SOL    HW232379   0.149   5.013   6.007  0.7456  0.9487 -0.4588
10494SOL     OW32380   5.497   1.535   6.032 -0.0172 -0.3026 -0.1081
10494SOL    HW132381   5.568   1.558   5.965  2.9217  1.7865  3.3752
10494SOL    HW232382   5.428   1.607   6.033 -0.0116 -0.2824 -0.7670
10495SOL     OW32383   0.549   6.713   2.548  0.0242  0.1746  0.1506
10495SOL    HW132384   0.577   6.647   2.617  2.1561  0.7871 -0.0810
10495SOL    HW232385   0.492   6.783   2.591 -0.5500 -0.6712  0.8042
10496SOL     OW32386   6.917   4.484   1.607  0.1892  0.0065 -0.2868
10496SOL    HW132387   6.868   4.422   1.669  0.4661 -0.6526 -0.7171
10496SOL    HW232388   6.865   4.493   1.522  0.1837  0.3120 -0.2508
10497SOL     OW32389   0.014   1.079   3.071  0.0875  0.0080 -0.3138
10497SOL    HW132390   0.020   1.066   2.972  1.3782  1.3750 -0.4516
10497SOL    HW232391   0.089   1.030   3.116 -0.7993 -1.0391  0.0507
10498SOL     OW32392   2.082   5.279   4.949  0.1243  0.0693 -0.5494
10498SOL    HW132393   1.987   5.290   4.922 -0.0527 -1.3732 -0.6051
10498SOL    HW232394   2.087   5.223   5.032  0.9129  0.3755 -0.3774
10499SOL     OW32395   3.179   2.953   2.686  0.3131  0.5475  0.0229
10499SOL    HW132396   3.142   2.974   2.596 -2.7748  0.1968  1.0635
10499SOL    HW232397   3.149   3.023   2.751  0.5171 -0.4279  1.2026
10500SOL     OW32398   1.006   2.975   2.700  0.0839  0.4579  0.3689
10500SOL    HW132399   1.098   2.937   2.697  0.0089  0.1703  1.4946
10500SOL    HW232400   0.978   2.988   2.795 -0.9358  0.8034  0.0333
10501SOL     OW32401   5.923   2.532   4.725  0.1621  0.4601  0.1273
10501SOL    HW132402   5.962   2.577   4.645 -1.6544 -0.9613 -1.6741
10501SOL    HW232403   5.961   2.440   4.734 -0.8210  0.0061 -0.1390
10502SOL     OW32404   4.601   6.927   4.882 -0.1415 -0.0342  0.0847
10502SOL    HW132405   4.521   6.909   4.940  1.6573 -2.0811  2.1003
10502SOL    HW232406   4.663   6.990   4.929  0.3427  0.0275 -0.6149
10503SOL     OW32407   2.949   6.380   6.311 -0.2412 -0.1270 -0.2082
10503SOL    HW132408   2.875   6.447   6.313 -0.8339 -0.7568 -0.6663
10503SOL    HW232409   2.952   6.336   6.222  0.3310 -0.5067 -0.0097
10504SOL     OW32410   6.888   5.404   3.483  0.4026  0.1270  0.4080
10504SOL    HW132411   6.867   5.348   3.563  0.1290 -0.1338  0.1570
10504SOL    HW232412   6.896   5.500   3.510 -0.2153  0.1095  0.6607
10505SOL     OW32413   1.720   0.812   5.079 -0.1929  0.0817  0.0060
10505SOL    HW132414   1.737   0.839   5.174 -2.2467 -1.1525  0.8020
10505SOL    HW232415   1.778   0.734   5.056  1.1759  1.1282 -0.1856
10506SOL     OW32416   0.322   2.167   3.947  0.1777  0.1053 -0.0699
10506SOL    HW132417   0.266   2.250   3.947  1.0577  0.7109  0.3169
10506SOL    HW232418   0.405   2.183   3.894 -0.1031 -0.8545 -0.8153
10507SOL     OW32419   1.808   4.982   2.429  0.0397 -0.5534 -0.1079
10507SOL    HW132420   1.805   5.004   2.526 -0.6161 -1.4280  0.0844
10507SOL    HW232421   1.893   5.018   2.389 -0.2270  0.8290  0.5170
10508SOL     OW32422   0.034   3.144   5.999 -0.0274 -0.2460  0.0415
10508SOL    HW132423  -0.017   3.060   5.979  0.1925 -0.5581  0.7571
10508SOL    HW232424   0.095   3.128   6.076  1.9477 -0.1993 -1.4164
10509SOL     OW32425   0.874   1.197   5.235  0.0702  0.0086  0.0383
10509SOL    HW132426   0.848   1.293   5.239  0.8996  0.3070 -1.2198
10509SOL    HW232427   0.814   1.144   5.295 -0.6868  1.2339  0.4048
10510SOL     OW32428   2.131   1.549   1.547 -0.1637  0.0663  0.9580
10510SOL    HW132429   2.089   1.638   1.562 -1.5102 -0.3684 -0.0647
10510SOL    HW232430   2.087   1.481   1.606  0.2299 -0.0947  1.0700
10511SOL     OW32431   5.600   1.580   5.127 -0.0251 -0.2837  0.1596
10511SOL    HW132432   5.641   1.592   5.037 -0.3296 -0.4795 -0.0072
10511SOL    HW232433   5.506   1.616   5.127  1.0131  2.7376  1.2986
10512SOL     OW32434   1.674   0.872   2.305 -0.2366  0.1516 -0.6760
10512SOL    HW132435   1.772   0.870   2.320  0.1062 -0.9302 -2.7334
10512SOL    HW232436   1.642   0.967   2.307  1.2405  0.7160 -2.0793
10513SOL     OW32437   0.779   5.048   6.462 -0.3351 -0.3087 -0.3854
10513SOL    HW132438   0.724   5.019   6.384 -1.0738  0.4530 -0.1528
10513SOL    HW232439   0.768   4.983   6.536  0.9423 -1.4466 -1.1316
10514SOL     OW32440   5.961   1.659   0.020 -0.0417 -0.2345  0.3474
10514SOL    HW132441   5.870   1.626   0.044 -1.2249 -0.2151 -3.4298
10514SOL    HW232442   5.986   1.626  -0.071  1.6609  3.6281 -0.7985
10515SOL     OW32443   2.438   2.274   5.380  0.0697 -0.3168  0.2857
10515SOL    HW132444   2.512   2.333   5.347 -0.6765 -0.2719 -1.4551
10515SOL    HW232445   2.425   2.288   5.478  2.4367 -0.4256  0.6833
10516SOL     OW32446   5.950   2.280   3.183 -0.3275 -0.0747 -0.2507
10516SOL    HW132447   5.949   2.272   3.283 -1.0702 -0.5054 -0.2801
10516SOL    HW232448   6.007   2.208   3.144 -1.4985 -1.0575 -0.2055
10517SOL     OW32449   2.193   4.770   3.614  0.3213 -0.8259 -0.3366
10517SOL    HW132450   2.240   4.804   3.695  0.5970 -0.1345 -0.7728
10517SOL    HW232451   2.236   4.808   3.532 -1.7018  0.8119 -0.7361
10518SOL     OW32452   3.690   0.196   2.918 -0.4948 -0.1176  0.0192
10518SOL    HW132453   3.749   0.264   2.875 -0.9032 -0.0443 -0.4338
10518SOL    HW232454   3.682   0.217   3.015  0.5910 -0.3967  0.1832
10519SOL     OW32455   1.291   3.979   6.902 -0.2980  0.4760 -0.4088
10519SOL    HW132456   1.230   3.911   6.944 -1.8974  3.0145  1.6759
10519SOL    HW232457   1.385   3.959   6.928 -0.6719 -1.1446 -0.1579
10520SOL     OW32458   2.102   4.752   5.339 -0.3417  0.0737  0.0497
10520SOL    HW132459   2.143   4.660   5.338  0.1176  0.2784 -0.3213
10520SOL    HW232460   2.173   4.820   5.353 -0.4409  0.4821 -1.2817
10521SOL     OW32461   5.744   5.702   0.638 -0.3903 -0.0297 -0.0941
10521SOL    HW132462   5.834   5.676   0.601  0.1114  1.7707 -0.2109
10521SOL    HW232463   5.673   5.658   0.583  0.3940 -0.0004 -1.1731
10522SOL     OW32464   5.207   0.676   1.037  0.5320  0.4393  0.2903
10522SOL    HW132465   5.168   0.631   1.117  0.5441 -1.9565 -0.9385
10522SOL    HW232466   5.305   0.657   1.033  0.1535 -1.6336 -1.4754
10523SOL     OW32467   4.498   0.764   3.029 -0.4767 -0.1617 -0.8442
10523SOL    HW132468   4.538   0.801   3.113 -0.9395  0.3988 -0.8631
10523SOL    HW232469   4.571   0.732   2.968 -0.1578 -1.0427 -0.0199
10524SOL     OW32470   3.941   2.440   6.535  0.1165  0.6410  0.2566
10524SOL    HW132471   3.915   2.347   6.558  3.1446 -0.2010  0.7845
10524SOL    HW232472   3.910   2.462   6.443 -0.1175 -1.1382 -0.1233
10525SOL     OW32473   2.030   1.077   6.274 -0.0608  0.3633  0.3919
10525SOL    HW132474   1.944   1.097   6.321 -0.0979  1.7006 -0.2031
10525SOL    HW232475   2.100   1.141   6.303  1.4310 -2.0681  2.5566
10526SOL     OW32476   3.757   4.640   6.434 -0.0135  0.1980  0.2192
10526SOL    HW132477   3.735   4.721   6.379 -0.7331 -1.0495 -1.4438
10526SOL    HW232478   3.748   4.661   6.531 -0.1533  2.0985 -0.1778
10527SOL     OW32479   4.130   6.893   1.340  0.8204  0.3722 -0.4752
10527SOL    HW132480   4.050   6.843   1.308 -1.6357  1.8671  2.7900
10527SOL    HW232481   4.132   6.983   1.296 -1.5417  1.7343  1.8704
10528SOL     OW32482   5.130   6.184   5.962 -0.8132  0.1281 -0.0413
10528SOL    HW132483   5.197   6.172   6.034 -1.6075  1.1424  0.9028
10528SOL    HW232484   5.070   6.104   5.958 -0.7084  0.0311  0.3590
10529SOL     OW32485   6.756   4.298   3.609  0.3220 -0.2705 -0.1728
10529SOL    HW132486   6.748   4.265   3.515 -1.5626  1.4388 -0.6905
10529SOL    HW232487   6.799   4.388   3.608  0.7348 -0.4512  0.6741
10530SOL     OW32488   2.878   0.524   4.537  0.0716  0.1683 -0.5552
10530SOL    HW132489   2.799   0.583   4.556  0.9140  1.2202 -0.2555
10530SOL    HW232490   2.887   0.456   4.610 -1.7227 -1.2798 -1.5907
10531SOL     OW32491   2.452   5.331   4.268 -0.3696 -0.2542  0.2653
10531SOL    HW132492   2.376   5.360   4.210 -0.1072 -0.7374 -0.3369
10531SOL    HW232493   2.521   5.404   4.271 -0.0344 -0.5151 -0.6672
10532SOL     OW32494   2.904   2.909   1.639  0.4513  0.2649  0.1208
10532SOL    HW132495   2.974   2.920   1.709  2.1598 -0.2830 -1.4223
10532SOL    HW232496   2.900   2.813   1.610 -0.7759  0.3347 -0.0075
10533SOL     OW32497   0.383   0.624   1.922 -0.1690 -0.5647  0.0299
10533SOL    HW132498   0.477   0.598   1.944 -0.7309 -3.1111 -0.1877
10533SOL    HW232499   0.323   0.600   1.999 -0.7258  0.6388 -0.0038
10534SOL     OW32500   6.936   4.058   0.508  0.1863 -0.5688  0.0644
10534SOL    HW132501   7.027   4.031   0.539  0.2837 -1.8865 -1.3024
10534SOL    HW232502   6.944   4.137   0.447  0.2910 -0.0670  0.7047
10535SOL     OW32503   0.728   4.931   3.570 -0.3672  0.4446 -0.4333
10535SOL    HW132504   0.808   4.886   3.609 -1.9252 -0.6374  1.7237
10535SOL    HW232505   0.750   4.967   3.479  1.6231 -2.6510 -1.3105
10536SOL     OW32506   5.240   4.190   0.643 -0.7218  0.1842 -0.3158
10536SOL    HW132507   5.160   4.197   0.703 -1.3583  0.0920 -1.1254
10536SOL    HW232508   5.281   4.100   0.652  0.2729  0.7591  1.2843
10537SOL     OW32509   0.942   6.511   0.476 -0.3615  0.0122  0.5201
10537SOL    HW132510   0.942   6.550   0.384 -0.0577 -1.3099 -0.0580
10537SOL    HW232511   0.918   6.582   0.542 -1.4891  0.7676 -0.6647
10538SOL     OW32512   5.389   4.149   2.850  0.4308  0.1887 -0.6990
10538SOL    HW132513   5.308   4.102   2.884  2.0261 -2.1381  0.2028
10538SOL    HW232514   5.424   4.100   2.770  1.6559  0.3405 -0.2760
10539SOL     OW32515   5.772   0.134   6.166 -0.4015  0.4649  0.2181
10539SOL    HW132516   5.730   0.225   6.171 -2.5911 -0.4155 -1.1104
10539SOL    HW232517   5.746   0.081   6.247 -1.9886 -0.0869 -0.6123
10540SOL     OW32518   1.006   2.292   0.153  0.3017  0.0201  0.4996
10540SOL    HW132519   1.002   2.389   0.127  0.5752  0.3472  1.6403
10540SOL    HW232520   0.916   2.262   0.184  0.3472  0.0645  0.6763
10541SOL     OW32521   5.967   3.089   6.661 -0.0521  0.0102  0.1064
10541SOL    HW132522   5.974   3.127   6.569  0.8742  0.8252  0.4945
10541SOL    HW232523   5.939   2.993   6.656  1.6044 -0.4487 -1.1194
10542SOL     OW32524   2.861   3.541   2.608 -0.9802 -0.2283  0.2291
10542SOL    HW132525   2.859   3.515   2.512  2.9811 -0.3678  0.0024
10542SOL    HW232526   2.870   3.459   2.665  1.8003 -0.0279  0.2238
10543SOL     OW32527   3.369   2.128   0.032 -0.6443  0.3844  0.3924
10543SOL    HW132528   3.432   2.155  -0.041 -0.1652 -0.1998  0.5822
10543SOL    HW232529   3.319   2.208   0.064  0.1880  0.9031  0.4113
10544SOL     OW32530   2.046   4.557   2.555 -0.3269  0.0105  0.6562
10544SOL    HW132531   1.988   4.638   2.564 -1.4510 -0.8273  1.2402
10544SOL    HW232532   2.080   4.531   2.646 -0.7893 -0.7279  0.6324
10545SOL     OW32533   5.893   4.632   1.145  0.4284  0.1942 -0.3172
10545SOL    HW132534   5.806   4.584   1.144  0.7357 -0.3765 -0.2483
10545SOL    HW232535   5.935   4.624   1.236 -0.3092  2.0827  0.2585
10546SOL     OW32536   1.169   5.336   5.978 -0.1325 -0.0459  0.0653
10546SOL    HW132537   1.235   5.261   5.975  0.1495  0.2455 -1.7757
10546SOL    HW232538   1.078   5.300   5.995 -0.4195 -1.1664 -3.2887
10547SOL     OW32539   2.203   0.182   1.224  0.7072  0.4268 -0.8015
10547SOL    HW132540   2.203   0.279   1.249  0.4598 -0.0468  1.2126
10547SOL    HW232541   2.129   0.135   1.272  2.9042 -1.3880  1.0027
10548SOL     OW32542   3.409   3.486   6.949  0.3767 -0.0864 -0.0371
10548SOL    HW132543   3.465   3.403   6.942 -0.0975 -0.4162  0.0421
10548SOL    HW232544   3.410   3.519   7.043  0.0555 -0.3611  0.0628
10549SOL     OW32545   0.210   4.795   0.467  0.0646  0.3246  0.1616
10549SOL    HW132546   0.283   4.836   0.522  0.8005 -2.0975  1.1473
10549SOL    HW232547   0.239   4.704   0.437 -2.6191 -0.8143  0.7626
10550SOL     OW32548   1.374   4.754   1.175  0.1887 -0.4533 -0.3905
10550SOL    HW132549   1.386   4.656   1.158 -0.7428 -0.4928 -0.8973
10550SOL    HW232550   1.283   4.770   1.213  0.2739  0.2377 -0.4757
10551SOL     OW32551   4.997   5.067   1.662 -0.1241  0.4983 -0.2687
10551SOL    HW132552   5.060   5.068   1.584  0.9285  2.1751  0.5511
10551SOL    HW232553   4.949   5.155   1.668 -2.7674 -0.7835 -0.9809
10552SOL     OW32554   4.122   2.666   1.684 -0.5081 -0.3579  0.0619
10552SOL    HW132555   4.217   2.685   1.657 -0.1969 -1.2115  0.5174
10552SOL    HW232556   4.105   2.568   1.677 -0.2819 -0.7171  3.2414
10553SOL     OW32557   6.010   1.873   0.377  0.1538 -0.0826 -0.7234
10553SOL    HW132558   5.952   1.906   0.304 -1.0593 -2.3593 -0.8750
10553SOL    HW232559   6.106   1.877   0.348 -0.2912 -0.7401 -2.3589
10554SOL     OW32560   2.083   6.379   3.352  0.2679 -0.2843  0.0748
10554SOL    HW132561   2.143   6.440   3.301 -0.4523  0.8564  0.5662
10554SOL    HW232562   2.133   6.342   3.431  0.3902  0.4902  0.3629
10555SOL     OW32563   2.235   6.621   6.576 -0.0305 -0.2640 -0.0520
10555SOL    HW132564   2.168   6.670   6.632  0.2137  2.0551 -1.6365
10555SOL    HW232565   2.190   6.585   6.495  0.3691  0.1041 -0.4425
10556SOL     OW32566   6.437   0.101   3.543  0.2166 -0.3847 -0.3054
10556SOL    HW132567   6.473   0.036   3.610 -0.1928  0.4986  0.8028
10556SOL    HW232568   6.420   0.189   3.588  1.0648  0.6070 -1.8326
10557SOL     OW32569   2.225   2.628   6.549 -0.7106 -0.3535 -0.3859
10557SOL    HW132570   2.242   2.725   6.567 -2.3705  0.0868 -0.9813
10557SOL    HW232571   2.250   2.574   6.629 -0.8798  0.7068  0.4075
10558SOL     OW32572   0.833   3.016   2.502  0.2560  0.6095 -0.1072
10558SOL    HW132573   0.905   3.023   2.572  2.8462 -2.1896 -2.2319
10558SOL    HW232574   0.828   3.102   2.452 -1.0271  2.3605  2.7584
10559SOL     OW32575   2.647   2.960   0.899 -0.1227  0.2108 -0.7736
10559SOL    HW132576   2.604   2.883   0.853  0.0640  0.0561 -0.6942
10559SOL    HW232577   2.577   3.016   0.943 -0.3916  0.9483 -2.1204
10560SOL     OW32578   1.111   6.243   0.465 -0.4309 -0.4008 -0.7249
10560SOL    HW132579   1.098   6.180   0.389  2.1229 -0.4967 -1.1530
10560SOL    HW232580   1.044   6.317   0.458  0.2377  0.0392 -3.5598
10561SOL     OW32581   5.062   4.415   4.089 -0.0046  0.1995 -0.4767
10561SOL    HW132582   5.139   4.366   4.131 -0.7122 -0.7009 -0.2020
10561SOL    HW232583   4.976   4.385   4.130 -0.4540  2.0475  0.0698
10562SOL     OW32584   2.955   1.520   4.556  0.2563 -0.2225 -0.2320
10562SOL    HW132585   3.002   1.573   4.486 -0.9908 -0.2906 -1.1532
10562SOL    HW232586   2.874   1.570   4.587  1.1122  0.0974  1.6369
10563SOL     OW32587   6.194   5.744   6.487  0.3533 -0.2437 -0.1208
10563SOL    HW132588   6.206   5.828   6.542 -0.0326 -0.9084  1.0128
10563SOL    HW232589   6.174   5.667   6.548 -0.2048 -0.9952 -1.2205
10564SOL     OW32590   1.187   1.624   2.916  0.3133  0.1434  0.5975
10564SOL    HW132591   1.279   1.645   2.950  0.5152 -0.6303  0.5558
10564SOL    HW232592   1.121   1.686   2.957  0.6052 -0.4867  2.0676
10565SOL     OW32593   1.462   4.131   2.344  0.0357  0.0595 -0.0280
10565SOL    HW132594   1.403   4.202   2.307 -1.2534 -1.4891 -1.0479
10565SOL    HW232595   1.502   4.163   2.430 -1.5693  1.4803  0.2441
10566SOL     OW32596   6.772   3.101   3.535  0.0385  0.2914 -1.0415
10566SOL    HW132597   6.710   3.124   3.460  0.8902  1.4508 -1.4225
10566SOL    HW232598   6.849   3.165   3.535  1.1771 -1.0311 -0.5082
10567SOL     OW32599   5.989   1.534   3.940 -0.1858 -0.2780  0.4982
10567SOL    HW132600   5.903   1.584   3.934  0.6132  1.2194  1.0293
10567SOL    HW232601   5.971   1.436   3.947 -1.8129 -0.0319 -0.0342
10568SOL     OW32602   3.036   0.521   5.574 -0.1187  0.8166  0.1841
10568SOL    HW132603   2.939   0.545   5.572 -0.0098  1.2637  0.0614
10568SOL    HW232604   3.072   0.537   5.666 -0.8981 -2.4345  1.1838
10569SOL     OW32605   3.725   6.127   5.299  0.1382 -0.3172 -0.3024
10569SOL    HW132606   3.659   6.181   5.351  1.1045  2.1932 -1.4985
10569SOL    HW232607   3.685   6.102   5.211  0.0981 -0.5409 -0.2212
10570SOL     OW32608   3.038   1.491   3.441  0.2762  0.0434  0.5249
10570SOL    HW132609   2.979   1.416   3.413 -0.6954  1.0770 -0.3178
10570SOL    HW232610   3.014   1.519   3.534 -0.0105 -0.0744  0.4895
10571SOL     OW32611   3.293   1.336   6.372 -0.3856  0.3848  0.3902
10571SOL    HW132612   3.320   1.403   6.441  0.6376  0.7668 -0.3647
10571SOL    HW232613   3.373   1.287   6.339 -1.1187 -1.3027  0.9770
10572SOL     OW32614   3.644   2.801   6.640 -0.2127 -0.3732  0.6099
10572SOL    HW132615   3.605   2.893   6.634  1.1651  0.1286 -1.1807
10572SOL    HW232616   3.572   2.733   6.622 -0.4027  0.5303 -2.5411
10573SOL     OW32617   4.050   3.443   6.889 -0.7645 -0.3142  0.3415
10573SOL    HW132618   4.045   3.536   6.852  1.6796 -0.2305  0.0687
10573SOL    HW232619   3.984   3.385   6.841 -0.4378  0.6869 -1.4291
10574SOL     OW32620   4.077   4.415   1.390  0.2788 -0.0875 -0.0473
10574SOL    HW132621   3.996   4.472   1.406  2.4942  2.5460  3.1440
10574SOL    HW232622   4.061   4.324   1.428 -0.8979  0.6547  1.3457
10575SOL     OW32623   3.228   1.748   6.904 -0.1972  0.0340  0.0242
10575SOL    HW132624   3.196   1.719   6.814  1.3118 -0.5161 -0.3723
10575SOL    HW232625   3.173   1.825   6.936 -0.5305  0.4679 -1.5240
10576SOL     OW32626   2.221   1.753   3.194 -0.1621  0.3670  0.1960
10576SOL    HW132627   2.128   1.726   3.173  0.4273 -2.1375  0.4570
10576SOL    HW232628   2.220   1.823   3.266 -1.8296  0.1035  0.4671
10577SOL     OW32629   0.451   4.132   3.703  0.1383 -0.1140  0.2587
10577SOL    HW132630   0.473   4.046   3.750  2.6274  0.2233 -0.1639
10577SOL    HW232631   0.391   4.112   3.625  0.1860 -1.3989  0.5254
10578SOL     OW32632   1.122   5.515   1.058  0.2090 -0.1226 -0.1217
10578SOL    HW132633   1.124   5.511   1.158 -1.3977 -0.9244 -0.0980
10578SOL    HW232634   1.216   5.511   1.023  0.9228  1.7159  1.3704
10579SOL     OW32635   6.254   5.610   0.516  0.2347  0.1414 -0.2441
10579SOL    HW132636   6.293   5.614   0.425 -0.1958 -1.5281 -0.5260
10579SOL    HW232637   6.322   5.574   0.581 -0.1577 -0.8272 -0.3525
10580SOL     OW32638   3.102   0.813   2.726  0.3724  0.1587 -0.4281
10580SOL    HW132639   3.003   0.814   2.732  0.3434 -1.4328 -0.3486
10580SOL    HW232640   3.134   0.901   2.690 -1.1215  0.2971 -1.5095
10581SOL     OW32641   5.521   1.154   4.240 -0.5169  0.0114 -0.0488
10581SOL    HW132642   5.606   1.194   4.273 -0.2888  1.2011 -1.9124
10581SOL    HW232643   5.444   1.189   4.295 -0.1548  1.8470 -0.6505
10582SOL     OW32644   6.704   5.799   6.995 -0.5565 -0.1927  0.4230
10582SOL    HW132645   6.713   5.894   6.966 -0.0282 -0.0615  0.9878
10582SOL    HW232646   6.700   5.740   6.915  1.1655  0.1256  0.0771
10583SOL     OW32647   1.514   0.979   3.402 -0.1398 -0.5100  0.1241
10583SOL    HW132648   1.533   1.015   3.493 -1.5907  0.2517  0.1470
10583SOL    HW232649   1.596   0.935   3.366  0.4288 -0.8899  1.8180
10584SOL     OW32650   4.531   4.643   4.770 -0.3497  0.1550 -0.1231
10584SOL    HW132651   4.496   4.687   4.688 -2.5874 -1.0325  0.1110
10584SOL    HW232652   4.556   4.548   4.749  1.4664  0.5510  0.0582
10585SOL     OW32653   3.107   1.194   3.099 -0.3120  0.3175  0.1964
10585SOL    HW132654   3.158   1.280   3.085 -0.7516  0.5784  0.1849
10585SOL    HW232655   3.121   1.162   3.192 -0.5970  0.7021  0.3730
10586SOL     OW32656   2.646   2.176   6.546  0.3487 -0.0178  0.1647
10586SOL    HW132657   2.599   2.092   6.571  0.7621 -0.0252  0.9423
10586SOL    HW232658   2.712   2.200   6.617  1.3669  0.1158 -0.7930
10587SOL     OW32659   6.460   4.320   2.976 -0.7827  0.6063 -0.1980
10587SOL    HW132660   6.516   4.329   3.059 -0.3963  0.2643 -0.4222
10587SOL    HW232661   6.508   4.360   2.898 -1.2304  1.1031 -0.2296
10588SOL     OW32662   3.815   6.140   3.072 -0.1667 -0.0960  0.1746
10588SOL    HW132663   3.910   6.118   3.095 -0.5688 -1.6710  0.4401
10588SOL    HW232664   3.800   6.238   3.085  1.1887  0.0426  0.9477
10589SOL     OW32665   5.633   0.708   3.761  0.2824 -0.1914  0.5495
10589SOL    HW132666   5.614   0.783   3.697  2.5771  0.2031  0.2260
10589SOL    HW232667   5.602   0.733   3.852 -0.1733  0.5875  0.1914
10590SOL     OW32668   6.421   1.105   6.555  0.7379 -0.3693  0.4427
10590SOL    HW132669   6.371   1.099   6.642 -1.3105  2.3220 -0.4206
10590SOL    HW232670   6.406   1.020   6.504 -1.0485 -0.6002  1.2316
10591SOL     OW32671   4.665   0.444   3.080  0.3278 -0.0985 -0.1718
10591SOL    HW132672   4.574   0.460   3.042  0.7031  2.9785 -0.0109
10591SOL    HW232673   4.663   0.362   3.138 -2.6911  0.6375  0.9473
10592SOL     OW32674   5.391   0.468   3.398 -0.1767  0.7612  0.0550
10592SOL    HW132675   5.469   0.405   3.395 -0.4969  0.3868 -2.0684
10592SOL    HW232676   5.407   0.538   3.468  1.8820  0.4626 -0.0580
10593SOL     OW32677   3.887   3.030   6.083 -0.2308 -0.1332 -0.5094
10593SOL    HW132678   3.895   3.115   6.135  0.1008  0.6251 -1.7682
10593SOL    HW232679   3.809   2.977   6.117  1.0793 -0.5932  2.0289
10594SOL     OW32680   5.715   6.671   2.233 -0.2041  0.0988  0.0245
10594SOL    HW132681   5.679   6.748   2.284  0.9252  1.0119 -0.5165
10594SOL    HW232682   5.805   6.645   2.268 -0.8837 -1.5003  0.7063
10595SOL     OW32683   0.024   2.344   1.976  0.6214  0.5330  0.0775
10595SOL    HW132684   0.073   2.316   2.058 -0.2371 -0.1543  0.3637
10595SOL    HW232685  -0.048   2.409   2.000  1.4889  1.6946 -0.3675
10596SOL     OW32686   5.501   3.941   4.873  0.1301 -0.5411  0.0294
10596SOL    HW132687   5.472   3.865   4.816  0.8996 -1.1712  0.4554
10596SOL    HW232688   5.547   3.906   4.955  0.5426  0.3804  0.2079
10597SOL     OW32689   4.231   4.562   6.089  0.4665 -0.2451  0.5412
10597SOL    HW132690   4.166   4.492   6.120  1.0559 -1.7220 -1.3465
10597SOL    HW232691   4.313   4.518   6.053  2.8604  1.5876  3.3101
10598SOL     OW32692   5.567   6.300   0.827 -0.3011 -0.2034 -0.0812
10598SOL    HW132693   5.495   6.308   0.759  0.0024 -0.3437 -0.4242
10598SOL    HW232694   5.623   6.219   0.807  1.0207  0.8571 -0.8444
10599SOL     OW32695   6.162   0.289   0.045  0.0841  0.5564 -0.1160
10599SOL    HW132696   6.190   0.317  -0.047  0.3513 -1.1168 -0.5766
10599SOL    HW232697   6.192   0.195   0.062  0.8756  1.1297  2.0549
10600SOL     OW32698   3.415   4.523   6.315  0.0942  0.5249 -0.0237
10600SOL    HW132699   3.432   4.561   6.224 -0.2213  0.3531 -0.1571
10600SOL    HW232700   3.445   4.588   6.385  0.9996  0.3673 -0.2452
10601SOL     OW32701   5.518   2.619   4.590 -0.1311 -0.3222 -0.2231
10601SOL    HW132702   5.470   2.551   4.534 -1.8896 -0.6458  1.5745
10601SOL    HW232703   5.455   2.693   4.612  0.8928  0.3854  0.3512
10602SOL     OW32704   3.846   5.355   5.576 -0.3564  0.4811 -0.1189
10602SOL    HW132705   3.905   5.412   5.634  0.1177  0.8241 -0.9116
10602SOL    HW232706   3.771   5.318   5.630  1.9391 -2.0430  1.5778
10603SOL     OW32707   2.330   6.804   3.978 -0.4947  0.8090 -0.3755
10603SOL    HW132708   2.243   6.852   3.970 -0.6488  0.6058  0.0344
10603SOL    HW232709   2.402   6.869   4.003 -0.9414  0.6594  1.5229
10604SOL     OW32710   2.313   4.890   2.025 -0.0121 -0.0738  0.2042
10604SOL    HW132711   2.231   4.833   2.029 -1.2336  1.6350  1.2844
10604SOL    HW232712   2.341   4.902   1.930 -1.5701  0.0137 -0.2735
10605SOL     OW32713   6.829   4.177   3.133  0.5227 -0.2206 -0.3639
10605SOL    HW132714   6.793   4.112   3.200 -0.1142  0.6081  0.1175
10605SOL    HW232715   6.827   4.136   3.041  0.2605 -0.9175 -0.0484
10606SOL     OW32716   1.759   1.450   3.024 -0.4342 -0.1491  0.2040
10606SOL    HW132717   1.747   1.483   3.117 -2.1513 -1.0593  0.3550
10606SOL    HW232718   1.726   1.356   3.017 -0.8352  0.0724 -1.4408
10607SOL     OW32719   3.448   4.902   3.757  0.3485  0.2128  0.6458
10607SOL    HW132720   3.522   4.867   3.815 -0.2454 -0.3481  1.0669
10607SOL    HW232721   3.488   4.949   3.678  1.1584 -0.1086  0.8560
10608SOL     OW32722   4.527   1.760   0.521 -0.1254 -0.2464  0.0223
10608SOL    HW132723   4.523   1.678   0.578  0.0406  0.7988  1.6149
10608SOL    HW232724   4.439   1.776   0.477 -0.6533 -0.3843  1.0204
10609SOL     OW32725   1.963   5.193   2.257 -0.1373 -0.1504 -0.4563
10609SOL    HW132726   2.057   5.183   2.289  0.2942  0.1696 -1.5809
10609SOL    HW232727   1.943   5.290   2.242 -1.0542 -0.0981  0.9178
10610SOL     OW32728   4.887   5.404   2.316 -0.3454 -0.2432 -0.1148
10610SOL    HW132729   4.887   5.498   2.351 -1.3328 -0.7810  1.4197
10610SOL    HW232730   4.799   5.385   2.274  0.3396 -0.0717 -1.7086
10611SOL     OW32731   2.446   0.965   3.634 -0.2743 -0.1199  0.3467
10611SOL    HW132732   2.357   0.924   3.613  0.5972 -1.7958 -0.2912
10611SOL    HW232733   2.441   1.012   3.722 -1.6247 -0.6945  0.6058
10612SOL     OW32734   5.779   2.836   6.335  0.3045  0.5012 -0.3581
10612SOL    HW132735   5.739   2.758   6.288  2.3583 -0.2910 -0.8782
10612SOL    HW232736   5.820   2.898   6.268  0.8622  0.7492  0.1988
10613SOL     OW32737   2.332   0.728   1.241 -0.3214  0.1223  0.5070
10613SOL    HW132738   2.423   0.769   1.236 -0.6410  0.7137 -0.9141
10613SOL    HW232739   2.276   0.780   1.307 -0.2802  1.1136 -0.2123
10614SOL     OW32740   2.388   0.232   3.917  0.1098  0.1339  0.5779
10614SOL    HW132741   2.455   0.299   3.949 -1.2036  2.2736 -0.8409
10614SOL    HW232742   2.301   0.247   3.965 -0.9234  1.1993 -1.4946
10615SOL     OW32743   4.252   3.321   0.462  1.0487 -0.5908 -0.7477
10615SOL    HW132744   4.318   3.384   0.420  0.7993 -1.4354 -2.5057
10615SOL    HW232745   4.169   3.319   0.406  0.3556 -1.1286  0.2863
10616SOL     OW32746   0.452   2.867   2.158 -0.2714 -1.1113 -0.1212
10616SOL    HW132747   0.539   2.884   2.205  0.0267  1.9516 -1.5159
10616SOL    HW232748   0.408   2.786   2.196  3.9366 -3.8694 -0.4409
10617SOL     OW32749   5.390   4.227   0.158 -0.1156 -0.0972 -0.3747
10617SOL    HW132750   5.362   4.133   0.137  0.0539 -0.4878  1.0356
10617SOL    HW232751   5.337   4.261   0.236 -0.3810  1.1033 -1.0491
10618SOL     OW32752   1.514   1.988   3.604  0.3219  0.2297  0.0440
10618SOL    HW132753   1.444   1.997   3.532 -1.5444 -3.8113  1.0557
10618SOL    HW232754   1.558   1.899   3.596  3.3683  1.4863  1.2949
10619SOL     OW32755   5.805   2.853   2.872  0.2162  0.3176 -0.2529
10619SOL    HW132756   5.876   2.798   2.914 -0.6370 -0.7080 -0.1179
10619SOL    HW232757   5.847   2.921   2.811  1.3285  0.2182  0.3769
10620SOL     OW32758   5.063   1.965   6.002 -0.6910  0.4364 -0.4515
10620SOL    HW132759   5.163   1.962   6.006 -0.6089  1.5629 -1.2000
10620SOL    HW232760   5.034   1.958   5.907 -1.3014  0.6839 -0.2838
10621SOL     OW32761   4.276   1.892   5.624 -0.7681 -0.2920 -0.2414
10621SOL    HW132762   4.278   1.879   5.723  0.9023 -0.9277 -0.3257
10621SOL    HW232763   4.269   1.990   5.603  1.2613  0.0581  0.5499
10622SOL     OW32764   6.178   1.714   2.276 -0.2933  0.0763  0.0963
10622SOL    HW132765   6.109   1.761   2.331 -1.6430 -1.5622 -0.1261
10622SOL    HW232766   6.184   1.618   2.304  2.0987  0.2014  0.2583
10623SOL     OW32767   0.854   5.971   3.427 -0.1155 -0.1165 -0.1660
10623SOL    HW132768   0.917   6.011   3.360 -0.5046 -0.9862 -1.0822
10623SOL    HW232769   0.865   5.871   3.428 -0.2067 -0.1295  0.9941
10624SOL     OW32770   4.947   0.634   2.663  0.2678 -0.0835  0.2608
10624SOL    HW132771   4.943   0.651   2.565 -0.8652  0.5553  0.4130
10624SOL    HW232772   5.042   0.643   2.694  0.4803  0.7377 -0.5906
10625SOL     OW32773   0.838   3.953   0.509  0.1815 -0.4978 -0.5108
10625SOL    HW132774   0.880   3.864   0.528  0.1687 -0.6001 -0.9443
10625SOL    HW232775   0.779   3.979   0.585  0.2117 -0.8458 -0.3657
10626SOL     OW32776   2.931   1.881   6.531  0.5216 -0.2352 -0.0425
10626SOL    HW132777   2.905   1.811   6.597 -0.6774  1.8233  1.8161
10626SOL    HW232778   2.868   1.879   6.453 -0.3154 -0.3766  0.6283
10627SOL     OW32779   0.853   1.959   3.224 -0.0497 -0.6235 -0.0111
10627SOL    HW132780   0.800   1.881   3.256  0.6207 -2.0721 -2.1971
10627SOL    HW232781   0.847   1.966   3.125  2.7010 -0.0100 -0.2172
10628SOL     OW32782   4.706   6.018   5.719 -0.1756 -0.2481  0.4435
10628SOL    HW132783   4.627   5.979   5.766  0.3845  0.4042  2.0213
10628SOL    HW232784   4.785   5.958   5.734 -0.2718 -0.7153 -0.8261
10629SOL     OW32785   3.495   0.520   5.559  0.3731 -0.4571 -0.2923
10629SOL    HW132786   3.582   0.500   5.514 -0.2638 -2.3982 -0.7656
10629SOL    HW232787   3.472   0.446   5.623 -1.0313 -0.1058 -0.3514
10630SOL     OW32788   2.781   3.127   5.633  0.0247 -0.2392 -0.7447
10630SOL    HW132789   2.706   3.063   5.650 -0.0849 -0.1321 -0.8249
10630SOL    HW232790   2.798   3.132   5.534  1.5320 -1.8774 -0.6335
10631SOL     OW32791   2.940   2.401   0.491  0.3309  0.0989 -0.2863
10631SOL    HW132792   2.938   2.467   0.566 -3.6379  0.7659 -0.7505
10631SOL    HW232793   2.943   2.450   0.404 -0.1245 -0.4357 -0.6072
10632SOL     OW32794   4.632   5.641   0.134 -0.1035  0.2353  0.7233
10632SOL    HW132795   4.670   5.685   0.053 -0.5633 -0.6779 -0.0073
10632SOL    HW232796   4.636   5.704   0.212  1.0200  0.8585  0.1733
10633SOL     OW32797   6.883   5.206   0.389 -0.2517 -0.6207 -1.0445
10633SOL    HW132798   6.885   5.170   0.482  0.2610  0.2930 -0.6790
10633SOL    HW232799   6.928   5.142   0.326  2.4886  0.1860 -0.0908
10634SOL     OW32800   6.034   2.333   0.543  0.0878  0.0298 -0.5330
10634SOL    HW132801   6.041   2.240   0.578 -1.5323  0.6825  1.6987
10634SOL    HW232802   5.980   2.389   0.605 -2.1367  1.5791 -3.5633
10635SOL     OW32803   6.441   6.333   4.867  0.8078  0.4759  0.1139
10635SOL    HW132804   6.528   6.352   4.913  1.1969  1.9308 -1.1175
10635SOL    HW232805   6.389   6.419   4.858  0.2242  0.0183 -1.0846
10636SOL     OW32806   2.413   5.163   6.398  0.2916  0.2120 -0.3033
10636SOL    HW132807   2.436   5.259   6.383  1.4335 -0.3529 -2.5804
10636SOL    HW232808   2.401   5.117   6.310  0.0342 -1.8165  0.7264
10637SOL     OW32809   2.411   3.142   0.963 -0.3365 -0.3615 -0.2206
10637SOL    HW132810   2.417   3.168   0.867  1.3723  1.9243  0.4096
10637SOL    HW232811   2.411   3.224   1.020 -1.1215 -1.6609  1.7624
10638SOL     OW32812   2.191   4.374   5.974 -0.4176 -0.4451  0.0776
10638SOL    HW132813   2.161   4.280   5.962 -0.7556 -0.6322  2.0282
10638SOL    HW232814   2.155   4.431   5.900 -1.6991 -1.5160 -0.1515
10639SOL     OW32815   6.102   6.287   5.254  0.0672  0.0336  0.2198
10639SOL    HW132816   6.137   6.381   5.249 -2.1361  0.8584 -3.3309
10639SOL    HW232817   6.007   6.289   5.287  0.2702 -1.0759  0.9118
10640SOL     OW32818   6.876   4.782   2.173  0.3869  0.3151 -0.1308
10640SOL    HW132819   6.807   4.752   2.239 -0.2480  1.7163 -0.1178
10640SOL    HW232820   6.942   4.709   2.157  0.2535 -0.2215  1.6628
10641SOL     OW32821   3.396   1.620   5.227 -0.4753  0.2508  0.0505
10641SOL    HW132822   3.400   1.718   5.249  3.7663 -0.1250  1.8097
10641SOL    HW232823   3.347   1.572   5.299  1.5836  0.6327  1.8020
10642SOL     OW32824   3.468   5.107   6.903  0.3868 -0.1899 -0.1963
10642SOL    HW132825   3.557   5.135   6.937  1.1211  1.0488 -2.8226
10642SOL    HW232826   3.399   5.175   6.930  0.8474  0.4804 -0.6736
10643SOL     OW32827   0.520   4.072   3.201  0.1375 -0.4779 -0.0572
10643SOL    HW132828   0.541   4.170   3.201 -0.4396 -0.3372  1.3015
10643SOL    HW232829   0.599   4.022   3.165  0.8520  0.4112  0.2253
10644SOL     OW32830   0.282   6.696   2.701  0.1509  0.4941 -0.0881
10644SOL    HW132831   0.349   6.735   2.764 -1.0883  0.1313  1.5266
10644SOL    HW232832   0.326   6.627   2.643  1.0644 -0.1205  1.2949
10645SOL     OW32833   1.301   4.796   2.874  0.2667  0.2455  0.7565
10645SOL    HW132834   1.367   4.815   2.801  0.1230 -0.9670  0.2897
10645SOL    HW232835   1.332   4.837   2.959  1.4786 -0.0650  0.4767
10646SOL     OW32836   3.634   6.834   4.308 -0.1472 -0.3829 -0.4784
10646SOL    HW132837   3.667   6.758   4.253  0.7734 -0.4022  0.0821
10646SOL    HW232838   3.709   6.896   4.329 -0.9132  0.8020 -1.0852
10647SOL     OW32839   5.750   6.083   5.939 -0.3201  0.1902  0.1527
10647SOL    HW132840   5.834   6.029   5.931 -0.1991  0.3491  0.3342
10647SOL    HW232841   5.697   6.075   5.854 -1.1401 -1.5734  0.7778
10648SOL     OW32842   5.895   5.407   1.206 -0.0262 -0.6311 -0.2136
10648SOL    HW132843   5.885   5.419   1.305 -0.3694 -1.6402 -0.1092
10648SOL    HW232844   5.937   5.318   1.188 -0.1488 -0.5387 -0.9763
10649SOL     OW32845   3.350   1.349   3.407 -0.0102 -0.2303 -0.8318
10649SOL    HW132846   3.329   1.256   3.378 -1.0797 -0.1562 -0.3121
10649SOL    HW232847   3.319   1.364   3.500 -0.0101  0.7067 -0.9675
10650SOL     OW32848   0.171   1.361   0.441 -0.4655  0.1911 -0.0044
10650SOL    HW132849   0.090   1.304   0.427 -0.0246 -0.3924 -0.2342
10650SOL    HW232850   0.210   1.341   0.531 -0.8319  0.8092  0.3025
10651SOL     OW32851   1.710   6.050   4.928  0.2532  0.0777  0.1532
10651SOL    HW132852   1.768   6.064   5.009 -0.0944  0.5036  0.3334
10651SOL    HW232853   1.623   6.010   4.956  0.2656 -0.0889 -0.0514
10652SOL     OW32854   3.492   1.844   3.469 -0.3396 -0.0081 -0.2387
10652SOL    HW132855   3.486   1.933   3.423 -2.5535  0.3912  0.6755
10652SOL    HW232856   3.434   1.778   3.420 -0.9230 -0.1715  0.6542
10653SOL     OW32857   3.628   2.477   6.479 -0.2482  0.3627  0.2191
10653SOL    HW132858   3.566   2.542   6.522  1.2409  1.6974  0.4234
10653SOL    HW232859   3.689   2.525   6.415  2.6025 -0.3123  2.2396
10654SOL     OW32860   4.485   5.448   6.405 -0.3138  0.3853  0.0211
10654SOL    HW132861   4.410   5.389   6.433 -1.5064  1.6363 -0.4358
10654SOL    HW232862   4.466   5.485   6.314  0.8027  0.8201 -0.0561
10655SOL     OW32863   6.185   5.248   1.352 -0.3330  0.2680 -0.2716
10655SOL    HW132864   6.279   5.249   1.388 -0.9027  0.2992  1.3215
10655SOL    HW232865   6.182   5.293   1.263  1.0566  0.7900 -0.0777
10656SOL     OW32866   3.687   1.284   3.561  0.3038  0.1762  0.4615
10656SOL    HW132867   3.782   1.252   3.557  0.2198  0.0329 -0.5500
10656SOL    HW232868   3.680   1.375   3.521  0.3322  1.0192  2.2726
10657SOL     OW32869   6.120   3.800   0.149 -0.3773  0.4234  0.4507
10657SOL    HW132870   6.172   3.796   0.064 -1.4896 -1.2328 -0.1988
10657SOL    HW232871   6.128   3.713   0.197 -0.6700  0.9573  1.5092
10658SOL     OW32872   6.882   5.276   1.755 -0.1163  0.0016  0.0389
10658SOL    HW132873   6.792   5.311   1.782 -1.3091 -0.6879 -2.6899
10658SOL    HW232874   6.871   5.198   1.693  2.2796  1.2903 -2.2276
10659SOL     OW32875   0.939   0.180   1.219 -0.4289  0.2276 -0.1643
10659SOL    HW132876   0.921   0.172   1.317 -1.2553  0.2781 -0.3039
10659SOL    HW232877   1.033   0.210   1.205  0.2286 -1.4131  0.5676
10660SOL     OW32878   2.132   5.167   6.860 -0.5407  0.0240  0.1278
10660SOL    HW132879   2.090   5.197   6.774  0.6921  0.3434 -0.3917
10660SOL    HW232880   2.122   5.068   6.869  0.4230 -0.2123 -1.0512
10661SOL     OW32881   4.876   2.205   6.788  0.8052  0.2254  0.1536
10661SOL    HW132882   4.843   2.271   6.720 -0.6269 -0.3330  0.2759
10661SOL    HW232883   4.940   2.142   6.744  0.5412  0.3891 -0.4869
10662SOL     OW32884   2.464   5.436   6.015 -0.0591  0.2818 -0.0989
10662SOL    HW132885   2.440   5.497   6.091 -1.2459  0.5872 -0.6975
10662SOL    HW232886   2.550   5.467   5.974  1.5533 -0.9212  2.1781
10663SOL     OW32887   0.248   3.607   3.803 -0.2362 -0.3227 -0.3980
10663SOL    HW132888   0.338   3.625   3.763 -0.4521 -0.1901 -0.8297
10663SOL    HW232889   0.238   3.660   3.887  0.4836 -1.1236  0.2017
10664SOL     OW32890   0.315   0.518   4.230 -0.0668 -0.3987 -0.1400
10664SOL    HW132891   0.315   0.568   4.144 -0.1891  1.2236  0.7704
10664SOL    HW232892   0.406   0.523   4.272 -0.3776  0.0580  0.5016
10665SOL     OW32893   6.506   1.323   3.423  0.1798 -0.4351  0.3194
10665SOL    HW132894   6.520   1.227   3.447  0.0935 -1.1923 -2.3616
10665SOL    HW232895   6.411   1.336   3.393  0.7241 -0.0039 -1.2951
10666SOL     OW32896   6.508   0.227   6.753  0.4196  0.1334 -0.0602
10666SOL    HW132897   6.479   0.151   6.695  1.6513  1.6547 -2.8822
10666SOL    HW232898   6.491   0.313   6.705  3.0382  1.4280  1.1531
10667SOL     OW32899   2.800   2.764   1.054  0.3719 -0.3648  0.3557
10667SOL    HW132900   2.708   2.794   1.027 -0.4728 -2.0926  1.2175
10667SOL    HW232901   2.818   2.794   1.147  1.1167  0.8225 -0.1391
10668SOL     OW32902   6.596   3.941   6.031  0.3209  0.5377 -0.1496
10668SOL    HW132903   6.579   3.934   6.130 -0.5892 -1.5396 -0.4102
10668SOL    HW232904   6.510   3.941   5.982  0.8024 -0.8278 -1.0478
10669SOL     OW32905   3.853   1.354   4.699 -0.4343 -0.6028  0.1852
10669SOL    HW132906   3.790   1.337   4.775 -0.8885 -0.9805 -0.2695
10669SOL    HW232907   3.810   1.417   4.634 -0.0903 -0.3642  0.1877
10670SOL     OW32908   6.424   2.612   1.686  0.0812 -0.0633  0.2454
10670SOL    HW132909   6.343   2.602   1.745 -1.3565 -0.3608 -1.6685
10670SOL    HW232910   6.486   2.535   1.702 -0.4820 -0.3705  1.0358
10671SOL     OW32911   1.258   1.057   3.338 -0.0263 -0.0176  0.6023
10671SOL    HW132912   1.197   1.027   3.264  0.6729  0.8562 -0.3389
10671SOL    HW232913   1.348   1.015   3.326  1.1987  2.8428 -1.1411
10672SOL     OW32914   4.157   1.306   1.704 -0.2874  0.3424  0.7497
10672SOL    HW132915   4.181   1.379   1.769  0.6017  0.8929 -0.1772
10672SOL    HW232916   4.104   1.236   1.752  0.7178  0.5074  2.1815
10673SOL     OW32917   3.830   5.962   1.610  0.0356 -0.1018 -0.1190
10673SOL    HW132918   3.788   6.035   1.556  1.7249  1.7379  0.9386
10673SOL    HW232919   3.760   5.918   1.666 -1.1638  0.1123 -1.3744
10674SOL     OW32920   5.955   3.896   4.107  0.4282  0.4116 -0.5138
10674SOL    HW132921   6.019   3.972   4.098  0.9869 -0.1879 -1.6844
10674SOL    HW232922   6.006   3.810   4.117 -0.1505  0.3042  2.6129
10675SOL     OW32923   2.818   0.897   6.873 -0.2522 -0.4325 -0.1413
10675SOL    HW132924   2.846   0.828   6.941 -2.4680 -1.4457 -0.1425
10675SOL    HW232925   2.766   0.969   6.919 -0.9982 -0.6565 -0.6177
10676SOL     OW32926   6.596   5.511   1.214 -0.0600 -0.2319 -0.1268
10676SOL    HW132927   6.589   5.575   1.138 -0.3532  0.0584  0.1440
10676SOL    HW232928   6.515   5.517   1.271  0.1397 -0.4781  0.1887
10677SOL     OW32929   1.833   5.174   5.915  0.1202  0.0052 -0.5057
10677SOL    HW132930   1.762   5.109   5.943  1.1124 -0.4796  1.0850
10677SOL    HW232931   1.800   5.267   5.928 -0.9530 -0.1547 -1.8284
10678SOL     OW32932   2.777   5.618   5.434 -0.1397 -0.1753 -0.1248
10678SOL    HW132933   2.771   5.519   5.417 -0.2937 -0.3514  0.9055
10678SOL    HW232934   2.828   5.661   5.359  0.0877 -1.0562 -0.4965
10679SOL     OW32935   1.249   1.545   4.972 -0.2393  0.2666 -0.0946
10679SOL    HW132936   1.176   1.613   4.982  0.0158  0.8024 -1.6162
10679SOL    HW232937   1.314   1.555   5.048 -0.9389  0.7931  0.4523
10680SOL     OW32938   5.768   1.672   0.380  0.3678 -0.1177  0.5359
10680SOL    HW132939   5.853   1.725   0.386 -0.5620  1.5360 -0.1482
10680SOL    HW232940   5.774   1.609   0.302  0.3052  1.3022 -0.6631
10681SOL     OW32941   1.753   0.823   0.466 -0.0254 -0.0524 -0.4415
10681SOL    HW132942   1.852   0.811   0.471 -0.1621 -1.7093 -0.9419
10681SOL    HW232943   1.724   0.824   0.370 -0.5366  0.0846 -0.2920
10682SOL     OW32944   5.118   3.773   0.811  0.5033  0.1693 -0.1072
10682SOL    HW132945   5.086   3.836   0.740  2.2940 -0.1720 -1.2687
10682SOL    HW232946   5.151   3.826   0.890 -1.0287  0.5597  0.3142
10683SOL     OW32947   1.314   2.832   1.378 -0.0253 -0.1396 -0.6205
10683SOL    HW132948   1.405   2.870   1.362 -0.7221  1.6351 -0.6417
10683SOL    HW232949   1.270   2.882   1.453 -0.2864 -2.2370  0.6810
10684SOL     OW32950   4.211   1.133   2.826 -0.2099  0.4669 -0.1823
10684SOL    HW132951   4.283   1.063   2.829 -0.2105  0.3659 -1.6475
10684SOL    HW232952   4.253   1.222   2.807 -0.3702  0.5728 -0.0321
10685SOL     OW32953   4.309   6.428   0.776 -0.3431 -0.0969 -0.5264
10685SOL    HW132954   4.243   6.395   0.843 -4.0497  3.7825 -1.8122
10685SOL    HW232955   4.386   6.472   0.823 -1.9860  1.0530  1.2371
10686SOL     OW32956   2.005   5.013   3.855 -0.2619  0.5535  0.1316
10686SOL    HW132957   2.057   4.975   3.931 -0.8512  0.6933  0.6080
10686SOL    HW232958   2.068   5.036   3.780  0.1564 -1.0954 -0.0762
10687SOL     OW32959   3.167   1.110   3.361  0.3708 -0.1868 -0.0446
10687SOL    HW132960   3.260   1.092   3.328  0.9675 -2.8504  2.5682
10687SOL    HW232961   3.134   1.029   3.411 -3.2063  0.8567 -0.4556
10688SOL     OW32962   6.118   4.634   5.711 -0.2288 -0.0421  0.0990
10688SOL    HW132963   6.039   4.583   5.745  0.1887  0.0954  1.3308
10688SOL    HW232964   6.092   4.685   5.630 -1.1834 -0.6470  0.0048
10689SOL     OW32965   4.597   5.555   1.647  0.0426  0.7811  0.1361
10689SOL    HW132966   4.522   5.516   1.701  0.3819 -0.0309  0.0285
10689SOL    HW232967   4.683   5.546   1.699  0.1714  1.1245 -0.0153
10690SOL     OW32968   5.885   3.623   2.276  0.2207  0.3431 -0.3521
10690SOL    HW132969   5.883   3.628   2.376  0.2211 -0.2950 -0.3121
10690SOL    HW232970   5.827   3.547   2.246  0.6261  0.2104 -0.8073
10691SOL     OW32971   5.459   4.675   3.358 -0.1380 -0.3597  0.5862
10691SOL    HW132972   5.368   4.706   3.331 -0.7719 -1.7659  0.9952
10691SOL    HW232973   5.478   4.587   3.314  0.7418 -0.4003  1.0356
10692SOL     OW32974   6.875   6.366   2.244  0.0628  0.3881  0.5111
10692SOL    HW132975   6.881   6.403   2.337  3.5828  1.1001  0.1474
10692SOL    HW232976   6.893   6.439   2.178  0.7442 -0.6919 -0.5473
10693SOL     OW32977   0.486   0.139   4.440  0.0710  0.0312 -0.3011
10693SOL    HW132978   0.561   0.200   4.414 -0.6338  1.0873  0.0376
10693SOL    HW232979   0.463   0.155   4.536 -1.2383  0.4423 -0.6725
10694SOL     OW32980   5.073   0.707   6.745  0.2157 -0.0379  0.2498
10694SOL    HW132981   5.049   0.742   6.836  3.9890  0.6489  1.1324
10694SOL    HW232982   5.115   0.780   6.691 -0.3448 -0.9066 -1.4440
10695SOL     OW32983   5.408   6.811   6.534 -0.4869 -0.4132  0.3061
10695SOL    HW132984   5.382   6.760   6.452 -2.8563 -2.1236  2.0043
10695SOL    HW232985   5.437   6.747   6.605 -1.8254  0.7170  1.9370
10696SOL     OW32986   1.595   6.482   0.269 -0.1917 -0.0369 -0.2066
10696SOL    HW132987   1.600   6.515   0.363 -0.5628 -0.9201  0.1299
10696SOL    HW232988   1.581   6.383   0.268  0.2511 -0.1114 -1.1944
10697SOL     OW32989   6.660   4.799   0.990  0.3246 -0.0499 -0.3743
10697SOL    HW132990   6.604   4.721   1.019 -0.2390  0.8861  1.1651
10697SOL    HW232991   6.649   4.813   0.892  0.4152 -1.8638 -0.6846
10698SOL     OW32992   0.981   3.745   2.482 -0.2938  0.3442  0.2568
10698SOL    HW132993   0.989   3.652   2.517 -2.7857 -0.6629 -1.5473
10698SOL    HW232994   1.063   3.768   2.429  0.7423 -0.4225  1.4689
10699SOL     OW32995   4.445   3.101   6.898 -0.4303  0.1543 -0.2099
10699SOL    HW132996   4.351   3.112   6.932 -0.4632  1.1111 -0.5883
10699SOL    HW232997   4.447   3.027   6.830 -0.8324 -0.1333  0.0841
10700SOL     OW32998   1.701   2.010   0.257 -0.3185  0.0186 -0.4422
10700SOL    HW132999   1.769   2.033   0.326  0.8914  0.9245 -1.8597
10700SOL    HW233000   1.610   2.026   0.294  0.3248  1.7569  0.5236
10701SOL     OW33001   6.087   2.188   2.785  0.2549  0.0731 -0.0444
10701SOL    HW133002   6.160   2.253   2.804  0.6720 -0.4422  0.1612
10701SOL    HW233003   6.085   2.118   2.857  0.3548 -0.6052 -0.6797
10702SOL     OW33004   2.041   2.089   0.602  0.0630 -0.0630  0.4690
10702SOL    HW133005   2.010   1.999   0.632 -0.2911  0.5490  2.0779
10702SOL    HW233006   2.137   2.101   0.629 -0.3270  0.5822  1.6657
10703SOL     OW33007   6.227   4.945   4.619 -0.6988 -0.9228  0.1280
10703SOL    HW133008   6.154   4.901   4.566 -0.8088 -0.3826 -0.1757
10703SOL    HW233009   6.277   4.875   4.671 -0.9052 -1.3964 -0.2981
10704SOL     OW33010   6.690   5.391   0.357 -0.3021 -0.0204 -0.1250
10704SOL    HW133011   6.782   5.352   0.370 -0.1088  0.5007  0.0655
10704SOL    HW233012   6.622   5.320   0.374  0.0091  0.0361  1.4498
10705SOL     OW33013   0.759   2.395   4.124 -0.2912 -0.1904 -1.1397
10705SOL    HW133014   0.699   2.459   4.172  1.1807  1.6530 -1.6555
10705SOL    HW233015   0.835   2.368   4.184  0.1475  0.0893 -1.5630
10706SOL     OW33016   6.946   5.051   5.659  0.0065  0.0124  0.1066
10706SOL    HW133017   6.866   5.111   5.664  1.2234  1.6912  0.6047
10706SOL    HW233018   7.029   5.106   5.670  1.1668 -1.9350  1.7693
10707SOL     OW33019   3.894   4.294   0.874  0.1938  0.2056 -0.4273
10707SOL    HW133020   3.857   4.210   0.914  0.0509  1.5090  2.3741
10707SOL    HW233021   3.955   4.338   0.939  3.2747  0.4629 -3.2276
10708SOL     OW33022   5.957   2.289   6.079  0.2904  0.1940 -0.2797
10708SOL    HW133023   6.051   2.280   6.046  0.6757 -0.7927  0.9912
10708SOL    HW233024   5.936   2.386   6.092  0.9589  0.4564 -1.0306
10709SOL     OW33025   5.897   5.798   1.576  0.6197  0.1741  0.7312
10709SOL    HW133026   5.819   5.763   1.628  0.8831 -0.7491  0.5216
10709SOL    HW233027   5.956   5.722   1.550  1.2253  0.7897  0.2837
10710SOL     OW33028   3.689   0.176   2.596  0.0887 -0.2468 -0.5536
10710SOL    HW133029   3.597   0.203   2.568  0.5486  0.3298 -1.5577
10710SOL    HW233030   3.756   0.238   2.556  0.9863 -1.1878 -0.5571
10711SOL     OW33031   2.459   2.713   1.043 -0.7472  0.5687 -0.0321
10711SOL    HW133032   2.381   2.771   1.023 -1.0833  0.7535  1.6978
10711SOL    HW233033   2.471   2.705   1.142  0.9603 -0.0850 -0.2544
10712SOL     OW33034   6.693   6.566   2.475  0.4269 -0.4152 -0.1522
10712SOL    HW133035   6.688   6.662   2.447 -0.8677 -0.1790  0.7994
10712SOL    HW233036   6.788   6.543   2.496  0.7403  0.6922 -0.2864
10713SOL     OW33037   2.326   1.782   1.350 -0.0648 -0.1057  0.3748
10713SOL    HW133038   2.278   1.694   1.351  0.8303 -0.6114  0.4115
10713SOL    HW233039   2.283   1.844   1.416 -0.1355 -0.8330  1.0243
10714SOL     OW33040   1.230   6.623   6.690 -0.2168 -0.1363  0.3362
10714SOL    HW133041   1.313   6.575   6.720 -0.8489 -0.5421  1.4992
10714SOL    HW233042   1.256   6.701   6.633  1.0039  0.0074  1.0306
10715SOL     OW33043   1.099   5.287   4.753  0.1741  0.3598 -0.0537
10715SOL    HW133044   1.103   5.189   4.733  1.2362  0.6007 -1.1758
10715SOL    HW233045   1.146   5.337   4.680 -1.3600  1.8015 -0.0940
10716SOL     OW33046   5.247   6.766   2.386 -0.2019 -1.2177 -0.5308
10716SOL    HW133047   5.175   6.774   2.318 -0.7606 -2.8730 -0.1951
10716SOL    HW233048   5.309   6.692   2.360  1.4896  0.2670 -0.8907
10717SOL     OW33049   4.407   1.906   3.317 -0.5735 -0.1227  0.3587
10717SOL    HW133050   4.440   1.985   3.368 -2.0206 -0.7570  2.3734
10717SOL    HW233051   4.313   1.922   3.288 -1.0949 -1.3200  1.3203
10718SOL     OW33052   1.352   0.604   0.501 -0.2737 -0.5515  0.2816
10718SOL    HW133053   1.260   0.642   0.487 -0.1602 -0.5764 -0.6403
10718SOL    HW233054   1.395   0.589   0.411  2.1433  3.0934  0.5887
10719SOL     OW33055   2.607   1.928   2.678  0.6905 -0.3586 -0.3275
10719SOL    HW133056   2.626   1.861   2.749  0.7665 -0.0820 -0.0878
10719SOL    HW233057   2.680   1.926   2.610  0.9024 -0.2303 -0.1045
10720SOL     OW33058   5.010   5.660   2.423  0.0734  0.3597  0.7670
10720SOL    HW133059   5.093   5.627   2.380 -0.6933 -0.8355  0.1418
10720SOL    HW233060   5.008   5.630   2.519 -0.2246 -0.7397  0.4295
10721SOL     OW33061   2.479   6.473   0.423 -0.4679  0.3935 -0.2094
10721SOL    HW133062   2.407   6.409   0.397  1.0050 -0.9784 -1.1579
10721SOL    HW233063   2.502   6.459   0.519 -0.3116 -0.3669 -0.3516
10722SOL     OW33064   1.915   6.877   5.987  0.1011 -0.2532 -0.3167
10722SOL    HW133065   1.915   6.834   6.077  1.3268 -0.9908 -0.6526
10722SOL    HW233066   1.875   6.969   5.994 -0.1313 -0.4294  0.9031
10723SOL     OW33067   2.579   6.829   1.339 -0.1576  0.8662  0.0339
10723SOL    HW133068   2.589   6.853   1.242  1.1402  0.1655 -0.0282
10723SOL    HW233069   2.667   6.838   1.385 -0.8235  1.4988  1.2416
10724SOL     OW33070   0.237   4.059   3.522  0.3568 -0.0009 -0.0208
10724SOL    HW133071   0.294   3.977   3.522 -0.5927 -0.7762 -3.2077
10724SOL    HW233072   0.143   4.035   3.500 -0.1941  1.8237  0.1506
10725SOL     OW33073   0.636   3.656   4.521  0.7516 -0.5864 -0.2358
10725SOL    HW133074   0.614   3.737   4.575  1.2100  0.5339 -1.6695
10725SOL    HW233075   0.566   3.586   4.536 -0.0402  0.3317  0.4826
10726SOL     OW33076   2.020   0.692   3.402 -0.0289 -0.7401 -0.1586
10726SOL    HW133077   1.986   0.771   3.350  0.2481 -0.4190  0.1417
10726SOL    HW233078   1.990   0.608   3.358 -1.6643 -0.4743  0.3901
10727SOL     OW33079   3.387   5.744   1.086 -0.6790 -0.7780 -0.2865
10727SOL    HW133080   3.296   5.770   1.052 -0.1644  0.3246 -0.8931
10727SOL    HW233081   3.383   5.727   1.184 -1.8383 -2.2312 -0.5652
10728SOL     OW33082   2.837   0.290   2.924  0.1606  0.7984 -0.3258
10728SOL    HW133083   2.871   0.206   2.965 -1.2955  0.4290  0.1758
10728SOL    HW233084   2.912   0.338   2.878  0.6497 -1.7687 -2.4048
10729SOL     OW33085   6.671   6.438   0.913  0.0033 -0.3946  0.3767
10729SOL    HW133086   6.768   6.417   0.902  0.3218  1.8287 -1.6745
10729SOL    HW233087   6.657   6.537   0.914 -2.2998 -0.6483 -0.0356
10730SOL     OW33088   3.091   6.483   4.904 -0.0169  0.3836 -0.3214
10730SOL    HW133089   3.132   6.392   4.909 -1.0467 -0.2840 -2.4883
10730SOL    HW233090   3.163   6.552   4.893  0.7269 -0.2592  0.4425
10731SOL     OW33091   6.490   5.352   2.555  0.5841  0.8384  0.0505
10731SOL    HW133092   6.506   5.417   2.480  2.4005  1.4644  0.9193
10731SOL    HW233093   6.472   5.403   2.639  0.3081  0.1764  0.3939
10732SOL     OW33094   6.380   4.252   0.313 -0.4937  0.0976  0.2734
10732SOL    HW133095   6.430   4.270   0.398 -0.2038 -0.2660  0.1822
10732SOL    HW233096   6.423   4.176   0.265 -0.0182  0.9633 -0.7224
10733SOL     OW33097   2.919   3.778   5.669  0.1817 -0.4781 -0.0589
10733SOL    HW133098   3.017   3.793   5.666  0.0221  0.7174  0.3788
10733SOL    HW233099   2.879   3.800   5.580  0.0896  0.7408  0.2728
10734SOL     OW33100   4.195   5.448   2.261 -0.1544 -0.3813  0.3173
10734SOL    HW133101   4.293   5.435   2.280  0.3015  0.3660 -1.3175
10734SOL    HW233102   4.180   5.541   2.227 -1.3202 -0.7311 -0.1666
10735SOL     OW33103   3.141   0.664   4.787  0.3591  0.5623  0.2758
10735SOL    HW133104   3.195   0.611   4.721 -1.5710 -0.3946 -0.6542
10735SOL    HW233105   3.075   0.720   4.737 -0.4400  0.6196  1.3744
10736SOL     OW33106   6.858   0.274   1.882  0.0816 -0.6674  0.1170
10736SOL    HW133107   6.898   0.324   1.805  2.4260 -1.0174  1.0259
10736SOL    HW233108   6.884   0.317   1.968 -0.6983 -1.5220  0.8183
10737SOL     OW33109   3.284   6.634   1.828 -0.6127  0.1237  0.3924
10737SOL    HW133110   3.368   6.583   1.842 -1.5238 -1.3876  0.5419
10737SOL    HW233111   3.304   6.732   1.827  0.7964 -0.0528  3.1208
10738SOL     OW33112   3.111   0.153   2.690 -0.1538 -0.2503 -0.4757
10738SOL    HW133113   3.097   0.111   2.601  2.2770  0.9469 -1.5232
10738SOL    HW233114   3.064   0.241   2.694  1.1896  0.5337 -1.3103
10739SOL     OW33115   1.786   6.410   5.152  0.2194 -0.5223 -0.6263
10739SOL    HW133116   1.798   6.418   5.251  1.1255  2.0670 -0.8662
10739SOL    HW233117   1.705   6.461   5.123  0.0006 -1.1981 -1.2444
10740SOL     OW33118   1.048   1.349   3.884  0.1150  0.5462 -0.0117
10740SOL    HW133119   1.116   1.312   3.822  0.4201  1.0085  0.0369
10740SOL    HW233120   0.965   1.294   3.880  0.5950 -0.2033  0.1495
10741SOL     OW33121   3.490   0.023   2.287 -0.2501  0.4080 -0.1192
10741SOL    HW133122   3.447   0.002   2.200 -1.0994  0.3757  0.3013
10741SOL    HW233123   3.505   0.122   2.293  0.8705  0.2949 -0.7747
10742SOL     OW33124   4.638   5.119   1.057  0.3294 -0.6025  0.3056
10742SOL    HW133125   4.621   5.021   1.041  1.4568 -0.8522  0.5120
10742SOL    HW233126   4.618   5.140   1.153 -0.2619 -0.5389  0.1750
10743SOL     OW33127   5.328   5.199   6.300  0.0925  0.5483 -0.5932
10743SOL    HW133128   5.262   5.153   6.359  0.9816 -2.1439 -1.5472
10743SOL    HW233129   5.316   5.170   6.205  1.9933  0.7213 -0.9407
10744SOL     OW33130   4.994   1.563   3.056 -0.0630 -0.1154  0.5288
10744SOL    HW133131   4.968   1.526   2.967 -1.3117  0.5164  0.6093
10744SOL    HW233132   5.081   1.612   3.047 -0.6534  0.7921 -0.5928
10745SOL     OW33133   5.214   6.580   6.562 -0.7500 -0.1314 -0.0188
10745SOL    HW133134   5.118   6.554   6.573 -1.0787 -0.4949 -2.9414
10745SOL    HW233135   5.267   6.498   6.538  0.5379 -0.1161  2.4887
10746SOL     OW33136   3.363   6.854   5.224 -0.1639 -0.1414  0.4600
10746SOL    HW133137   3.393   6.943   5.191  0.2602 -0.6574 -0.5927
10746SOL    HW233138   3.433   6.785   5.204 -0.3324 -0.6527  1.5747
10747SOL     OW33139   3.076   1.313   0.111 -0.3901 -0.1082 -0.2433
10747SOL    HW133140   3.120   1.403   0.104  0.1157 -0.2109  1.2498
10747SOL    HW233141   3.133   1.252   0.166 -1.7458 -0.6611  0.6074
10748SOL     OW33142   4.619   3.278   6.790 -0.1776  0.4503 -0.1984
10748SOL    HW133143   4.545   3.223   6.831  0.2620 -0.8987 -1.1359
10748SOL    HW233144   4.700   3.220   6.778  1.7304  2.3229  2.4866
10749SOL     OW33145   5.803   0.980   1.557 -0.0746  0.0308  0.1860
10749SOL    HW133146   5.849   0.978   1.468  1.3231  0.2728  0.8778
10749SOL    HW233147   5.859   0.933   1.624 -1.6691 -1.2072  0.7245
10750SOL     OW33148   2.522   1.034   2.217 -0.2455  0.1342 -0.0443
10750SOL    HW133149   2.591   1.026   2.145 -1.6396 -0.1869 -1.3856
10750SOL    HW233150   2.509   1.130   2.241  0.6531  0.1962  0.2413
10751SOL     OW33151   3.755   4.051   5.497 -0.4046  0.1844 -0.0853
10751SOL    HW133152   3.657   4.029   5.500 -0.5039  0.6170  0.0632
10751SOL    HW233153   3.769   4.129   5.435  0.0435 -0.8272 -1.2878
10752SOL     OW33154   6.495   5.228   0.418  0.1946  0.6079  0.4740
10752SOL    HW133155   6.442   5.233   0.503 -0.5166  1.4985 -0.0099
10752SOL    HW233156   6.433   5.230   0.340  0.8012 -0.8204 -0.0805
10753SOL     OW33157   3.734   6.438   5.432 -0.1961  0.1639 -0.2228
10753SOL    HW133158   3.737   6.490   5.517 -0.3937 -0.3631  0.1053
10753SOL    HW233159   3.826   6.434   5.392  0.4874 -1.9300  1.3882
10754SOL     OW33160   1.015   3.968   4.877  0.2387 -0.6799  0.0523
10754SOL    HW133161   1.078   4.040   4.847 -0.2619 -0.7273 -1.2011
10754SOL    HW233162   1.055   3.918   4.953  1.2469 -0.0258 -0.0301
10755SOL     OW33163   2.785   3.349   1.353  0.1682  0.1020  0.6854
10755SOL    HW133164   2.768   3.447   1.357  0.6470  0.2184 -0.0657
10755SOL    HW233165   2.698   3.300   1.364 -0.2833  0.6371 -0.3204
10756SOL     OW33166   5.711   3.834   0.310 -0.0799 -0.2976  0.0317
10756SOL    HW133167   5.676   3.777   0.384 -0.2615 -0.1417  0.0657
10756SOL    HW233168   5.757   3.777   0.242  1.6713 -0.2914  1.1376
10757SOL     OW33169   4.243   5.077   4.834  0.3970  0.0396  0.1897
10757SOL    HW133170   4.231   5.002   4.769  1.0295  0.6930 -0.7067
10757SOL    HW233171   4.168   5.077   4.899 -1.4665  0.6495 -1.8377
10758SOL     OW33172   1.982   2.647   6.392 -0.0720  0.1385  0.5176
10758SOL    HW133173   1.995   2.670   6.296 -1.4295 -1.4613 -0.0875
10758SOL    HW233174   2.071   2.643   6.438  0.5038  2.3168 -0.2872
10759SOL     OW33175   4.322   1.640   2.484 -0.2302 -0.7297 -0.1076
10759SOL    HW133176   4.344   1.583   2.564  2.5938  0.0473 -0.2141
10759SOL    HW233177   4.349   1.592   2.401 -2.1739 -1.0915 -0.5665
10760SOL     OW33178   4.034   2.353   1.187  0.1145  0.2543 -0.2346
10760SOL    HW133179   4.107   2.318   1.129  0.3973  1.6937 -0.7832
10760SOL    HW233180   4.015   2.288   1.260  1.2468 -0.5876 -0.6698
10761SOL     OW33181   3.397   5.600   2.947 -0.1080  1.1245 -0.0957
10761SOL    HW133182   3.399   5.504   2.973  2.4463  1.0715 -0.2824
10761SOL    HW233183   3.318   5.645   2.990 -1.3389 -1.0075 -0.0070
10762SOL     OW33184   2.108   5.297   2.817 -0.4934 -0.3964  0.5711
10762SOL    HW133185   2.109   5.200   2.840  1.1259 -0.4207  0.5180
10762SOL    HW233186   2.048   5.312   2.739 -2.2085 -1.0457  1.6952
10763SOL     OW33187   3.582   0.122   3.554 -0.5012  0.0542  0.3494
10763SOL    HW133188   3.539   0.111   3.465 -1.2532  0.0557  0.7099
10763SOL    HW233189   3.529   0.073   3.623  0.2340 -0.1808  0.7542
10764SOL     OW33190   6.900   6.009   4.857  0.7497  0.5598  0.0817
10764SOL    HW133191   6.866   5.952   4.932  1.1882 -0.0678 -0.1886
10764SOL    HW233192   6.859   5.979   4.771  2.2561 -0.4655 -0.3085
10765SOL     OW33193   0.945   6.702   0.226  0.1615  0.2223  0.1765
10765SOL    HW133194   0.905   6.674   0.139  0.7465  0.1019 -0.0593
10765SOL    HW233195   0.888   6.773   0.268  1.0663  1.9443 -1.3754
10766SOL     OW33196   6.953   0.455   0.405  0.6065  0.5109 -0.2237
10766SOL    HW133197   6.937   0.377   0.345 -0.7648  0.7728 -0.2357
10766SOL    HW233198   6.866   0.500   0.425  0.9010 -0.0300  2.6137
10767SOL     OW33199   5.771   6.853   1.966 -0.3647 -0.3779  0.5789
10767SOL    HW133200   5.677   6.881   1.947 -0.2944 -0.5222 -0.0138
10767SOL    HW233201   5.774   6.754   1.981 -0.2073 -0.4960 -0.1632
10768SOL     OW33202   5.571   6.958   1.412  0.1462 -0.0286 -0.7889
10768SOL    HW133203   5.518   6.883   1.450  0.0415  0.1382 -0.6062
10768SOL    HW233204   5.607   7.016   1.486 -1.2603  1.1230 -0.9617
10769SOL     OW33205   5.299   4.765   4.734  0.6404  0.0857 -0.3366
10769SOL    HW133206   5.200   4.748   4.735  0.5597  0.5120 -0.5319
10769SOL    HW233207   5.324   4.806   4.646  0.8675  0.6894  0.0036
10770SOL     OW33208   1.334   5.285   3.543  0.4816 -0.1554  0.4990
10770SOL    HW133209   1.406   5.224   3.576  0.0640 -0.1620  1.4523
10770SOL    HW233210   1.249   5.234   3.533  0.4093  0.0241  0.1879
10771SOL     OW33211   5.949   5.269   5.399 -0.2312 -0.2409 -0.3654
10771SOL    HW133212   5.874   5.304   5.342 -1.2384  0.2891  1.2261
10771SOL    HW233213   5.923   5.180   5.436  0.4547 -0.6238 -0.7971
10772SOL     OW33214   2.466   5.435   5.738 -0.5416  0.0635  0.1048
10772SOL    HW133215   2.543   5.495   5.719 -0.1553 -0.2626  0.6118
10772SOL    HW233216   2.456   5.424   5.837 -1.0673 -0.1218  0.0352
10773SOL     OW33217   5.495   3.254   2.175 -0.3786 -0.3191 -0.1807
10773SOL    HW133218   5.490   3.166   2.130  0.8644 -0.4912 -0.0234
10773SOL    HW233219   5.422   3.314   2.142 -0.1287 -0.7876 -1.6318
10774SOL     OW33220   5.365   5.420   6.128  0.5459  0.0933 -0.1447
10774SOL    HW133221   5.358   5.326   6.163 -0.5701 -0.5382 -1.9468
10774SOL    HW233222   5.457   5.435   6.092  0.3091 -0.8221 -1.1731
10775SOL     OW33223   5.294   0.925   2.775 -0.1429 -0.6531 -0.2589
10775SOL    HW133224   5.272   0.860   2.702  0.0265 -1.3715  0.3131
10775SOL    HW233225   5.214   0.983   2.793  0.0464  0.0153 -1.4846
10776SOL     OW33226   5.862   4.104   1.648  0.0010 -0.1222  0.8594
10776SOL    HW133227   5.936   4.040   1.669  0.9691  0.8043  0.3582
10776SOL    HW233228   5.807   4.068   1.573  0.2735 -0.5577  0.8635
10777SOL     OW33229   0.802   5.911   1.693  0.1371 -0.1946 -0.6417
10777SOL    HW133230   0.802   5.890   1.595 -1.4392  0.7116 -0.8607
10777SOL    HW233231   0.776   6.006   1.707 -1.3197 -0.7564  0.7396
10778SOL     OW33232   2.105   3.078   6.336  0.2651 -0.1109  0.0354
10778SOL    HW133233   2.073   3.139   6.263  0.8618 -1.0079 -1.0039
10778SOL    HW233234   2.133   3.133   6.415  0.3282  0.9365 -0.6879
10779SOL     OW33235   5.711   3.968   1.472  0.3316 -0.3819  0.8720
10779SOL    HW133236   5.721   3.873   1.501 -0.3791 -0.4235  0.9909
10779SOL    HW233237   5.684   3.971   1.376  0.7119 -0.2891  0.7667
10780SOL     OW33238   5.516   6.248   4.283 -0.1856  0.0349 -0.0155
10780SOL    HW133239   5.483   6.166   4.238 -0.7827 -0.5391  1.3938
10780SOL    HW233240   5.497   6.242   4.381  1.0947  1.2034  0.3406
10781SOL     OW33241   2.004   2.462   6.823  0.3571 -0.0248 -0.6441
10781SOL    HW133242   2.066   2.403   6.874  1.3444  1.5521  0.0899
10781SOL    HW233243   1.936   2.501   6.885  1.2420  1.4929 -0.5530
10782SOL     OW33244   5.549   0.562   1.333 -0.2492  0.6271  0.8736
10782SOL    HW133245   5.634   0.511   1.348  1.2830  2.9602  0.7533
10782SOL    HW233246   5.570   0.651   1.292 -3.1455 -0.2409 -3.0483
10783SOL     OW33247   5.799   1.618   6.475  0.4727 -0.4563 -0.1514
10783SOL    HW133248   5.767   1.555   6.405  0.6945  0.6173 -1.2516
10783SOL    HW233249   5.863   1.683   6.435 -0.7249  1.2806  0.6204
10784SOL     OW33250   5.688   4.393   2.589 -0.0429  0.0854  0.4428
10784SOL    HW133251   5.596   4.426   2.606 -0.9233 -1.2655 -1.3686
10784SOL    HW233252   5.701   4.305   2.635  0.4929  0.4639  1.0256
10785SOL     OW33253   1.851   6.193   2.526 -1.0769 -0.7789 -0.3030
10785SOL    HW133254   1.809   6.123   2.584 -1.0488 -0.4713  0.0838
10785SOL    HW233255   1.787   6.268   2.512 -0.5920 -0.2262  0.4343
10786SOL     OW33256   1.863   0.352   2.314  0.2989  0.2991 -0.2053
10786SOL    HW133257   1.947   0.354   2.368 -0.3408  2.2834  0.7930
10786SOL    HW233258   1.879   0.395   2.225  0.9234 -1.5084 -1.0170
10787SOL     OW33259   6.068   6.867   5.244  0.6103 -0.1844  0.3813
10787SOL    HW133260   6.138   6.883   5.313  1.2065 -0.7207 -0.0888
10787SOL    HW233261   6.033   6.774   5.252 -0.4798  0.2576  0.9833
10788SOL     OW33262   1.147   2.424   0.963 -0.0804  0.6397  0.0885
10788SOL    HW133263   1.109   2.458   1.049 -0.1519  0.8317 -0.0190
10788SOL    HW233264   1.105   2.336   0.941  0.8833 -0.0527  0.9137
10789SOL     OW33265   1.270   0.086   6.070 -0.0191 -0.7194  0.1298
10789SOL    HW133266   1.207   0.161   6.087 -0.2116 -1.4417  3.1156
10789SOL    HW233267   1.220   0.006   6.037 -0.1509 -0.2767 -0.7564
10790SOL     OW33268   5.579   1.872   2.646  0.2647  0.9066  0.1382
10790SOL    HW133269   5.522   1.954   2.646 -0.4933  0.3911  0.4281
10790SOL    HW233270   5.668   1.893   2.687  0.4189  1.8042 -0.6181
10791SOL     OW33271   2.766   5.909   2.222  0.2693 -0.7340 -0.5533
10791SOL    HW133272   2.735   5.831   2.277 -1.5705  0.6407  0.4447
10791SOL    HW233273   2.857   5.937   2.252 -0.2863 -0.6488  1.1206
10792SOL     OW33274   0.617   6.598   3.627 -0.3267  0.1133  0.0242
10792SOL    HW133275   0.609   6.517   3.570  0.4793  1.0886 -1.5661
10792SOL    HW233276   0.665   6.576   3.712  1.5768 -0.7078 -1.2196
10793SOL     OW33277   5.930   2.306   6.787  0.2761  0.0374  0.0468
10793SOL    HW133278   5.836   2.314   6.754 -0.2334 -0.7519  1.2808
10793SOL    HW233279   5.970   2.398   6.795 -0.8722  0.4746  0.8988
10794SOL     OW33280   2.938   3.242   2.521 -0.0580  0.2278  0.3411
10794SOL    HW133281   2.914   3.258   2.617 -0.6495 -0.7180  0.3648
10794SOL    HW233282   2.868   3.282   2.462  0.0312  0.3514  0.3191
10795SOL     OW33283   6.566   2.303   2.379  0.4384 -0.5324 -0.0607
10795SOL    HW133284   6.604   2.225   2.330 -1.2194  0.4025 -3.1091
10795SOL    HW233285   6.504   2.271   2.450  0.4497 -2.0069 -0.6856
10796SOL     OW33286   5.306   6.034   5.609  0.4358 -0.2948  0.4541
10796SOL    HW133287   5.228   6.085   5.574  0.2167 -0.2081  1.0686
10796SOL    HW233288   5.374   6.097   5.647  0.4230 -0.4249  0.6933
10797SOL     OW33289   6.743   6.204   3.359  1.0370 -0.8587 -0.1775
10797SOL    HW133290   6.767   6.108   3.371  2.0165 -0.5469  0.5292
10797SOL    HW233291   6.694   6.237   3.440  1.6245 -0.5073  0.0447
10798SOL     OW33292   1.482   6.094   3.757  0.2129  0.4497  0.5343
10798SOL    HW133293   1.514   6.028   3.826  2.2569  1.4987  0.6601
10798SOL    HW233294   1.455   6.179   3.803 -1.2006  0.1536  0.2666
10799SOL     OW33295   3.230   1.066   2.686 -0.3583 -0.0045  0.2701
10799SOL    HW133296   3.298   1.124   2.643 -0.0108 -0.0709  0.7192
10799SOL    HW233297   3.255   1.051   2.782  0.4862 -2.2967 -0.2440
10800SOL     OW33298   2.047   1.569   1.277 -0.0671 -0.0414 -0.5253
10800SOL    HW133299   2.100   1.555   1.361  2.5000  1.4622 -1.7649
10800SOL    HW233300   2.083   1.509   1.206 -0.1999  0.8356 -1.3470
10801SOL     OW33301   6.393   4.246   2.048  0.2131 -0.4267 -0.2642
10801SOL    HW133302   6.318   4.234   2.113  2.2351 -2.1756  1.9329
10801SOL    HW233303   6.445   4.328   2.073 -1.0749  1.0063 -2.0176
10802SOL     OW33304   6.309   0.621   0.261  0.2619 -0.0305 -0.2886
10802SOL    HW133305   6.269   0.683   0.193  0.6050  0.1120 -0.3634
10802SOL    HW233306   6.252   0.540   0.270  0.0160  0.1192 -0.4760
10803SOL     OW33307   3.773   4.205   6.402 -0.0487 -0.1639  0.0246
10803SOL    HW133308   3.673   4.209   6.404 -0.4063 -1.8985 -4.1769
10803SOL    HW233309   3.809   4.287   6.357  0.4411  0.1774  1.0007
10804SOL     OW33310   1.678   5.758   4.316  0.2753  0.1718  0.1573
10804SOL    HW133311   1.654   5.711   4.401  0.2241 -0.7152 -0.3431
10804SOL    HW233312   1.774   5.784   4.319  0.7405 -1.4053 -0.2149
10805SOL     OW33313   0.615   2.139   3.244 -0.2855 -0.0971  0.0326
10805SOL    HW133314   0.601   2.220   3.300 -0.3106  0.5452 -0.8672
10805SOL    HW233315   0.652   2.065   3.299 -2.0741 -0.0960  1.3047
10806SOL     OW33316   4.796   1.988   3.444 -0.2958 -0.7745  0.0430
10806SOL    HW133317   4.787   1.892   3.417  1.1850 -0.4506 -1.8386
10806SOL    HW233318   4.707   2.032   3.443 -0.8418 -1.8568 -0.1950
10807SOL     OW33319   0.963   0.998   4.036 -0.5941  0.2986  0.4477
10807SOL    HW133320   0.901   1.034   3.965 -0.1439 -0.5102 -0.3610
10807SOL    HW233321   0.992   1.074   4.095 -1.0303  0.9705 -0.1764
10808SOL     OW33322   5.842   1.174   6.657  0.2097  0.5639  0.0152
10808SOL    HW133323   5.780   1.173   6.579 -0.7465  2.1926  0.6803
10808SOL    HW233324   5.799   1.126   6.734  0.6427 -0.0373 -0.1186
10809SOL     OW33325   0.337   0.452   3.473  0.1824  0.1384  0.6375
10809SOL    HW133326   0.342   0.355   3.497 -2.2117 -0.0749  0.4940
10809SOL    HW233327   0.262   0.495   3.523 -0.1166  1.4204 -0.8318
10810SOL     OW33328   6.666   4.964   2.871  0.3179 -0.0921  0.1626
10810SOL    HW133329   6.683   5.003   2.961  1.8063  1.7731 -0.8506
10810SOL    HW233330   6.630   5.034   2.810  0.4088 -1.0211 -1.0024
10811SOL     OW33331   5.592   4.213   2.407 -0.4377  0.2244  0.5690
10811SOL    HW133332   5.643   4.274   2.468  0.7132 -0.5337  0.4015
10811SOL    HW233333   5.627   4.223   2.314 -0.9163  0.0186  0.3655
10812SOL     OW33334   3.449   0.046   5.028  0.4228 -0.1812 -0.8599
10812SOL    HW133335   3.466   0.115   4.957 -0.0413  1.5745  0.6605
10812SOL    HW233336   3.526  -0.018   5.030  2.3090  1.9606 -0.4694
10813SOL     OW33337   6.254   5.495   3.736 -0.1324 -0.0295  0.8178
10813SOL    HW133338   6.279   5.420   3.675 -1.0531 -0.2136  0.6626
10813SOL    HW233339   6.291   5.476   3.827 -1.1094 -1.1284  1.0119
10814SOL     OW33340   0.872   2.530   4.667  0.3174 -0.0778 -0.0455
10814SOL    HW133341   0.852   2.591   4.743  0.0800 -0.9243  0.5851
10814SOL    HW233342   0.945   2.467   4.692 -1.1564 -1.7360  0.2672
10815SOL     OW33343   4.882   3.312   3.810  0.1861 -0.4861  0.2669
10815SOL    HW133344   4.879   3.338   3.907 -0.2771  0.9442 -0.0910
10815SOL    HW233345   4.834   3.226   3.797 -0.6643 -0.1783  1.1846
10816SOL     OW33346   2.345   6.177   2.543 -0.2701 -0.0975  0.5068
10816SOL    HW133347   2.334   6.268   2.504 -0.6873  0.8143  2.6117
10816SOL    HW233348   2.326   6.180   2.641 -1.6024 -2.7124  0.4237
10817SOL     OW33349   1.295   5.197   1.255 -0.0802 -0.2001 -0.0805
10817SOL    HW133350   1.368   5.173   1.320 -1.3190 -0.3890  1.2950
10817SOL    HW233351   1.239   5.270   1.294 -2.8612 -2.5464  0.6257
10818SOL     OW33352   4.356   5.843   5.056  0.0393  0.1839  0.0362
10818SOL    HW133353   4.429   5.884   5.111 -0.8001  2.6311 -0.5137
10818SOL    HW233354   4.383   5.752   5.027  2.5132  0.6815  0.5390
10819SOL     OW33355   3.539   5.586   0.372  0.2439  0.0532  0.5551
10819SOL    HW133356   3.552   5.641   0.289  1.2872 -0.6754  0.2168
10819SOL    HW233357   3.624   5.538   0.393 -0.5307 -1.1155  1.0725
10820SOL     OW33358   5.374   3.465   4.912 -0.3282 -0.2949  0.4455
10820SOL    HW133359   5.360   3.549   4.859  0.6778  0.3142  1.1092
10820SOL    HW233360   5.415   3.395   4.853  0.0431  0.1137  0.2127
10821SOL     OW33361   0.378   3.395   5.822 -0.0276  0.5553  0.0721
10821SOL    HW133362   0.341   3.315   5.775 -0.4337  0.6382  0.2460
10821SOL    HW233363   0.350   3.478   5.773  0.1066  0.6090  0.0856
10822SOL     OW33364   3.446   0.053   3.306 -0.3619  0.1235 -0.3690
10822SOL    HW133365   3.491  -0.021   3.257 -1.0170 -0.0752 -0.6789
10822SOL    HW233366   3.347   0.044   3.296 -0.7093 -1.4914  3.1975
10823SOL     OW33367   3.634   6.074   5.986  0.5864  0.2871  0.6028
10823SOL    HW133368   3.601   6.129   6.062 -0.4858  0.9468 -0.3037
10823SOL    HW233369   3.564   6.006   5.962  0.7250  0.3814 -0.0824
10824SOL     OW33370   0.554   2.665   0.596 -0.2208  0.1700  0.0125
10824SOL    HW133371   0.534   2.728   0.671  0.1336  0.6949 -0.3180
10824SOL    HW233372   0.470   2.645   0.546 -0.5297 -0.4948  0.7718
10825SOL     OW33373   4.776   1.371   1.164  0.2816 -0.2698 -0.0920
10825SOL    HW133374   4.865   1.330   1.144  0.3034 -1.0634  1.4908
10825SOL    HW233375   4.783   1.471   1.159  1.0151 -0.3564 -0.9174
10826SOL     OW33376   3.351   5.248   4.210  0.0820 -0.2982  0.2225
10826SOL    HW133377   3.430   5.272   4.267 -0.2485 -0.3742  0.7254
10826SOL    HW233378   3.301   5.173   4.254  0.1065 -0.7043 -0.4332
10827SOL     OW33379   2.825   2.650   6.141  0.0513 -0.0269 -0.3972
10827SOL    HW133380   2.734   2.633   6.178 -0.0820 -0.6606 -0.9887
10827SOL    HW233381   2.851   2.574   6.081  0.2502  0.9610 -1.6112
10828SOL     OW33382   4.440   2.442   4.627 -0.4736  0.2095 -0.3604
10828SOL    HW133383   4.453   2.350   4.663  0.3153  0.5303  0.2016
10828SOL    HW233384   4.345   2.453   4.598 -0.2970 -1.1737 -1.6028
10829SOL     OW33385   6.003   4.256   3.602 -0.0732  0.2827  0.5479
10829SOL    HW133386   5.985   4.268   3.700 -2.9865  0.4055  0.1106
10829SOL    HW233387   5.997   4.159   3.578  0.5877  0.2569  0.4686
10830SOL     OW33388   0.835   4.675   0.361  0.0392  0.1806  0.5403
10830SOL    HW133389   0.930   4.652   0.383  0.3681 -1.4474 -2.1337
10830SOL    HW233390   0.802   4.743   0.426  1.6827 -2.0949  4.0979
10831SOL     OW33391   1.030   3.263   3.946 -0.2657 -1.3801 -0.0114
10831SOL    HW133392   0.981   3.218   3.871 -0.3806  0.3318 -1.0177
10831SOL    HW233393   1.095   3.329   3.909 -0.3894 -0.4123  1.4027
10832SOL     OW33394   6.655   4.061   0.951  0.3102  0.3002  0.3413
10832SOL    HW133395   6.723   4.126   0.917 -1.7270  2.8799  0.8929
10832SOL    HW233396   6.578   4.057   0.887  0.5723 -2.0902  0.0490
10833SOL     OW33397   0.346   2.333   4.309  0.2619  0.2434  0.0977
10833SOL    HW133398   0.400   2.248   4.303 -0.3565 -0.2785  1.5409
10833SOL    HW233399   0.335   2.371   4.217 -0.3276 -1.8162 -0.7672
10834SOL     OW33400   1.037   3.479   4.903 -0.3359 -0.0838 -0.2008
10834SOL    HW133401   0.995   3.568   4.886  1.2216  1.0828  1.6846
10834SOL    HW233402   1.128   3.476   4.860 -1.6795 -2.1478 -3.2574
10835SOL     OW33403   4.236   6.876   0.572  0.2626 -0.5192 -0.0244
10835SOL    HW133404   4.277   6.958   0.534  1.0997 -1.9697 -2.4930
10835SOL    HW233405   4.306   6.805   0.583 -0.3244 -0.8193  2.5355
10836SOL     OW33406   1.078   6.097   0.248 -0.1950 -0.0855 -0.1693
10836SOL    HW133407   1.129   6.067   0.167 -1.3435  1.7017 -1.6543
10836SOL    HW233408   0.989   6.133   0.219 -0.9956 -0.1897  2.0074
10837SOL     OW33409   2.175   1.216   1.344  0.0885 -0.7053  0.0625
10837SOL    HW133410   2.248   1.279   1.369  0.4969 -1.2068  0.1564
10837SOL    HW233411   2.152   1.158   1.423 -0.3270 -0.6325 -0.0015
10838SOL     OW33412   5.696   4.751   4.934 -0.0469 -0.0272 -0.1450
10838SOL    HW133413   5.762   4.756   5.009  2.0051  0.2607 -1.8773
10838SOL    HW233414   5.665   4.843   4.911  1.4792  0.2031 -1.4152
10839SOL     OW33415   0.717   1.516   4.218 -0.2023  0.9598  0.2795
10839SOL    HW133416   0.794   1.546   4.162  0.0503 -0.8566 -0.4177
10839SOL    HW233417   0.750   1.477   4.303 -0.4510  1.4569  0.6116
10840SOL     OW33418   0.133   0.488   3.679 -0.1385  0.1324  0.6552
10840SOL    HW133419   0.038   0.483   3.649 -0.1009 -0.2959  0.5915
10840SOL    HW233420   0.143   0.437   3.764  0.4998 -1.9284 -0.5756
10841SOL     OW33421   5.936   5.775   3.108 -0.5658  0.0477  0.3623
10841SOL    HW133422   6.008   5.719   3.067 -0.2624  0.9445 -0.3420
10841SOL    HW233423   5.848   5.729   3.096 -0.0028 -1.7267  2.4254
10842SOL     OW33424   6.809   3.128   1.659  0.0176  0.3566  0.1897
10842SOL    HW133425   6.868   3.077   1.722 -0.0696 -1.7785 -1.3484
10842SOL    HW233426   6.854   3.137   1.570 -1.6735 -0.8002 -0.8445
10843SOL     OW33427   5.484   5.360   4.678  0.2616  0.3275  0.6935
10843SOL    HW133428   5.568   5.343   4.627 -0.3221 -0.8677  0.0888
10843SOL    HW233429   5.443   5.273   4.705  0.2574  0.9032  2.7673
10844SOL     OW33430   3.698   0.961   0.118 -0.0926  0.8898  0.2815
10844SOL    HW133431   3.731   0.873   0.085 -0.7488  0.2304  1.3192
10844SOL    HW233432   3.747   1.035   0.072 -2.4216  0.1562 -3.7828
10845SOL     OW33433   2.121   2.366   5.386  0.4957  0.1307  0.1627
10845SOL    HW133434   2.208   2.415   5.382  0.0325  1.0362  0.7291
10845SOL    HW233435   2.065   2.390   5.307  0.1746  0.7206  0.5601
10846SOL     OW33436   4.152   1.234   6.760 -0.4882 -0.1639 -0.3969
10846SOL    HW133437   4.093   1.160   6.725 -0.7349  0.0344 -0.3998
10846SOL    HW233438   4.096   1.314   6.781 -0.0346  0.6146 -1.9830
10847SOL     OW33439   1.561   1.060   3.076  0.3619  0.3984 -0.8865
10847SOL    HW133440   1.573   1.000   3.155  1.1639  0.0662 -1.2475
10847SOL    HW233441   1.640   1.121   3.068 -0.4432  1.5221 -0.5276
10848SOL     OW33442   3.757   2.351   0.858 -0.1406 -0.2836  0.1753
10848SOL    HW133443   3.842   2.393   0.888  0.9080 -1.3861 -1.1461
10848SOL    HW233444   3.698   2.421   0.818  0.5322  0.3319  0.2328
10849SOL     OW33445   6.653   6.238   3.618 -0.1213  0.2210 -0.1254
10849SOL    HW133446   6.631   6.141   3.617  3.0785 -0.6170 -1.0582
10849SOL    HW233447   6.684   6.265   3.709  0.5147 -0.0624 -0.2515
10850SOL     OW33448   6.561   4.169   6.922 -0.1243 -0.2336 -0.7199
10850SOL    HW133449   6.581   4.145   6.827  1.8409  1.6380 -0.8710
10850SOL    HW233450   6.555   4.268   6.931  0.8622 -0.2944  1.2822
10851SOL     OW33451   3.773   3.469   4.777 -0.4455 -0.1330  0.0307
10851SOL    HW133452   3.850   3.418   4.738 -1.6612 -0.6170 -1.8364
10851SOL    HW233453   3.775   3.460   4.877  0.9797 -1.4930 -0.0767
10852SOL     OW33454   3.343   0.743   5.798 -0.0684 -0.2235  0.2808
10852SOL    HW133455   3.313   0.650   5.819  0.7103 -0.0097  2.5233
10852SOL    HW233456   3.428   0.763   5.846 -0.2710  1.7071 -0.0758
10853SOL     OW33457   1.099   4.140   6.028  0.0569 -0.4687 -0.2558
10853SOL    HW133458   1.080   4.228   6.072 -0.2317 -0.8345  0.3683
10853SOL    HW233459   1.013   4.099   5.998  0.1746 -0.6383 -0.3622
10854SOL     OW33460   4.513   3.843   0.936 -0.9052  0.1152 -0.2317
10854SOL    HW133461   4.419   3.877   0.937 -1.7411 -2.0281 -0.8530
10854SOL    HW233462   4.531   3.795   0.851  1.1555  1.3914 -0.6077
10855SOL     OW33463   1.674   5.399   5.915 -0.4033  0.0219 -0.0944
10855SOL    HW133464   1.600   5.376   5.852  0.1292 -0.5994 -0.5060
10855SOL    HW233465   1.637   5.448   5.994 -1.3429 -0.8207  0.0050
10856SOL     OW33466   6.979   5.915   3.688  0.1388 -0.4959 -0.0834
10856SOL    HW133467   6.985   5.978   3.765  1.7008 -0.4561 -0.1902
10856SOL    HW233468   7.040   5.947   3.615  0.5443 -1.8269 -0.3544
10857SOL     OW33469   6.268   2.974   2.829  0.1640  0.6961 -0.1038
10857SOL    HW133470   6.266   2.950   2.926 -0.6450  1.4064  0.0666
10857SOL    HW233471   6.219   2.906   2.776  1.2604 -0.1061 -0.1240
10858SOL     OW33472   6.416   0.641   3.430 -0.0252  0.4188  0.3128
10858SOL    HW133473   6.391   0.673   3.521  0.9405  2.4831 -0.0959
10858SOL    HW233474   6.348   0.672   3.363  0.2451  0.5239  0.0823
10859SOL     OW33475   6.475   2.774   4.783  0.1701 -0.0209 -0.3044
10859SOL    HW133476   6.469   2.743   4.687 -1.7128 -2.9491  0.6002
10859SOL    HW233477   6.390   2.821   4.808  1.4690  2.6015 -0.5470
10860SOL     OW33478   6.494   6.325   6.559 -0.1118 -0.7274 -0.2484
10860SOL    HW133479   6.550   6.268   6.618 -0.7540 -0.8700  0.2326
10860SOL    HW233480   6.408   6.347   6.605 -0.4077 -0.4233 -0.9292
10861SOL     OW33481   4.217   2.982   1.417 -0.1507 -0.2948  0.1307
10861SOL    HW133482   4.129   2.990   1.464 -0.3934 -1.0090 -0.1840
10861SOL    HW233483   4.291   3.002   1.481 -0.4741 -1.3315  0.8602
10862SOL     OW33484   1.082   6.864   5.959 -0.2125  0.4099  0.0189
10862SOL    HW133485   1.020   6.941   5.952 -0.3765  0.3646  0.8775
10862SOL    HW233486   1.054   6.805   6.035  0.2630 -0.1713 -0.2447
10863SOL     OW33487   1.905   0.442   0.766 -0.1734 -0.2530 -0.0178
10863SOL    HW133488   1.852   0.525   0.780 -0.2064 -0.3868  0.6688
10863SOL    HW233489   2.000   0.465   0.749 -0.5218  0.0191 -1.7923
10864SOL     OW33490   0.525   6.073   4.269 -0.4025 -0.5094  0.2446
10864SOL    HW133491   0.538   6.118   4.357 -1.4646  0.8405 -0.2439
10864SOL    HW233492   0.614   6.047   4.231  0.0133 -2.5797  2.3792
10865SOL     OW33493   0.660   5.253   4.761 -0.0582 -0.0690  0.3366
10865SOL    HW133494   0.719   5.299   4.694  0.6915 -0.8043  0.4745
10865SOL    HW233495   0.576   5.306   4.774 -0.5805 -0.3145 -1.7763
10866SOL     OW33496   5.563   5.299   3.709  0.1527 -0.0520  0.4242
10866SOL    HW133497   5.597   5.356   3.784  0.0138 -1.3512  1.5165
10866SOL    HW233498   5.640   5.256   3.662  0.1867 -0.3259  0.7239
10867SOL     OW33499   5.754   3.332   4.894  0.4425 -0.5752 -0.2900
10867SOL    HW133500   5.664   3.326   4.850  0.6013 -0.9054 -0.5720
10867SOL    HW233501   5.758   3.266   4.970  0.1221  0.0843  0.3158
10868SOL     OW33502   6.375   4.516   3.173 -0.4273 -0.2373 -0.0493
10868SOL    HW133503   6.292   4.571   3.167 -0.2483  0.2507  1.5983
10868SOL    HW233504   6.379   4.454   3.094 -2.6339 -0.6671  0.1039
10869NA      NA33505   4.160   1.531   5.527  0.5170  0.1356  0.4234
10870NA      NA33506   6.675   2.961   4.286 -0.3903  0.5365 -0.0588
10871NA      NA33507   0.953   5.153   2.215  0.1882 -0.2877 -0.2851
10872NA      NA33508   0.892   3.076   4.677 -0.2443  0.4682 -0.4263
10873NA      NA33509   3.356   3.290   5.046  0.0239 -0.0136 -0.0195
10874NA      NA33510   2.666   0.611   0.744 -0.2770 -0.6328 -0.3681
10875NA      NA33511   4.705   5.159   0.688 -0.0666  0.0671 -0.5715
10876NA      NA33512   4.058   3.304   3.877 -0.1858 -0.0341 -0.3381
10877NA      NA33513   4.759   5.883   5.167 -0.3913  0.3850 -0.3770
10878NA      NA33514   1.799   3.874   2.278  0.3508 -0.2025 -0.2859
10879NA      NA33515   5.360   3.250   3.025  0.0464 -0.2667 -0.1509
10880NA      NA33516   5.002   2.980   5.381  0.0647 -0.4536 -0.3011
10881NA      NA33517   3.730   4.911   1.865  0.1180  0.2466  0.2615
10882NA      NA33518   4.409   4.756   5.082  0.2212  0.2071  0.4729
   7.00000   7.00000   7.00000
