CNT in water
33546
    1C        C    1   2.812   2.735   4.777
    1C        C    2   2.873   2.692   4.905
    1C        C    3   2.832   2.762   5.024
    1C        C    4   2.805   2.727   4.271
    1C        C    5   2.861   2.680   4.397
    1C        C    6   2.808   2.730   4.524
    1C        C    7   2.989   2.607   4.649
    1C        C    8   2.865   2.685   4.650
    1C        C    9   3.054   2.572   4.775
    1C        C   10   2.991   2.605   4.903
    1C        C   11   3.166   2.466   5.019
    1C        C   12   3.041   2.536   5.019
    1C        C   13   2.801   2.721   3.765
    1C        C   14   2.857   2.674   3.892
    1C        C   15   2.803   2.724   4.018
    1C        C   16   2.983   2.600   4.144
    1C        C   17   2.859   2.677   4.144
    1C        C   18   3.048   2.567   4.270
    1C        C   19   2.985   2.603   4.397
    1C        C   20   3.186   2.514   4.522
    1C        C   21   3.051   2.569   4.523
    1C        C   22   3.257   2.491   4.647
    1C        C   23   3.188   2.514   4.774
    1C        C   24   3.400   2.474   4.901
    1C        C   25   3.252   2.471   4.899
    1C        C   26   3.475   2.504   5.019
    1C        C   27   2.797   2.716   3.259
    1C        C   28   2.853   2.669   3.386
    1C        C   29   2.799   2.719   3.512
    1C        C   30   2.979   2.595   3.639
    1C        C   31   2.855   2.672   3.639
    1C        C   32   3.044   2.562   3.765
    1C        C   33   2.981   2.597   3.891
    1C        C   34   3.182   2.511   4.017
    1C        C   35   3.046   2.563   4.018
    1C        C   36   3.253   2.492   4.143
    1C        C   37   3.185   2.515   4.269
    1C        C   38   3.399   2.468   4.395
    1C        C   39   3.255   2.492   4.395
    1C        C   40   3.473   2.462   4.521
    1C        C   41   3.401   2.469   4.647
    1C        C   42   3.621   2.469   4.773
    1C        C   43   3.474   2.462   4.774
    1C        C   44   3.694   2.489   4.900
    1C        C   45   3.616   2.508   5.020
    1C        C   46   2.795   2.713   2.754
    1C        C   47   2.850   2.665   2.880
    1C        C   48   2.796   2.715   3.007
    1C        C   49   2.975   2.590   3.133
    1C        C   50   2.852   2.668   3.133
    1C        C   51   3.041   2.557   3.260
    1C        C   52   2.977   2.592   3.386
    1C        C   53   3.179   2.507   3.512
    1C        C   54   3.042   2.558   3.512
    1C        C   55   3.250   2.488   3.638
    1C        C   56   3.181   2.511   3.764
    1C        C   57   3.396   2.465   3.890
    1C        C   58   3.251   2.489   3.890
    1C        C   59   3.469   2.460   4.015
    1C        C   60   3.397   2.468   4.142
    1C        C   61   3.617   2.466   4.267
    1C        C   62   3.471   2.460   4.268
    1C        C   63   3.690   2.476   4.393
    1C        C   64   3.619   2.469   4.520
    1C        C   65   3.833   2.515   4.644
    1C        C   66   3.692   2.477   4.646
    1C        C   67   3.904   2.539   4.769
    1C        C   68   3.838   2.516   4.897
    1C        C   69   4.060   2.549   5.011
    1C        C   70   3.925   2.504   5.012
    1C        C   71   2.798   2.710   2.248
    1C        C   72   2.851   2.662   2.375
    1C        C   73   2.796   2.712   2.501
    1C        C   74   2.973   2.584   2.628
    1C        C   75   2.850   2.664   2.627
    1C        C   76   3.037   2.551   2.755
    1C        C   77   2.974   2.587   2.881
    1C        C   78   3.175   2.502   3.007
    1C        C   79   3.039   2.553   3.007
    1C        C   80   3.247   2.483   3.133
    1C        C   81   3.178   2.506   3.259
    1C        C   82   3.392   2.462   3.385
    1C        C   83   3.248   2.485   3.385
    1C        C   84   3.466   2.456   3.510
    1C        C   85   3.394   2.465   3.637
    1C        C   86   3.613   2.463   3.762
    1C        C   87   3.468   2.457   3.763
    1C        C   88   3.687   2.473   3.887
    1C        C   89   3.615   2.466   4.014
    1C        C   90   3.830   2.511   4.139
    1C        C   91   3.689   2.474   4.140
    1C        C   92   3.900   2.536   4.264
    1C        C   93   3.831   2.514   4.391
    1C        C   94   4.033   2.601   4.515
    1C        C   95   3.902   2.537   4.517
    1C        C   96   4.098   2.637   4.640
    1C        C   97   4.038   2.599   4.767
    1C        C   98   4.209   2.729   4.893
    1C        C   99   4.113   2.616   4.892
    1C        C  100   4.242   2.800   5.013
    1C        C  101   2.808   2.720   2.000
    1C        C  102   2.965   2.562   2.122
    1C        C  103   2.851   2.656   2.121
    1C        C  104   3.032   2.537   2.250
    1C        C  105   2.972   2.580   2.376
    1C        C  106   3.172   2.494   2.502
    1C        C  107   3.036   2.546   2.502
    1C        C  108   3.243   2.476   2.628
    1C        C  109   3.174   2.500   2.755
    1C        C  110   3.389   2.456   2.880
    1C        C  111   3.245   2.479   2.881
    1C        C  112   3.462   2.451   3.006
    1C        C  113   3.391   2.460   3.132
    1C        C  114   3.610   2.459   3.257
    1C        C  115   3.464   2.453   3.258
    1C        C  116   3.684   2.469   3.382
    1C        C  117   3.612   2.463   3.509
    1C        C  118   3.827   2.507   3.634
    1C        C  119   3.685   2.470   3.635
    1C        C  120   3.897   2.532   3.759
    1C        C  121   3.828   2.510   3.886
    1C        C  122   4.029   2.599   4.010
    1C        C  123   3.899   2.533   4.012
    1C        C  124   4.092   2.638   4.136
    1C        C  125   4.030   2.602   4.263
    1C        C  126   4.208   2.731   4.387
    1C        C  127   4.095   2.638   4.388
    1C        C  128   4.261   2.782   4.513
    1C        C  129   4.209   2.732   4.640
    1C        C  130   4.350   2.900   4.765
    1C        C  131   4.263   2.781   4.766
    1C        C  132   4.383   2.966   4.892
    1C        C  133   4.333   2.908   5.014
    1C        C  134   3.152   2.446   2.006
    1C        C  135   3.015   2.485   2.007
    1C        C  136   3.235   2.449   2.124
    1C        C  137   3.171   2.487   2.250
    1C        C  138   3.385   2.447   2.375
    1C        C  139   3.241   2.469   2.376
    1C        C  140   3.459   2.443   2.501
    1C        C  141   3.387   2.453   2.628
    1C        C  142   3.606   2.453   2.752
    1C        C  143   3.461   2.446   2.753
    1C        C  144   3.680   2.464   2.877
    1C        C  145   3.608   2.458   3.004
    1C        C  146   3.823   2.502   3.128
    1C        C  147   3.682   2.466   3.130
    1C        C  148   3.894   2.527   3.254
    1C        C  149   3.825   2.506   3.381
    1C        C  150   4.026   2.594   3.505
    1C        C  151   3.896   2.529   3.507
    1C        C  152   4.089   2.633   3.631
    1C        C  153   4.027   2.598   3.758
    1C        C  154   4.205   2.726   3.882
    1C        C  155   4.091   2.635   3.883
    1C        C  156   4.259   2.778   4.008
    1C        C  157   4.206   2.730   4.135
    1C        C  158   4.352   2.893   4.259
    1C        C  159   4.261   2.780   4.260
    1C        C  160   4.393   2.955   4.385
    1C        C  161   4.351   2.897   4.512
    1C        C  162   4.457   3.090   4.637
    1C        C  163   4.392   2.959   4.638
    1C        C  164   4.482   3.160   4.762
    1C        C  165   4.447   3.098   4.891
    1C        C  166   4.515   3.307   5.008
    1C        C  167   4.474   3.172   5.011
    1C        C  168   3.458   2.397   2.003
    1C        C  169   3.381   2.427   2.122
    1C        C  170   3.603   2.438   2.248
    1C        C  171   3.456   2.432   2.249
    1C        C  172   3.676   2.453   2.373
    1C        C  173   3.604   2.450   2.500
    1C        C  174   3.819   2.498   2.623
    1C        C  175   3.678   2.459   2.625
    1C        C  176   3.889   2.523   2.748
    1C        C  177   3.821   2.501   2.876
    1C        C  178   4.022   2.590   2.999
    1C        C  179   3.892   2.524   3.001
    1C        C  180   4.086   2.629   3.125
    1C        C  181   4.024   2.593   3.252
    1C        C  182   4.202   2.721   3.376
    1C        C  183   4.088   2.630   3.378
    1C        C  184   4.256   2.773   3.502
    1C        C  185   4.203   2.725   3.629
    1C        C  186   4.351   2.888   3.753
    1C        C  187   4.259   2.774   3.755
    1C        C  188   4.393   2.949   3.879
    1C        C  189   4.351   2.891   4.006
    1C        C  190   4.461   3.082   4.130
    1C        C  191   4.394   2.952   4.132
    1C        C  192   4.488   3.151   4.256
    1C        C  193   4.459   3.086   4.384
    1C        C  194   4.528   3.295   4.507
    1C        C  195   4.488   3.155   4.509
    1C        C  196   4.544   3.368   4.632
    1C        C  197   4.528   3.300   4.760
    1C        C  198   4.579   3.519   4.882
    1C        C  199   4.546   3.375   4.886
    1C        C  200   4.614   3.602   4.999
    1C        C  201   3.600   2.383   2.003
    1C        C  202   3.812   2.486   2.117
    1C        C  203   3.676   2.428   2.121
    1C        C  204   3.882   2.518   2.243
    1C        C  205   3.815   2.496   2.371
    1C        C  206   4.016   2.589   2.493
    1C        C  207   3.887   2.521   2.496
    1C        C  208   4.080   2.627   2.619
    1C        C  209   4.019   2.590   2.746
    1C        C  210   4.198   2.718   2.870
    1C        C  211   4.084   2.627   2.872
    1C        C  212   4.252   2.768   2.996
    1C        C  213   4.200   2.720   3.124
    1C        C  214   4.347   2.883   3.248
    1C        C  215   4.255   2.770   3.249
    1C        C  216   4.390   2.944   3.373
    1C        C  217   4.348   2.886   3.501
    1C        C  218   4.458   3.076   3.625
    1C        C  219   4.392   2.946   3.626
    1C        C  220   4.487   3.145   3.750
    1C        C  221   4.459   3.079   3.877
    1C        C  222   4.527   3.288   4.001
    1C        C  223   4.489   3.147   4.003
    1C        C  224   4.541   3.362   4.127
    1C        C  225   4.526   3.292   4.254
    1C        C  226   4.552   3.510   4.377
    1C        C  227   4.543   3.365   4.379
    1C        C  228   4.553   3.585   4.502
    1C        C  229   4.555   3.514   4.629
    1C        C  230   4.535   3.733   4.753
    1C        C  231   4.566   3.589   4.754
    1C        C  232   4.529   3.807   4.879
    1C        C  233   4.581   3.741   4.996
    1C        C  234   3.995   2.598   1.992
    1C        C  235   3.868   2.539   1.996
    1C        C  236   4.066   2.634   2.112
    1C        C  237   4.011   2.591   2.240
    1C        C  238   4.191   2.718   2.364
    1C        C  239   4.076   2.627   2.366
    1C        C  240   4.246   2.768   2.490
    1C        C  241   4.194   2.719   2.617
    1C        C  242   4.344   2.879   2.742
    1C        C  243   4.250   2.767   2.743
    1C        C  244   4.386   2.940   2.868
    1C        C  245   4.345   2.882   2.995
    1C        C  246   4.455   3.071   3.119
    1C        C  247   4.389   2.941   3.121
    1C        C  248   4.484   3.140   3.245
    1C        C  249   4.456   3.074   3.372
    1C        C  250   4.524   3.283   3.496
    1C        C  251   4.487   3.142   3.497
    1C        C  252   4.538   3.356   3.621
    1C        C  253   4.524   3.286   3.749
    1C        C  254   4.548   3.505   3.872
    1C        C  255   4.541   3.359   3.874
    1C        C  256   4.547   3.579   3.998
    1C        C  257   4.548   3.507   4.125
    1C        C  258   4.528   3.726   4.249
    1C        C  259   4.550   3.582   4.250
    1C        C  260   4.512   3.799   4.374
    1C        C  261   4.529   3.729   4.501
    1C        C  262   4.464   3.939   4.626
    1C        C  263   4.516   3.803   4.627
    1C        C  264   4.434   4.006   4.753
    1C        C  265   4.464   3.938   4.880
    1C        C  266   4.331   4.113   4.999
    1C        C  267   4.402   3.991   5.000
    1C        C  268   4.228   2.787   1.988
    1C        C  269   4.180   2.728   2.111
    1C        C  270   4.343   2.877   2.236
    1C        C  271   4.242   2.769   2.237
    1C        C  272   4.386   2.936   2.362
    1C        C  273   4.341   2.878   2.489
    1C        C  274   4.454   3.067   2.614
    1C        C  275   4.386   2.937   2.615
    1C        C  276   4.482   3.136   2.740
    1C        C  277   4.453   3.070   2.867
    1C        C  278   4.522   3.279   2.991
    1C        C  279   4.484   3.137   2.992
    1C        C  280   4.536   3.352   3.116
    1C        C  281   4.521   3.281   3.243
    1C        C  282   4.546   3.500   3.367
    1C        C  283   4.538   3.354   3.369
    1C        C  284   4.545   3.574   3.493
    1C        C  285   4.546   3.502   3.620
    1C        C  286   4.525   3.721   3.744
    1C        C  287   4.547   3.577   3.745
    1C        C  288   4.509   3.794   3.870
    1C        C  289   4.525   3.723   3.996
    1C        C  290   4.461   3.933   4.121
    1C        C  291   4.512   3.797   4.122
    1C        C  292   4.431   4.001   4.247
    1C        C  293   4.461   3.936   4.374
    1C        C  294   4.356   4.128   4.499
    1C        C  295   4.433   4.004   4.500
    1C        C  296   4.314   4.189   4.625
    1C        C  297   4.358   4.132   4.752
    1C        C  298   4.223   4.309   4.877
    1C        C  299   4.308   4.188   4.879
    1C        C  300   4.185   4.389   4.995
    1C        C  301   4.323   2.891   1.989
    1C        C  302   4.469   3.059   2.108
    1C        C  303   4.388   2.936   2.108
    1C        C  304   4.488   3.129   2.236
    1C        C  305   4.454   3.065   2.362
    1C        C  306   4.521   3.274   2.486
    1C        C  307   4.484   3.133   2.488
    1C        C  308   4.534   3.347   2.612
    1C        C  309   4.519   3.277   2.738
    1C        C  310   4.543   3.495   2.862
    1C        C  311   4.536   3.349   2.864
    1C        C  312   4.542   3.569   2.988
    1C        C  313   4.543   3.497   3.115
    1C        C  314   4.522   3.716   3.239
    1C        C  315   4.545   3.572   3.240
    1C        C  316   4.506   3.788   3.365
    1C        C  317   4.522   3.718   3.491
    1C        C  318   4.457   3.928   3.616
    1C        C  319   4.509   3.791   3.617
    1C        C  320   4.427   3.996   3.742
    1C        C  321   4.458   3.930   3.868
    1C        C  322   4.352   4.122   3.993
    1C        C  323   4.430   3.999   3.994
    1C        C  324   4.309   4.182   4.119
    1C        C  325   4.353   4.124   4.246
    1C        C  326   4.210   4.290   4.371
    1C        C  327   4.312   4.186   4.372
    1C        C  328   4.155   4.339   4.497
    1C        C  329   4.212   4.293   4.624
    1C        C  330   4.037   4.425   4.749
    1C        C  331   4.163   4.348   4.749
    1C        C  332   3.979   4.472   4.875
    1C        C  333   4.062   4.460   4.993
    1C        C  334   4.569   3.255   1.992
    1C        C  335   4.539   3.116   1.991
    1C        C  336   4.553   3.339   2.108
    1C        C  337   4.524   3.271   2.234
    1C        C  338   4.542   3.490   2.357
    1C        C  339   4.537   3.344   2.360
    1C        C  340   4.540   3.564   2.483
    1C        C  341   4.541   3.493   2.610
    1C        C  342   4.520   3.711   2.734
    1C        C  343   4.542   3.567   2.735
    1C        C  344   4.504   3.784   2.859
    1C        C  345   4.520   3.713   2.986
    1C        C  346   4.454   3.923   3.111
    1C        C  347   4.506   3.786   3.112
    1C        C  348   4.424   3.990   3.237
    1C        C  349   4.454   3.925   3.363
    1C        C  350   4.348   4.116   3.488
    1C        C  351   4.426   3.993   3.489
    1C        C  352   4.304   4.176   3.614
    1C        C  353   4.348   4.118   3.741
    1C        C  354   4.204   4.283   3.866
    1C        C  355   4.307   4.180   3.867
    1C        C  356   4.150   4.332   3.992
    1C        C  357   4.206   4.285   4.119
    1C        C  358   4.030   4.415   4.245
    1C        C  359   4.153   4.336   4.245
    1C        C  360   3.967   4.450   4.371
    1C        C  361   4.032   4.416   4.497
    1C        C  362   3.832   4.504   4.624
    1C        C  363   3.970   4.455   4.623
    1C        C  364   3.765   4.526   4.751
    1C        C  365   3.838   4.513   4.878
    1C        C  366   3.628   4.564   5.000
    1C        C  367   3.764   4.528   5.001
    1C        C  368   4.521   3.558   1.981
    1C        C  369   4.542   3.485   2.104
    1C        C  370   4.520   3.707   2.228
    1C        C  371   4.541   3.561   2.229
    1C        C  372   4.502   3.778   2.354
    1C        C  373   4.517   3.708   2.481
    1C        C  374   4.451   3.918   2.606
    1C        C  375   4.503   3.781   2.607
    1C        C  376   4.421   3.985   2.731
    1C        C  377   4.452   3.920   2.858
    1C        C  378   4.345   4.111   2.983
    1C        C  379   4.424   3.988   2.984
    1C        C  380   4.301   4.171   3.109
    1C        C  381   4.345   4.113   3.236
    1C        C  382   4.200   4.278   3.361
    1C        C  383   4.303   4.174   3.362
    1C        C  384   4.146   4.327   3.487
    1C        C  385   4.201   4.279   3.614
    1C        C  386   4.026   4.410   3.740
    1C        C  387   4.148   4.330   3.740
    1C        C  388   3.963   4.446   3.866
    1C        C  389   4.027   4.411   3.992
    1C        C  390   3.828   4.501   4.119
    1C        C  391   3.965   4.449   4.119
    1C        C  392   3.759   4.522   4.246
    1C        C  393   3.830   4.501   4.372
    1C        C  394   3.617   4.548   4.500
    1C        C  395   3.761   4.524   4.499
    1C        C  396   3.546   4.556   4.627
    1C        C  397   3.620   4.549   4.753
    1C        C  398   3.404   4.539   4.882
    1C        C  399   3.549   4.561   4.880
    1C        C  400   3.332   4.507   5.004
    1C        C  401   4.504   3.698   1.979
    1C        C  402   4.454   3.916   2.100
    1C        C  403   4.501   3.777   2.100
    1C        C  404   4.418   3.980   2.227
    1C        C  405   4.447   3.914   2.353
    1C        C  406   4.343   4.107   2.478
    1C        C  407   4.420   3.983   2.479
    1C        C  408   4.299   4.166   2.604
    1C        C  409   4.343   4.108   2.731
    1C        C  410   4.198   4.273   2.856
    1C        C  411   4.301   4.169   2.857
    1C        C  412   4.143   4.322   2.982
    1C        C  413   4.198   4.274   3.109
    1C        C  414   4.022   4.405   3.235
    1C        C  415   4.145   4.325   3.235
    1C        C  416   3.959   4.441   3.361
    1C        C  417   4.023   4.406   3.487
    1C        C  418   3.825   4.497   3.614
    1C        C  419   3.961   4.444   3.614
    1C        C  420   3.756   4.519   3.741
    1C        C  421   3.826   4.498   3.867
    1C        C  422   3.614   4.546   3.994
    1C        C  423   3.758   4.522   3.993
    1C        C  424   3.542   4.553   4.121
    1C        C  425   3.615   4.546   4.247
    1C        C  426   3.397   4.549   4.375
    1C        C  427   3.543   4.555   4.374
    1C        C  428   3.326   4.540   4.503
    1C        C  429   3.400   4.548   4.629
    1C        C  430   3.184   4.509   4.757
    1C        C  431   3.328   4.539   4.756
    1C        C  432   3.115   4.482   4.884
    1C        C  433   3.196   4.476   5.003
    1C        C  434   4.391   4.129   1.981
    1C        C  435   4.453   4.001   1.983
    1C        C  436   4.318   4.176   2.099
    1C        C  437   4.345   4.107   2.226
    1C        C  438   4.196   4.268   2.351
    1C        C  439   4.301   4.167   2.352
    1C        C  440   4.140   4.316   2.476
    1C        C  441   4.196   4.269   2.603
    1C        C  442   4.019   4.399   2.729
    1C        C  443   4.142   4.320   2.729
    1C        C  444   3.956   4.435   2.855
    1C        C  445   4.020   4.401   2.982
    1C        C  446   3.822   4.491   3.108
    1C        C  447   3.958   4.439   3.108
    1C        C  448   3.752   4.514   3.235
    1C        C  449   3.823   4.493   3.361
    1C        C  450   3.610   4.541   3.489
    1C        C  451   3.754   4.518   3.488
    1C        C  452   3.538   4.549   3.616
    1C        C  453   3.612   4.542   3.741
    1C        C  454   3.394   4.546   3.869
    1C        C  455   3.540   4.552   3.868
    1C        C  456   3.322   4.538   3.996
    1C        C  457   3.396   4.546   4.122
    1C        C  458   3.183   4.504   4.251
    1C        C  459   3.324   4.540   4.249
    1C        C  460   3.114   4.481   4.378
    1C        C  461   3.184   4.505   4.504
    1C        C  462   2.984   4.420   4.631
    1C        C  463   3.115   4.485   4.631
    1C        C  464   2.919   4.387   4.757
    1C        C  465   2.977   4.430   4.885
    1C        C  466   2.781   4.332   5.003
    1C        C  467   2.887   4.428   5.001
    1C        C  468   4.117   4.279   1.978
    1C        C  469   4.195   4.260   2.097
    1C        C  470   4.016   4.392   2.223
    1C        C  471   4.141   4.313   2.223
    1C        C  472   3.952   4.428   2.349
    1C        C  473   4.017   4.394   2.476
    1C        C  474   3.818   4.484   2.603
    1C        C  475   3.954   4.432   2.602
    1C        C  476   3.749   4.506   2.730
    1C        C  477   3.819   4.486   2.856
    1C        C  478   3.607   4.535   2.983
    1C        C  479   3.751   4.512   2.982
    1C        C  480   3.535   4.543   3.110
    1C        C  481   3.608   4.537   3.236
    1C        C  482   3.391   4.540   3.364
    1C        C  483   3.537   4.547   3.363
    1C        C  484   3.319   4.532   3.491
    1C        C  485   3.393   4.542   3.617
    1C        C  486   3.179   4.499   3.745
    1C        C  487   3.321   4.536   3.744
    1C        C  488   3.111   4.476   3.872
    1C        C  489   3.181   4.500   3.998
    1C        C  490   2.982   4.413   4.126
    1C        C  491   3.112   4.480   4.125
    1C        C  492   2.921   4.377   4.253
    1C        C  493   2.984   4.415   4.379
    1C        C  494   2.808   4.288   4.507
    1C        C  495   2.921   4.381   4.505
    1C        C  496   2.755   4.239   4.634
    1C        C  497   2.806   4.292   4.759
    1C        C  498   2.652   4.139   4.889
    1C        C  499   2.741   4.257   4.886
    1C        C  500   2.593   4.086   5.010
    1C        C  501   4.000   4.356   1.976
    1C        C  502   3.812   4.477   2.097
    1C        C  503   3.946   4.417   2.095
    1C        C  504   3.744   4.497   2.225
    1C        C  505   3.815   4.477   2.350
    1C        C  506   3.603   4.530   2.478
    1C        C  507   3.747   4.503   2.477
    1C        C  508   3.531   4.537   2.605
    1C        C  509   3.605   4.531   2.730
    1C        C  510   3.387   4.535   2.858
    1C        C  511   3.533   4.541   2.857
    1C        C  512   3.315   4.527   2.985
    1C        C  513   3.389   4.536   3.111
    1C        C  514   3.176   4.493   3.239
    1C        C  515   3.317   4.531   3.238
    1C        C  516   3.108   4.471   3.366
    1C        C  517   3.178   4.495   3.492
    1C        C  518   2.979   4.408   3.621
    1C        C  519   3.109   4.474   3.619
    1C        C  520   2.918   4.371   3.748
    1C        C  521   2.981   4.409   3.873
    1C        C  522   2.805   4.282   4.002
    1C        C  523   2.919   4.375   4.000
    1C        C  524   2.753   4.233   4.129
    1C        C  525   2.808   4.284   4.255
    1C        C  526   2.662   4.123   4.383
    1C        C  527   2.754   4.237   4.382
    1C        C  528   2.622   4.064   4.511
    1C        C  529   2.665   4.125   4.636
    1C        C  530   2.551   3.941   4.765
    1C        C  531   2.619   4.071   4.763
    1C        C  532   2.510   3.881   4.893
    1C        C  533   2.511   3.969   5.011
    1C        C  534   3.612   4.573   1.979
    1C        C  535   3.748   4.532   1.981
    1C        C  536   3.529   4.553   2.099
    1C        C  537   3.601   4.529   2.226
    1C        C  538   3.384   4.530   2.353
    1C        C  539   3.529   4.538   2.352
    1C        C  540   3.312   4.522   2.479
    1C        C  541   3.385   4.530   2.605
    1C        C  542   3.172   4.488   2.734
    1C        C  543   3.313   4.525   2.732
    1C        C  544   3.104   4.465   2.861
    1C        C  545   3.174   4.490   2.987
    1C        C  546   2.976   4.402   3.115
    1C        C  547   3.106   4.469   3.114
    1C        C  548   2.914   4.366   3.242
    1C        C  549   2.978   4.404   3.368
    1C        C  550   2.802   4.277   3.497
    1C        C  551   2.915   4.369   3.495
    1C        C  552   2.750   4.228   3.624
    1C        C  553   2.805   4.279   3.750
    1C        C  554   2.659   4.118   3.878
    1C        C  555   2.751   4.231   3.877
    1C        C  556   2.618   4.059   4.006
    1C        C  557   2.662   4.120   4.131
    1C        C  558   2.552   3.932   4.260
    1C        C  559   2.619   4.062   4.258
    1C        C  560   2.524   3.867   4.387
    1C        C  561   2.555   3.935   4.513
    1C        C  562   2.488   3.729   4.643
    1C        C  563   2.523   3.871   4.640
    1C        C  564   2.476   3.659   4.770
    1C        C  565   2.491   3.734   4.896
    1C        C  566   2.505   3.517   5.019
    1C        C  567   2.515   3.658   5.016
    1C        C  568   3.319   4.467   1.983
    1C        C  569   3.386   4.519   2.099
    1C        C  570   3.168   4.484   2.227
    1C        C  571   3.311   4.519   2.226
    1C        C  572   3.100   4.460   2.355
    1C        C  573   3.171   4.484   2.480
    1C        C  574   2.972   4.397   2.610
    1C        C  575   3.102   4.464   2.608
    1C        C  576   2.911   4.360   2.737
    1C        C  577   2.975   4.399   2.863
    1C        C  578   2.799   4.272   2.992
    1C        C  579   2.912   4.364   2.990
    1C        C  580   2.746   4.223   3.119
    1C        C  581   2.801   4.273   3.244
    1C        C  582   2.655   4.113   3.373
    1C        C  583   2.747   4.226   3.371
    1C        C  584   2.615   4.054   3.501
    1C        C  585   2.658   4.114   3.626
    1C        C  586   2.549   3.927   3.755
    1C        C  587   2.615   4.057   3.753
    1C        C  588   2.521   3.861   3.882
    1C        C  589   2.551   3.929   4.008
    1C        C  590   2.483   3.723   4.137
    1C        C  591   2.521   3.864   4.135
    1C        C  592   2.470   3.653   4.264
    1C        C  593   2.486   3.726   4.390
    1C        C  594   2.465   3.510   4.519
    1C        C  595   2.472   3.656   4.517
    1C        C  596   2.468   3.438   4.646
    1C        C  597   2.469   3.512   4.772
    1C        C  598   2.485   3.293   4.900
    1C        C  599   2.482   3.440   4.900
    1C        C  600   2.473   3.211   5.018
    1C        C  601   3.182   4.436   1.983
    1C        C  602   2.962   4.396   2.102
    1C        C  603   3.100   4.448   2.100
    1C        C  604   2.906   4.356   2.232
    1C        C  605   2.971   4.393   2.357
    1C        C  606   2.795   4.265   2.487
    1C        C  607   2.908   4.358   2.484
    1C        C  608   2.743   4.216   2.614
    1C        C  609   2.798   4.267   2.739
    1C        C  610   2.652   4.107   2.868
    1C        C  611   2.744   4.220   2.866
    1C        C  612   2.611   4.049   2.995
    1C        C  613   2.655   4.109   3.121
    1C        C  614   2.545   3.922   3.250
    1C        C  615   2.612   4.052   3.248
    1C        C  616   2.518   3.856   3.377
    1C        C  617   2.548   3.924   3.502
    1C        C  618   2.480   3.718   3.631
    1C        C  619   2.518   3.859   3.630
    1C        C  620   2.467   3.647   3.759
    1C        C  621   2.483   3.720   3.884
    1C        C  622   2.458   3.504   4.013
    1C        C  623   2.467   3.650   4.011
    1C        C  624   2.461   3.433   4.140
    1C        C  625   2.462   3.507   4.266
    1C        C  626   2.484   3.291   4.394
    1C        C  627   2.463   3.435   4.393
    1C        C  628   2.502   3.221   4.521
    1C        C  629   2.489   3.294   4.646
    1C        C  630   2.549   3.083   4.773
    1C        C  631   2.502   3.222   4.773
    1C        C  632   2.566   3.012   4.901
    1C        C  633   2.505   3.072   5.020
    1C        C  634   2.764   4.295   1.991
    1C        C  635   2.872   4.388   1.987
    1C        C  636   2.726   4.223   2.110
    1C        C  637   2.792   4.263   2.235
    1C        C  638   2.648   4.101   2.363
    1C        C  639   2.739   4.215   2.362
    1C        C  640   2.607   4.043   2.490
    1C        C  641   2.651   4.103   2.615
    1C        C  642   2.541   3.917   2.745
    1C        C  643   2.608   4.046   2.743
    1C        C  644   2.513   3.851   2.872
    1C        C  645   2.544   3.919   2.997
    1C        C  646   2.476   3.713   3.126
    1C        C  647   2.515   3.854   3.125
    1C        C  648   2.463   3.642   3.253
    1C        C  649   2.479   3.715   3.379
    1C        C  650   2.454   3.499   3.507
    1C        C  651   2.464   3.645   3.506
    1C        C  652   2.456   3.427   3.634
    1C        C  653   2.458   3.502   3.760
    1C        C  654   2.479   3.286   3.888
    1C        C  655   2.457   3.430   3.887
    1C        C  656   2.497   3.216   4.015
    1C        C  657   2.483   3.288   4.141
    1C        C  658   2.551   3.082   4.269
    1C        C  659   2.498   3.218   4.268
    1C        C  660   2.584   3.017   4.395
    1C        C  661   2.553   3.084   4.521
    1C        C  662   2.667   2.898   4.649
    1C        C  663   2.581   3.017   4.647
    1C        C  664   2.712   2.843   4.776
    1C        C  665   2.665   2.902   4.903
    1C        C  666   2.737   2.866   5.022
    1C        C  667   2.615   4.029   1.988
    1C        C  668   2.647   4.100   2.109
    1C        C  669   2.533   3.912   2.239
    1C        C  670   2.604   4.041   2.237
    1C        C  671   2.507   3.846   2.366
    1C        C  672   2.539   3.914   2.492
    1C        C  673   2.470   3.708   2.621
    1C        C  674   2.510   3.849   2.619
    1C        C  675   2.458   3.638   2.749
    1C        C  676   2.475   3.710   2.874
    1C        C  677   2.450   3.494   3.002
    1C        C  678   2.459   3.640   3.001
    1C        C  679   2.452   3.422   3.129
    1C        C  680   2.454   3.497   3.255
    1C        C  681   2.475   3.280   3.383
    1C        C  682   2.453   3.425   3.382
    1C        C  683   2.492   3.210   3.510
    1C        C  684   2.478   3.283   3.636
    1C        C  685   2.547   3.077   3.764
    1C        C  686   2.493   3.213   3.763
    1C        C  687   2.581   3.013   3.890
    1C        C  688   2.550   3.080   4.016
    1C        C  689   2.665   2.895   4.144
    1C        C  690   2.581   3.014   4.143
    1C        C  691   2.713   2.840   4.270
    1C        C  692   2.669   2.898   4.396
    1C        C  693   2.713   2.841   4.523
    1C        C  694   2.545   3.906   1.990
    1C        C  695   2.456   3.703   2.116
    1C        C  696   2.502   3.843   2.112
    1C        C  697   2.449   3.633   2.244
    1C        C  698   2.469   3.706   2.369
    1C        C  699   2.442   3.490   2.498
    1C        C  700   2.453   3.636   2.496
    1C        C  701   2.446   3.418   2.625
    1C        C  702   2.448   3.492   2.750
    1C        C  703   2.471   3.276   2.878
    1C        C  704   2.449   3.420   2.877
    1C        C  705   2.489   3.205   3.004
    1C        C  706   2.474   3.278   3.130
    1C        C  707   2.543   3.072   3.258
    1C        C  708   2.489   3.207   3.257
    1C        C  709   2.577   3.007   3.385
    1C        C  710   2.546   3.075   3.511
    1C        C  711   2.661   2.890   3.638
    1C        C  712   2.577   3.009   3.638
    1C        C  713   2.709   2.835   3.765
    1C        C  714   2.665   2.893   3.891
    1C        C  715   2.710   2.837   4.017
    1C        C  716   2.377   3.493   2.002
    1C        C  717   2.403   3.633   2.001
    1C        C  718   2.411   3.414   2.121
    1C        C  719   2.432   3.487   2.246
    1C        C  720   2.465   3.272   2.373
    1C        C  721   2.437   3.416   2.373
    1C        C  722   2.485   3.202   2.499
    1C        C  723   2.470   3.274   2.625
    1C        C  724   2.541   3.068   2.752
    1C        C  725   2.486   3.203   2.752
    1C        C  726   2.574   3.003   2.879
    1C        C  727   2.543   3.070   3.005
    1C        C  728   2.658   2.885   3.132
    1C        C  729   2.574   3.004   3.132
    1C        C  730   2.705   2.830   3.259
    1C        C  731   2.661   2.888   3.385
    1C        C  732   2.706   2.832   3.512
    1C        C  733   2.506   3.211   1.999
    1C        C  734   2.462   3.274   2.119
    1C        C  735   2.542   3.067   2.246
    1C        C  736   2.482   3.202   2.246
    1C        C  737   2.576   3.002   2.372
    1C        C  738   2.542   3.068   2.499
    1C        C  739   2.657   2.882   2.626
    1C        C  740   2.573   3.002   2.626
    1C        C  741   2.704   2.826   2.753
    1C        C  742   2.659   2.884   2.879
    1C        C  743   2.703   2.827   3.006
    1C        C  744   2.554   3.079   1.997
    1C        C  745   2.667   2.887   2.119
    1C        C  746   2.582   3.006   2.118
    1C        C  747   2.708   2.827   2.247
    1C        C  748   2.661   2.884   2.373
    1C        C  749   2.704   2.825   2.500
    1C        C  750   2.716   2.826   1.998
    1C        C  751   3.655   2.291   1.900
    1C        O  752   3.706   2.181   1.933
    1C        O  753   3.677   2.338   1.769
    1C        C  754   4.605   3.035   1.885
    1C        O  755   4.565   3.044   1.766
    1C        O  756   4.722   2.963   1.912
    1C        C  757   4.437   4.220   1.872
    1C        O  758   4.527   4.305   1.895
    1C        O  759   4.417   4.182   1.738
    1C        C  760   3.577   4.671   1.872
    1C        O  761   3.584   4.795   1.897
    1C        O  762   3.588   4.633   1.738
    1C        C  763   2.858   4.495   1.883
    1C        O  764   2.872   4.462   1.762
    1C        O  765   2.774   4.604   1.908
    1C        C  766   2.287   3.444   1.893
    1C        O  767   2.168   3.412   1.917
    1C        O  768   2.332   3.443   1.761
    1C        C  769   4.708   3.560   5.106
    1C        O  770   4.666   3.541   5.224
    1C        O  771   4.842   3.528   5.077
    1C        C  772   4.282   4.431   5.101
    1C        O  773   4.257   4.403   5.221
    1C        O  774   4.377   4.530   5.075
    1C        C  775   4.147   2.492   5.118
    1C        O  776   4.239   2.410   5.091
    1C        O  777   4.145   2.549   5.247
    1C        C  778   2.880   4.536   5.104
    1C        O  779   2.935   4.518   5.216
    1C        O  780   2.857   4.669   5.066
    1C        C  781   2.436   2.992   5.125
    1C        O  782   2.338   2.918   5.096
    1C        O  783   2.479   2.998   5.257
    1C        C  784   2.405   3.968   5.115
    1C        O  785   2.284   3.985   5.084
    1C        O  786   2.435   3.924   5.245
    1C        C  787   2.928   2.422   1.904
    1C        O  788   2.920   2.473   1.789
    1C        O  789   2.827   2.332   1.941
    1C        C  790   3.182   2.363   5.125
    1C        O  791   3.173   2.240   5.098
    1C        O  792   3.209   2.401   5.257
    1C        H  793   4.387   2.923   5.105
    1C        H  794   4.194   2.773   5.105
    1C        H  795   4.492   3.119   5.102
    1C        H  796   4.512   3.363   5.099
    1C        H  797   4.595   3.798   5.086
    1C        H  798   4.410   3.937   5.092
    1C        H  799   4.298   4.152   5.093
    1C        H  800   4.032   4.510   5.083
    1C        H  801   3.801   4.480   5.089
    1C        H  802   3.589   4.615   5.086
    1C        H  803   3.375   4.534   5.098
    1C        H  804   3.148   4.456   5.097
    1C        H  805   3.883   2.477   5.107
    1C        H  806   3.665   2.515   5.115
    1C        H  807   2.992   2.548   5.113
    1C        H  808   3.424   2.514   5.113
    1C        H  809   2.863   2.725   5.120
    1C        H  810   2.711   2.913   5.115
    1C        H  811   2.446   3.257   5.111
    1C        H  812   2.504   3.470   5.115
    1C        H  813   2.524   3.710   5.109
    1C        H  814   2.638   4.112   5.103
    1C        H  815   2.749   4.298   5.099
    1C        H  816   2.662   2.840   1.906
    1C        H  817   2.851   2.688   1.907
    1C        H  818   3.199   2.445   1.909
    1C        H  819   3.413   2.418   1.908
    1C        H  820   3.810   2.537   1.906
    1C        H  821   4.051   2.585   1.901
    1C        H  822   4.215   2.734   1.896
    1C        H  823   4.343   2.941   1.896
    1C        H  824   4.602   3.299   1.899
    1C        H  825   4.494   3.504   1.892
    1C        H  826   4.485   3.744   1.885
    1C        H  827   3.806   4.548   1.891
    1C        H  828   3.956   4.378   1.881
    1C        H  829   4.150   4.233   1.886
    1C        H  830   4.490   3.963   1.890
    1C        H  831   2.534   3.854   1.897
    1C        H  832   2.663   4.057   1.897
    1C        H  833   2.698   4.292   1.906
    1C        H  834   3.372   4.463   1.890
    1C        H  835   3.135   4.418   1.888
    1C        H  836   2.539   3.024   1.906
    1C        H  837   2.513   3.269   1.909
    1C        H  838   2.400   3.682   1.906
    2V3OU   H29  839   2.804   3.628   0.669
    2V3OU   C27  840   2.775   3.529   0.712
    2V3OU   H27  841   2.697   3.538   0.792
    2V3OU   H28  842   2.752   3.452   0.634
    2V3OU   O11  843   2.894   3.483   0.778
    2V3OU   C15  844   2.897   3.373   0.864
    2V3OU   C13  845   3.020   3.349   0.932
    2V3OU   C14  846   3.037   3.227   1.003
    2V3OU   C16  847   2.934   3.134   1.007
    2V3OU    H6  848   2.946   3.041   1.065
    2V3OU   C12  849   3.168   3.192   1.070
    2V3OU    O2  850   3.181   3.088   1.139
    2V3OU   C10  851   3.285   3.277   1.039
    2V3OU    C8  852   3.413   3.235   1.072
    2V3OU   O10  853   3.436   3.121   1.144
    2V3OU   H26  854   3.346   3.082   1.166
    2V3OU    C6  855   3.529   3.312   1.031
    2V3OU    C5  856   3.509   3.430   0.960
    2V3OU    C4  857   3.666   3.255   1.049
    2V3OU    H4  858   3.675   3.214   1.154
    2V3OU    H5  859   3.675   3.166   0.980
    2V3OU    C2  860   3.784   3.347   1.025
    2V3OU    O6  861   3.794   3.433   1.138
    2V3OU   H21  862   3.733   3.508   1.115
    2V3OU    C3  863   3.753   3.436   0.906
    2V3OU    H2  864   3.837   3.508   0.891
    2V3OU    H3  865   3.744   3.371   0.815
    2V3OU   C25  866   3.915   3.265   1.004
    2V3OU    O7  867   3.954   3.227   0.892
    2V3OU   C26  868   3.999   3.233   1.128
    2V3OU   H22  869   4.056   3.325   1.155
    2V3OU   H23  870   4.070   3.149   1.105
    2V3OU    O8  871   3.924   3.184   1.238
    2V3OU   H24  872   3.886   3.260   1.288
    2V3OU    C1  873   3.625   3.515   0.920
    2V3OU    H1  874   3.604   3.565   0.821
    2V3OU    O3  875   3.647   3.612   1.023
    2V3OU   C19  876   3.625   3.749   0.991
    2V3OU    H9  877   3.531   3.764   0.929
    2V3OU    O4  878   3.730   3.783   0.903
    2V3OU   C20  879   3.861   3.803   0.959
    2V3OU   H10  880   3.897   3.703   0.996
    2V3OU   C24  881   3.619   3.832   1.119
    2V3OU   H16  882   3.547   3.785   1.190
    2V3OU   H17  883   3.581   3.934   1.091
    2V3OU   C23  884   3.757   3.847   1.182
    2V3OU   H15  885   3.792   3.743   1.213
    2V3OU    N1  886   3.747   3.937   1.295
    2V3OU   H19  887   3.814   3.909   1.365
    2V3OU   H20  888   3.656   3.929   1.335
    2V3OU   C21  889   3.863   3.901   1.079
    2V3OU   H11  890   3.965   3.889   1.126
    2V3OU    O5  891   3.842   4.044   1.050
    2V3OU   H18  892   3.812   4.085   1.136
    2V3OU   C22  893   3.949   3.848   0.843
    2V3OU   H12  894   3.910   3.944   0.801
    2V3OU   H13  895   3.948   3.770   0.763
    2V3OU   H14  896   4.053   3.863   0.879
    2V3OU   C11  897   3.130   3.447   0.931
    2V3OU    O1  898   3.115   3.566   0.895
    2V3OU    C9  899   3.267   3.400   0.967
    2V3OU    C7  900   3.378   3.474   0.930
    2V3OU    O9  901   3.370   3.591   0.859
    2V3OU   H25  902   3.271   3.611   0.856
    2V3OU   C17  903   2.796   3.276   0.871
    2V3OU    H7  904   2.701   3.294   0.821
    2V3OU   C18  905   2.814   3.158   0.942
    2V3OU    H8  906   2.733   3.083   0.947
    3SOL     OW  907   0.230   0.628   0.113
    3SOL    HW1  908   0.137   0.626   0.150
    3SOL    HW2  909   0.231   0.589   0.021
    4SOL     OW  910   0.225   0.275   0.996
    4SOL    HW1  911   0.260   0.258   1.088
    4SOL    HW2  912   0.137   0.230   0.984
    5SOL     OW  913   0.019   0.368   0.647
    5SOL    HW1  914  -0.063   0.411   0.686
    5SOL    HW2  915  -0.009   0.295   0.584
    6SOL     OW  916   0.569   1.275   1.165
    6SOL    HW1  917   0.476   1.268   1.128
    6SOL    HW2  918   0.580   1.364   1.209
    7SOL     OW  919   1.555   1.511   0.703
    7SOL    HW1  920   1.498   1.495   0.784
    7SOL    HW2  921   1.496   1.521   0.623
    8SOL     OW  922   1.135   0.703   0.717
    8SOL    HW1  923   1.192   0.781   0.692
    8SOL    HW2  924   1.075   0.729   0.793
    9SOL     OW  925   1.755   0.607   0.231
    9SOL    HW1  926   1.743   0.594   0.132
    9SOL    HW2  927   1.725   0.526   0.280
   10SOL     OW  928   0.768   1.144   1.023
   10SOL    HW1  929   0.690   1.161   1.083
   10SOL    HW2  930   0.802   1.231   0.987
   11SOL     OW  931   0.850   0.798   1.823
   11SOL    HW1  932   0.846   0.874   1.888
   11SOL    HW2  933   0.872   0.834   1.732
   12SOL     OW  934   0.685   1.012   0.665
   12SOL    HW1  935   0.754   0.996   0.735
   12SOL    HW2  936   0.612   1.069   0.703
   13SOL     OW  937   0.686   1.161   1.803
   13SOL    HW1  938   0.746   1.240   1.817
   13SOL    HW2  939   0.600   1.192   1.762
   14SOL     OW  940   0.335   1.435   1.061
   14SOL    HW1  941   0.257   1.404   1.008
   14SOL    HW2  942   0.393   1.493   1.004
   15SOL     OW  943   1.460   1.505   1.339
   15SOL    HW1  944   1.484   1.599   1.365
   15SOL    HW2  945   1.444   1.451   1.421
   16SOL     OW  946   0.438   0.392   1.499
   16SOL    HW1  947   0.520   0.336   1.508
   16SOL    HW2  948   0.357   0.334   1.503
   17SOL     OW  949   1.603   0.447   0.737
   17SOL    HW1  950   1.529   0.493   0.687
   17SOL    HW2  951   1.654   0.515   0.790
   18SOL     OW  952   0.231   1.713   0.483
   18SOL    HW1  953   0.265   1.790   0.537
   18SOL    HW2  954   0.275   1.713   0.393
   19SOL     OW  955   1.127   1.341   1.690
   19SOL    HW1  956   1.174   1.341   1.778
   19SOL    HW2  957   1.079   1.254   1.679
   20SOL     OW  958   0.230   1.434   0.538
   20SOL    HW1  959   0.204   1.530   0.538
   20SOL    HW2  960   0.159   1.380   0.583
   21SOL     OW  961   0.240   1.091   0.886
   21SOL    HW1  962   0.254   1.007   0.938
   21SOL    HW2  963   0.185   1.155   0.941
   22SOL     OW  964   0.620   1.786   1.439
   22SOL    HW1  965   0.528   1.769   1.474
   22SOL    HW2  966   0.648   1.878   1.465
   23SOL     OW  967   0.606   0.964   0.123
   23SOL    HW1  968   0.613   1.048   0.069
   23SOL    HW2  969   0.652   0.977   0.211
   24SOL     OW  970   1.594   0.114   1.480
   24SOL    HW1  971   1.576   0.181   1.408
   24SOL    HW2  972   1.591   0.160   1.569
   25SOL     OW  973   0.122   0.643   0.563
   25SOL    HW1  974   0.077   0.555   0.580
   25SOL    HW2  975   0.121   0.697   0.647
   26SOL     OW  976   1.842   1.767   0.359
   26SOL    HW1  977   1.896   1.738   0.439
   26SOL    HW2  978   1.872   1.857   0.330
   27SOL     OW  979   0.027   1.596   0.117
   27SOL    HW1  980   0.008   1.500   0.138
   27SOL    HW2  981  -0.006   1.654   0.192
   28SOL     OW  982   1.689   0.922   0.612
   28SOL    HW1  983   1.784   0.893   0.620
   28SOL    HW2  984   1.681   0.987   0.537
   29SOL     OW  985   1.641   1.108   0.432
   29SOL    HW1  986   1.727   1.110   0.380
   29SOL    HW2  987   1.655   1.155   0.520
   30SOL     OW  988   0.113   0.737   1.597
   30SOL    HW1  989   0.201   0.724   1.642
   30SOL    HW2  990   0.100   0.834   1.575
   31SOL     OW  991   0.613   1.365   0.726
   31SOL    HW1  992   0.564   1.278   0.735
   31SOL    HW2  993   0.590   1.408   0.639
   32SOL     OW  994   1.293   1.228   1.423
   32SOL    HW1  995   1.330   1.155   1.365
   32SOL    HW2  996   1.345   1.233   1.508
   33SOL     OW  997   0.809   0.004   0.502
   33SOL    HW1  998   0.849   0.095   0.493
   33SOL    HW2  999   0.709   0.012   0.508
   34SOL     OW 1000   0.197   0.976   1.264
   34SOL    HW1 1001   0.286   0.931   1.250
   34SOL    HW2 1002   0.124   0.911   1.245
   35SOL     OW 1003   1.525   0.999   0.190
   35SOL    HW1 1004   1.462   0.923   0.203
   35SOL    HW2 1005   1.573   1.017   0.276
   36SOL     OW 1006   1.187   1.792   1.616
   36SOL    HW1 1007   1.211   1.852   1.540
   36SOL    HW2 1008   1.194   1.697   1.586
   37SOL     OW 1009   0.317   0.251   1.801
   37SOL    HW1 1010   0.388   0.322   1.807
   37SOL    HW2 1011   0.229   0.290   1.829
   38SOL     OW 1012   1.466   1.417   0.953
   38SOL    HW1 1013   1.407   1.423   1.033
   38SOL    HW2 1014   1.451   1.329   0.907
   39SOL     OW 1015   1.667   1.714   0.572
   39SOL    HW1 1016   1.626   1.691   0.484
   39SOL    HW2 1017   1.649   1.640   0.637
   40SOL     OW 1018   0.598   0.729   0.270
   40SOL    HW1 1019   0.622   0.798   0.202
   40SOL    HW2 1020   0.520   0.762   0.324
   41SOL     OW 1021   1.281   0.345   0.944
   41SOL    HW1 1022   1.195   0.295   0.931
   41SOL    HW2 1023   1.343   0.291   1.000
   42SOL     OW 1024   1.576   1.662   0.307
   42SOL    HW1 1025   1.665   1.708   0.310
   42SOL    HW2 1026   1.555   1.638   0.212
   43SOL     OW 1027   0.807   0.605   1.465
   43SOL    HW1 1028   0.760   0.602   1.554
   43SOL    HW2 1029   0.756   0.550   1.399
   44SOL     OW 1030   1.394   0.469   1.674
   44SOL    HW1 1031   1.374   0.512   1.762
   44SOL    HW2 1032   1.472   0.407   1.683
   45SOL     OW 1033   0.973   0.890   1.572
   45SOL    HW1 1034   1.019   0.806   1.543
   45SOL    HW2 1035   0.917   0.924   1.497
   46SOL     OW 1036   0.991   0.410   1.242
   46SOL    HW1 1037   0.914   0.444   1.296
   46SOL    HW2 1038   0.957   0.359   1.163
   47SOL     OW 1039   1.041   0.701   0.429
   47SOL    HW1 1040   1.067   0.697   0.525
   47SOL    HW2 1041   0.956   0.650   0.415
   48SOL     OW 1042   0.076   0.811   0.789
   48SOL    HW1 1043   0.175   0.799   0.798
   48SOL    HW2 1044   0.052   0.906   0.810
   49SOL     OW 1045   0.130   1.821   1.571
   49SOL    HW1 1046   0.120   1.806   1.670
   49SOL    HW2 1047   0.044   1.857   1.535
   50SOL     OW 1048   0.865   0.348   0.195
   50SOL    HW1 1049   0.924   0.411   0.146
   50SOL    HW2 1050   0.884   0.254   0.166
   51SOL     OW 1051   1.719   0.585   1.831
   51SOL    HW1 1052   1.693   0.674   1.795
   51SOL    HW2 1053   1.717   0.517   1.758
   52SOL     OW 1054   1.362   1.144   0.545
   52SOL    HW1 1055   1.445   1.115   0.497
   52SOL    HW2 1056   1.313   1.211   0.489
   53SOL     OW 1057   0.550   0.196   0.885
   53SOL    HW1 1058   0.545   0.191   0.985
   53SOL    HW2 1059   0.552   0.292   0.856
   54SOL     OW 1060   1.008   1.456   0.477
   54SOL    HW1 1061   0.962   1.528   0.425
   54SOL    HW2 1062   1.004   1.476   0.575
   55SOL     OW 1063   0.351   1.801   0.853
   55SOL    HW1 1064   0.401   1.715   0.859
   55SOL    HW2 1065   0.416   1.878   0.850
   56SOL     OW 1066   1.795   1.066   0.873
   56SOL    HW1 1067   1.733   1.051   0.797
   56SOL    HW2 1068   1.743   1.077   0.958
   57SOL     OW 1069   1.227   1.550   1.506
   57SOL    HW1 1070   1.233   1.473   1.570
   57SOL    HW2 1071   1.175   1.524   1.426
   58SOL     OW 1072   0.321   0.943   0.242
   58SOL    HW1 1073   0.403   0.982   0.200
   58SOL    HW2 1074   0.294   0.861   0.193
   59SOL     OW 1075   1.458   0.735   0.728
   59SOL    HW1 1076   1.453   0.670   0.803
   59SOL    HW2 1077   1.538   0.794   0.741
   60SOL     OW 1078   0.461   1.266   1.727
   60SOL    HW1 1079   0.411   1.267   1.641
   60SOL    HW2 1080   0.398   1.248   1.803
   61SOL     OW 1081   1.111   1.776   0.237
   61SOL    HW1 1082   1.051   1.714   0.287
   61SOL    HW2 1083   1.142   1.732   0.152
   62SOL     OW 1084   0.202   0.285   1.498
   62SOL    HW1 1085   0.122   0.345   1.485
   62SOL    HW2 1086   0.192   0.236   1.584
   63SOL     OW 1087   1.632   1.377   0.081
   63SOL    HW1 1088   1.600   1.471   0.071
   63SOL    HW2 1089   1.556   1.314   0.069
   64SOL     OW 1090   0.464   1.743   0.323
   64SOL    HW1 1091   0.497   1.782   0.409
   64SOL    HW2 1092   0.540   1.736   0.258
   65SOL     OW 1093   1.400   0.107   0.426
   65SOL    HW1 1094   1.376   0.070   0.336
   65SOL    HW2 1095   1.499   0.123   0.430
   66SOL     OW 1096   0.249   1.785   1.241
   66SOL    HW1 1097   0.306   1.720   1.291
   66SOL    HW2 1098   0.233   1.752   1.148
   67SOL     OW 1099   0.940   1.698   0.904
   67SOL    HW1 1100   1.020   1.641   0.925
   67SOL    HW2 1101   0.891   1.658   0.827
   68SOL     OW 1102   0.382   0.700   0.480
   68SOL    HW1 1103   0.427   0.610   0.477
   68SOL    HW2 1104   0.288   0.689   0.513
   69SOL     OW 1105   1.547   0.222   1.729
   69SOL    HW1 1106   1.542   0.259   1.821
   69SOL    HW2 1107   1.475   0.153   1.717
   70SOL     OW 1108   0.614   0.122   0.117
   70SOL    HW1 1109   0.712   0.100   0.124
   70SOL    HW2 1110   0.583   0.105   0.024
   71SOL     OW 1111   0.781   0.264   1.749
   71SOL    HW1 1112   0.848   0.203   1.792
   71SOL    HW2 1113   0.708   0.283   1.814
   72SOL     OW 1114   0.888   1.514   1.195
   72SOL    HW1 1115   0.865   1.489   1.101
   72SOL    HW2 1116   0.949   1.445   1.234
   73SOL     OW 1117   1.351   0.590   1.433
   73SOL    HW1 1118   1.379   0.547   1.518
   73SOL    HW2 1119   1.376   0.686   1.434
   74SOL     OW 1120   0.803   1.402   0.924
   74SOL    HW1 1121   0.893   1.416   0.882
   74SOL    HW2 1122   0.732   1.404   0.853
   75SOL     OW 1123   0.922   0.503   0.899
   75SOL    HW1 1124   0.897   0.494   0.803
   75SOL    HW2 1125   0.970   0.421   0.930
   76SOL     OW 1126   0.539   0.064   0.512
   76SOL    HW1 1127   0.458   0.065   0.570
   76SOL    HW2 1128   0.542   0.147   0.457
   77SOL     OW 1129   1.434   1.188   0.041
   77SOL    HW1 1130   1.466   1.112   0.098
   77SOL    HW2 1131   1.342   1.215   0.071
   78SOL     OW 1132   0.297   0.035   0.171
   78SOL    HW1 1133   0.346   0.119   0.150
   78SOL    HW2 1134   0.359  -0.030   0.216
   79SOL     OW 1135   0.935   0.236   0.480
   79SOL    HW1 1136   0.887   0.277   0.402
   79SOL    HW2 1137   1.034   0.234   0.461
   80SOL     OW 1138   1.076   0.683   1.464
   80SOL    HW1 1139   0.996   0.622   1.467
   80SOL    HW2 1140   1.157   0.630   1.440
   81SOL     OW 1141   1.227   1.570   0.793
   81SOL    HW1 1142   1.248   1.644   0.728
   81SOL    HW2 1143   1.295   1.570   0.866
   82SOL     OW 1144   0.459   1.152   0.741
   82SOL    HW1 1145   0.388   1.125   0.806
   82SOL    HW2 1146   0.433   1.124   0.648
   83SOL     OW 1147   1.271   1.797   0.591
   83SOL    HW1 1148   1.315   1.861   0.527
   83SOL    HW2 1149   1.221   1.849   0.661
   84SOL     OW 1150   1.032   0.549   0.016
   84SOL    HW1 1151   0.991   0.631  -0.023
   84SOL    HW2 1152   1.096   0.575   0.089
   85SOL     OW 1153   0.078   0.556   1.386
   85SOL    HW1 1154   0.170   0.555   1.345
   85SOL    HW2 1155   0.072   0.630   1.453
   86SOL     OW 1156   0.561   0.222   1.147
   86SOL    HW1 1157   0.599   0.138   1.184
   86SOL    HW2 1158   0.473   0.241   1.191
   87SOL     OW 1159   0.866   0.454   0.642
   87SOL    HW1 1160   0.834   0.526   0.580
   87SOL    HW2 1161   0.890   0.373   0.589
   88SOL     OW 1162   1.017   0.039   0.753
   88SOL    HW1 1163   0.945   0.044   0.684
   88SOL    HW2 1164   0.993  -0.030   0.822
   89SOL     OW 1165   1.429   1.173   0.867
   89SOL    HW1 1166   1.374   1.089   0.860
   89SOL    HW2 1167   1.455   1.202   0.775
   90SOL     OW 1168   1.466   0.590   0.992
   90SOL    HW1 1169   1.436   0.495   0.999
   90SOL    HW2 1170   1.539   0.606   1.058
   91SOL     OW 1171   1.857   0.833   0.377
   91SOL    HW1 1172   1.899   0.769   0.441
   91SOL    HW2 1173   1.819   0.782   0.299
   92SOL     OW 1174   0.488   1.385   0.174
   92SOL    HW1 1175   0.401   1.370   0.221
   92SOL    HW2 1176   0.471   1.411   0.079
   93SOL     OW 1177   1.664   1.280   0.657
   93SOL    HW1 1178   1.763   1.288   0.671
   93SOL    HW2 1179   1.619   1.364   0.688
   94SOL     OW 1180   1.390   0.575   0.078
   94SOL    HW1 1181   1.336   0.554   0.159
   94SOL    HW2 1182   1.481   0.534   0.087
   95SOL     OW 1183   0.527   0.256   0.328
   95SOL    HW1 1184   0.554   0.197   0.253
   95SOL    HW2 1185   0.527   0.351   0.297
   96SOL     OW 1186   1.754   1.223   1.588
   96SOL    HW1 1187   1.845   1.184   1.575
   96SOL    HW2 1188   1.762   1.319   1.612
   97SOL     OW 1189   1.064   1.347   1.340
   97SOL    HW1 1190   0.984   1.324   1.395
   97SOL    HW2 1191   1.147   1.321   1.389
   98SOL     OW 1192   1.592   1.629   1.625
   98SOL    HW1 1193   1.619   1.663   1.535
   98SOL    HW2 1194   1.671   1.591   1.671
   99SOL     OW 1195   1.111   1.195   1.100
   99SOL    HW1 1196   1.071   1.239   1.181
   99SOL    HW2 1197   1.070   1.232   1.017
  100SOL     OW 1198   1.638   1.099   1.079
  100SOL    HW1 1199   1.643   1.180   1.138
  100SOL    HW2 1200   1.552   1.101   1.028
  101SOL     OW 1201   0.915   0.089   1.402
  101SOL    HW1 1202   0.940   0.069   1.307
  101SOL    HW2 1203   0.987   0.145   1.444
  102SOL     OW 1204   0.980   1.116   1.719
  102SOL    HW1 1205   0.881   1.122   1.729
  102SOL    HW2 1206   1.003   1.036   1.663
  103SOL     OW 1207   0.705   1.050   0.368
  103SOL    HW1 1208   0.691   1.057   0.467
  103SOL    HW2 1209   0.789   0.999   0.350
  104SOL     OW 1210   0.410   0.813   1.251
  104SOL    HW1 1211   0.496   0.825   1.301
  104SOL    HW2 1212   0.368   0.726   1.278
  105SOL     OW 1213   1.274   0.386   1.262
  105SOL    HW1 1214   1.295   0.460   1.326
  105SOL    HW2 1215   1.185   0.403   1.219
  106SOL     OW 1216   0.064   1.564   1.331
  106SOL    HW1 1217   0.018   1.646   1.297
  106SOL    HW2 1218   0.162   1.583   1.340
  107SOL     OW 1219   0.367   1.100   0.501
  107SOL    HW1 1220   0.360   1.183   0.445
  107SOL    HW2 1221   0.371   1.020   0.441
  108SOL     OW 1222   0.566   0.537   0.865
  108SOL    HW1 1223   0.578   0.603   0.791
  108SOL    HW2 1224   0.612   0.571   0.948
  109SOL     OW 1225   1.252   1.348   0.388
  109SOL    HW1 1226   1.302   1.425   0.428
  109SOL    HW2 1227   1.157   1.350   0.420
  110SOL     OW 1228   1.272   1.445   1.142
  110SOL    HW1 1229   1.319   1.458   1.229
  110SOL    HW2 1230   1.206   1.371   1.151
  111SOL     OW 1231   1.582   0.639   0.472
  111SOL    HW1 1232   1.551   0.700   0.545
  111SOL    HW2 1233   1.632   0.691   0.403
  112SOL     OW 1234   0.354   1.510   1.329
  112SOL    HW1 1235   0.333   1.466   1.242
  112SOL    HW2 1236   0.451   1.536   1.332
  113SOL     OW 1237   0.402   0.751   1.598
  113SOL    HW1 1238   0.470   0.806   1.551
  113SOL    HW2 1239   0.442   0.663   1.625
  114SOL     OW 1240   1.587   0.779   1.670
  114SOL    HW1 1241   1.495   0.817   1.665
  114SOL    HW2 1242   1.647   0.826   1.605
  115SOL     OW 1243   1.013   0.105   1.770
  115SOL    HW1 1244   1.019   0.190   1.718
  115SOL    HW2 1245   1.045   0.029   1.713
  116SOL     OW 1246   0.504   0.050   1.740
  116SOL    HW1 1247   0.462  -0.007   1.670
  116SOL    HW2 1248   0.438   0.119   1.772
  117SOL     OW 1249   0.573   0.870   1.029
  117SOL    HW1 1250   0.617   0.959   1.020
  117SOL    HW2 1251   0.510   0.870   1.106
  118SOL     OW 1252   1.360   0.862   1.045
  118SOL    HW1 1253   1.285   0.862   0.979
  118SOL    HW2 1254   1.397   0.770   1.054
  119SOL     OW 1255   1.209   0.525   0.275
  119SOL    HW1 1256   1.222   0.441   0.329
  119SOL    HW2 1257   1.180   0.599   0.335
  120SOL     OW 1258   0.307   0.213   1.231
  120SOL    HW1 1259   0.284   0.250   1.321
  120SOL    HW2 1260   0.277   0.118   1.225
  121SOL     OW 1261   0.037   1.310   1.282
  121SOL    HW1 1262   0.090   1.261   1.350
  121SOL    HW2 1263   0.059   1.408   1.287
  122SOL     OW 1264   0.732   0.634   1.064
  122SOL    HW1 1265   0.791   0.608   0.988
  122SOL    HW2 1266   0.704   0.730   1.053
  123SOL     OW 1267   1.728   0.935   1.854
  123SOL    HW1 1268   1.682   0.928   1.765
  123SOL    HW2 1269   1.666   0.979   1.920
  124SOL     OW 1270   0.307   0.063   0.618
  124SOL    HW1 1271   0.296   0.157   0.651
  124SOL    HW2 1272   0.302   0.000   0.695
  125SOL     OW 1273   1.622   0.367   0.374
  125SOL    HW1 1274   1.624   0.291   0.438
  125SOL    HW2 1275   1.574   0.444   0.414
  126SOL     OW 1276   1.023   0.766   0.966
  126SOL    HW1 1277   1.038   0.787   1.062
  126SOL    HW2 1278   0.993   0.671   0.957
  127SOL     OW 1279   0.980   1.573   1.700
  127SOL    HW1 1280   0.960   1.617   1.612
  127SOL    HW2 1281   1.019   1.482   1.684
  128SOL     OW 1282   1.859   1.518   1.605
  128SOL    HW1 1283   1.873   1.545   1.510
  128SOL    HW2 1284   1.942   1.540   1.658
  129SOL     OW 1285   0.350   0.898   1.804
  129SOL    HW1 1286   0.426   0.942   1.852
  129SOL    HW2 1287   0.385   0.851   1.722
  130SOL     OW 1288   1.540   0.274   0.125
  130SOL    HW1 1289   1.479   0.199   0.148
  130SOL    HW2 1290   1.562   0.326   0.208
  131SOL     OW 1291   1.303   0.838   0.042
  131SOL    HW1 1292   1.337   0.745   0.057
  131SOL    HW2 1293   1.321   0.865  -0.053
  132SOL     OW 1294   1.068   1.333   0.849
  132SOL    HW1 1295   1.075   1.249   0.794
  132SOL    HW2 1296   1.130   1.402   0.813
  133SOL     OW 1297   0.319   0.810   0.949
  133SOL    HW1 1298   0.412   0.846   0.954
  133SOL    HW2 1299   0.313   0.725   1.001
  134SOL     OW 1300   0.339   0.509   1.006
  134SOL    HW1 1301   0.287   0.426   0.989
  134SOL    HW2 1302   0.416   0.514   0.942
  135SOL     OW 1303   1.138   0.380   1.678
  135SOL    HW1 1304   1.093   0.443   1.742
  135SOL    HW2 1305   1.231   0.411   1.661
  136SOL     OW 1306   1.160   0.207   1.477
  136SOL    HW1 1307   1.160   0.271   1.554
  136SOL    HW2 1308   1.188   0.255   1.394
  137SOL     OW 1309   0.008   1.326   0.200
  137SOL    HW1 1310  -0.085   1.347   0.169
  137SOL    HW2 1311   0.018   1.227   0.213
  138SOL     OW 1312   0.088   1.801   0.927
  138SOL    HW1 1313   0.046   1.715   0.900
  138SOL    HW2 1314   0.182   1.804   0.893
  139SOL     OW 1315   0.504   1.568   0.910
  139SOL    HW1 1316   0.570   1.642   0.919
  139SOL    HW2 1317   0.548   1.489   0.868
  140SOL     OW 1318   1.002   0.796   1.238
  140SOL    HW1 1319   1.043   0.764   1.324
  140SOL    HW2 1320   0.906   0.769   1.235
  141SOL     OW 1321   0.040   0.544   1.114
  141SOL    HW1 1322   0.125   0.511   1.073
  141SOL    HW2 1323   0.053   0.559   1.212
  142SOL     OW 1324   0.189   0.520   1.722
  142SOL    HW1 1325   0.248   0.480   1.652
  142SOL    HW2 1326   0.131   0.591   1.681
  143SOL     OW 1327   1.369   0.950   1.660
  143SOL    HW1 1328   1.408   1.039   1.680
  143SOL    HW2 1329   1.379   0.930   1.563
  144SOL     OW 1330   0.815   0.572   0.325
  144SOL    HW1 1331   0.822   0.483   0.279
  144SOL    HW2 1332   0.721   0.606   0.317
  145SOL     OW 1333   1.657   0.604   1.206
  145SOL    HW1 1334   1.619   0.535   1.268
  145SOL    HW2 1335   1.739   0.568   1.162
  146SOL     OW 1336   0.252   1.564   1.744
  146SOL    HW1 1337   0.222   1.621   1.820
  146SOL    HW2 1338   0.245   1.467   1.770
  147SOL     OW 1339   0.671   0.464   1.269
  147SOL    HW1 1340   0.637   0.375   1.239
  147SOL    HW2 1341   0.697   0.518   1.189
  148SOL     OW 1342   0.930   1.678   1.465
  148SOL    HW1 1343   0.906   1.660   1.370
  148SOL    HW2 1344   0.960   1.772   1.475
  149SOL     OW 1345   0.473   0.500   0.191
  149SOL    HW1 1346   0.534   0.580   0.195
  149SOL    HW2 1347   0.378   0.531   0.198
  150SOL     OW 1348   0.159   1.137   1.466
  150SOL    HW1 1349   0.181   1.076   1.542
  150SOL    HW2 1350   0.169   1.088   1.380
  151SOL     OW 1351   1.347   1.059   1.234
  151SOL    HW1 1352   1.371   0.996   1.160
  151SOL    HW2 1353   1.257   1.099   1.216
  152SOL     OW 1354   1.302   0.855   0.309
  152SOL    HW1 1355   1.216   0.824   0.351
  152SOL    HW2 1356   1.298   0.841   0.210
  153SOL     OW 1357   1.759   1.747   1.154
  153SOL    HW1 1358   1.820   1.777   1.081
  153SOL    HW2 1359   1.721   1.658   1.132
  154SOL     OW 1360   1.252   1.731   1.128
  154SOL    HW1 1361   1.336   1.736   1.074
  154SOL    HW2 1362   1.229   1.635   1.146
  155SOL     OW 1363   0.083   1.258   1.022
  155SOL    HW1 1364   0.078   1.257   1.122
  155SOL    HW2 1365   0.000   1.217   0.984
  156SOL     OW 1366   0.688   1.662   1.716
  156SOL    HW1 1367   0.632   1.743   1.725
  156SOL    HW2 1368   0.740   1.666   1.630
  157SOL     OW 1369   0.903   0.086   0.133
  157SOL    HW1 1370   0.954   0.087   0.047
  157SOL    HW2 1371   0.959   0.044   0.204
  158SOL     OW 1372   1.726   0.135   0.523
  158SOL    HW1 1373   1.799   0.118   0.456
  158SOL    HW2 1374   1.695   0.048   0.561
  159SOL     OW 1375   1.388   1.573   0.477
  159SOL    HW1 1376   1.455   1.585   0.403
  159SOL    HW2 1377   1.348   1.662   0.500
  160SOL     OW 1378   0.130   1.794   1.851
  160SOL    HW1 1379   0.089   1.720   1.904
  160SOL    HW2 1380   0.194   1.845   1.909
  161SOL     OW 1381   1.280   0.927   0.672
  161SOL    HW1 1382   1.340   0.846   0.674
  161SOL    HW2 1383   1.320   0.996   0.612
  162SOL     OW 1384   0.830   1.273   1.422
  162SOL    HW1 1385   0.825   1.306   1.517
  162SOL    HW2 1386   0.744   1.292   1.376
  163SOL     OW 1387   0.672   1.616   0.154
  163SOL    HW1 1388   0.681   1.626   0.055
  163SOL    HW2 1389   0.632   1.527   0.175
  164SOL     OW 1390   1.650   1.720   1.394
  164SOL    HW1 1391   1.703   1.730   1.310
  164SOL    HW2 1392   1.623   1.810   1.428
  165SOL     OW 1393   1.841   0.175   0.963
  165SOL    HW1 1394   1.880   0.090   0.927
  165SOL    HW2 1395   1.743   0.177   0.944
  166SOL     OW 1396   0.263   0.326   0.720
  166SOL    HW1 1397   0.184   0.377   0.686
  166SOL    HW2 1398   0.254   0.311   0.818
  167SOL     OW 1399   1.194   1.612   0.031
  167SOL    HW1 1400   1.200   1.519   0.068
  167SOL    HW2 1401   1.135   1.612  -0.049
  168SOL     OW 1402   0.822   1.002   1.372
  168SOL    HW1 1403   0.862   1.001   1.280
  168SOL    HW2 1404   0.832   1.094   1.412
  169SOL     OW 1405   0.916   0.910   0.291
  169SOL    HW1 1406   0.979   0.948   0.223
  169SOL    HW2 1407   0.956   0.827   0.330
  170SOL     OW 1408   1.504   1.607   0.044
  170SOL    HW1 1409   1.412   1.644   0.051
  170SOL    HW2 1410   1.542   1.627  -0.046
  171SOL     OW 1411   0.372   1.288   1.490
  171SOL    HW1 1412   0.359   1.381   1.456
  171SOL    HW2 1413   0.288   1.236   1.477
  172SOL     OW 1414   1.614   1.292   1.289
  172SOL    HW1 1415   1.674   1.295   1.369
  172SOL    HW2 1416   1.539   1.356   1.302
  173SOL     OW 1417   1.039   1.098   0.696
  173SOL    HW1 1418   0.969   1.051   0.750
  173SOL    HW2 1419   1.098   1.030   0.653
  174SOL     OW 1420   1.014   0.236   0.971
  174SOL    HW1 1421   1.006   0.200   0.878
  174SOL    HW2 1422   1.012   0.160   1.036
  175SOL     OW 1423   0.590   1.487   0.491
  175SOL    HW1 1424   0.632   1.429   0.421
  175SOL    HW2 1425   0.546   1.566   0.447
  176SOL     OW 1426   1.709   0.385   1.381
  176SOL    HW1 1427   1.782   0.454   1.385
  176SOL    HW2 1428   1.737   0.310   1.322
  177SOL     OW 1429   0.255   1.348   0.290
  177SOL    HW1 1430   0.159   1.349   0.263
  177SOL    HW2 1431   0.267   1.401   0.374
  178SOL     OW 1432   0.105   1.013   1.726
  178SOL    HW1 1433   0.028   0.980   1.780
  178SOL    HW2 1434   0.190   0.983   1.768
  179SOL     OW 1435   0.672   0.203   1.489
  179SOL    HW1 1436   0.762   0.187   1.449
  179SOL    HW2 1437   0.680   0.208   1.588
  180SOL     OW 1438   0.075   0.345   0.033
  180SOL    HW1 1439  -0.017   0.317   0.004
  180SOL    HW2 1440   0.106   0.422  -0.023
  181SOL     OW 1441   1.440   0.856   1.398
  181SOL    HW1 1442   1.383   0.908   1.335
  181SOL    HW2 1443   1.536   0.868   1.374
  182SOL     OW 1444   0.072   0.166   0.318
  182SOL    HW1 1445   0.055   0.249   0.264
  182SOL    HW2 1446   0.162   0.129   0.296
  183SOL     OW 1447   1.183   1.335   0.119
  183SOL    HW1 1448   1.084   1.324   0.121
  183SOL    HW2 1449   1.217   1.350   0.212
  184SOL     OW 1450   0.613   0.842   1.431
  184SOL    HW1 1451   0.669   0.923   1.414
  184SOL    HW2 1452   0.672   0.762   1.434
  185SOL     OW 1453   1.493   1.767   0.959
  185SOL    HW1 1454   1.526   1.831   0.890
  185SOL    HW2 1455   1.559   1.761   1.034
  186SOL     OW 1456   0.716   0.565   1.708
  186SOL    HW1 1457   0.735   0.630   1.782
  186SOL    HW2 1458   0.776   0.485   1.717
  187SOL     OW 1459   1.450   1.220   1.633
  187SOL    HW1 1460   1.441   1.210   1.732
  187SOL    HW2 1461   1.546   1.213   1.607
  188SOL     OW 1462   0.390   1.741   1.560
  188SOL    HW1 1463   0.299   1.782   1.558
  188SOL    HW2 1464   0.383   1.647   1.592
  189SOL     OW 1465   1.674   0.883   1.254
  189SOL    HW1 1466   1.647   0.794   1.217
  189SOL    HW2 1467   1.675   0.951   1.181
  190SOL     OW 1468   1.225   0.325   0.449
  190SOL    HW1 1469   1.290   0.251   0.438
  190SOL    HW2 1470   1.245   0.375   0.533
  191SOL     OW 1471   0.594   0.745   0.652
  191SOL    HW1 1472   0.644   0.830   0.633
  191SOL    HW2 1473   0.506   0.747   0.604
  192SOL     OW 1474   1.777   0.342   1.642
  192SOL    HW1 1475   1.760   0.373   1.548
  192SOL    HW2 1476   1.693   0.305   1.680
  193SOL     OW 1477   1.730   0.934   1.517
  193SOL    HW1 1478   1.768   1.025   1.532
  193SOL    HW2 1479   1.722   0.917   1.418
  194SOL     OW 1480   0.859   1.374   0.016
  194SOL    HW1 1481   0.813   1.389   0.104
  194SOL    HW2 1482   0.903   1.459  -0.014
  195SOL     OW 1483   0.661   1.790   0.953
  195SOL    HW1 1484   0.615   1.878   0.940
  195SOL    HW2 1485   0.760   1.802   0.946
  196SOL     OW 1486   0.859   0.956   0.861
  196SOL    HW1 1487   0.913   0.887   0.909
  196SOL    HW2 1488   0.827   1.025   0.927
  197SOL     OW 1489   1.083   0.984   0.087
  197SOL    HW1 1490   1.060   1.037   0.005
  197SOL    HW2 1491   1.164   0.928   0.068
  198SOL     OW 1492   1.861   1.569   0.851
  198SOL    HW1 1493   1.790   1.557   0.781
  198SOL    HW2 1494   1.862   1.490   0.911
  199SOL     OW 1495   0.221   1.314   1.844
  199SOL    HW1 1496   0.156   1.241   1.823
  199SOL    HW2 1497   0.225   1.328   1.942
  200SOL     OW 1498   0.079   1.240   0.653
  200SOL    HW1 1499   0.078   1.193   0.741
  200SOL    HW2 1500   0.161   1.212   0.602
  201SOL     OW 1501   0.672   1.391   1.624
  201SOL    HW1 1502   0.594   1.341   1.662
  201SOL    HW2 1503   0.669   1.486   1.655
  202SOL     OW 1504   1.824   0.192   1.227
  202SOL    HW1 1505   1.820   0.102   1.271
  202SOL    HW2 1506   1.827   0.181   1.128
  203SOL     OW 1507   0.428   0.424   0.520
  203SOL    HW1 1508   0.458   0.352   0.458
  203SOL    HW2 1509   0.389   0.384   0.603
  204SOL     OW 1510   1.705   1.487   1.104
  204SOL    HW1 1511   1.612   1.462   1.077
  204SOL    HW2 1512   1.731   1.437   1.186
  205SOL     OW 1513   0.317   0.547   1.280
  205SOL    HW1 1514   0.355   0.488   1.352
  205SOL    HW2 1515   0.357   0.521   1.192
  206SOL     OW 1516   0.812   1.586   0.687
  206SOL    HW1 1517   0.844   1.596   0.593
  206SOL    HW2 1518   0.733   1.524   0.689
  207SOL     OW 1519   1.424   0.214   1.112
  207SOL    HW1 1520   1.476   0.149   1.167
  207SOL    HW2 1521   1.375   0.277   1.173
  208SOL     OW 1522   1.001   0.034   1.154
  208SOL    HW1 1523   0.938  -0.038   1.123
  208SOL    HW2 1524   1.094  -0.002   1.154
  209SOL     OW 1525   0.770   1.330   0.301
  209SOL    HW1 1526   0.724   1.243   0.318
  209SOL    HW2 1527   0.861   1.327   0.342
  210SOL     OW 1528   0.618   1.567   1.284
  210SOL    HW1 1529   0.613   1.649   1.341
  210SOL    HW2 1530   0.707   1.564   1.239
  211SOL     OW 1531   1.352   0.052   0.168
  211SOL    HW1 1532   1.387   0.011   0.084
  211SOL    HW2 1533   1.262   0.014   0.188
  212SOL     OW 1534   1.300   0.453   0.691
  212SOL    HW1 1535   1.241   0.533   0.695
  212SOL    HW2 1536   1.315   0.418   0.784
  213SOL     OW 1537   1.593   0.221   0.882
  213SOL    HW1 1538   1.509   0.220   0.936
  213SOL    HW2 1539   1.595   0.304   0.826
  214SOL     OW 1540   0.039   1.077   0.300
  214SOL    HW1 1541   0.138   1.066   0.291
  214SOL    HW2 1542  -0.001   0.991   0.332
  215SOL     OW 1543   0.875   1.646   0.337
  215SOL    HW1 1544   0.798   1.611   0.283
  215SOL    HW2 1545   0.843   1.717   0.399
  216SOL     OW 1546   0.230   0.628   1.975
  216SOL    HW1 1547   0.137   0.626   2.012
  216SOL    HW2 1548   0.231   0.589   1.883
  217SOL     OW 1549   0.225   0.275   2.858
  217SOL    HW1 1550   0.260   0.258   2.950
  217SOL    HW2 1551   0.137   0.230   2.846
  218SOL     OW 1552   0.019   0.368   2.509
  218SOL    HW1 1553  -0.063   0.411   2.548
  218SOL    HW2 1554  -0.009   0.295   2.446
  219SOL     OW 1555   0.569   1.275   3.027
  219SOL    HW1 1556   0.476   1.268   2.990
  219SOL    HW2 1557   0.580   1.364   3.071
  220SOL     OW 1558   1.555   1.511   2.565
  220SOL    HW1 1559   1.498   1.495   2.646
  220SOL    HW2 1560   1.496   1.521   2.485
  221SOL     OW 1561   1.135   0.703   2.579
  221SOL    HW1 1562   1.192   0.781   2.554
  221SOL    HW2 1563   1.075   0.729   2.655
  222SOL     OW 1564   1.755   0.607   2.093
  222SOL    HW1 1565   1.743   0.594   1.994
  222SOL    HW2 1566   1.725   0.526   2.142
  223SOL     OW 1567   0.768   1.144   2.885
  223SOL    HW1 1568   0.690   1.161   2.945
  223SOL    HW2 1569   0.802   1.231   2.849
  224SOL     OW 1570   0.850   0.798   3.685
  224SOL    HW1 1571   0.846   0.874   3.750
  224SOL    HW2 1572   0.872   0.834   3.594
  225SOL     OW 1573   0.685   1.012   2.527
  225SOL    HW1 1574   0.754   0.996   2.597
  225SOL    HW2 1575   0.612   1.069   2.565
  226SOL     OW 1576   0.686   1.161   3.665
  226SOL    HW1 1577   0.746   1.240   3.679
  226SOL    HW2 1578   0.600   1.192   3.624
  227SOL     OW 1579   0.335   1.435   2.923
  227SOL    HW1 1580   0.257   1.404   2.870
  227SOL    HW2 1581   0.393   1.493   2.866
  228SOL     OW 1582   1.460   1.505   3.201
  228SOL    HW1 1583   1.484   1.599   3.227
  228SOL    HW2 1584   1.444   1.451   3.283
  229SOL     OW 1585   0.438   0.392   3.361
  229SOL    HW1 1586   0.520   0.336   3.370
  229SOL    HW2 1587   0.357   0.334   3.365
  230SOL     OW 1588   1.603   0.447   2.599
  230SOL    HW1 1589   1.529   0.493   2.549
  230SOL    HW2 1590   1.654   0.515   2.652
  231SOL     OW 1591   0.231   1.713   2.345
  231SOL    HW1 1592   0.265   1.790   2.399
  231SOL    HW2 1593   0.275   1.713   2.255
  232SOL     OW 1594   1.127   1.341   3.552
  232SOL    HW1 1595   1.174   1.341   3.640
  232SOL    HW2 1596   1.079   1.254   3.541
  233SOL     OW 1597   0.230   1.434   2.400
  233SOL    HW1 1598   0.204   1.530   2.400
  233SOL    HW2 1599   0.159   1.380   2.445
  234SOL     OW 1600   0.240   1.091   2.748
  234SOL    HW1 1601   0.254   1.007   2.800
  234SOL    HW2 1602   0.185   1.155   2.803
  235SOL     OW 1603   0.620   1.786   3.301
  235SOL    HW1 1604   0.528   1.769   3.336
  235SOL    HW2 1605   0.648   1.878   3.327
  236SOL     OW 1606   0.606   0.964   1.985
  236SOL    HW1 1607   0.613   1.048   1.931
  236SOL    HW2 1608   0.652   0.977   2.073
  237SOL     OW 1609   1.594   0.114   3.342
  237SOL    HW1 1610   1.576   0.181   3.270
  237SOL    HW2 1611   1.591   0.160   3.431
  238SOL     OW 1612   0.122   0.643   2.425
  238SOL    HW1 1613   0.077   0.555   2.442
  238SOL    HW2 1614   0.121   0.697   2.509
  239SOL     OW 1615   1.842   1.767   2.221
  239SOL    HW1 1616   1.896   1.738   2.301
  239SOL    HW2 1617   1.872   1.857   2.192
  240SOL     OW 1618   0.027   1.596   1.979
  240SOL    HW1 1619   0.008   1.500   2.000
  240SOL    HW2 1620  -0.006   1.654   2.054
  241SOL     OW 1621   1.689   0.922   2.474
  241SOL    HW1 1622   1.784   0.893   2.482
  241SOL    HW2 1623   1.681   0.987   2.399
  242SOL     OW 1624   1.641   1.108   2.294
  242SOL    HW1 1625   1.727   1.110   2.242
  242SOL    HW2 1626   1.655   1.155   2.382
  243SOL     OW 1627   0.113   0.737   3.459
  243SOL    HW1 1628   0.201   0.724   3.504
  243SOL    HW2 1629   0.100   0.834   3.437
  244SOL     OW 1630   0.613   1.365   2.588
  244SOL    HW1 1631   0.564   1.278   2.597
  244SOL    HW2 1632   0.590   1.408   2.501
  245SOL     OW 1633   1.293   1.228   3.285
  245SOL    HW1 1634   1.330   1.155   3.227
  245SOL    HW2 1635   1.345   1.233   3.370
  246SOL     OW 1636   0.809   0.004   2.364
  246SOL    HW1 1637   0.849   0.095   2.355
  246SOL    HW2 1638   0.709   0.012   2.370
  247SOL     OW 1639   0.197   0.976   3.126
  247SOL    HW1 1640   0.286   0.931   3.112
  247SOL    HW2 1641   0.124   0.911   3.107
  248SOL     OW 1642   1.525   0.999   2.052
  248SOL    HW1 1643   1.462   0.923   2.065
  248SOL    HW2 1644   1.573   1.017   2.138
  249SOL     OW 1645   1.187   1.792   3.478
  249SOL    HW1 1646   1.211   1.852   3.402
  249SOL    HW2 1647   1.194   1.697   3.448
  250SOL     OW 1648   0.317   0.251   3.663
  250SOL    HW1 1649   0.388   0.322   3.669
  250SOL    HW2 1650   0.229   0.290   3.691
  251SOL     OW 1651   1.466   1.417   2.815
  251SOL    HW1 1652   1.407   1.423   2.895
  251SOL    HW2 1653   1.451   1.329   2.769
  252SOL     OW 1654   1.667   1.714   2.434
  252SOL    HW1 1655   1.626   1.691   2.346
  252SOL    HW2 1656   1.649   1.640   2.499
  253SOL     OW 1657   0.598   0.729   2.132
  253SOL    HW1 1658   0.622   0.798   2.064
  253SOL    HW2 1659   0.520   0.762   2.186
  254SOL     OW 1660   1.281   0.345   2.806
  254SOL    HW1 1661   1.195   0.295   2.793
  254SOL    HW2 1662   1.343   0.291   2.862
  255SOL     OW 1663   1.576   1.662   2.169
  255SOL    HW1 1664   1.665   1.708   2.172
  255SOL    HW2 1665   1.555   1.638   2.074
  256SOL     OW 1666   0.807   0.605   3.327
  256SOL    HW1 1667   0.760   0.602   3.416
  256SOL    HW2 1668   0.756   0.550   3.261
  257SOL     OW 1669   1.394   0.469   3.536
  257SOL    HW1 1670   1.374   0.512   3.624
  257SOL    HW2 1671   1.472   0.407   3.545
  258SOL     OW 1672   0.973   0.890   3.434
  258SOL    HW1 1673   1.019   0.806   3.405
  258SOL    HW2 1674   0.917   0.924   3.359
  259SOL     OW 1675   0.991   0.410   3.104
  259SOL    HW1 1676   0.914   0.444   3.158
  259SOL    HW2 1677   0.957   0.359   3.025
  260SOL     OW 1678   1.041   0.701   2.291
  260SOL    HW1 1679   1.067   0.697   2.387
  260SOL    HW2 1680   0.956   0.650   2.277
  261SOL     OW 1681   0.076   0.811   2.651
  261SOL    HW1 1682   0.175   0.799   2.660
  261SOL    HW2 1683   0.052   0.906   2.672
  262SOL     OW 1684   0.130   1.821   3.433
  262SOL    HW1 1685   0.120   1.806   3.532
  262SOL    HW2 1686   0.044   1.857   3.397
  263SOL     OW 1687   0.865   0.348   2.057
  263SOL    HW1 1688   0.924   0.411   2.008
  263SOL    HW2 1689   0.884   0.254   2.028
  264SOL     OW 1690   1.719   0.585   3.693
  264SOL    HW1 1691   1.693   0.674   3.657
  264SOL    HW2 1692   1.717   0.517   3.620
  265SOL     OW 1693   1.362   1.144   2.407
  265SOL    HW1 1694   1.445   1.115   2.359
  265SOL    HW2 1695   1.313   1.211   2.351
  266SOL     OW 1696   0.550   0.196   2.747
  266SOL    HW1 1697   0.545   0.191   2.847
  266SOL    HW2 1698   0.552   0.292   2.718
  267SOL     OW 1699   1.008   1.456   2.339
  267SOL    HW1 1700   0.962   1.528   2.287
  267SOL    HW2 1701   1.004   1.476   2.437
  268SOL     OW 1702   0.351   1.801   2.715
  268SOL    HW1 1703   0.401   1.715   2.721
  268SOL    HW2 1704   0.416   1.878   2.712
  269SOL     OW 1705   1.795   1.066   2.735
  269SOL    HW1 1706   1.733   1.051   2.659
  269SOL    HW2 1707   1.743   1.077   2.820
  270SOL     OW 1708   1.227   1.550   3.368
  270SOL    HW1 1709   1.233   1.473   3.432
  270SOL    HW2 1710   1.175   1.524   3.288
  271SOL     OW 1711   0.321   0.943   2.104
  271SOL    HW1 1712   0.403   0.982   2.062
  271SOL    HW2 1713   0.294   0.861   2.055
  272SOL     OW 1714   1.458   0.735   2.590
  272SOL    HW1 1715   1.453   0.670   2.665
  272SOL    HW2 1716   1.538   0.794   2.603
  273SOL     OW 1717   0.461   1.266   3.589
  273SOL    HW1 1718   0.411   1.267   3.503
  273SOL    HW2 1719   0.398   1.248   3.665
  274SOL     OW 1720   1.111   1.776   2.099
  274SOL    HW1 1721   1.051   1.714   2.149
  274SOL    HW2 1722   1.142   1.732   2.014
  275SOL     OW 1723   0.202   0.285   3.360
  275SOL    HW1 1724   0.122   0.345   3.347
  275SOL    HW2 1725   0.192   0.236   3.446
  276SOL     OW 1726   1.632   1.377   1.943
  276SOL    HW1 1727   1.600   1.471   1.933
  276SOL    HW2 1728   1.556   1.314   1.931
  277SOL     OW 1729   0.464   1.743   2.185
  277SOL    HW1 1730   0.497   1.782   2.271
  277SOL    HW2 1731   0.540   1.736   2.120
  278SOL     OW 1732   1.400   0.107   2.288
  278SOL    HW1 1733   1.376   0.070   2.198
  278SOL    HW2 1734   1.499   0.123   2.292
  279SOL     OW 1735   0.249   1.785   3.103
  279SOL    HW1 1736   0.306   1.720   3.153
  279SOL    HW2 1737   0.233   1.752   3.010
  280SOL     OW 1738   0.940   1.698   2.766
  280SOL    HW1 1739   1.020   1.641   2.787
  280SOL    HW2 1740   0.891   1.658   2.689
  281SOL     OW 1741   0.382   0.700   2.342
  281SOL    HW1 1742   0.427   0.610   2.339
  281SOL    HW2 1743   0.288   0.689   2.375
  282SOL     OW 1744   1.547   0.222   3.591
  282SOL    HW1 1745   1.542   0.259   3.683
  282SOL    HW2 1746   1.475   0.153   3.579
  283SOL     OW 1747   0.614   0.122   1.979
  283SOL    HW1 1748   0.712   0.100   1.986
  283SOL    HW2 1749   0.583   0.105   1.886
  284SOL     OW 1750   0.781   0.264   3.611
  284SOL    HW1 1751   0.848   0.203   3.654
  284SOL    HW2 1752   0.708   0.283   3.676
  285SOL     OW 1753   0.888   1.514   3.057
  285SOL    HW1 1754   0.865   1.489   2.963
  285SOL    HW2 1755   0.949   1.445   3.096
  286SOL     OW 1756   1.351   0.590   3.295
  286SOL    HW1 1757   1.379   0.547   3.380
  286SOL    HW2 1758   1.376   0.686   3.296
  287SOL     OW 1759   0.803   1.402   2.786
  287SOL    HW1 1760   0.893   1.416   2.744
  287SOL    HW2 1761   0.732   1.404   2.715
  288SOL     OW 1762   0.922   0.503   2.761
  288SOL    HW1 1763   0.897   0.494   2.665
  288SOL    HW2 1764   0.970   0.421   2.792
  289SOL     OW 1765   0.539   0.064   2.374
  289SOL    HW1 1766   0.458   0.065   2.432
  289SOL    HW2 1767   0.542   0.147   2.319
  290SOL     OW 1768   1.434   1.188   1.903
  290SOL    HW1 1769   1.466   1.112   1.960
  290SOL    HW2 1770   1.342   1.215   1.933
  291SOL     OW 1771   0.297   0.035   2.033
  291SOL    HW1 1772   0.346   0.119   2.012
  291SOL    HW2 1773   0.359  -0.030   2.078
  292SOL     OW 1774   0.935   0.236   2.342
  292SOL    HW1 1775   0.887   0.277   2.264
  292SOL    HW2 1776   1.034   0.234   2.323
  293SOL     OW 1777   1.076   0.683   3.326
  293SOL    HW1 1778   0.996   0.622   3.329
  293SOL    HW2 1779   1.157   0.630   3.302
  294SOL     OW 1780   1.227   1.570   2.655
  294SOL    HW1 1781   1.248   1.644   2.590
  294SOL    HW2 1782   1.295   1.570   2.728
  295SOL     OW 1783   0.459   1.152   2.603
  295SOL    HW1 1784   0.388   1.125   2.668
  295SOL    HW2 1785   0.433   1.124   2.510
  296SOL     OW 1786   1.271   1.797   2.453
  296SOL    HW1 1787   1.315   1.861   2.389
  296SOL    HW2 1788   1.221   1.849   2.523
  297SOL     OW 1789   1.032   0.549   1.878
  297SOL    HW1 1790   0.991   0.631   1.839
  297SOL    HW2 1791   1.096   0.575   1.951
  298SOL     OW 1792   0.078   0.556   3.248
  298SOL    HW1 1793   0.170   0.555   3.207
  298SOL    HW2 1794   0.072   0.630   3.315
  299SOL     OW 1795   0.561   0.222   3.009
  299SOL    HW1 1796   0.599   0.138   3.046
  299SOL    HW2 1797   0.473   0.241   3.053
  300SOL     OW 1798   0.866   0.454   2.504
  300SOL    HW1 1799   0.834   0.526   2.442
  300SOL    HW2 1800   0.890   0.373   2.451
  301SOL     OW 1801   1.017   0.039   2.615
  301SOL    HW1 1802   0.945   0.044   2.546
  301SOL    HW2 1803   0.993  -0.030   2.684
  302SOL     OW 1804   1.429   1.173   2.729
  302SOL    HW1 1805   1.374   1.089   2.722
  302SOL    HW2 1806   1.455   1.202   2.637
  303SOL     OW 1807   1.466   0.590   2.854
  303SOL    HW1 1808   1.436   0.495   2.861
  303SOL    HW2 1809   1.539   0.606   2.920
  304SOL     OW 1810   1.857   0.833   2.239
  304SOL    HW1 1811   1.899   0.769   2.303
  304SOL    HW2 1812   1.819   0.782   2.161
  305SOL     OW 1813   0.488   1.385   2.036
  305SOL    HW1 1814   0.401   1.370   2.083
  305SOL    HW2 1815   0.471   1.411   1.941
  306SOL     OW 1816   1.664   1.280   2.519
  306SOL    HW1 1817   1.763   1.288   2.533
  306SOL    HW2 1818   1.619   1.364   2.550
  307SOL     OW 1819   1.390   0.575   1.940
  307SOL    HW1 1820   1.336   0.554   2.021
  307SOL    HW2 1821   1.481   0.534   1.949
  308SOL     OW 1822   0.527   0.256   2.190
  308SOL    HW1 1823   0.554   0.197   2.115
  308SOL    HW2 1824   0.527   0.351   2.159
  309SOL     OW 1825   1.754   1.223   3.450
  309SOL    HW1 1826   1.845   1.184   3.437
  309SOL    HW2 1827   1.762   1.319   3.474
  310SOL     OW 1828   1.064   1.347   3.202
  310SOL    HW1 1829   0.984   1.324   3.257
  310SOL    HW2 1830   1.147   1.321   3.251
  311SOL     OW 1831   1.592   1.629   3.487
  311SOL    HW1 1832   1.619   1.663   3.397
  311SOL    HW2 1833   1.671   1.591   3.533
  312SOL     OW 1834   1.111   1.195   2.962
  312SOL    HW1 1835   1.071   1.239   3.043
  312SOL    HW2 1836   1.070   1.232   2.879
  313SOL     OW 1837   1.638   1.099   2.941
  313SOL    HW1 1838   1.643   1.180   3.000
  313SOL    HW2 1839   1.552   1.101   2.890
  314SOL     OW 1840   0.915   0.089   3.264
  314SOL    HW1 1841   0.940   0.069   3.169
  314SOL    HW2 1842   0.987   0.145   3.306
  315SOL     OW 1843   0.980   1.116   3.581
  315SOL    HW1 1844   0.881   1.122   3.591
  315SOL    HW2 1845   1.003   1.036   3.525
  316SOL     OW 1846   0.705   1.050   2.230
  316SOL    HW1 1847   0.691   1.057   2.329
  316SOL    HW2 1848   0.789   0.999   2.212
  317SOL     OW 1849   0.410   0.813   3.113
  317SOL    HW1 1850   0.496   0.825   3.163
  317SOL    HW2 1851   0.368   0.726   3.140
  318SOL     OW 1852   1.274   0.386   3.124
  318SOL    HW1 1853   1.295   0.460   3.188
  318SOL    HW2 1854   1.185   0.403   3.081
  319SOL     OW 1855   0.064   1.564   3.193
  319SOL    HW1 1856   0.018   1.646   3.159
  319SOL    HW2 1857   0.162   1.583   3.202
  320SOL     OW 1858   0.367   1.100   2.363
  320SOL    HW1 1859   0.360   1.183   2.307
  320SOL    HW2 1860   0.371   1.020   2.303
  321SOL     OW 1861   0.566   0.537   2.727
  321SOL    HW1 1862   0.578   0.603   2.653
  321SOL    HW2 1863   0.612   0.571   2.810
  322SOL     OW 1864   1.252   1.348   2.250
  322SOL    HW1 1865   1.302   1.425   2.290
  322SOL    HW2 1866   1.157   1.350   2.282
  323SOL     OW 1867   1.272   1.445   3.004
  323SOL    HW1 1868   1.319   1.458   3.091
  323SOL    HW2 1869   1.206   1.371   3.013
  324SOL     OW 1870   1.582   0.639   2.334
  324SOL    HW1 1871   1.551   0.700   2.407
  324SOL    HW2 1872   1.632   0.691   2.265
  325SOL     OW 1873   0.354   1.510   3.191
  325SOL    HW1 1874   0.333   1.466   3.104
  325SOL    HW2 1875   0.451   1.536   3.194
  326SOL     OW 1876   0.402   0.751   3.460
  326SOL    HW1 1877   0.470   0.806   3.413
  326SOL    HW2 1878   0.442   0.663   3.487
  327SOL     OW 1879   1.587   0.779   3.532
  327SOL    HW1 1880   1.495   0.817   3.527
  327SOL    HW2 1881   1.647   0.826   3.467
  328SOL     OW 1882   1.013   0.105   3.632
  328SOL    HW1 1883   1.019   0.190   3.580
  328SOL    HW2 1884   1.045   0.029   3.575
  329SOL     OW 1885   0.504   0.050   3.602
  329SOL    HW1 1886   0.462  -0.007   3.532
  329SOL    HW2 1887   0.438   0.119   3.634
  330SOL     OW 1888   0.573   0.870   2.891
  330SOL    HW1 1889   0.617   0.959   2.882
  330SOL    HW2 1890   0.510   0.870   2.968
  331SOL     OW 1891   1.360   0.862   2.907
  331SOL    HW1 1892   1.285   0.862   2.841
  331SOL    HW2 1893   1.397   0.770   2.916
  332SOL     OW 1894   1.209   0.525   2.137
  332SOL    HW1 1895   1.222   0.441   2.191
  332SOL    HW2 1896   1.180   0.599   2.197
  333SOL     OW 1897   0.307   0.213   3.093
  333SOL    HW1 1898   0.284   0.250   3.183
  333SOL    HW2 1899   0.277   0.118   3.087
  334SOL     OW 1900   0.037   1.310   3.144
  334SOL    HW1 1901   0.090   1.261   3.212
  334SOL    HW2 1902   0.059   1.408   3.149
  335SOL     OW 1903   0.732   0.634   2.926
  335SOL    HW1 1904   0.791   0.608   2.850
  335SOL    HW2 1905   0.704   0.730   2.915
  336SOL     OW 1906   1.728   0.935   3.716
  336SOL    HW1 1907   1.682   0.928   3.627
  336SOL    HW2 1908   1.666   0.979   3.782
  337SOL     OW 1909   0.307   0.063   2.480
  337SOL    HW1 1910   0.296   0.157   2.513
  337SOL    HW2 1911   0.302   0.000   2.557
  338SOL     OW 1912   1.622   0.367   2.236
  338SOL    HW1 1913   1.624   0.291   2.300
  338SOL    HW2 1914   1.574   0.444   2.276
  339SOL     OW 1915   1.023   0.766   2.828
  339SOL    HW1 1916   1.038   0.787   2.924
  339SOL    HW2 1917   0.993   0.671   2.819
  340SOL     OW 1918   0.980   1.573   3.562
  340SOL    HW1 1919   0.960   1.617   3.474
  340SOL    HW2 1920   1.019   1.482   3.546
  341SOL     OW 1921   1.859   1.518   3.467
  341SOL    HW1 1922   1.873   1.545   3.372
  341SOL    HW2 1923   1.942   1.540   3.520
  342SOL     OW 1924   0.350   0.898   3.666
  342SOL    HW1 1925   0.426   0.942   3.714
  342SOL    HW2 1926   0.385   0.851   3.584
  343SOL     OW 1927   1.540   0.274   1.987
  343SOL    HW1 1928   1.479   0.199   2.010
  343SOL    HW2 1929   1.562   0.326   2.070
  344SOL     OW 1930   1.303   0.838   1.904
  344SOL    HW1 1931   1.337   0.745   1.919
  344SOL    HW2 1932   1.321   0.865   1.809
  345SOL     OW 1933   1.068   1.333   2.711
  345SOL    HW1 1934   1.075   1.249   2.656
  345SOL    HW2 1935   1.130   1.402   2.675
  346SOL     OW 1936   0.319   0.810   2.811
  346SOL    HW1 1937   0.412   0.846   2.816
  346SOL    HW2 1938   0.313   0.725   2.863
  347SOL     OW 1939   0.339   0.509   2.868
  347SOL    HW1 1940   0.287   0.426   2.851
  347SOL    HW2 1941   0.416   0.514   2.804
  348SOL     OW 1942   1.138   0.380   3.540
  348SOL    HW1 1943   1.093   0.443   3.604
  348SOL    HW2 1944   1.231   0.411   3.523
  349SOL     OW 1945   1.160   0.207   3.339
  349SOL    HW1 1946   1.160   0.271   3.416
  349SOL    HW2 1947   1.188   0.255   3.256
  350SOL     OW 1948   0.008   1.326   2.062
  350SOL    HW1 1949  -0.085   1.347   2.031
  350SOL    HW2 1950   0.018   1.227   2.075
  351SOL     OW 1951   0.088   1.801   2.789
  351SOL    HW1 1952   0.046   1.715   2.762
  351SOL    HW2 1953   0.182   1.804   2.755
  352SOL     OW 1954   0.504   1.568   2.772
  352SOL    HW1 1955   0.570   1.642   2.781
  352SOL    HW2 1956   0.548   1.489   2.730
  353SOL     OW 1957   1.002   0.796   3.100
  353SOL    HW1 1958   1.043   0.764   3.186
  353SOL    HW2 1959   0.906   0.769   3.097
  354SOL     OW 1960   0.040   0.544   2.976
  354SOL    HW1 1961   0.125   0.511   2.935
  354SOL    HW2 1962   0.053   0.559   3.074
  355SOL     OW 1963   0.189   0.520   3.584
  355SOL    HW1 1964   0.248   0.480   3.514
  355SOL    HW2 1965   0.131   0.591   3.543
  356SOL     OW 1966   1.369   0.950   3.522
  356SOL    HW1 1967   1.408   1.039   3.542
  356SOL    HW2 1968   1.379   0.930   3.425
  357SOL     OW 1969   0.815   0.572   2.187
  357SOL    HW1 1970   0.822   0.483   2.141
  357SOL    HW2 1971   0.721   0.606   2.179
  358SOL     OW 1972   1.657   0.604   3.068
  358SOL    HW1 1973   1.619   0.535   3.130
  358SOL    HW2 1974   1.739   0.568   3.024
  359SOL     OW 1975   0.252   1.564   3.606
  359SOL    HW1 1976   0.222   1.621   3.682
  359SOL    HW2 1977   0.245   1.467   3.632
  360SOL     OW 1978   0.671   0.464   3.131
  360SOL    HW1 1979   0.637   0.375   3.101
  360SOL    HW2 1980   0.697   0.518   3.051
  361SOL     OW 1981   0.930   1.678   3.327
  361SOL    HW1 1982   0.906   1.660   3.232
  361SOL    HW2 1983   0.960   1.772   3.337
  362SOL     OW 1984   0.473   0.500   2.053
  362SOL    HW1 1985   0.534   0.580   2.057
  362SOL    HW2 1986   0.378   0.531   2.060
  363SOL     OW 1987   0.159   1.137   3.328
  363SOL    HW1 1988   0.181   1.076   3.404
  363SOL    HW2 1989   0.169   1.088   3.242
  364SOL     OW 1990   1.347   1.059   3.096
  364SOL    HW1 1991   1.371   0.996   3.022
  364SOL    HW2 1992   1.257   1.099   3.078
  365SOL     OW 1993   1.302   0.855   2.171
  365SOL    HW1 1994   1.216   0.824   2.213
  365SOL    HW2 1995   1.298   0.841   2.072
  366SOL     OW 1996   1.759   1.747   3.016
  366SOL    HW1 1997   1.820   1.777   2.943
  366SOL    HW2 1998   1.721   1.658   2.994
  367SOL     OW 1999   1.252   1.731   2.990
  367SOL    HW1 2000   1.336   1.736   2.936
  367SOL    HW2 2001   1.229   1.635   3.008
  368SOL     OW 2002   0.083   1.258   2.884
  368SOL    HW1 2003   0.078   1.257   2.984
  368SOL    HW2 2004   0.000   1.217   2.846
  369SOL     OW 2005   0.688   1.662   3.578
  369SOL    HW1 2006   0.632   1.743   3.587
  369SOL    HW2 2007   0.740   1.666   3.492
  370SOL     OW 2008   1.726   0.135   2.385
  370SOL    HW1 2009   1.799   0.118   2.318
  370SOL    HW2 2010   1.695   0.048   2.423
  371SOL     OW 2011   1.388   1.573   2.339
  371SOL    HW1 2012   1.455   1.585   2.265
  371SOL    HW2 2013   1.348   1.662   2.362
  372SOL     OW 2014   0.130   1.794   3.713
  372SOL    HW1 2015   0.089   1.720   3.766
  372SOL    HW2 2016   0.194   1.845   3.771
  373SOL     OW 2017   1.280   0.927   2.534
  373SOL    HW1 2018   1.340   0.846   2.536
  373SOL    HW2 2019   1.320   0.996   2.474
  374SOL     OW 2020   0.830   1.273   3.284
  374SOL    HW1 2021   0.825   1.306   3.379
  374SOL    HW2 2022   0.744   1.292   3.238
  375SOL     OW 2023   0.672   1.616   2.016
  375SOL    HW1 2024   0.681   1.626   1.917
  375SOL    HW2 2025   0.632   1.527   2.037
  376SOL     OW 2026   1.650   1.720   3.256
  376SOL    HW1 2027   1.703   1.730   3.172
  376SOL    HW2 2028   1.623   1.810   3.290
  377SOL     OW 2029   1.841   0.175   2.825
  377SOL    HW1 2030   1.880   0.090   2.789
  377SOL    HW2 2031   1.743   0.177   2.806
  378SOL     OW 2032   0.263   0.326   2.582
  378SOL    HW1 2033   0.184   0.377   2.548
  378SOL    HW2 2034   0.254   0.311   2.680
  379SOL     OW 2035   1.194   1.612   1.893
  379SOL    HW1 2036   1.200   1.519   1.930
  379SOL    HW2 2037   1.135   1.612   1.813
  380SOL     OW 2038   0.822   1.002   3.234
  380SOL    HW1 2039   0.862   1.001   3.142
  380SOL    HW2 2040   0.832   1.094   3.274
  381SOL     OW 2041   0.916   0.910   2.153
  381SOL    HW1 2042   0.979   0.948   2.085
  381SOL    HW2 2043   0.956   0.827   2.192
  382SOL     OW 2044   1.504   1.607   1.906
  382SOL    HW1 2045   1.412   1.644   1.913
  382SOL    HW2 2046   1.542   1.627   1.816
  383SOL     OW 2047   0.372   1.288   3.352
  383SOL    HW1 2048   0.359   1.381   3.318
  383SOL    HW2 2049   0.288   1.236   3.339
  384SOL     OW 2050   1.614   1.292   3.151
  384SOL    HW1 2051   1.674   1.295   3.231
  384SOL    HW2 2052   1.539   1.356   3.164
  385SOL     OW 2053   1.039   1.098   2.558
  385SOL    HW1 2054   0.969   1.051   2.612
  385SOL    HW2 2055   1.098   1.030   2.515
  386SOL     OW 2056   1.014   0.236   2.833
  386SOL    HW1 2057   1.006   0.200   2.740
  386SOL    HW2 2058   1.012   0.160   2.898
  387SOL     OW 2059   0.590   1.487   2.353
  387SOL    HW1 2060   0.632   1.429   2.283
  387SOL    HW2 2061   0.546   1.566   2.309
  388SOL     OW 2062   1.709   0.385   3.243
  388SOL    HW1 2063   1.782   0.454   3.247
  388SOL    HW2 2064   1.737   0.310   3.184
  389SOL     OW 2065   0.255   1.348   2.152
  389SOL    HW1 2066   0.159   1.349   2.125
  389SOL    HW2 2067   0.267   1.401   2.236
  390SOL     OW 2068   0.105   1.013   3.588
  390SOL    HW1 2069   0.028   0.980   3.642
  390SOL    HW2 2070   0.190   0.983   3.630
  391SOL     OW 2071   0.672   0.203   3.351
  391SOL    HW1 2072   0.762   0.187   3.311
  391SOL    HW2 2073   0.680   0.208   3.450
  392SOL     OW 2074   0.075   0.345   1.895
  392SOL    HW1 2075  -0.017   0.317   1.866
  392SOL    HW2 2076   0.106   0.422   1.839
  393SOL     OW 2077   1.440   0.856   3.260
  393SOL    HW1 2078   1.383   0.908   3.197
  393SOL    HW2 2079   1.536   0.868   3.236
  394SOL     OW 2080   0.072   0.166   2.180
  394SOL    HW1 2081   0.055   0.249   2.126
  394SOL    HW2 2082   0.162   0.129   2.158
  395SOL     OW 2083   1.183   1.335   1.981
  395SOL    HW1 2084   1.084   1.324   1.983
  395SOL    HW2 2085   1.217   1.350   2.074
  396SOL     OW 2086   0.613   0.842   3.293
  396SOL    HW1 2087   0.669   0.923   3.276
  396SOL    HW2 2088   0.672   0.762   3.296
  397SOL     OW 2089   1.493   1.767   2.821
  397SOL    HW1 2090   1.526   1.831   2.752
  397SOL    HW2 2091   1.559   1.761   2.896
  398SOL     OW 2092   0.716   0.565   3.570
  398SOL    HW1 2093   0.735   0.630   3.644
  398SOL    HW2 2094   0.776   0.485   3.579
  399SOL     OW 2095   1.450   1.220   3.495
  399SOL    HW1 2096   1.441   1.210   3.594
  399SOL    HW2 2097   1.546   1.213   3.469
  400SOL     OW 2098   0.390   1.741   3.422
  400SOL    HW1 2099   0.299   1.782   3.420
  400SOL    HW2 2100   0.383   1.647   3.454
  401SOL     OW 2101   1.674   0.883   3.116
  401SOL    HW1 2102   1.647   0.794   3.079
  401SOL    HW2 2103   1.675   0.951   3.043
  402SOL     OW 2104   1.225   0.325   2.311
  402SOL    HW1 2105   1.290   0.251   2.300
  402SOL    HW2 2106   1.245   0.375   2.395
  403SOL     OW 2107   0.594   0.745   2.514
  403SOL    HW1 2108   0.644   0.830   2.495
  403SOL    HW2 2109   0.506   0.747   2.466
  404SOL     OW 2110   1.777   0.342   3.504
  404SOL    HW1 2111   1.760   0.373   3.410
  404SOL    HW2 2112   1.693   0.305   3.542
  405SOL     OW 2113   1.730   0.934   3.379
  405SOL    HW1 2114   1.768   1.025   3.394
  405SOL    HW2 2115   1.722   0.917   3.280
  406SOL     OW 2116   0.859   1.374   1.878
  406SOL    HW1 2117   0.813   1.389   1.966
  406SOL    HW2 2118   0.903   1.459   1.848
  407SOL     OW 2119   0.661   1.790   2.815
  407SOL    HW1 2120   0.615   1.878   2.802
  407SOL    HW2 2121   0.760   1.802   2.808
  408SOL     OW 2122   0.859   0.956   2.723
  408SOL    HW1 2123   0.913   0.887   2.771
  408SOL    HW2 2124   0.827   1.025   2.789
  409SOL     OW 2125   1.083   0.984   1.949
  409SOL    HW1 2126   1.060   1.037   1.867
  409SOL    HW2 2127   1.164   0.928   1.930
  410SOL     OW 2128   1.861   1.569   2.713
  410SOL    HW1 2129   1.790   1.557   2.643
  410SOL    HW2 2130   1.862   1.490   2.773
  411SOL     OW 2131   0.221   1.314   3.706
  411SOL    HW1 2132   0.156   1.241   3.685
  411SOL    HW2 2133   0.225   1.328   3.804
  412SOL     OW 2134   0.079   1.240   2.515
  412SOL    HW1 2135   0.078   1.193   2.603
  412SOL    HW2 2136   0.161   1.212   2.464
  413SOL     OW 2137   0.672   1.391   3.486
  413SOL    HW1 2138   0.594   1.341   3.524
  413SOL    HW2 2139   0.669   1.486   3.517
  414SOL     OW 2140   1.824   0.192   3.089
  414SOL    HW1 2141   1.820   0.102   3.133
  414SOL    HW2 2142   1.827   0.181   2.990
  415SOL     OW 2143   0.428   0.424   2.382
  415SOL    HW1 2144   0.458   0.352   2.320
  415SOL    HW2 2145   0.389   0.384   2.465
  416SOL     OW 2146   1.705   1.487   2.966
  416SOL    HW1 2147   1.612   1.462   2.939
  416SOL    HW2 2148   1.731   1.437   3.048
  417SOL     OW 2149   0.317   0.547   3.142
  417SOL    HW1 2150   0.355   0.488   3.214
  417SOL    HW2 2151   0.357   0.521   3.054
  418SOL     OW 2152   0.812   1.586   2.549
  418SOL    HW1 2153   0.844   1.596   2.455
  418SOL    HW2 2154   0.733   1.524   2.551
  419SOL     OW 2155   1.424   0.214   2.974
  419SOL    HW1 2156   1.476   0.149   3.029
  419SOL    HW2 2157   1.375   0.277   3.035
  420SOL     OW 2158   1.001   0.034   3.016
  420SOL    HW1 2159   0.938  -0.038   2.985
  420SOL    HW2 2160   1.094  -0.002   3.016
  421SOL     OW 2161   0.770   1.330   2.163
  421SOL    HW1 2162   0.724   1.243   2.180
  421SOL    HW2 2163   0.861   1.327   2.204
  422SOL     OW 2164   0.618   1.567   3.146
  422SOL    HW1 2165   0.613   1.649   3.203
  422SOL    HW2 2166   0.707   1.564   3.101
  423SOL     OW 2167   1.352   0.052   2.030
  423SOL    HW1 2168   1.387   0.011   1.946
  423SOL    HW2 2169   1.262   0.014   2.050
  424SOL     OW 2170   1.300   0.453   2.553
  424SOL    HW1 2171   1.241   0.533   2.557
  424SOL    HW2 2172   1.315   0.418   2.646
  425SOL     OW 2173   1.593   0.221   2.744
  425SOL    HW1 2174   1.509   0.220   2.798
  425SOL    HW2 2175   1.595   0.304   2.688
  426SOL     OW 2176   0.039   1.077   2.162
  426SOL    HW1 2177   0.138   1.066   2.153
  426SOL    HW2 2178  -0.001   0.991   2.194
  427SOL     OW 2179   0.875   1.646   2.199
  427SOL    HW1 2180   0.798   1.611   2.145
  427SOL    HW2 2181   0.843   1.717   2.261
  428SOL     OW 2182   0.230   0.628   3.837
  428SOL    HW1 2183   0.137   0.626   3.874
  428SOL    HW2 2184   0.231   0.589   3.745
  429SOL     OW 2185   0.225   0.275   4.720
  429SOL    HW1 2186   0.260   0.258   4.812
  429SOL    HW2 2187   0.137   0.230   4.708
  430SOL     OW 2188   0.019   0.368   4.371
  430SOL    HW1 2189  -0.063   0.411   4.410
  430SOL    HW2 2190  -0.009   0.295   4.308
  431SOL     OW 2191   0.569   1.275   4.889
  431SOL    HW1 2192   0.476   1.268   4.852
  431SOL    HW2 2193   0.580   1.364   4.933
  432SOL     OW 2194   1.555   1.511   4.427
  432SOL    HW1 2195   1.498   1.495   4.508
  432SOL    HW2 2196   1.496   1.521   4.347
  433SOL     OW 2197   1.135   0.703   4.441
  433SOL    HW1 2198   1.192   0.781   4.416
  433SOL    HW2 2199   1.075   0.729   4.517
  434SOL     OW 2200   1.755   0.607   3.955
  434SOL    HW1 2201   1.743   0.594   3.856
  434SOL    HW2 2202   1.725   0.526   4.004
  435SOL     OW 2203   0.768   1.144   4.747
  435SOL    HW1 2204   0.690   1.161   4.807
  435SOL    HW2 2205   0.802   1.231   4.711
  436SOL     OW 2206   0.850   0.798   5.547
  436SOL    HW1 2207   0.846   0.874   5.612
  436SOL    HW2 2208   0.872   0.834   5.456
  437SOL     OW 2209   0.685   1.012   4.389
  437SOL    HW1 2210   0.754   0.996   4.459
  437SOL    HW2 2211   0.612   1.069   4.427
  438SOL     OW 2212   0.686   1.161   5.527
  438SOL    HW1 2213   0.746   1.240   5.541
  438SOL    HW2 2214   0.600   1.192   5.486
  439SOL     OW 2215   0.335   1.435   4.785
  439SOL    HW1 2216   0.257   1.404   4.732
  439SOL    HW2 2217   0.393   1.493   4.728
  440SOL     OW 2218   1.460   1.505   5.063
  440SOL    HW1 2219   1.484   1.599   5.089
  440SOL    HW2 2220   1.444   1.451   5.145
  441SOL     OW 2221   0.438   0.392   5.223
  441SOL    HW1 2222   0.520   0.336   5.232
  441SOL    HW2 2223   0.357   0.334   5.227
  442SOL     OW 2224   1.603   0.447   4.461
  442SOL    HW1 2225   1.529   0.493   4.411
  442SOL    HW2 2226   1.654   0.515   4.514
  443SOL     OW 2227   0.231   1.713   4.207
  443SOL    HW1 2228   0.265   1.790   4.261
  443SOL    HW2 2229   0.275   1.713   4.117
  444SOL     OW 2230   1.127   1.341   5.414
  444SOL    HW1 2231   1.174   1.341   5.502
  444SOL    HW2 2232   1.079   1.254   5.403
  445SOL     OW 2233   0.230   1.434   4.262
  445SOL    HW1 2234   0.204   1.530   4.262
  445SOL    HW2 2235   0.159   1.380   4.307
  446SOL     OW 2236   0.240   1.091   4.610
  446SOL    HW1 2237   0.254   1.007   4.662
  446SOL    HW2 2238   0.185   1.155   4.665
  447SOL     OW 2239   0.620   1.786   5.163
  447SOL    HW1 2240   0.528   1.769   5.198
  447SOL    HW2 2241   0.648   1.878   5.189
  448SOL     OW 2242   0.606   0.964   3.847
  448SOL    HW1 2243   0.613   1.048   3.793
  448SOL    HW2 2244   0.652   0.977   3.935
  449SOL     OW 2245   1.594   0.114   5.204
  449SOL    HW1 2246   1.576   0.181   5.132
  449SOL    HW2 2247   1.591   0.160   5.293
  450SOL     OW 2248   0.122   0.643   4.287
  450SOL    HW1 2249   0.077   0.555   4.304
  450SOL    HW2 2250   0.121   0.697   4.371
  451SOL     OW 2251   1.842   1.767   4.083
  451SOL    HW1 2252   1.896   1.738   4.163
  451SOL    HW2 2253   1.872   1.857   4.054
  452SOL     OW 2254   0.027   1.596   3.841
  452SOL    HW1 2255   0.008   1.500   3.862
  452SOL    HW2 2256  -0.006   1.654   3.916
  453SOL     OW 2257   1.689   0.922   4.336
  453SOL    HW1 2258   1.784   0.893   4.344
  453SOL    HW2 2259   1.681   0.987   4.261
  454SOL     OW 2260   1.641   1.108   4.156
  454SOL    HW1 2261   1.727   1.110   4.104
  454SOL    HW2 2262   1.655   1.155   4.244
  455SOL     OW 2263   0.113   0.737   5.321
  455SOL    HW1 2264   0.201   0.724   5.366
  455SOL    HW2 2265   0.100   0.834   5.299
  456SOL     OW 2266   0.613   1.365   4.450
  456SOL    HW1 2267   0.564   1.278   4.459
  456SOL    HW2 2268   0.590   1.408   4.363
  457SOL     OW 2269   1.293   1.228   5.147
  457SOL    HW1 2270   1.330   1.155   5.089
  457SOL    HW2 2271   1.345   1.233   5.232
  458SOL     OW 2272   0.809   0.004   4.226
  458SOL    HW1 2273   0.849   0.095   4.217
  458SOL    HW2 2274   0.709   0.012   4.232
  459SOL     OW 2275   0.197   0.976   4.988
  459SOL    HW1 2276   0.286   0.931   4.974
  459SOL    HW2 2277   0.124   0.911   4.969
  460SOL     OW 2278   1.525   0.999   3.914
  460SOL    HW1 2279   1.462   0.923   3.927
  460SOL    HW2 2280   1.573   1.017   4.000
  461SOL     OW 2281   1.187   1.792   5.340
  461SOL    HW1 2282   1.211   1.852   5.264
  461SOL    HW2 2283   1.194   1.697   5.310
  462SOL     OW 2284   0.317   0.251   5.525
  462SOL    HW1 2285   0.388   0.322   5.531
  462SOL    HW2 2286   0.229   0.290   5.553
  463SOL     OW 2287   1.466   1.417   4.677
  463SOL    HW1 2288   1.407   1.423   4.757
  463SOL    HW2 2289   1.451   1.329   4.631
  464SOL     OW 2290   1.667   1.714   4.296
  464SOL    HW1 2291   1.626   1.691   4.208
  464SOL    HW2 2292   1.649   1.640   4.361
  465SOL     OW 2293   0.598   0.729   3.994
  465SOL    HW1 2294   0.622   0.798   3.926
  465SOL    HW2 2295   0.520   0.762   4.048
  466SOL     OW 2296   1.281   0.345   4.668
  466SOL    HW1 2297   1.195   0.295   4.655
  466SOL    HW2 2298   1.343   0.291   4.724
  467SOL     OW 2299   1.576   1.662   4.031
  467SOL    HW1 2300   1.665   1.708   4.034
  467SOL    HW2 2301   1.555   1.638   3.936
  468SOL     OW 2302   0.807   0.605   5.189
  468SOL    HW1 2303   0.760   0.602   5.278
  468SOL    HW2 2304   0.756   0.550   5.123
  469SOL     OW 2305   1.394   0.469   5.398
  469SOL    HW1 2306   1.374   0.512   5.486
  469SOL    HW2 2307   1.472   0.407   5.407
  470SOL     OW 2308   0.973   0.890   5.296
  470SOL    HW1 2309   1.019   0.806   5.267
  470SOL    HW2 2310   0.917   0.924   5.221
  471SOL     OW 2311   0.991   0.410   4.966
  471SOL    HW1 2312   0.914   0.444   5.020
  471SOL    HW2 2313   0.957   0.359   4.887
  472SOL     OW 2314   1.041   0.701   4.153
  472SOL    HW1 2315   1.067   0.697   4.249
  472SOL    HW2 2316   0.956   0.650   4.139
  473SOL     OW 2317   0.076   0.811   4.513
  473SOL    HW1 2318   0.175   0.799   4.522
  473SOL    HW2 2319   0.052   0.906   4.534
  474SOL     OW 2320   0.130   1.821   5.295
  474SOL    HW1 2321   0.120   1.806   5.394
  474SOL    HW2 2322   0.044   1.857   5.259
  475SOL     OW 2323   0.865   0.348   3.919
  475SOL    HW1 2324   0.924   0.411   3.870
  475SOL    HW2 2325   0.884   0.254   3.890
  476SOL     OW 2326   1.719   0.585   5.555
  476SOL    HW1 2327   1.693   0.674   5.519
  476SOL    HW2 2328   1.717   0.517   5.482
  477SOL     OW 2329   1.362   1.144   4.269
  477SOL    HW1 2330   1.445   1.115   4.221
  477SOL    HW2 2331   1.313   1.211   4.213
  478SOL     OW 2332   0.550   0.196   4.609
  478SOL    HW1 2333   0.545   0.191   4.709
  478SOL    HW2 2334   0.552   0.292   4.580
  479SOL     OW 2335   1.008   1.456   4.201
  479SOL    HW1 2336   0.962   1.528   4.149
  479SOL    HW2 2337   1.004   1.476   4.299
  480SOL     OW 2338   0.351   1.801   4.577
  480SOL    HW1 2339   0.401   1.715   4.583
  480SOL    HW2 2340   0.416   1.878   4.574
  481SOL     OW 2341   1.795   1.066   4.597
  481SOL    HW1 2342   1.733   1.051   4.521
  481SOL    HW2 2343   1.743   1.077   4.682
  482SOL     OW 2344   1.227   1.550   5.230
  482SOL    HW1 2345   1.233   1.473   5.294
  482SOL    HW2 2346   1.175   1.524   5.150
  483SOL     OW 2347   0.321   0.943   3.966
  483SOL    HW1 2348   0.403   0.982   3.924
  483SOL    HW2 2349   0.294   0.861   3.917
  484SOL     OW 2350   1.458   0.735   4.452
  484SOL    HW1 2351   1.453   0.670   4.527
  484SOL    HW2 2352   1.538   0.794   4.465
  485SOL     OW 2353   0.461   1.266   5.451
  485SOL    HW1 2354   0.411   1.267   5.365
  485SOL    HW2 2355   0.398   1.248   5.527
  486SOL     OW 2356   1.111   1.776   3.961
  486SOL    HW1 2357   1.051   1.714   4.011
  486SOL    HW2 2358   1.142   1.732   3.876
  487SOL     OW 2359   0.202   0.285   5.222
  487SOL    HW1 2360   0.122   0.345   5.209
  487SOL    HW2 2361   0.192   0.236   5.308
  488SOL     OW 2362   1.632   1.377   3.805
  488SOL    HW1 2363   1.600   1.471   3.795
  488SOL    HW2 2364   1.556   1.314   3.793
  489SOL     OW 2365   0.464   1.743   4.047
  489SOL    HW1 2366   0.497   1.782   4.133
  489SOL    HW2 2367   0.540   1.736   3.982
  490SOL     OW 2368   1.400   0.107   4.150
  490SOL    HW1 2369   1.376   0.070   4.060
  490SOL    HW2 2370   1.499   0.123   4.154
  491SOL     OW 2371   0.249   1.785   4.965
  491SOL    HW1 2372   0.306   1.720   5.015
  491SOL    HW2 2373   0.233   1.752   4.872
  492SOL     OW 2374   0.940   1.698   4.628
  492SOL    HW1 2375   1.020   1.641   4.649
  492SOL    HW2 2376   0.891   1.658   4.551
  493SOL     OW 2377   0.382   0.700   4.204
  493SOL    HW1 2378   0.427   0.610   4.201
  493SOL    HW2 2379   0.288   0.689   4.237
  494SOL     OW 2380   1.547   0.222   5.453
  494SOL    HW1 2381   1.542   0.259   5.545
  494SOL    HW2 2382   1.475   0.153   5.441
  495SOL     OW 2383   0.614   0.122   3.841
  495SOL    HW1 2384   0.712   0.100   3.848
  495SOL    HW2 2385   0.583   0.105   3.748
  496SOL     OW 2386   0.781   0.264   5.473
  496SOL    HW1 2387   0.848   0.203   5.516
  496SOL    HW2 2388   0.708   0.283   5.538
  497SOL     OW 2389   0.888   1.514   4.919
  497SOL    HW1 2390   0.865   1.489   4.825
  497SOL    HW2 2391   0.949   1.445   4.958
  498SOL     OW 2392   1.351   0.590   5.157
  498SOL    HW1 2393   1.379   0.547   5.242
  498SOL    HW2 2394   1.376   0.686   5.158
  499SOL     OW 2395   0.803   1.402   4.648
  499SOL    HW1 2396   0.893   1.416   4.606
  499SOL    HW2 2397   0.732   1.404   4.577
  500SOL     OW 2398   0.922   0.503   4.623
  500SOL    HW1 2399   0.897   0.494   4.527
  500SOL    HW2 2400   0.970   0.421   4.654
  501SOL     OW 2401   0.539   0.064   4.236
  501SOL    HW1 2402   0.458   0.065   4.294
  501SOL    HW2 2403   0.542   0.147   4.181
  502SOL     OW 2404   1.434   1.188   3.765
  502SOL    HW1 2405   1.466   1.112   3.822
  502SOL    HW2 2406   1.342   1.215   3.795
  503SOL     OW 2407   0.297   0.035   3.895
  503SOL    HW1 2408   0.346   0.119   3.874
  503SOL    HW2 2409   0.359  -0.030   3.940
  504SOL     OW 2410   0.935   0.236   4.204
  504SOL    HW1 2411   0.887   0.277   4.126
  504SOL    HW2 2412   1.034   0.234   4.185
  505SOL     OW 2413   1.076   0.683   5.188
  505SOL    HW1 2414   0.996   0.622   5.191
  505SOL    HW2 2415   1.157   0.630   5.164
  506SOL     OW 2416   1.227   1.570   4.517
  506SOL    HW1 2417   1.248   1.644   4.452
  506SOL    HW2 2418   1.295   1.570   4.590
  507SOL     OW 2419   0.459   1.152   4.465
  507SOL    HW1 2420   0.388   1.125   4.530
  507SOL    HW2 2421   0.433   1.124   4.372
  508SOL     OW 2422   1.271   1.797   4.315
  508SOL    HW1 2423   1.315   1.861   4.251
  508SOL    HW2 2424   1.221   1.849   4.385
  509SOL     OW 2425   1.032   0.549   3.740
  509SOL    HW1 2426   0.991   0.631   3.701
  509SOL    HW2 2427   1.096   0.575   3.813
  510SOL     OW 2428   0.078   0.556   5.110
  510SOL    HW1 2429   0.170   0.555   5.069
  510SOL    HW2 2430   0.072   0.630   5.177
  511SOL     OW 2431   0.561   0.222   4.871
  511SOL    HW1 2432   0.599   0.138   4.908
  511SOL    HW2 2433   0.473   0.241   4.915
  512SOL     OW 2434   0.866   0.454   4.366
  512SOL    HW1 2435   0.834   0.526   4.304
  512SOL    HW2 2436   0.890   0.373   4.313
  513SOL     OW 2437   1.017   0.039   4.477
  513SOL    HW1 2438   0.945   0.044   4.408
  513SOL    HW2 2439   0.993  -0.030   4.546
  514SOL     OW 2440   1.429   1.173   4.591
  514SOL    HW1 2441   1.374   1.089   4.584
  514SOL    HW2 2442   1.455   1.202   4.499
  515SOL     OW 2443   1.466   0.590   4.716
  515SOL    HW1 2444   1.436   0.495   4.723
  515SOL    HW2 2445   1.539   0.606   4.782
  516SOL     OW 2446   1.857   0.833   4.101
  516SOL    HW1 2447   1.899   0.769   4.165
  516SOL    HW2 2448   1.819   0.782   4.023
  517SOL     OW 2449   0.488   1.385   3.898
  517SOL    HW1 2450   0.401   1.370   3.945
  517SOL    HW2 2451   0.471   1.411   3.803
  518SOL     OW 2452   1.664   1.280   4.381
  518SOL    HW1 2453   1.763   1.288   4.395
  518SOL    HW2 2454   1.619   1.364   4.412
  519SOL     OW 2455   1.390   0.575   3.802
  519SOL    HW1 2456   1.336   0.554   3.883
  519SOL    HW2 2457   1.481   0.534   3.811
  520SOL     OW 2458   0.527   0.256   4.052
  520SOL    HW1 2459   0.554   0.197   3.977
  520SOL    HW2 2460   0.527   0.351   4.021
  521SOL     OW 2461   1.754   1.223   5.312
  521SOL    HW1 2462   1.845   1.184   5.299
  521SOL    HW2 2463   1.762   1.319   5.336
  522SOL     OW 2464   1.064   1.347   5.064
  522SOL    HW1 2465   0.984   1.324   5.119
  522SOL    HW2 2466   1.147   1.321   5.113
  523SOL     OW 2467   1.592   1.629   5.349
  523SOL    HW1 2468   1.619   1.663   5.259
  523SOL    HW2 2469   1.671   1.591   5.395
  524SOL     OW 2470   1.111   1.195   4.824
  524SOL    HW1 2471   1.071   1.239   4.905
  524SOL    HW2 2472   1.070   1.232   4.741
  525SOL     OW 2473   1.638   1.099   4.803
  525SOL    HW1 2474   1.643   1.180   4.862
  525SOL    HW2 2475   1.552   1.101   4.752
  526SOL     OW 2476   0.915   0.089   5.126
  526SOL    HW1 2477   0.940   0.069   5.031
  526SOL    HW2 2478   0.987   0.145   5.168
  527SOL     OW 2479   0.980   1.116   5.443
  527SOL    HW1 2480   0.881   1.122   5.453
  527SOL    HW2 2481   1.003   1.036   5.387
  528SOL     OW 2482   0.705   1.050   4.092
  528SOL    HW1 2483   0.691   1.057   4.191
  528SOL    HW2 2484   0.789   0.999   4.074
  529SOL     OW 2485   0.410   0.813   4.975
  529SOL    HW1 2486   0.496   0.825   5.025
  529SOL    HW2 2487   0.368   0.726   5.002
  530SOL     OW 2488   1.274   0.386   4.986
  530SOL    HW1 2489   1.295   0.460   5.050
  530SOL    HW2 2490   1.185   0.403   4.943
  531SOL     OW 2491   0.064   1.564   5.055
  531SOL    HW1 2492   0.018   1.646   5.021
  531SOL    HW2 2493   0.162   1.583   5.064
  532SOL     OW 2494   0.367   1.100   4.225
  532SOL    HW1 2495   0.360   1.183   4.169
  532SOL    HW2 2496   0.371   1.020   4.165
  533SOL     OW 2497   0.566   0.537   4.589
  533SOL    HW1 2498   0.578   0.603   4.515
  533SOL    HW2 2499   0.612   0.571   4.672
  534SOL     OW 2500   1.252   1.348   4.112
  534SOL    HW1 2501   1.302   1.425   4.152
  534SOL    HW2 2502   1.157   1.350   4.144
  535SOL     OW 2503   1.272   1.445   4.866
  535SOL    HW1 2504   1.319   1.458   4.953
  535SOL    HW2 2505   1.206   1.371   4.875
  536SOL     OW 2506   1.582   0.639   4.196
  536SOL    HW1 2507   1.551   0.700   4.269
  536SOL    HW2 2508   1.632   0.691   4.127
  537SOL     OW 2509   0.354   1.510   5.053
  537SOL    HW1 2510   0.333   1.466   4.966
  537SOL    HW2 2511   0.451   1.536   5.056
  538SOL     OW 2512   0.402   0.751   5.322
  538SOL    HW1 2513   0.470   0.806   5.275
  538SOL    HW2 2514   0.442   0.663   5.349
  539SOL     OW 2515   1.587   0.779   5.394
  539SOL    HW1 2516   1.495   0.817   5.389
  539SOL    HW2 2517   1.647   0.826   5.329
  540SOL     OW 2518   1.013   0.105   5.494
  540SOL    HW1 2519   1.019   0.190   5.442
  540SOL    HW2 2520   1.045   0.029   5.437
  541SOL     OW 2521   0.504   0.050   5.464
  541SOL    HW1 2522   0.462  -0.007   5.394
  541SOL    HW2 2523   0.438   0.119   5.496
  542SOL     OW 2524   0.573   0.870   4.753
  542SOL    HW1 2525   0.617   0.959   4.744
  542SOL    HW2 2526   0.510   0.870   4.830
  543SOL     OW 2527   1.360   0.862   4.769
  543SOL    HW1 2528   1.285   0.862   4.703
  543SOL    HW2 2529   1.397   0.770   4.778
  544SOL     OW 2530   1.209   0.525   3.999
  544SOL    HW1 2531   1.222   0.441   4.053
  544SOL    HW2 2532   1.180   0.599   4.059
  545SOL     OW 2533   0.307   0.213   4.955
  545SOL    HW1 2534   0.284   0.250   5.045
  545SOL    HW2 2535   0.277   0.118   4.949
  546SOL     OW 2536   0.037   1.310   5.006
  546SOL    HW1 2537   0.090   1.261   5.074
  546SOL    HW2 2538   0.059   1.408   5.011
  547SOL     OW 2539   0.732   0.634   4.788
  547SOL    HW1 2540   0.791   0.608   4.712
  547SOL    HW2 2541   0.704   0.730   4.777
  548SOL     OW 2542   1.728   0.935   5.578
  548SOL    HW1 2543   1.682   0.928   5.489
  548SOL    HW2 2544   1.666   0.979   5.644
  549SOL     OW 2545   0.307   0.063   4.342
  549SOL    HW1 2546   0.296   0.157   4.375
  549SOL    HW2 2547   0.302   0.000   4.419
  550SOL     OW 2548   1.622   0.367   4.098
  550SOL    HW1 2549   1.624   0.291   4.162
  550SOL    HW2 2550   1.574   0.444   4.138
  551SOL     OW 2551   1.023   0.766   4.690
  551SOL    HW1 2552   1.038   0.787   4.786
  551SOL    HW2 2553   0.993   0.671   4.681
  552SOL     OW 2554   0.980   1.573   5.424
  552SOL    HW1 2555   0.960   1.617   5.336
  552SOL    HW2 2556   1.019   1.482   5.408
  553SOL     OW 2557   1.859   1.518   5.329
  553SOL    HW1 2558   1.873   1.545   5.234
  553SOL    HW2 2559   1.942   1.540   5.382
  554SOL     OW 2560   0.350   0.898   5.528
  554SOL    HW1 2561   0.426   0.942   5.576
  554SOL    HW2 2562   0.385   0.851   5.446
  555SOL     OW 2563   1.540   0.274   3.849
  555SOL    HW1 2564   1.479   0.199   3.872
  555SOL    HW2 2565   1.562   0.326   3.932
  556SOL     OW 2566   1.303   0.838   3.766
  556SOL    HW1 2567   1.337   0.745   3.781
  556SOL    HW2 2568   1.321   0.865   3.671
  557SOL     OW 2569   1.068   1.333   4.573
  557SOL    HW1 2570   1.075   1.249   4.518
  557SOL    HW2 2571   1.130   1.402   4.537
  558SOL     OW 2572   0.319   0.810   4.673
  558SOL    HW1 2573   0.412   0.846   4.678
  558SOL    HW2 2574   0.313   0.725   4.725
  559SOL     OW 2575   0.339   0.509   4.730
  559SOL    HW1 2576   0.287   0.426   4.713
  559SOL    HW2 2577   0.416   0.514   4.666
  560SOL     OW 2578   1.138   0.380   5.402
  560SOL    HW1 2579   1.093   0.443   5.466
  560SOL    HW2 2580   1.231   0.411   5.385
  561SOL     OW 2581   1.160   0.207   5.201
  561SOL    HW1 2582   1.160   0.271   5.278
  561SOL    HW2 2583   1.188   0.255   5.118
  562SOL     OW 2584   0.008   1.326   3.924
  562SOL    HW1 2585  -0.085   1.347   3.893
  562SOL    HW2 2586   0.018   1.227   3.937
  563SOL     OW 2587   0.088   1.801   4.651
  563SOL    HW1 2588   0.046   1.715   4.624
  563SOL    HW2 2589   0.182   1.804   4.617
  564SOL     OW 2590   0.504   1.568   4.634
  564SOL    HW1 2591   0.570   1.642   4.643
  564SOL    HW2 2592   0.548   1.489   4.592
  565SOL     OW 2593   1.002   0.796   4.962
  565SOL    HW1 2594   1.043   0.764   5.048
  565SOL    HW2 2595   0.906   0.769   4.959
  566SOL     OW 2596   0.040   0.544   4.838
  566SOL    HW1 2597   0.125   0.511   4.797
  566SOL    HW2 2598   0.053   0.559   4.936
  567SOL     OW 2599   0.189   0.520   5.446
  567SOL    HW1 2600   0.248   0.480   5.376
  567SOL    HW2 2601   0.131   0.591   5.405
  568SOL     OW 2602   1.369   0.950   5.384
  568SOL    HW1 2603   1.408   1.039   5.404
  568SOL    HW2 2604   1.379   0.930   5.287
  569SOL     OW 2605   0.815   0.572   4.049
  569SOL    HW1 2606   0.822   0.483   4.003
  569SOL    HW2 2607   0.721   0.606   4.041
  570SOL     OW 2608   1.657   0.604   4.930
  570SOL    HW1 2609   1.619   0.535   4.992
  570SOL    HW2 2610   1.739   0.568   4.886
  571SOL     OW 2611   0.252   1.564   5.468
  571SOL    HW1 2612   0.222   1.621   5.544
  571SOL    HW2 2613   0.245   1.467   5.494
  572SOL     OW 2614   0.671   0.464   4.993
  572SOL    HW1 2615   0.637   0.375   4.963
  572SOL    HW2 2616   0.697   0.518   4.913
  573SOL     OW 2617   0.930   1.678   5.189
  573SOL    HW1 2618   0.906   1.660   5.094
  573SOL    HW2 2619   0.960   1.772   5.199
  574SOL     OW 2620   0.473   0.500   3.915
  574SOL    HW1 2621   0.534   0.580   3.919
  574SOL    HW2 2622   0.378   0.531   3.922
  575SOL     OW 2623   0.159   1.137   5.190
  575SOL    HW1 2624   0.181   1.076   5.266
  575SOL    HW2 2625   0.169   1.088   5.104
  576SOL     OW 2626   1.347   1.059   4.958
  576SOL    HW1 2627   1.371   0.996   4.884
  576SOL    HW2 2628   1.257   1.099   4.940
  577SOL     OW 2629   1.302   0.855   4.033
  577SOL    HW1 2630   1.216   0.824   4.075
  577SOL    HW2 2631   1.298   0.841   3.934
  578SOL     OW 2632   1.759   1.747   4.878
  578SOL    HW1 2633   1.820   1.777   4.805
  578SOL    HW2 2634   1.721   1.658   4.856
  579SOL     OW 2635   1.252   1.731   4.852
  579SOL    HW1 2636   1.336   1.736   4.798
  579SOL    HW2 2637   1.229   1.635   4.870
  580SOL     OW 2638   0.083   1.258   4.746
  580SOL    HW1 2639   0.078   1.257   4.846
  580SOL    HW2 2640   0.000   1.217   4.708
  581SOL     OW 2641   0.688   1.662   5.440
  581SOL    HW1 2642   0.632   1.743   5.449
  581SOL    HW2 2643   0.740   1.666   5.354
  582SOL     OW 2644   1.726   0.135   4.247
  582SOL    HW1 2645   1.799   0.118   4.180
  582SOL    HW2 2646   1.695   0.048   4.285
  583SOL     OW 2647   1.388   1.573   4.201
  583SOL    HW1 2648   1.455   1.585   4.127
  583SOL    HW2 2649   1.348   1.662   4.224
  584SOL     OW 2650   0.130   1.794   5.575
  584SOL    HW1 2651   0.089   1.720   5.628
  584SOL    HW2 2652   0.194   1.845   5.633
  585SOL     OW 2653   1.280   0.927   4.396
  585SOL    HW1 2654   1.340   0.846   4.398
  585SOL    HW2 2655   1.320   0.996   4.336
  586SOL     OW 2656   0.830   1.273   5.146
  586SOL    HW1 2657   0.825   1.306   5.241
  586SOL    HW2 2658   0.744   1.292   5.100
  587SOL     OW 2659   0.672   1.616   3.878
  587SOL    HW1 2660   0.681   1.626   3.779
  587SOL    HW2 2661   0.632   1.527   3.899
  588SOL     OW 2662   1.650   1.720   5.118
  588SOL    HW1 2663   1.703   1.730   5.034
  588SOL    HW2 2664   1.623   1.810   5.152
  589SOL     OW 2665   1.841   0.175   4.687
  589SOL    HW1 2666   1.880   0.090   4.651
  589SOL    HW2 2667   1.743   0.177   4.668
  590SOL     OW 2668   0.263   0.326   4.444
  590SOL    HW1 2669   0.184   0.377   4.410
  590SOL    HW2 2670   0.254   0.311   4.542
  591SOL     OW 2671   1.194   1.612   3.755
  591SOL    HW1 2672   1.200   1.519   3.792
  591SOL    HW2 2673   1.135   1.612   3.675
  592SOL     OW 2674   0.822   1.002   5.096
  592SOL    HW1 2675   0.862   1.001   5.004
  592SOL    HW2 2676   0.832   1.094   5.136
  593SOL     OW 2677   0.916   0.910   4.015
  593SOL    HW1 2678   0.979   0.948   3.947
  593SOL    HW2 2679   0.956   0.827   4.054
  594SOL     OW 2680   1.504   1.607   3.768
  594SOL    HW1 2681   1.412   1.644   3.775
  594SOL    HW2 2682   1.542   1.627   3.678
  595SOL     OW 2683   0.372   1.288   5.214
  595SOL    HW1 2684   0.359   1.381   5.180
  595SOL    HW2 2685   0.288   1.236   5.201
  596SOL     OW 2686   1.614   1.292   5.013
  596SOL    HW1 2687   1.674   1.295   5.093
  596SOL    HW2 2688   1.539   1.356   5.026
  597SOL     OW 2689   1.039   1.098   4.420
  597SOL    HW1 2690   0.969   1.051   4.474
  597SOL    HW2 2691   1.098   1.030   4.377
  598SOL     OW 2692   1.014   0.236   4.695
  598SOL    HW1 2693   1.006   0.200   4.602
  598SOL    HW2 2694   1.012   0.160   4.760
  599SOL     OW 2695   0.590   1.487   4.215
  599SOL    HW1 2696   0.632   1.429   4.145
  599SOL    HW2 2697   0.546   1.566   4.171
  600SOL     OW 2698   1.709   0.385   5.105
  600SOL    HW1 2699   1.782   0.454   5.109
  600SOL    HW2 2700   1.737   0.310   5.046
  601SOL     OW 2701   0.255   1.348   4.014
  601SOL    HW1 2702   0.159   1.349   3.987
  601SOL    HW2 2703   0.267   1.401   4.098
  602SOL     OW 2704   0.105   1.013   5.450
  602SOL    HW1 2705   0.028   0.980   5.504
  602SOL    HW2 2706   0.190   0.983   5.492
  603SOL     OW 2707   0.672   0.203   5.213
  603SOL    HW1 2708   0.762   0.187   5.173
  603SOL    HW2 2709   0.680   0.208   5.312
  604SOL     OW 2710   0.075   0.345   3.757
  604SOL    HW1 2711  -0.017   0.317   3.728
  604SOL    HW2 2712   0.106   0.422   3.701
  605SOL     OW 2713   1.440   0.856   5.122
  605SOL    HW1 2714   1.383   0.908   5.059
  605SOL    HW2 2715   1.536   0.868   5.098
  606SOL     OW 2716   0.072   0.166   4.042
  606SOL    HW1 2717   0.055   0.249   3.988
  606SOL    HW2 2718   0.162   0.129   4.020
  607SOL     OW 2719   1.183   1.335   3.843
  607SOL    HW1 2720   1.084   1.324   3.845
  607SOL    HW2 2721   1.217   1.350   3.936
  608SOL     OW 2722   0.613   0.842   5.155
  608SOL    HW1 2723   0.669   0.923   5.138
  608SOL    HW2 2724   0.672   0.762   5.158
  609SOL     OW 2725   1.493   1.767   4.683
  609SOL    HW1 2726   1.526   1.831   4.614
  609SOL    HW2 2727   1.559   1.761   4.758
  610SOL     OW 2728   0.716   0.565   5.432
  610SOL    HW1 2729   0.735   0.630   5.506
  610SOL    HW2 2730   0.776   0.485   5.441
  611SOL     OW 2731   1.450   1.220   5.357
  611SOL    HW1 2732   1.441   1.210   5.456
  611SOL    HW2 2733   1.546   1.213   5.331
  612SOL     OW 2734   0.390   1.741   5.284
  612SOL    HW1 2735   0.299   1.782   5.282
  612SOL    HW2 2736   0.383   1.647   5.316
  613SOL     OW 2737   1.674   0.883   4.978
  613SOL    HW1 2738   1.647   0.794   4.941
  613SOL    HW2 2739   1.675   0.951   4.905
  614SOL     OW 2740   1.225   0.325   4.173
  614SOL    HW1 2741   1.290   0.251   4.162
  614SOL    HW2 2742   1.245   0.375   4.257
  615SOL     OW 2743   0.594   0.745   4.376
  615SOL    HW1 2744   0.644   0.830   4.357
  615SOL    HW2 2745   0.506   0.747   4.328
  616SOL     OW 2746   1.777   0.342   5.366
  616SOL    HW1 2747   1.760   0.373   5.272
  616SOL    HW2 2748   1.693   0.305   5.404
  617SOL     OW 2749   1.730   0.934   5.241
  617SOL    HW1 2750   1.768   1.025   5.256
  617SOL    HW2 2751   1.722   0.917   5.142
  618SOL     OW 2752   0.859   1.374   3.740
  618SOL    HW1 2753   0.813   1.389   3.828
  618SOL    HW2 2754   0.903   1.459   3.710
  619SOL     OW 2755   0.661   1.790   4.677
  619SOL    HW1 2756   0.615   1.878   4.664
  619SOL    HW2 2757   0.760   1.802   4.670
  620SOL     OW 2758   0.859   0.956   4.585
  620SOL    HW1 2759   0.913   0.887   4.633
  620SOL    HW2 2760   0.827   1.025   4.651
  621SOL     OW 2761   1.083   0.984   3.811
  621SOL    HW1 2762   1.060   1.037   3.729
  621SOL    HW2 2763   1.164   0.928   3.792
  622SOL     OW 2764   1.861   1.569   4.575
  622SOL    HW1 2765   1.790   1.557   4.505
  622SOL    HW2 2766   1.862   1.490   4.635
  623SOL     OW 2767   0.221   1.314   5.568
  623SOL    HW1 2768   0.156   1.241   5.547
  623SOL    HW2 2769   0.225   1.328   5.666
  624SOL     OW 2770   0.079   1.240   4.377
  624SOL    HW1 2771   0.078   1.193   4.465
  624SOL    HW2 2772   0.161   1.212   4.326
  625SOL     OW 2773   0.672   1.391   5.348
  625SOL    HW1 2774   0.594   1.341   5.386
  625SOL    HW2 2775   0.669   1.486   5.379
  626SOL     OW 2776   1.824   0.192   4.951
  626SOL    HW1 2777   1.820   0.102   4.995
  626SOL    HW2 2778   1.827   0.181   4.852
  627SOL     OW 2779   0.428   0.424   4.244
  627SOL    HW1 2780   0.458   0.352   4.182
  627SOL    HW2 2781   0.389   0.384   4.327
  628SOL     OW 2782   1.705   1.487   4.828
  628SOL    HW1 2783   1.612   1.462   4.801
  628SOL    HW2 2784   1.731   1.437   4.910
  629SOL     OW 2785   0.317   0.547   5.004
  629SOL    HW1 2786   0.355   0.488   5.076
  629SOL    HW2 2787   0.357   0.521   4.916
  630SOL     OW 2788   0.812   1.586   4.411
  630SOL    HW1 2789   0.844   1.596   4.317
  630SOL    HW2 2790   0.733   1.524   4.413
  631SOL     OW 2791   1.424   0.214   4.836
  631SOL    HW1 2792   1.476   0.149   4.891
  631SOL    HW2 2793   1.375   0.277   4.897
  632SOL     OW 2794   1.001   0.034   4.878
  632SOL    HW1 2795   0.938  -0.038   4.847
  632SOL    HW2 2796   1.094  -0.002   4.878
  633SOL     OW 2797   0.770   1.330   4.025
  633SOL    HW1 2798   0.724   1.243   4.042
  633SOL    HW2 2799   0.861   1.327   4.066
  634SOL     OW 2800   0.618   1.567   5.008
  634SOL    HW1 2801   0.613   1.649   5.065
  634SOL    HW2 2802   0.707   1.564   4.963
  635SOL     OW 2803   1.352   0.052   3.892
  635SOL    HW1 2804   1.387   0.011   3.808
  635SOL    HW2 2805   1.262   0.014   3.912
  636SOL     OW 2806   1.300   0.453   4.415
  636SOL    HW1 2807   1.241   0.533   4.419
  636SOL    HW2 2808   1.315   0.418   4.508
  637SOL     OW 2809   1.593   0.221   4.606
  637SOL    HW1 2810   1.509   0.220   4.660
  637SOL    HW2 2811   1.595   0.304   4.550
  638SOL     OW 2812   0.039   1.077   4.024
  638SOL    HW1 2813   0.138   1.066   4.015
  638SOL    HW2 2814  -0.001   0.991   4.056
  639SOL     OW 2815   0.875   1.646   4.061
  639SOL    HW1 2816   0.798   1.611   4.007
  639SOL    HW2 2817   0.843   1.717   4.123
  640SOL     OW 2818   0.230   0.628   5.699
  640SOL    HW1 2819   0.137   0.626   5.736
  640SOL    HW2 2820   0.231   0.589   5.607
  641SOL     OW 2821   0.225   0.275   6.582
  641SOL    HW1 2822   0.260   0.258   6.674
  641SOL    HW2 2823   0.137   0.230   6.570
  642SOL     OW 2824   0.019   0.368   6.233
  642SOL    HW1 2825  -0.063   0.411   6.272
  642SOL    HW2 2826  -0.009   0.295   6.170
  643SOL     OW 2827   0.569   1.275   6.751
  643SOL    HW1 2828   0.476   1.268   6.714
  643SOL    HW2 2829   0.580   1.364   6.795
  644SOL     OW 2830   1.555   1.511   6.289
  644SOL    HW1 2831   1.498   1.495   6.370
  644SOL    HW2 2832   1.496   1.521   6.209
  645SOL     OW 2833   1.135   0.703   6.303
  645SOL    HW1 2834   1.192   0.781   6.278
  645SOL    HW2 2835   1.075   0.729   6.379
  646SOL     OW 2836   1.755   0.607   5.817
  646SOL    HW1 2837   1.743   0.594   5.718
  646SOL    HW2 2838   1.725   0.526   5.866
  647SOL     OW 2839   0.768   1.144   6.609
  647SOL    HW1 2840   0.690   1.161   6.669
  647SOL    HW2 2841   0.802   1.231   6.573
  648SOL     OW 2842   0.685   1.012   6.251
  648SOL    HW1 2843   0.754   0.996   6.321
  648SOL    HW2 2844   0.612   1.069   6.289
  649SOL     OW 2845   0.335   1.435   6.647
  649SOL    HW1 2846   0.257   1.404   6.594
  649SOL    HW2 2847   0.393   1.493   6.590
  650SOL     OW 2848   1.603   0.447   6.323
  650SOL    HW1 2849   1.529   0.493   6.273
  650SOL    HW2 2850   1.654   0.515   6.376
  651SOL     OW 2851   0.231   1.713   6.069
  651SOL    HW1 2852   0.265   1.790   6.123
  651SOL    HW2 2853   0.275   1.713   5.979
  652SOL     OW 2854   0.230   1.434   6.124
  652SOL    HW1 2855   0.204   1.530   6.124
  652SOL    HW2 2856   0.159   1.380   6.169
  653SOL     OW 2857   0.240   1.091   6.472
  653SOL    HW1 2858   0.254   1.007   6.524
  653SOL    HW2 2859   0.185   1.155   6.527
  654SOL     OW 2860   0.620   1.786   7.025
  654SOL    HW1 2861   0.528   1.769   7.060
  654SOL    HW2 2862   0.648   1.878   7.051
  655SOL     OW 2863   0.606   0.964   5.709
  655SOL    HW1 2864   0.613   1.048   5.655
  655SOL    HW2 2865   0.652   0.977   5.797
  656SOL     OW 2866   0.122   0.643   6.149
  656SOL    HW1 2867   0.077   0.555   6.166
  656SOL    HW2 2868   0.121   0.697   6.233
  657SOL     OW 2869   1.842   1.767   5.945
  657SOL    HW1 2870   1.896   1.738   6.025
  657SOL    HW2 2871   1.872   1.857   5.916
  658SOL     OW 2872   0.027   1.596   5.703
  658SOL    HW1 2873   0.008   1.500   5.724
  658SOL    HW2 2874  -0.006   1.654   5.778
  659SOL     OW 2875   1.689   0.922   6.198
  659SOL    HW1 2876   1.784   0.893   6.206
  659SOL    HW2 2877   1.681   0.987   6.123
  660SOL     OW 2878   1.641   1.108   6.018
  660SOL    HW1 2879   1.727   1.110   5.966
  660SOL    HW2 2880   1.655   1.155   6.106
  661SOL     OW 2881   0.613   1.365   6.312
  661SOL    HW1 2882   0.564   1.278   6.321
  661SOL    HW2 2883   0.590   1.408   6.225
  662SOL     OW 2884   0.809   0.004   6.088
  662SOL    HW1 2885   0.849   0.095   6.079
  662SOL    HW2 2886   0.709   0.012   6.094
  663SOL     OW 2887   0.197   0.976   6.850
  663SOL    HW1 2888   0.286   0.931   6.836
  663SOL    HW2 2889   0.124   0.911   6.831
  664SOL     OW 2890   1.525   0.999   5.776
  664SOL    HW1 2891   1.462   0.923   5.789
  664SOL    HW2 2892   1.573   1.017   5.862
  665SOL     OW 2893   1.466   1.417   6.539
  665SOL    HW1 2894   1.407   1.423   6.619
  665SOL    HW2 2895   1.451   1.329   6.493
  666SOL     OW 2896   1.667   1.714   6.158
  666SOL    HW1 2897   1.626   1.691   6.070
  666SOL    HW2 2898   1.649   1.640   6.223
  667SOL     OW 2899   0.598   0.729   5.856
  667SOL    HW1 2900   0.622   0.798   5.788
  667SOL    HW2 2901   0.520   0.762   5.910
  668SOL     OW 2902   1.281   0.345   6.530
  668SOL    HW1 2903   1.195   0.295   6.517
  668SOL    HW2 2904   1.343   0.291   6.586
  669SOL     OW 2905   1.576   1.662   5.893
  669SOL    HW1 2906   1.665   1.708   5.896
  669SOL    HW2 2907   1.555   1.638   5.798
  670SOL     OW 2908   0.807   0.605   7.051
  670SOL    HW1 2909   0.760   0.602   7.140
  670SOL    HW2 2910   0.756   0.550   6.985
  671SOL     OW 2911   0.991   0.410   6.828
  671SOL    HW1 2912   0.914   0.444   6.882
  671SOL    HW2 2913   0.957   0.359   6.749
  672SOL     OW 2914   1.041   0.701   6.015
  672SOL    HW1 2915   1.067   0.697   6.111
  672SOL    HW2 2916   0.956   0.650   6.001
  673SOL     OW 2917   0.076   0.811   6.375
  673SOL    HW1 2918   0.175   0.799   6.384
  673SOL    HW2 2919   0.052   0.906   6.396
  674SOL     OW 2920   0.130   1.821   7.157
  674SOL    HW1 2921   0.120   1.806   7.256
  674SOL    HW2 2922   0.044   1.857   7.121
  675SOL     OW 2923   0.865   0.348   5.781
  675SOL    HW1 2924   0.924   0.411   5.732
  675SOL    HW2 2925   0.884   0.254   5.752
  676SOL     OW 2926   1.362   1.144   6.131
  676SOL    HW1 2927   1.445   1.115   6.083
  676SOL    HW2 2928   1.313   1.211   6.075
  677SOL     OW 2929   0.550   0.196   6.471
  677SOL    HW1 2930   0.545   0.191   6.571
  677SOL    HW2 2931   0.552   0.292   6.442
  678SOL     OW 2932   1.008   1.456   6.063
  678SOL    HW1 2933   0.962   1.528   6.011
  678SOL    HW2 2934   1.004   1.476   6.161
  679SOL     OW 2935   0.351   1.801   6.439
  679SOL    HW1 2936   0.401   1.715   6.445
  679SOL    HW2 2937   0.416   1.878   6.436
  680SOL     OW 2938   1.795   1.066   6.459
  680SOL    HW1 2939   1.733   1.051   6.383
  680SOL    HW2 2940   1.743   1.077   6.544
  681SOL     OW 2941   0.321   0.943   5.828
  681SOL    HW1 2942   0.403   0.982   5.786
  681SOL    HW2 2943   0.294   0.861   5.779
  682SOL     OW 2944   1.458   0.735   6.314
  682SOL    HW1 2945   1.453   0.670   6.389
  682SOL    HW2 2946   1.538   0.794   6.327
  683SOL     OW 2947   1.111   1.776   5.823
  683SOL    HW1 2948   1.051   1.714   5.873
  683SOL    HW2 2949   1.142   1.732   5.738
  684SOL     OW 2950   1.632   1.377   5.667
  684SOL    HW1 2951   1.600   1.471   5.657
  684SOL    HW2 2952   1.556   1.314   5.655
  685SOL     OW 2953   0.464   1.743   5.909
  685SOL    HW1 2954   0.497   1.782   5.995
  685SOL    HW2 2955   0.540   1.736   5.844
  686SOL     OW 2956   1.400   0.107   6.012
  686SOL    HW1 2957   1.376   0.070   5.922
  686SOL    HW2 2958   1.499   0.123   6.016
  687SOL     OW 2959   0.249   1.785   6.827
  687SOL    HW1 2960   0.306   1.720   6.877
  687SOL    HW2 2961   0.233   1.752   6.734
  688SOL     OW 2962   0.940   1.698   6.490
  688SOL    HW1 2963   1.020   1.641   6.511
  688SOL    HW2 2964   0.891   1.658   6.413
  689SOL     OW 2965   0.382   0.700   6.066
  689SOL    HW1 2966   0.427   0.610   6.063
  689SOL    HW2 2967   0.288   0.689   6.099
  690SOL     OW 2968   0.614   0.122   5.703
  690SOL    HW1 2969   0.712   0.100   5.710
  690SOL    HW2 2970   0.583   0.105   5.610
  691SOL     OW 2971   0.888   1.514   6.781
  691SOL    HW1 2972   0.865   1.489   6.687
  691SOL    HW2 2973   0.949   1.445   6.820
  692SOL     OW 2974   0.803   1.402   6.510
  692SOL    HW1 2975   0.893   1.416   6.468
  692SOL    HW2 2976   0.732   1.404   6.439
  693SOL     OW 2977   0.922   0.503   6.485
  693SOL    HW1 2978   0.897   0.494   6.389
  693SOL    HW2 2979   0.970   0.421   6.516
  694SOL     OW 2980   0.539   0.064   6.098
  694SOL    HW1 2981   0.458   0.065   6.156
  694SOL    HW2 2982   0.542   0.147   6.043
  695SOL     OW 2983   1.434   1.188   5.627
  695SOL    HW1 2984   1.466   1.112   5.684
  695SOL    HW2 2985   1.342   1.215   5.657
  696SOL     OW 2986   0.297   0.035   5.757
  696SOL    HW1 2987   0.346   0.119   5.736
  696SOL    HW2 2988   0.359  -0.030   5.802
  697SOL     OW 2989   0.935   0.236   6.066
  697SOL    HW1 2990   0.887   0.277   5.988
  697SOL    HW2 2991   1.034   0.234   6.047
  698SOL     OW 2992   1.227   1.570   6.379
  698SOL    HW1 2993   1.248   1.644   6.314
  698SOL    HW2 2994   1.295   1.570   6.452
  699SOL     OW 2995   0.459   1.152   6.327
  699SOL    HW1 2996   0.388   1.125   6.392
  699SOL    HW2 2997   0.433   1.124   6.234
  700SOL     OW 2998   1.271   1.797   6.177
  700SOL    HW1 2999   1.315   1.861   6.113
  700SOL    HW2 3000   1.221   1.849   6.247
  701SOL     OW 3001   1.032   0.549   5.602
  701SOL    HW1 3002   0.991   0.631   5.563
  701SOL    HW2 3003   1.096   0.575   5.675
  702SOL     OW 3004   0.561   0.222   6.733
  702SOL    HW1 3005   0.599   0.138   6.770
  702SOL    HW2 3006   0.473   0.241   6.777
  703SOL     OW 3007   0.866   0.454   6.228
  703SOL    HW1 3008   0.834   0.526   6.166
  703SOL    HW2 3009   0.890   0.373   6.175
  704SOL     OW 3010   1.017   0.039   6.339
  704SOL    HW1 3011   0.945   0.044   6.270
  704SOL    HW2 3012   0.993  -0.030   6.408
  705SOL     OW 3013   1.429   1.173   6.453
  705SOL    HW1 3014   1.374   1.089   6.446
  705SOL    HW2 3015   1.455   1.202   6.361
  706SOL     OW 3016   1.466   0.590   6.578
  706SOL    HW1 3017   1.436   0.495   6.585
  706SOL    HW2 3018   1.539   0.606   6.644
  707SOL     OW 3019   1.857   0.833   5.963
  707SOL    HW1 3020   1.899   0.769   6.027
  707SOL    HW2 3021   1.819   0.782   5.885
  708SOL     OW 3022   0.488   1.385   5.760
  708SOL    HW1 3023   0.401   1.370   5.807
  708SOL    HW2 3024   0.471   1.411   5.665
  709SOL     OW 3025   1.664   1.280   6.243
  709SOL    HW1 3026   1.763   1.288   6.257
  709SOL    HW2 3027   1.619   1.364   6.274
  710SOL     OW 3028   1.390   0.575   5.664
  710SOL    HW1 3029   1.336   0.554   5.745
  710SOL    HW2 3030   1.481   0.534   5.673
  711SOL     OW 3031   0.527   0.256   5.914
  711SOL    HW1 3032   0.554   0.197   5.839
  711SOL    HW2 3033   0.527   0.351   5.883
  712SOL     OW 3034   1.754   1.223   7.174
  712SOL    HW1 3035   1.845   1.184   7.161
  712SOL    HW2 3036   1.762   1.319   7.198
  713SOL     OW 3037   1.111   1.195   6.686
  713SOL    HW1 3038   1.071   1.239   6.767
  713SOL    HW2 3039   1.070   1.232   6.603
  714SOL     OW 3040   1.638   1.099   6.665
  714SOL    HW1 3041   1.643   1.180   6.724
  714SOL    HW2 3042   1.552   1.101   6.614
  715SOL     OW 3043   0.705   1.050   5.954
  715SOL    HW1 3044   0.691   1.057   6.053
  715SOL    HW2 3045   0.789   0.999   5.936
  716SOL     OW 3046   0.410   0.813   6.837
  716SOL    HW1 3047   0.496   0.825   6.887
  716SOL    HW2 3048   0.368   0.726   6.864
  717SOL     OW 3049   1.274   0.386   6.848
  717SOL    HW1 3050   1.295   0.460   6.912
  717SOL    HW2 3051   1.185   0.403   6.805
  718SOL     OW 3052   0.064   1.564   6.917
  718SOL    HW1 3053   0.018   1.646   6.883
  718SOL    HW2 3054   0.162   1.583   6.926
  719SOL     OW 3055   0.367   1.100   6.087
  719SOL    HW1 3056   0.360   1.183   6.031
  719SOL    HW2 3057   0.371   1.020   6.027
  720SOL     OW 3058   0.566   0.537   6.451
  720SOL    HW1 3059   0.578   0.603   6.377
  720SOL    HW2 3060   0.612   0.571   6.534
  721SOL     OW 3061   1.252   1.348   5.974
  721SOL    HW1 3062   1.302   1.425   6.014
  721SOL    HW2 3063   1.157   1.350   6.006
  722SOL     OW 3064   1.272   1.445   6.728
  722SOL    HW1 3065   1.319   1.458   6.815
  722SOL    HW2 3066   1.206   1.371   6.737
  723SOL     OW 3067   1.582   0.639   6.058
  723SOL    HW1 3068   1.551   0.700   6.131
  723SOL    HW2 3069   1.632   0.691   5.989
  724SOL     OW 3070   0.354   1.510   6.915
  724SOL    HW1 3071   0.333   1.466   6.828
  724SOL    HW2 3072   0.451   1.536   6.918
  725SOL     OW 3073   0.573   0.870   6.615
  725SOL    HW1 3074   0.617   0.959   6.606
  725SOL    HW2 3075   0.510   0.870   6.692
  726SOL     OW 3076   1.360   0.862   6.631
  726SOL    HW1 3077   1.285   0.862   6.565
  726SOL    HW2 3078   1.397   0.770   6.640
  727SOL     OW 3079   1.209   0.525   5.861
  727SOL    HW1 3080   1.222   0.441   5.915
  727SOL    HW2 3081   1.180   0.599   5.921
  728SOL     OW 3082   0.307   0.213   6.817
  728SOL    HW1 3083   0.284   0.250   6.907
  728SOL    HW2 3084   0.277   0.118   6.811
  729SOL     OW 3085   0.037   1.310   6.868
  729SOL    HW1 3086   0.090   1.261   6.936
  729SOL    HW2 3087   0.059   1.408   6.873
  730SOL     OW 3088   0.732   0.634   6.650
  730SOL    HW1 3089   0.791   0.608   6.574
  730SOL    HW2 3090   0.704   0.730   6.639
  731SOL     OW 3091   0.307   0.063   6.204
  731SOL    HW1 3092   0.296   0.157   6.237
  731SOL    HW2 3093   0.302   0.000   6.281
  732SOL     OW 3094   1.622   0.367   5.960
  732SOL    HW1 3095   1.624   0.291   6.024
  732SOL    HW2 3096   1.574   0.444   6.000
  733SOL     OW 3097   1.023   0.766   6.552
  733SOL    HW1 3098   1.038   0.787   6.648
  733SOL    HW2 3099   0.993   0.671   6.543
  734SOL     OW 3100   1.859   1.518   7.191
  734SOL    HW1 3101   1.873   1.545   7.096
  734SOL    HW2 3102   1.942   1.540   7.244
  735SOL     OW 3103   1.540   0.274   5.711
  735SOL    HW1 3104   1.479   0.199   5.734
  735SOL    HW2 3105   1.562   0.326   5.794
  736SOL     OW 3106   1.303   0.838   5.628
  736SOL    HW1 3107   1.337   0.745   5.643
  736SOL    HW2 3108   1.321   0.865   5.533
  737SOL     OW 3109   1.068   1.333   6.435
  737SOL    HW1 3110   1.075   1.249   6.380
  737SOL    HW2 3111   1.130   1.402   6.399
  738SOL     OW 3112   0.319   0.810   6.535
  738SOL    HW1 3113   0.412   0.846   6.540
  738SOL    HW2 3114   0.313   0.725   6.587
  739SOL     OW 3115   0.339   0.509   6.592
  739SOL    HW1 3116   0.287   0.426   6.575
  739SOL    HW2 3117   0.416   0.514   6.528
  740SOL     OW 3118   1.160   0.207   7.063
  740SOL    HW1 3119   1.160   0.271   7.140
  740SOL    HW2 3120   1.188   0.255   6.980
  741SOL     OW 3121   0.008   1.326   5.786
  741SOL    HW1 3122  -0.085   1.347   5.755
  741SOL    HW2 3123   0.018   1.227   5.799
  742SOL     OW 3124   0.088   1.801   6.513
  742SOL    HW1 3125   0.046   1.715   6.486
  742SOL    HW2 3126   0.182   1.804   6.479
  743SOL     OW 3127   0.504   1.568   6.496
  743SOL    HW1 3128   0.570   1.642   6.505
  743SOL    HW2 3129   0.548   1.489   6.454
  744SOL     OW 3130   1.002   0.796   6.824
  744SOL    HW1 3131   1.043   0.764   6.910
  744SOL    HW2 3132   0.906   0.769   6.821
  745SOL     OW 3133   0.040   0.544   6.700
  745SOL    HW1 3134   0.125   0.511   6.659
  745SOL    HW2 3135   0.053   0.559   6.798
  746SOL     OW 3136   0.815   0.572   5.911
  746SOL    HW1 3137   0.822   0.483   5.865
  746SOL    HW2 3138   0.721   0.606   5.903
  747SOL     OW 3139   1.657   0.604   6.792
  747SOL    HW1 3140   1.619   0.535   6.854
  747SOL    HW2 3141   1.739   0.568   6.748
  748SOL     OW 3142   0.671   0.464   6.855
  748SOL    HW1 3143   0.637   0.375   6.825
  748SOL    HW2 3144   0.697   0.518   6.775
  749SOL     OW 3145   0.930   1.678   7.051
  749SOL    HW1 3146   0.906   1.660   6.956
  749SOL    HW2 3147   0.960   1.772   7.061
  750SOL     OW 3148   0.473   0.500   5.777
  750SOL    HW1 3149   0.534   0.580   5.781
  750SOL    HW2 3150   0.378   0.531   5.784
  751SOL     OW 3151   0.159   1.137   7.052
  751SOL    HW1 3152   0.181   1.076   7.128
  751SOL    HW2 3153   0.169   1.088   6.966
  752SOL     OW 3154   1.347   1.059   6.820
  752SOL    HW1 3155   1.371   0.996   6.746
  752SOL    HW2 3156   1.257   1.099   6.802
  753SOL     OW 3157   1.302   0.855   5.895
  753SOL    HW1 3158   1.216   0.824   5.937
  753SOL    HW2 3159   1.298   0.841   5.796
  754SOL     OW 3160   1.759   1.747   6.740
  754SOL    HW1 3161   1.820   1.777   6.667
  754SOL    HW2 3162   1.721   1.658   6.718
  755SOL     OW 3163   1.252   1.731   6.714
  755SOL    HW1 3164   1.336   1.736   6.660
  755SOL    HW2 3165   1.229   1.635   6.732
  756SOL     OW 3166   0.083   1.258   6.608
  756SOL    HW1 3167   0.078   1.257   6.708
  756SOL    HW2 3168   0.000   1.217   6.570
  757SOL     OW 3169   1.726   0.135   6.109
  757SOL    HW1 3170   1.799   0.118   6.042
  757SOL    HW2 3171   1.695   0.048   6.147
  758SOL     OW 3172   1.388   1.573   6.063
  758SOL    HW1 3173   1.455   1.585   5.989
  758SOL    HW2 3174   1.348   1.662   6.086
  759SOL     OW 3175   1.280   0.927   6.258
  759SOL    HW1 3176   1.340   0.846   6.260
  759SOL    HW2 3177   1.320   0.996   6.198
  760SOL     OW 3178   0.672   1.616   5.740
  760SOL    HW1 3179   0.681   1.626   5.641
  760SOL    HW2 3180   0.632   1.527   5.761
  761SOL     OW 3181   1.841   0.175   6.549
  761SOL    HW1 3182   1.880   0.090   6.513
  761SOL    HW2 3183   1.743   0.177   6.530
  762SOL     OW 3184   0.263   0.326   6.306
  762SOL    HW1 3185   0.184   0.377   6.272
  762SOL    HW2 3186   0.254   0.311   6.404
  763SOL     OW 3187   1.194   1.612   5.617
  763SOL    HW1 3188   1.200   1.519   5.654
  763SOL    HW2 3189   1.135   1.612   5.537
  764SOL     OW 3190   0.822   1.002   6.958
  764SOL    HW1 3191   0.862   1.001   6.866
  764SOL    HW2 3192   0.832   1.094   6.998
  765SOL     OW 3193   0.916   0.910   5.877
  765SOL    HW1 3194   0.979   0.948   5.809
  765SOL    HW2 3195   0.956   0.827   5.916
  766SOL     OW 3196   1.504   1.607   5.630
  766SOL    HW1 3197   1.412   1.644   5.637
  766SOL    HW2 3198   1.542   1.627   5.540
  767SOL     OW 3199   1.614   1.292   6.875
  767SOL    HW1 3200   1.674   1.295   6.955
  767SOL    HW2 3201   1.539   1.356   6.888
  768SOL     OW 3202   1.039   1.098   6.282
  768SOL    HW1 3203   0.969   1.051   6.336
  768SOL    HW2 3204   1.098   1.030   6.239
  769SOL     OW 3205   1.014   0.236   6.557
  769SOL    HW1 3206   1.006   0.200   6.464
  769SOL    HW2 3207   1.012   0.160   6.622
  770SOL     OW 3208   0.590   1.487   6.077
  770SOL    HW1 3209   0.632   1.429   6.007
  770SOL    HW2 3210   0.546   1.566   6.033
  771SOL     OW 3211   1.709   0.385   6.967
  771SOL    HW1 3212   1.782   0.454   6.971
  771SOL    HW2 3213   1.737   0.310   6.908
  772SOL     OW 3214   0.255   1.348   5.876
  772SOL    HW1 3215   0.159   1.349   5.849
  772SOL    HW2 3216   0.267   1.401   5.960
  773SOL     OW 3217   0.075   0.345   5.619
  773SOL    HW1 3218  -0.017   0.317   5.590
  773SOL    HW2 3219   0.106   0.422   5.563
  774SOL     OW 3220   0.072   0.166   5.904
  774SOL    HW1 3221   0.055   0.249   5.850
  774SOL    HW2 3222   0.162   0.129   5.882
  775SOL     OW 3223   1.183   1.335   5.705
  775SOL    HW1 3224   1.084   1.324   5.707
  775SOL    HW2 3225   1.217   1.350   5.798
  776SOL     OW 3226   1.493   1.767   6.545
  776SOL    HW1 3227   1.526   1.831   6.476
  776SOL    HW2 3228   1.559   1.761   6.620
  777SOL     OW 3229   1.450   1.220   7.219
  777SOL    HW1 3230   1.441   1.210   7.318
  777SOL    HW2 3231   1.546   1.213   7.193
  778SOL     OW 3232   0.390   1.741   7.146
  778SOL    HW1 3233   0.299   1.782   7.144
  778SOL    HW2 3234   0.383   1.647   7.178
  779SOL     OW 3235   1.674   0.883   6.840
  779SOL    HW1 3236   1.647   0.794   6.803
  779SOL    HW2 3237   1.675   0.951   6.767
  780SOL     OW 3238   1.225   0.325   6.035
  780SOL    HW1 3239   1.290   0.251   6.024
  780SOL    HW2 3240   1.245   0.375   6.119
  781SOL     OW 3241   0.594   0.745   6.238
  781SOL    HW1 3242   0.644   0.830   6.219
  781SOL    HW2 3243   0.506   0.747   6.190
  782SOL     OW 3244   1.730   0.934   7.103
  782SOL    HW1 3245   1.768   1.025   7.118
  782SOL    HW2 3246   1.722   0.917   7.004
  783SOL     OW 3247   0.859   1.374   5.602
  783SOL    HW1 3248   0.813   1.389   5.690
  783SOL    HW2 3249   0.903   1.459   5.572
  784SOL     OW 3250   0.661   1.790   6.539
  784SOL    HW1 3251   0.615   1.878   6.526
  784SOL    HW2 3252   0.760   1.802   6.532
  785SOL     OW 3253   0.859   0.956   6.447
  785SOL    HW1 3254   0.913   0.887   6.495
  785SOL    HW2 3255   0.827   1.025   6.513
  786SOL     OW 3256   1.083   0.984   5.673
  786SOL    HW1 3257   1.060   1.037   5.591
  786SOL    HW2 3258   1.164   0.928   5.654
  787SOL     OW 3259   1.861   1.569   6.437
  787SOL    HW1 3260   1.790   1.557   6.367
  787SOL    HW2 3261   1.862   1.490   6.497
  788SOL     OW 3262   0.079   1.240   6.239
  788SOL    HW1 3263   0.078   1.193   6.327
  788SOL    HW2 3264   0.161   1.212   6.188
  789SOL     OW 3265   1.824   0.192   6.813
  789SOL    HW1 3266   1.820   0.102   6.857
  789SOL    HW2 3267   1.827   0.181   6.714
  790SOL     OW 3268   0.428   0.424   6.106
  790SOL    HW1 3269   0.458   0.352   6.044
  790SOL    HW2 3270   0.389   0.384   6.189
  791SOL     OW 3271   1.705   1.487   6.690
  791SOL    HW1 3272   1.612   1.462   6.663
  791SOL    HW2 3273   1.731   1.437   6.772
  792SOL     OW 3274   0.317   0.547   6.866
  792SOL    HW1 3275   0.355   0.488   6.938
  792SOL    HW2 3276   0.357   0.521   6.778
  793SOL     OW 3277   0.812   1.586   6.273
  793SOL    HW1 3278   0.844   1.596   6.179
  793SOL    HW2 3279   0.733   1.524   6.275
  794SOL     OW 3280   1.424   0.214   6.698
  794SOL    HW1 3281   1.476   0.149   6.753
  794SOL    HW2 3282   1.375   0.277   6.759
  795SOL     OW 3283   1.001   0.034   6.740
  795SOL    HW1 3284   0.938  -0.038   6.709
  795SOL    HW2 3285   1.094  -0.002   6.740
  796SOL     OW 3286   0.770   1.330   5.887
  796SOL    HW1 3287   0.724   1.243   5.904
  796SOL    HW2 3288   0.861   1.327   5.928
  797SOL     OW 3289   0.618   1.567   6.870
  797SOL    HW1 3290   0.613   1.649   6.927
  797SOL    HW2 3291   0.707   1.564   6.825
  798SOL     OW 3292   1.352   0.052   5.754
  798SOL    HW1 3293   1.387   0.011   5.670
  798SOL    HW2 3294   1.262   0.014   5.774
  799SOL     OW 3295   1.300   0.453   6.277
  799SOL    HW1 3296   1.241   0.533   6.281
  799SOL    HW2 3297   1.315   0.418   6.370
  800SOL     OW 3298   1.593   0.221   6.468
  800SOL    HW1 3299   1.509   0.220   6.522
  800SOL    HW2 3300   1.595   0.304   6.412
  801SOL     OW 3301   0.039   1.077   5.886
  801SOL    HW1 3302   0.138   1.066   5.877
  801SOL    HW2 3303  -0.001   0.991   5.918
  802SOL     OW 3304   0.875   1.646   5.923
  802SOL    HW1 3305   0.798   1.611   5.869
  802SOL    HW2 3306   0.843   1.717   5.985
  803SOL     OW 3307   0.230   2.490   0.113
  803SOL    HW1 3308   0.137   2.488   0.150
  803SOL    HW2 3309   0.231   2.451   0.021
  804SOL     OW 3310   0.225   2.137   0.996
  804SOL    HW1 3311   0.260   2.120   1.088
  804SOL    HW2 3312   0.137   2.092   0.984
  805SOL     OW 3313   0.019   2.230   0.647
  805SOL    HW1 3314  -0.063   2.273   0.686
  805SOL    HW2 3315  -0.009   2.157   0.584
  806SOL     OW 3316   0.569   3.137   1.165
  806SOL    HW1 3317   0.476   3.130   1.128
  806SOL    HW2 3318   0.580   3.226   1.209
  807SOL     OW 3319   1.555   3.373   0.703
  807SOL    HW1 3320   1.498   3.357   0.784
  807SOL    HW2 3321   1.496   3.383   0.623
  808SOL     OW 3322   1.135   2.565   0.717
  808SOL    HW1 3323   1.192   2.643   0.692
  808SOL    HW2 3324   1.075   2.591   0.793
  809SOL     OW 3325   1.755   2.469   0.231
  809SOL    HW1 3326   1.743   2.456   0.132
  809SOL    HW2 3327   1.725   2.388   0.280
  810SOL     OW 3328   0.768   3.006   1.023
  810SOL    HW1 3329   0.690   3.023   1.083
  810SOL    HW2 3330   0.802   3.093   0.987
  811SOL     OW 3331   0.850   2.660   1.823
  811SOL    HW1 3332   0.846   2.736   1.888
  811SOL    HW2 3333   0.872   2.696   1.732
  812SOL     OW 3334   0.685   2.874   0.665
  812SOL    HW1 3335   0.754   2.858   0.735
  812SOL    HW2 3336   0.612   2.931   0.703
  813SOL     OW 3337   0.686   3.023   1.803
  813SOL    HW1 3338   0.746   3.102   1.817
  813SOL    HW2 3339   0.600   3.054   1.762
  814SOL     OW 3340   0.335   3.297   1.061
  814SOL    HW1 3341   0.257   3.266   1.008
  814SOL    HW2 3342   0.393   3.355   1.004
  815SOL     OW 3343   1.460   3.367   1.339
  815SOL    HW1 3344   1.484   3.461   1.365
  815SOL    HW2 3345   1.444   3.313   1.421
  816SOL     OW 3346   0.438   2.254   1.499
  816SOL    HW1 3347   0.520   2.198   1.508
  816SOL    HW2 3348   0.357   2.196   1.503
  817SOL     OW 3349   1.603   2.309   0.737
  817SOL    HW1 3350   1.529   2.355   0.687
  817SOL    HW2 3351   1.654   2.377   0.790
  818SOL     OW 3352   0.231   3.575   0.483
  818SOL    HW1 3353   0.265   3.652   0.537
  818SOL    HW2 3354   0.275   3.575   0.393
  819SOL     OW 3355   1.127   3.203   1.690
  819SOL    HW1 3356   1.174   3.203   1.778
  819SOL    HW2 3357   1.079   3.116   1.679
  820SOL     OW 3358   0.230   3.296   0.538
  820SOL    HW1 3359   0.204   3.392   0.538
  820SOL    HW2 3360   0.159   3.242   0.583
  821SOL     OW 3361   0.240   2.953   0.886
  821SOL    HW1 3362   0.254   2.869   0.938
  821SOL    HW2 3363   0.185   3.017   0.941
  822SOL     OW 3364   0.620   3.648   1.439
  822SOL    HW1 3365   0.528   3.631   1.474
  822SOL    HW2 3366   0.648   3.740   1.465
  823SOL     OW 3367   0.606   2.826   0.123
  823SOL    HW1 3368   0.613   2.910   0.069
  823SOL    HW2 3369   0.652   2.839   0.211
  824SOL     OW 3370   1.594   1.976   1.480
  824SOL    HW1 3371   1.576   2.043   1.408
  824SOL    HW2 3372   1.591   2.022   1.569
  825SOL     OW 3373   0.122   2.505   0.563
  825SOL    HW1 3374   0.077   2.417   0.580
  825SOL    HW2 3375   0.121   2.559   0.647
  826SOL     OW 3376   1.842   3.629   0.359
  826SOL    HW1 3377   1.896   3.600   0.439
  826SOL    HW2 3378   1.872   3.719   0.330
  827SOL     OW 3379   0.027   3.458   0.117
  827SOL    HW1 3380   0.008   3.362   0.138
  827SOL    HW2 3381  -0.006   3.516   0.192
  828SOL     OW 3382   1.689   2.784   0.612
  828SOL    HW1 3383   1.784   2.755   0.620
  828SOL    HW2 3384   1.681   2.849   0.537
  829SOL     OW 3385   1.641   2.970   0.432
  829SOL    HW1 3386   1.727   2.972   0.380
  829SOL    HW2 3387   1.655   3.017   0.520
  830SOL     OW 3388   0.113   2.599   1.597
  830SOL    HW1 3389   0.201   2.586   1.642
  830SOL    HW2 3390   0.100   2.696   1.575
  831SOL     OW 3391   0.613   3.227   0.726
  831SOL    HW1 3392   0.564   3.140   0.735
  831SOL    HW2 3393   0.590   3.270   0.639
  832SOL     OW 3394   1.293   3.090   1.423
  832SOL    HW1 3395   1.330   3.017   1.365
  832SOL    HW2 3396   1.345   3.095   1.508
  833SOL     OW 3397   0.809   1.866   0.502
  833SOL    HW1 3398   0.849   1.957   0.493
  833SOL    HW2 3399   0.709   1.874   0.508
  834SOL     OW 3400   0.197   2.838   1.264
  834SOL    HW1 3401   0.286   2.793   1.250
  834SOL    HW2 3402   0.124   2.773   1.245
  835SOL     OW 3403   1.525   2.861   0.190
  835SOL    HW1 3404   1.462   2.785   0.203
  835SOL    HW2 3405   1.573   2.879   0.276
  836SOL     OW 3406   1.187   3.654   1.616
  836SOL    HW1 3407   1.211   3.714   1.540
  836SOL    HW2 3408   1.194   3.559   1.586
  837SOL     OW 3409   0.317   2.113   1.801
  837SOL    HW1 3410   0.388   2.184   1.807
  837SOL    HW2 3411   0.229   2.152   1.829
  838SOL     OW 3412   1.466   3.279   0.953
  838SOL    HW1 3413   1.407   3.285   1.033
  838SOL    HW2 3414   1.451   3.191   0.907
  839SOL     OW 3415   1.667   3.576   0.572
  839SOL    HW1 3416   1.626   3.553   0.484
  839SOL    HW2 3417   1.649   3.502   0.637
  840SOL     OW 3418   0.598   2.591   0.270
  840SOL    HW1 3419   0.622   2.660   0.202
  840SOL    HW2 3420   0.520   2.624   0.324
  841SOL     OW 3421   1.281   2.207   0.944
  841SOL    HW1 3422   1.195   2.157   0.931
  841SOL    HW2 3423   1.343   2.153   1.000
  842SOL     OW 3424   1.576   3.524   0.307
  842SOL    HW1 3425   1.665   3.570   0.310
  842SOL    HW2 3426   1.555   3.500   0.212
  843SOL     OW 3427   0.807   2.467   1.465
  843SOL    HW1 3428   0.760   2.464   1.554
  843SOL    HW2 3429   0.756   2.412   1.399
  844SOL     OW 3430   1.394   2.331   1.674
  844SOL    HW1 3431   1.374   2.374   1.762
  844SOL    HW2 3432   1.472   2.269   1.683
  845SOL     OW 3433   0.973   2.752   1.572
  845SOL    HW1 3434   1.019   2.668   1.543
  845SOL    HW2 3435   0.917   2.786   1.497
  846SOL     OW 3436   0.991   2.272   1.242
  846SOL    HW1 3437   0.914   2.306   1.296
  846SOL    HW2 3438   0.957   2.221   1.163
  847SOL     OW 3439   1.041   2.563   0.429
  847SOL    HW1 3440   1.067   2.559   0.525
  847SOL    HW2 3441   0.956   2.512   0.415
  848SOL     OW 3442   0.076   2.673   0.789
  848SOL    HW1 3443   0.175   2.661   0.798
  848SOL    HW2 3444   0.052   2.768   0.810
  849SOL     OW 3445   0.130   3.683   1.571
  849SOL    HW1 3446   0.120   3.668   1.670
  849SOL    HW2 3447   0.044   3.719   1.535
  850SOL     OW 3448   0.865   2.210   0.195
  850SOL    HW1 3449   0.924   2.273   0.146
  850SOL    HW2 3450   0.884   2.116   0.166
  851SOL     OW 3451   1.719   2.447   1.831
  851SOL    HW1 3452   1.693   2.536   1.795
  851SOL    HW2 3453   1.717   2.379   1.758
  852SOL     OW 3454   1.362   3.006   0.545
  852SOL    HW1 3455   1.445   2.977   0.497
  852SOL    HW2 3456   1.313   3.073   0.489
  853SOL     OW 3457   0.550   2.058   0.885
  853SOL    HW1 3458   0.545   2.053   0.985
  853SOL    HW2 3459   0.552   2.154   0.856
  854SOL     OW 3460   1.008   3.318   0.477
  854SOL    HW1 3461   0.962   3.390   0.425
  854SOL    HW2 3462   1.004   3.338   0.575
  855SOL     OW 3463   0.351   3.663   0.853
  855SOL    HW1 3464   0.401   3.577   0.859
  855SOL    HW2 3465   0.416   3.740   0.850
  856SOL     OW 3466   1.795   2.928   0.873
  856SOL    HW1 3467   1.733   2.913   0.797
  856SOL    HW2 3468   1.743   2.939   0.958
  857SOL     OW 3469   1.227   3.412   1.506
  857SOL    HW1 3470   1.233   3.335   1.570
  857SOL    HW2 3471   1.175   3.386   1.426
  858SOL     OW 3472   0.321   2.805   0.242
  858SOL    HW1 3473   0.403   2.844   0.200
  858SOL    HW2 3474   0.294   2.723   0.193
  859SOL     OW 3475   1.458   2.597   0.728
  859SOL    HW1 3476   1.453   2.532   0.803
  859SOL    HW2 3477   1.538   2.656   0.741
  860SOL     OW 3478   0.461   3.128   1.727
  860SOL    HW1 3479   0.411   3.129   1.641
  860SOL    HW2 3480   0.398   3.110   1.803
  861SOL     OW 3481   1.111   3.638   0.237
  861SOL    HW1 3482   1.051   3.576   0.287
  861SOL    HW2 3483   1.142   3.594   0.152
  862SOL     OW 3484   0.202   2.147   1.498
  862SOL    HW1 3485   0.122   2.207   1.485
  862SOL    HW2 3486   0.192   2.098   1.584
  863SOL     OW 3487   1.632   3.239   0.081
  863SOL    HW1 3488   1.600   3.333   0.071
  863SOL    HW2 3489   1.556   3.176   0.069
  864SOL     OW 3490   0.464   3.605   0.323
  864SOL    HW1 3491   0.497   3.644   0.409
  864SOL    HW2 3492   0.540   3.598   0.258
  865SOL     OW 3493   1.400   1.969   0.426
  865SOL    HW1 3494   1.376   1.932   0.336
  865SOL    HW2 3495   1.499   1.985   0.430
  866SOL     OW 3496   0.249   3.647   1.241
  866SOL    HW1 3497   0.306   3.582   1.291
  866SOL    HW2 3498   0.233   3.614   1.148
  867SOL     OW 3499   0.940   3.560   0.904
  867SOL    HW1 3500   1.020   3.503   0.925
  867SOL    HW2 3501   0.891   3.520   0.827
  868SOL     OW 3502   0.382   2.562   0.480
  868SOL    HW1 3503   0.427   2.472   0.477
  868SOL    HW2 3504   0.288   2.551   0.513
  869SOL     OW 3505   1.547   2.084   1.729
  869SOL    HW1 3506   1.542   2.121   1.821
  869SOL    HW2 3507   1.475   2.015   1.717
  870SOL     OW 3508   0.781   2.126   1.749
  870SOL    HW1 3509   0.848   2.065   1.792
  870SOL    HW2 3510   0.708   2.145   1.814
  871SOL     OW 3511   0.888   3.376   1.195
  871SOL    HW1 3512   0.865   3.351   1.101
  871SOL    HW2 3513   0.949   3.307   1.234
  872SOL     OW 3514   1.351   2.452   1.433
  872SOL    HW1 3515   1.379   2.409   1.518
  872SOL    HW2 3516   1.376   2.548   1.434
  873SOL     OW 3517   0.803   3.264   0.924
  873SOL    HW1 3518   0.893   3.278   0.882
  873SOL    HW2 3519   0.732   3.266   0.853
  874SOL     OW 3520   0.922   2.365   0.899
  874SOL    HW1 3521   0.897   2.356   0.803
  874SOL    HW2 3522   0.970   2.283   0.930
  875SOL     OW 3523   0.539   1.926   0.512
  875SOL    HW1 3524   0.458   1.927   0.570
  875SOL    HW2 3525   0.542   2.009   0.457
  876SOL     OW 3526   1.434   3.050   0.041
  876SOL    HW1 3527   1.466   2.974   0.098
  876SOL    HW2 3528   1.342   3.077   0.071
  877SOL     OW 3529   0.935   2.098   0.480
  877SOL    HW1 3530   0.887   2.139   0.402
  877SOL    HW2 3531   1.034   2.096   0.461
  878SOL     OW 3532   1.076   2.545   1.464
  878SOL    HW1 3533   0.996   2.484   1.467
  878SOL    HW2 3534   1.157   2.492   1.440
  879SOL     OW 3535   1.227   3.432   0.793
  879SOL    HW1 3536   1.248   3.506   0.728
  879SOL    HW2 3537   1.295   3.432   0.866
  880SOL     OW 3538   0.459   3.014   0.741
  880SOL    HW1 3539   0.388   2.987   0.806
  880SOL    HW2 3540   0.433   2.986   0.648
  881SOL     OW 3541   1.271   3.659   0.591
  881SOL    HW1 3542   1.315   3.723   0.527
  881SOL    HW2 3543   1.221   3.711   0.661
  882SOL     OW 3544   1.032   2.411   0.016
  882SOL    HW1 3545   0.991   2.493  -0.023
  882SOL    HW2 3546   1.096   2.437   0.089
  883SOL     OW 3547   0.078   2.418   1.386
  883SOL    HW1 3548   0.170   2.417   1.345
  883SOL    HW2 3549   0.072   2.492   1.453
  884SOL     OW 3550   0.561   2.084   1.147
  884SOL    HW1 3551   0.599   2.000   1.184
  884SOL    HW2 3552   0.473   2.103   1.191
  885SOL     OW 3553   0.866   2.316   0.642
  885SOL    HW1 3554   0.834   2.388   0.580
  885SOL    HW2 3555   0.890   2.235   0.589
  886SOL     OW 3556   1.017   1.901   0.753
  886SOL    HW1 3557   0.945   1.906   0.684
  886SOL    HW2 3558   0.993   1.832   0.822
  887SOL     OW 3559   1.429   3.035   0.867
  887SOL    HW1 3560   1.374   2.951   0.860
  887SOL    HW2 3561   1.455   3.064   0.775
  888SOL     OW 3562   1.466   2.452   0.992
  888SOL    HW1 3563   1.436   2.357   0.999
  888SOL    HW2 3564   1.539   2.468   1.058
  889SOL     OW 3565   1.857   2.695   0.377
  889SOL    HW1 3566   1.899   2.631   0.441
  889SOL    HW2 3567   1.819   2.644   0.299
  890SOL     OW 3568   0.488   3.247   0.174
  890SOL    HW1 3569   0.401   3.232   0.221
  890SOL    HW2 3570   0.471   3.273   0.079
  891SOL     OW 3571   1.664   3.142   0.657
  891SOL    HW1 3572   1.763   3.150   0.671
  891SOL    HW2 3573   1.619   3.226   0.688
  892SOL     OW 3574   1.390   2.437   0.078
  892SOL    HW1 3575   1.336   2.416   0.159
  892SOL    HW2 3576   1.481   2.396   0.087
  893SOL     OW 3577   0.527   2.118   0.328
  893SOL    HW1 3578   0.554   2.059   0.253
  893SOL    HW2 3579   0.527   2.213   0.297
  894SOL     OW 3580   1.754   3.085   1.588
  894SOL    HW1 3581   1.845   3.046   1.575
  894SOL    HW2 3582   1.762   3.181   1.612
  895SOL     OW 3583   1.064   3.209   1.340
  895SOL    HW1 3584   0.984   3.186   1.395
  895SOL    HW2 3585   1.147   3.183   1.389
  896SOL     OW 3586   1.592   3.491   1.625
  896SOL    HW1 3587   1.619   3.525   1.535
  896SOL    HW2 3588   1.671   3.453   1.671
  897SOL     OW 3589   1.111   3.057   1.100
  897SOL    HW1 3590   1.071   3.101   1.181
  897SOL    HW2 3591   1.070   3.094   1.017
  898SOL     OW 3592   1.638   2.961   1.079
  898SOL    HW1 3593   1.643   3.042   1.138
  898SOL    HW2 3594   1.552   2.963   1.028
  899SOL     OW 3595   0.915   1.951   1.402
  899SOL    HW1 3596   0.940   1.931   1.307
  899SOL    HW2 3597   0.987   2.007   1.444
  900SOL     OW 3598   0.980   2.978   1.719
  900SOL    HW1 3599   0.881   2.984   1.729
  900SOL    HW2 3600   1.003   2.898   1.663
  901SOL     OW 3601   0.705   2.912   0.368
  901SOL    HW1 3602   0.691   2.919   0.467
  901SOL    HW2 3603   0.789   2.861   0.350
  902SOL     OW 3604   0.410   2.675   1.251
  902SOL    HW1 3605   0.496   2.687   1.301
  902SOL    HW2 3606   0.368   2.588   1.278
  903SOL     OW 3607   1.274   2.248   1.262
  903SOL    HW1 3608   1.295   2.322   1.326
  903SOL    HW2 3609   1.185   2.265   1.219
  904SOL     OW 3610   0.064   3.426   1.331
  904SOL    HW1 3611   0.018   3.508   1.297
  904SOL    HW2 3612   0.162   3.445   1.340
  905SOL     OW 3613   0.367   2.962   0.501
  905SOL    HW1 3614   0.360   3.045   0.445
  905SOL    HW2 3615   0.371   2.882   0.441
  906SOL     OW 3616   0.566   2.399   0.865
  906SOL    HW1 3617   0.578   2.465   0.791
  906SOL    HW2 3618   0.612   2.433   0.948
  907SOL     OW 3619   1.252   3.210   0.388
  907SOL    HW1 3620   1.302   3.287   0.428
  907SOL    HW2 3621   1.157   3.212   0.420
  908SOL     OW 3622   1.272   3.307   1.142
  908SOL    HW1 3623   1.319   3.320   1.229
  908SOL    HW2 3624   1.206   3.233   1.151
  909SOL     OW 3625   1.582   2.501   0.472
  909SOL    HW1 3626   1.551   2.562   0.545
  909SOL    HW2 3627   1.632   2.553   0.403
  910SOL     OW 3628   0.354   3.372   1.329
  910SOL    HW1 3629   0.333   3.328   1.242
  910SOL    HW2 3630   0.451   3.398   1.332
  911SOL     OW 3631   0.402   2.613   1.598
  911SOL    HW1 3632   0.470   2.668   1.551
  911SOL    HW2 3633   0.442   2.525   1.625
  912SOL     OW 3634   1.587   2.641   1.670
  912SOL    HW1 3635   1.495   2.679   1.665
  912SOL    HW2 3636   1.647   2.688   1.605
  913SOL     OW 3637   1.013   1.967   1.770
  913SOL    HW1 3638   1.019   2.052   1.718
  913SOL    HW2 3639   1.045   1.891   1.713
  914SOL     OW 3640   0.504   1.912   1.740
  914SOL    HW1 3641   0.462   1.855   1.670
  914SOL    HW2 3642   0.438   1.981   1.772
  915SOL     OW 3643   0.573   2.732   1.029
  915SOL    HW1 3644   0.617   2.821   1.020
  915SOL    HW2 3645   0.510   2.732   1.106
  916SOL     OW 3646   1.360   2.724   1.045
  916SOL    HW1 3647   1.285   2.724   0.979
  916SOL    HW2 3648   1.397   2.632   1.054
  917SOL     OW 3649   1.209   2.387   0.275
  917SOL    HW1 3650   1.222   2.303   0.329
  917SOL    HW2 3651   1.180   2.461   0.335
  918SOL     OW 3652   0.307   2.075   1.231
  918SOL    HW1 3653   0.284   2.112   1.321
  918SOL    HW2 3654   0.277   1.980   1.225
  919SOL     OW 3655   0.037   3.172   1.282
  919SOL    HW1 3656   0.090   3.123   1.350
  919SOL    HW2 3657   0.059   3.270   1.287
  920SOL     OW 3658   0.732   2.496   1.064
  920SOL    HW1 3659   0.791   2.470   0.988
  920SOL    HW2 3660   0.704   2.592   1.053
  921SOL     OW 3661   1.728   2.797   1.854
  921SOL    HW1 3662   1.682   2.790   1.765
  921SOL    HW2 3663   1.666   2.841   1.920
  922SOL     OW 3664   0.307   1.925   0.618
  922SOL    HW1 3665   0.296   2.019   0.651
  922SOL    HW2 3666   0.302   1.862   0.695
  923SOL     OW 3667   1.622   2.229   0.374
  923SOL    HW1 3668   1.624   2.153   0.438
  923SOL    HW2 3669   1.574   2.306   0.414
  924SOL     OW 3670   1.023   2.628   0.966
  924SOL    HW1 3671   1.038   2.649   1.062
  924SOL    HW2 3672   0.993   2.533   0.957
  925SOL     OW 3673   0.980   3.435   1.700
  925SOL    HW1 3674   0.960   3.479   1.612
  925SOL    HW2 3675   1.019   3.344   1.684
  926SOL     OW 3676   1.859   3.380   1.605
  926SOL    HW1 3677   1.873   3.407   1.510
  926SOL    HW2 3678   1.942   3.402   1.658
  927SOL     OW 3679   0.350   2.760   1.804
  927SOL    HW1 3680   0.426   2.804   1.852
  927SOL    HW2 3681   0.385   2.713   1.722
  928SOL     OW 3682   1.540   2.136   0.125
  928SOL    HW1 3683   1.479   2.061   0.148
  928SOL    HW2 3684   1.562   2.188   0.208
  929SOL     OW 3685   1.303   2.700   0.042
  929SOL    HW1 3686   1.337   2.607   0.057
  929SOL    HW2 3687   1.321   2.727  -0.053
  930SOL     OW 3688   1.068   3.195   0.849
  930SOL    HW1 3689   1.075   3.111   0.794
  930SOL    HW2 3690   1.130   3.264   0.813
  931SOL     OW 3691   0.319   2.672   0.949
  931SOL    HW1 3692   0.412   2.708   0.954
  931SOL    HW2 3693   0.313   2.587   1.001
  932SOL     OW 3694   0.339   2.371   1.006
  932SOL    HW1 3695   0.287   2.288   0.989
  932SOL    HW2 3696   0.416   2.376   0.942
  933SOL     OW 3697   1.138   2.242   1.678
  933SOL    HW1 3698   1.093   2.305   1.742
  933SOL    HW2 3699   1.231   2.273   1.661
  934SOL     OW 3700   1.160   2.069   1.477
  934SOL    HW1 3701   1.160   2.133   1.554
  934SOL    HW2 3702   1.188   2.117   1.394
  935SOL     OW 3703   0.008   3.188   0.200
  935SOL    HW1 3704  -0.085   3.209   0.169
  935SOL    HW2 3705   0.018   3.089   0.213
  936SOL     OW 3706   0.088   3.663   0.927
  936SOL    HW1 3707   0.046   3.577   0.900
  936SOL    HW2 3708   0.182   3.666   0.893
  937SOL     OW 3709   0.504   3.430   0.910
  937SOL    HW1 3710   0.570   3.504   0.919
  937SOL    HW2 3711   0.548   3.351   0.868
  938SOL     OW 3712   1.002   2.658   1.238
  938SOL    HW1 3713   1.043   2.626   1.324
  938SOL    HW2 3714   0.906   2.631   1.235
  939SOL     OW 3715   0.040   2.406   1.114
  939SOL    HW1 3716   0.125   2.373   1.073
  939SOL    HW2 3717   0.053   2.421   1.212
  940SOL     OW 3718   0.189   2.382   1.722
  940SOL    HW1 3719   0.248   2.342   1.652
  940SOL    HW2 3720   0.131   2.453   1.681
  941SOL     OW 3721   1.369   2.812   1.660
  941SOL    HW1 3722   1.408   2.901   1.680
  941SOL    HW2 3723   1.379   2.792   1.563
  942SOL     OW 3724   0.815   2.434   0.325
  942SOL    HW1 3725   0.822   2.345   0.279
  942SOL    HW2 3726   0.721   2.468   0.317
  943SOL     OW 3727   1.657   2.466   1.206
  943SOL    HW1 3728   1.619   2.397   1.268
  943SOL    HW2 3729   1.739   2.430   1.162
  944SOL     OW 3730   0.252   3.426   1.744
  944SOL    HW1 3731   0.222   3.483   1.820
  944SOL    HW2 3732   0.245   3.329   1.770
  945SOL     OW 3733   0.671   2.326   1.269
  945SOL    HW1 3734   0.637   2.237   1.239
  945SOL    HW2 3735   0.697   2.380   1.189
  946SOL     OW 3736   0.930   3.540   1.465
  946SOL    HW1 3737   0.906   3.522   1.370
  946SOL    HW2 3738   0.960   3.634   1.475
  947SOL     OW 3739   0.473   2.362   0.191
  947SOL    HW1 3740   0.534   2.442   0.195
  947SOL    HW2 3741   0.378   2.393   0.198
  948SOL     OW 3742   0.159   2.999   1.466
  948SOL    HW1 3743   0.181   2.938   1.542
  948SOL    HW2 3744   0.169   2.950   1.380
  949SOL     OW 3745   1.347   2.921   1.234
  949SOL    HW1 3746   1.371   2.858   1.160
  949SOL    HW2 3747   1.257   2.961   1.216
  950SOL     OW 3748   1.302   2.717   0.309
  950SOL    HW1 3749   1.216   2.686   0.351
  950SOL    HW2 3750   1.298   2.703   0.210
  951SOL     OW 3751   1.759   3.609   1.154
  951SOL    HW1 3752   1.820   3.639   1.081
  951SOL    HW2 3753   1.721   3.520   1.132
  952SOL     OW 3754   1.252   3.593   1.128
  952SOL    HW1 3755   1.336   3.598   1.074
  952SOL    HW2 3756   1.229   3.497   1.146
  953SOL     OW 3757   0.083   3.120   1.022
  953SOL    HW1 3758   0.078   3.119   1.122
  953SOL    HW2 3759   0.000   3.079   0.984
  954SOL     OW 3760   0.688   3.524   1.716
  954SOL    HW1 3761   0.632   3.605   1.725
  954SOL    HW2 3762   0.740   3.528   1.630
  955SOL     OW 3763   0.903   1.948   0.133
  955SOL    HW1 3764   0.954   1.949   0.047
  955SOL    HW2 3765   0.959   1.906   0.204
  956SOL     OW 3766   1.726   1.997   0.523
  956SOL    HW1 3767   1.799   1.980   0.456
  956SOL    HW2 3768   1.695   1.910   0.561
  957SOL     OW 3769   1.388   3.435   0.477
  957SOL    HW1 3770   1.455   3.447   0.403
  957SOL    HW2 3771   1.348   3.524   0.500
  958SOL     OW 3772   0.130   3.656   1.851
  958SOL    HW1 3773   0.089   3.582   1.904
  958SOL    HW2 3774   0.194   3.707   1.909
  959SOL     OW 3775   1.280   2.789   0.672
  959SOL    HW1 3776   1.340   2.708   0.674
  959SOL    HW2 3777   1.320   2.858   0.612
  960SOL     OW 3778   0.830   3.135   1.422
  960SOL    HW1 3779   0.825   3.168   1.517
  960SOL    HW2 3780   0.744   3.154   1.376
  961SOL     OW 3781   0.672   3.478   0.154
  961SOL    HW1 3782   0.681   3.488   0.055
  961SOL    HW2 3783   0.632   3.389   0.175
  962SOL     OW 3784   1.650   3.582   1.394
  962SOL    HW1 3785   1.703   3.592   1.310
  962SOL    HW2 3786   1.623   3.672   1.428
  963SOL     OW 3787   1.841   2.037   0.963
  963SOL    HW1 3788   1.880   1.952   0.927
  963SOL    HW2 3789   1.743   2.039   0.944
  964SOL     OW 3790   0.263   2.188   0.720
  964SOL    HW1 3791   0.184   2.239   0.686
  964SOL    HW2 3792   0.254   2.173   0.818
  965SOL     OW 3793   1.194   3.474   0.031
  965SOL    HW1 3794   1.200   3.381   0.068
  965SOL    HW2 3795   1.135   3.474  -0.049
  966SOL     OW 3796   0.822   2.864   1.372
  966SOL    HW1 3797   0.862   2.863   1.280
  966SOL    HW2 3798   0.832   2.956   1.412
  967SOL     OW 3799   0.916   2.772   0.291
  967SOL    HW1 3800   0.979   2.810   0.223
  967SOL    HW2 3801   0.956   2.689   0.330
  968SOL     OW 3802   1.504   3.469   0.044
  968SOL    HW1 3803   1.412   3.506   0.051
  968SOL    HW2 3804   1.542   3.489  -0.046
  969SOL     OW 3805   0.372   3.150   1.490
  969SOL    HW1 3806   0.359   3.243   1.456
  969SOL    HW2 3807   0.288   3.098   1.477
  970SOL     OW 3808   1.614   3.154   1.289
  970SOL    HW1 3809   1.674   3.157   1.369
  970SOL    HW2 3810   1.539   3.218   1.302
  971SOL     OW 3811   1.039   2.960   0.696
  971SOL    HW1 3812   0.969   2.913   0.750
  971SOL    HW2 3813   1.098   2.892   0.653
  972SOL     OW 3814   1.014   2.098   0.971
  972SOL    HW1 3815   1.006   2.062   0.878
  972SOL    HW2 3816   1.012   2.022   1.036
  973SOL     OW 3817   0.590   3.349   0.491
  973SOL    HW1 3818   0.632   3.291   0.421
  973SOL    HW2 3819   0.546   3.428   0.447
  974SOL     OW 3820   1.709   2.247   1.381
  974SOL    HW1 3821   1.782   2.316   1.385
  974SOL    HW2 3822   1.737   2.172   1.322
  975SOL     OW 3823   0.255   3.210   0.290
  975SOL    HW1 3824   0.159   3.211   0.263
  975SOL    HW2 3825   0.267   3.263   0.374
  976SOL     OW 3826   0.105   2.875   1.726
  976SOL    HW1 3827   0.028   2.842   1.780
  976SOL    HW2 3828   0.190   2.845   1.768
  977SOL     OW 3829   0.672   2.065   1.489
  977SOL    HW1 3830   0.762   2.049   1.449
  977SOL    HW2 3831   0.680   2.070   1.588
  978SOL     OW 3832   0.075   2.207   0.033
  978SOL    HW1 3833  -0.017   2.179   0.004
  978SOL    HW2 3834   0.106   2.284  -0.023
  979SOL     OW 3835   1.440   2.718   1.398
  979SOL    HW1 3836   1.383   2.770   1.335
  979SOL    HW2 3837   1.536   2.730   1.374
  980SOL     OW 3838   0.072   2.028   0.318
  980SOL    HW1 3839   0.055   2.111   0.264
  980SOL    HW2 3840   0.162   1.991   0.296
  981SOL     OW 3841   1.183   3.197   0.119
  981SOL    HW1 3842   1.084   3.186   0.121
  981SOL    HW2 3843   1.217   3.212   0.212
  982SOL     OW 3844   0.613   2.704   1.431
  982SOL    HW1 3845   0.669   2.785   1.414
  982SOL    HW2 3846   0.672   2.624   1.434
  983SOL     OW 3847   1.493   3.629   0.959
  983SOL    HW1 3848   1.526   3.693   0.890
  983SOL    HW2 3849   1.559   3.623   1.034
  984SOL     OW 3850   0.716   2.427   1.708
  984SOL    HW1 3851   0.735   2.492   1.782
  984SOL    HW2 3852   0.776   2.347   1.717
  985SOL     OW 3853   1.450   3.082   1.633
  985SOL    HW1 3854   1.441   3.072   1.732
  985SOL    HW2 3855   1.546   3.075   1.607
  986SOL     OW 3856   0.390   3.603   1.560
  986SOL    HW1 3857   0.299   3.644   1.558
  986SOL    HW2 3858   0.383   3.509   1.592
  987SOL     OW 3859   1.674   2.745   1.254
  987SOL    HW1 3860   1.647   2.656   1.217
  987SOL    HW2 3861   1.675   2.813   1.181
  988SOL     OW 3862   1.225   2.187   0.449
  988SOL    HW1 3863   1.290   2.113   0.438
  988SOL    HW2 3864   1.245   2.237   0.533
  989SOL     OW 3865   0.594   2.607   0.652
  989SOL    HW1 3866   0.644   2.692   0.633
  989SOL    HW2 3867   0.506   2.609   0.604
  990SOL     OW 3868   1.777   2.204   1.642
  990SOL    HW1 3869   1.760   2.235   1.548
  990SOL    HW2 3870   1.693   2.167   1.680
  991SOL     OW 3871   1.730   2.796   1.517
  991SOL    HW1 3872   1.768   2.887   1.532
  991SOL    HW2 3873   1.722   2.779   1.418
  992SOL     OW 3874   0.859   3.236   0.016
  992SOL    HW1 3875   0.813   3.251   0.104
  992SOL    HW2 3876   0.903   3.321  -0.014
  993SOL     OW 3877   0.661   3.652   0.953
  993SOL    HW1 3878   0.615   3.740   0.940
  993SOL    HW2 3879   0.760   3.664   0.946
  994SOL     OW 3880   0.859   2.818   0.861
  994SOL    HW1 3881   0.913   2.749   0.909
  994SOL    HW2 3882   0.827   2.887   0.927
  995SOL     OW 3883   1.083   2.846   0.087
  995SOL    HW1 3884   1.060   2.899   0.005
  995SOL    HW2 3885   1.164   2.790   0.068
  996SOL     OW 3886   1.861   3.431   0.851
  996SOL    HW1 3887   1.790   3.419   0.781
  996SOL    HW2 3888   1.862   3.352   0.911
  997SOL     OW 3889   0.221   3.176   1.844
  997SOL    HW1 3890   0.156   3.103   1.823
  997SOL    HW2 3891   0.225   3.190   1.942
  998SOL     OW 3892   0.079   3.102   0.653
  998SOL    HW1 3893   0.078   3.055   0.741
  998SOL    HW2 3894   0.161   3.074   0.602
  999SOL     OW 3895   0.672   3.253   1.624
  999SOL    HW1 3896   0.594   3.203   1.662
  999SOL    HW2 3897   0.669   3.348   1.655
 1000SOL     OW 3898   1.824   2.054   1.227
 1000SOL    HW1 3899   1.820   1.964   1.271
 1000SOL    HW2 3900   1.827   2.043   1.128
 1001SOL     OW 3901   0.428   2.286   0.520
 1001SOL    HW1 3902   0.458   2.214   0.458
 1001SOL    HW2 3903   0.389   2.246   0.603
 1002SOL     OW 3904   1.705   3.349   1.104
 1002SOL    HW1 3905   1.612   3.324   1.077
 1002SOL    HW2 3906   1.731   3.299   1.186
 1003SOL     OW 3907   0.317   2.409   1.280
 1003SOL    HW1 3908   0.355   2.350   1.352
 1003SOL    HW2 3909   0.357   2.383   1.192
 1004SOL     OW 3910   0.812   3.448   0.687
 1004SOL    HW1 3911   0.844   3.458   0.593
 1004SOL    HW2 3912   0.733   3.386   0.689
 1005SOL     OW 3913   1.424   2.076   1.112
 1005SOL    HW1 3914   1.476   2.011   1.167
 1005SOL    HW2 3915   1.375   2.139   1.173
 1006SOL     OW 3916   1.001   1.896   1.154
 1006SOL    HW1 3917   0.938   1.824   1.123
 1006SOL    HW2 3918   1.094   1.860   1.154
 1007SOL     OW 3919   0.770   3.192   0.301
 1007SOL    HW1 3920   0.724   3.105   0.318
 1007SOL    HW2 3921   0.861   3.189   0.342
 1008SOL     OW 3922   0.618   3.429   1.284
 1008SOL    HW1 3923   0.613   3.511   1.341
 1008SOL    HW2 3924   0.707   3.426   1.239
 1009SOL     OW 3925   1.352   1.914   0.168
 1009SOL    HW1 3926   1.387   1.873   0.084
 1009SOL    HW2 3927   1.262   1.876   0.188
 1010SOL     OW 3928   1.300   2.315   0.691
 1010SOL    HW1 3929   1.241   2.395   0.695
 1010SOL    HW2 3930   1.315   2.280   0.784
 1011SOL     OW 3931   1.593   2.083   0.882
 1011SOL    HW1 3932   1.509   2.082   0.936
 1011SOL    HW2 3933   1.595   2.166   0.826
 1012SOL     OW 3934   0.039   2.939   0.300
 1012SOL    HW1 3935   0.138   2.928   0.291
 1012SOL    HW2 3936  -0.001   2.853   0.332
 1013SOL     OW 3937   0.875   3.508   0.337
 1013SOL    HW1 3938   0.798   3.473   0.283
 1013SOL    HW2 3939   0.843   3.579   0.399
 1014SOL     OW 3940   0.230   2.490   1.975
 1014SOL    HW1 3941   0.137   2.488   2.012
 1014SOL    HW2 3942   0.231   2.451   1.883
 1015SOL     OW 3943   0.225   2.137   2.858
 1015SOL    HW1 3944   0.260   2.120   2.950
 1015SOL    HW2 3945   0.137   2.092   2.846
 1016SOL     OW 3946   0.019   2.230   2.509
 1016SOL    HW1 3947  -0.063   2.273   2.548
 1016SOL    HW2 3948  -0.009   2.157   2.446
 1017SOL     OW 3949   0.569   3.137   3.027
 1017SOL    HW1 3950   0.476   3.130   2.990
 1017SOL    HW2 3951   0.580   3.226   3.071
 1018SOL     OW 3952   1.555   3.373   2.565
 1018SOL    HW1 3953   1.498   3.357   2.646
 1018SOL    HW2 3954   1.496   3.383   2.485
 1019SOL     OW 3955   1.135   2.565   2.579
 1019SOL    HW1 3956   1.192   2.643   2.554
 1019SOL    HW2 3957   1.075   2.591   2.655
 1020SOL     OW 3958   1.755   2.469   2.093
 1020SOL    HW1 3959   1.743   2.456   1.994
 1020SOL    HW2 3960   1.725   2.388   2.142
 1021SOL     OW 3961   0.768   3.006   2.885
 1021SOL    HW1 3962   0.690   3.023   2.945
 1021SOL    HW2 3963   0.802   3.093   2.849
 1022SOL     OW 3964   0.850   2.660   3.685
 1022SOL    HW1 3965   0.846   2.736   3.750
 1022SOL    HW2 3966   0.872   2.696   3.594
 1023SOL     OW 3967   0.685   2.874   2.527
 1023SOL    HW1 3968   0.754   2.858   2.597
 1023SOL    HW2 3969   0.612   2.931   2.565
 1024SOL     OW 3970   0.686   3.023   3.665
 1024SOL    HW1 3971   0.746   3.102   3.679
 1024SOL    HW2 3972   0.600   3.054   3.624
 1025SOL     OW 3973   0.335   3.297   2.923
 1025SOL    HW1 3974   0.257   3.266   2.870
 1025SOL    HW2 3975   0.393   3.355   2.866
 1026SOL     OW 3976   1.460   3.367   3.201
 1026SOL    HW1 3977   1.484   3.461   3.227
 1026SOL    HW2 3978   1.444   3.313   3.283
 1027SOL     OW 3979   0.438   2.254   3.361
 1027SOL    HW1 3980   0.520   2.198   3.370
 1027SOL    HW2 3981   0.357   2.196   3.365
 1028SOL     OW 3982   1.603   2.309   2.599
 1028SOL    HW1 3983   1.529   2.355   2.549
 1028SOL    HW2 3984   1.654   2.377   2.652
 1029SOL     OW 3985   0.231   3.575   2.345
 1029SOL    HW1 3986   0.265   3.652   2.399
 1029SOL    HW2 3987   0.275   3.575   2.255
 1030SOL     OW 3988   1.127   3.203   3.552
 1030SOL    HW1 3989   1.174   3.203   3.640
 1030SOL    HW2 3990   1.079   3.116   3.541
 1031SOL     OW 3991   0.230   3.296   2.400
 1031SOL    HW1 3992   0.204   3.392   2.400
 1031SOL    HW2 3993   0.159   3.242   2.445
 1032SOL     OW 3994   0.240   2.953   2.748
 1032SOL    HW1 3995   0.254   2.869   2.800
 1032SOL    HW2 3996   0.185   3.017   2.803
 1033SOL     OW 3997   0.620   3.648   3.301
 1033SOL    HW1 3998   0.528   3.631   3.336
 1033SOL    HW2 3999   0.648   3.740   3.327
 1034SOL     OW 4000   0.606   2.826   1.985
 1034SOL    HW1 4001   0.613   2.910   1.931
 1034SOL    HW2 4002   0.652   2.839   2.073
 1035SOL     OW 4003   1.594   1.976   3.342
 1035SOL    HW1 4004   1.576   2.043   3.270
 1035SOL    HW2 4005   1.591   2.022   3.431
 1036SOL     OW 4006   0.122   2.505   2.425
 1036SOL    HW1 4007   0.077   2.417   2.442
 1036SOL    HW2 4008   0.121   2.559   2.509
 1037SOL     OW 4009   1.842   3.629   2.221
 1037SOL    HW1 4010   1.896   3.600   2.301
 1037SOL    HW2 4011   1.872   3.719   2.192
 1038SOL     OW 4012   0.027   3.458   1.979
 1038SOL    HW1 4013   0.008   3.362   2.000
 1038SOL    HW2 4014  -0.006   3.516   2.054
 1039SOL     OW 4015   1.689   2.784   2.474
 1039SOL    HW1 4016   1.784   2.755   2.482
 1039SOL    HW2 4017   1.681   2.849   2.399
 1040SOL     OW 4018   1.641   2.970   2.294
 1040SOL    HW1 4019   1.727   2.972   2.242
 1040SOL    HW2 4020   1.655   3.017   2.382
 1041SOL     OW 4021   0.113   2.599   3.459
 1041SOL    HW1 4022   0.201   2.586   3.504
 1041SOL    HW2 4023   0.100   2.696   3.437
 1042SOL     OW 4024   0.613   3.227   2.588
 1042SOL    HW1 4025   0.564   3.140   2.597
 1042SOL    HW2 4026   0.590   3.270   2.501
 1043SOL     OW 4027   1.293   3.090   3.285
 1043SOL    HW1 4028   1.330   3.017   3.227
 1043SOL    HW2 4029   1.345   3.095   3.370
 1044SOL     OW 4030   0.809   1.866   2.364
 1044SOL    HW1 4031   0.849   1.957   2.355
 1044SOL    HW2 4032   0.709   1.874   2.370
 1045SOL     OW 4033   0.197   2.838   3.126
 1045SOL    HW1 4034   0.286   2.793   3.112
 1045SOL    HW2 4035   0.124   2.773   3.107
 1046SOL     OW 4036   1.525   2.861   2.052
 1046SOL    HW1 4037   1.462   2.785   2.065
 1046SOL    HW2 4038   1.573   2.879   2.138
 1047SOL     OW 4039   1.187   3.654   3.478
 1047SOL    HW1 4040   1.211   3.714   3.402
 1047SOL    HW2 4041   1.194   3.559   3.448
 1048SOL     OW 4042   0.317   2.113   3.663
 1048SOL    HW1 4043   0.388   2.184   3.669
 1048SOL    HW2 4044   0.229   2.152   3.691
 1049SOL     OW 4045   1.466   3.279   2.815
 1049SOL    HW1 4046   1.407   3.285   2.895
 1049SOL    HW2 4047   1.451   3.191   2.769
 1050SOL     OW 4048   1.667   3.576   2.434
 1050SOL    HW1 4049   1.626   3.553   2.346
 1050SOL    HW2 4050   1.649   3.502   2.499
 1051SOL     OW 4051   0.598   2.591   2.132
 1051SOL    HW1 4052   0.622   2.660   2.064
 1051SOL    HW2 4053   0.520   2.624   2.186
 1052SOL     OW 4054   1.281   2.207   2.806
 1052SOL    HW1 4055   1.195   2.157   2.793
 1052SOL    HW2 4056   1.343   2.153   2.862
 1053SOL     OW 4057   1.576   3.524   2.169
 1053SOL    HW1 4058   1.665   3.570   2.172
 1053SOL    HW2 4059   1.555   3.500   2.074
 1054SOL     OW 4060   0.807   2.467   3.327
 1054SOL    HW1 4061   0.760   2.464   3.416
 1054SOL    HW2 4062   0.756   2.412   3.261
 1055SOL     OW 4063   1.394   2.331   3.536
 1055SOL    HW1 4064   1.374   2.374   3.624
 1055SOL    HW2 4065   1.472   2.269   3.545
 1056SOL     OW 4066   0.973   2.752   3.434
 1056SOL    HW1 4067   1.019   2.668   3.405
 1056SOL    HW2 4068   0.917   2.786   3.359
 1057SOL     OW 4069   0.991   2.272   3.104
 1057SOL    HW1 4070   0.914   2.306   3.158
 1057SOL    HW2 4071   0.957   2.221   3.025
 1058SOL     OW 4072   1.041   2.563   2.291
 1058SOL    HW1 4073   1.067   2.559   2.387
 1058SOL    HW2 4074   0.956   2.512   2.277
 1059SOL     OW 4075   0.076   2.673   2.651
 1059SOL    HW1 4076   0.175   2.661   2.660
 1059SOL    HW2 4077   0.052   2.768   2.672
 1060SOL     OW 4078   0.130   3.683   3.433
 1060SOL    HW1 4079   0.120   3.668   3.532
 1060SOL    HW2 4080   0.044   3.719   3.397
 1061SOL     OW 4081   0.865   2.210   2.057
 1061SOL    HW1 4082   0.924   2.273   2.008
 1061SOL    HW2 4083   0.884   2.116   2.028
 1062SOL     OW 4084   1.719   2.447   3.693
 1062SOL    HW1 4085   1.693   2.536   3.657
 1062SOL    HW2 4086   1.717   2.379   3.620
 1063SOL     OW 4087   1.362   3.006   2.407
 1063SOL    HW1 4088   1.445   2.977   2.359
 1063SOL    HW2 4089   1.313   3.073   2.351
 1064SOL     OW 4090   0.550   2.058   2.747
 1064SOL    HW1 4091   0.545   2.053   2.847
 1064SOL    HW2 4092   0.552   2.154   2.718
 1065SOL     OW 4093   1.008   3.318   2.339
 1065SOL    HW1 4094   0.962   3.390   2.287
 1065SOL    HW2 4095   1.004   3.338   2.437
 1066SOL     OW 4096   0.351   3.663   2.715
 1066SOL    HW1 4097   0.401   3.577   2.721
 1066SOL    HW2 4098   0.416   3.740   2.712
 1067SOL     OW 4099   1.795   2.928   2.735
 1067SOL    HW1 4100   1.733   2.913   2.659
 1067SOL    HW2 4101   1.743   2.939   2.820
 1068SOL     OW 4102   1.227   3.412   3.368
 1068SOL    HW1 4103   1.233   3.335   3.432
 1068SOL    HW2 4104   1.175   3.386   3.288
 1069SOL     OW 4105   0.321   2.805   2.104
 1069SOL    HW1 4106   0.403   2.844   2.062
 1069SOL    HW2 4107   0.294   2.723   2.055
 1070SOL     OW 4108   1.458   2.597   2.590
 1070SOL    HW1 4109   1.453   2.532   2.665
 1070SOL    HW2 4110   1.538   2.656   2.603
 1071SOL     OW 4111   0.461   3.128   3.589
 1071SOL    HW1 4112   0.411   3.129   3.503
 1071SOL    HW2 4113   0.398   3.110   3.665
 1072SOL     OW 4114   1.111   3.638   2.099
 1072SOL    HW1 4115   1.051   3.576   2.149
 1072SOL    HW2 4116   1.142   3.594   2.014
 1073SOL     OW 4117   0.202   2.147   3.360
 1073SOL    HW1 4118   0.122   2.207   3.347
 1073SOL    HW2 4119   0.192   2.098   3.446
 1074SOL     OW 4120   1.632   3.239   1.943
 1074SOL    HW1 4121   1.600   3.333   1.933
 1074SOL    HW2 4122   1.556   3.176   1.931
 1075SOL     OW 4123   0.464   3.605   2.185
 1075SOL    HW1 4124   0.497   3.644   2.271
 1075SOL    HW2 4125   0.540   3.598   2.120
 1076SOL     OW 4126   1.400   1.969   2.288
 1076SOL    HW1 4127   1.376   1.932   2.198
 1076SOL    HW2 4128   1.499   1.985   2.292
 1077SOL     OW 4129   0.249   3.647   3.103
 1077SOL    HW1 4130   0.306   3.582   3.153
 1077SOL    HW2 4131   0.233   3.614   3.010
 1078SOL     OW 4132   0.940   3.560   2.766
 1078SOL    HW1 4133   1.020   3.503   2.787
 1078SOL    HW2 4134   0.891   3.520   2.689
 1079SOL     OW 4135   0.382   2.562   2.342
 1079SOL    HW1 4136   0.427   2.472   2.339
 1079SOL    HW2 4137   0.288   2.551   2.375
 1080SOL     OW 4138   1.547   2.084   3.591
 1080SOL    HW1 4139   1.542   2.121   3.683
 1080SOL    HW2 4140   1.475   2.015   3.579
 1081SOL     OW 4141   0.614   1.984   1.979
 1081SOL    HW1 4142   0.712   1.962   1.986
 1081SOL    HW2 4143   0.583   1.967   1.886
 1082SOL     OW 4144   0.781   2.126   3.611
 1082SOL    HW1 4145   0.848   2.065   3.654
 1082SOL    HW2 4146   0.708   2.145   3.676
 1083SOL     OW 4147   0.888   3.376   3.057
 1083SOL    HW1 4148   0.865   3.351   2.963
 1083SOL    HW2 4149   0.949   3.307   3.096
 1084SOL     OW 4150   1.351   2.452   3.295
 1084SOL    HW1 4151   1.379   2.409   3.380
 1084SOL    HW2 4152   1.376   2.548   3.296
 1085SOL     OW 4153   0.803   3.264   2.786
 1085SOL    HW1 4154   0.893   3.278   2.744
 1085SOL    HW2 4155   0.732   3.266   2.715
 1086SOL     OW 4156   0.922   2.365   2.761
 1086SOL    HW1 4157   0.897   2.356   2.665
 1086SOL    HW2 4158   0.970   2.283   2.792
 1087SOL     OW 4159   0.539   1.926   2.374
 1087SOL    HW1 4160   0.458   1.927   2.432
 1087SOL    HW2 4161   0.542   2.009   2.319
 1088SOL     OW 4162   1.434   3.050   1.903
 1088SOL    HW1 4163   1.466   2.974   1.960
 1088SOL    HW2 4164   1.342   3.077   1.933
 1089SOL     OW 4165   0.297   1.897   2.033
 1089SOL    HW1 4166   0.346   1.981   2.012
 1089SOL    HW2 4167   0.359   1.832   2.078
 1090SOL     OW 4168   0.935   2.098   2.342
 1090SOL    HW1 4169   0.887   2.139   2.264
 1090SOL    HW2 4170   1.034   2.096   2.323
 1091SOL     OW 4171   1.076   2.545   3.326
 1091SOL    HW1 4172   0.996   2.484   3.329
 1091SOL    HW2 4173   1.157   2.492   3.302
 1092SOL     OW 4174   1.227   3.432   2.655
 1092SOL    HW1 4175   1.248   3.506   2.590
 1092SOL    HW2 4176   1.295   3.432   2.728
 1093SOL     OW 4177   0.459   3.014   2.603
 1093SOL    HW1 4178   0.388   2.987   2.668
 1093SOL    HW2 4179   0.433   2.986   2.510
 1094SOL     OW 4180   1.271   3.659   2.453
 1094SOL    HW1 4181   1.315   3.723   2.389
 1094SOL    HW2 4182   1.221   3.711   2.523
 1095SOL     OW 4183   1.032   2.411   1.878
 1095SOL    HW1 4184   0.991   2.493   1.839
 1095SOL    HW2 4185   1.096   2.437   1.951
 1096SOL     OW 4186   0.078   2.418   3.248
 1096SOL    HW1 4187   0.170   2.417   3.207
 1096SOL    HW2 4188   0.072   2.492   3.315
 1097SOL     OW 4189   0.561   2.084   3.009
 1097SOL    HW1 4190   0.599   2.000   3.046
 1097SOL    HW2 4191   0.473   2.103   3.053
 1098SOL     OW 4192   0.866   2.316   2.504
 1098SOL    HW1 4193   0.834   2.388   2.442
 1098SOL    HW2 4194   0.890   2.235   2.451
 1099SOL     OW 4195   1.017   1.901   2.615
 1099SOL    HW1 4196   0.945   1.906   2.546
 1099SOL    HW2 4197   0.993   1.832   2.684
 1100SOL     OW 4198   1.429   3.035   2.729
 1100SOL    HW1 4199   1.374   2.951   2.722
 1100SOL    HW2 4200   1.455   3.064   2.637
 1101SOL     OW 4201   1.466   2.452   2.854
 1101SOL    HW1 4202   1.436   2.357   2.861
 1101SOL    HW2 4203   1.539   2.468   2.920
 1102SOL     OW 4204   1.857   2.695   2.239
 1102SOL    HW1 4205   1.899   2.631   2.303
 1102SOL    HW2 4206   1.819   2.644   2.161
 1103SOL     OW 4207   0.488   3.247   2.036
 1103SOL    HW1 4208   0.401   3.232   2.083
 1103SOL    HW2 4209   0.471   3.273   1.941
 1104SOL     OW 4210   1.664   3.142   2.519
 1104SOL    HW1 4211   1.763   3.150   2.533
 1104SOL    HW2 4212   1.619   3.226   2.550
 1105SOL     OW 4213   1.390   2.437   1.940
 1105SOL    HW1 4214   1.336   2.416   2.021
 1105SOL    HW2 4215   1.481   2.396   1.949
 1106SOL     OW 4216   0.527   2.118   2.190
 1106SOL    HW1 4217   0.554   2.059   2.115
 1106SOL    HW2 4218   0.527   2.213   2.159
 1107SOL     OW 4219   1.754   3.085   3.450
 1107SOL    HW1 4220   1.845   3.046   3.437
 1107SOL    HW2 4221   1.762   3.181   3.474
 1108SOL     OW 4222   1.064   3.209   3.202
 1108SOL    HW1 4223   0.984   3.186   3.257
 1108SOL    HW2 4224   1.147   3.183   3.251
 1109SOL     OW 4225   1.592   3.491   3.487
 1109SOL    HW1 4226   1.619   3.525   3.397
 1109SOL    HW2 4227   1.671   3.453   3.533
 1110SOL     OW 4228   1.111   3.057   2.962
 1110SOL    HW1 4229   1.071   3.101   3.043
 1110SOL    HW2 4230   1.070   3.094   2.879
 1111SOL     OW 4231   1.638   2.961   2.941
 1111SOL    HW1 4232   1.643   3.042   3.000
 1111SOL    HW2 4233   1.552   2.963   2.890
 1112SOL     OW 4234   0.915   1.951   3.264
 1112SOL    HW1 4235   0.940   1.931   3.169
 1112SOL    HW2 4236   0.987   2.007   3.306
 1113SOL     OW 4237   0.980   2.978   3.581
 1113SOL    HW1 4238   0.881   2.984   3.591
 1113SOL    HW2 4239   1.003   2.898   3.525
 1114SOL     OW 4240   0.705   2.912   2.230
 1114SOL    HW1 4241   0.691   2.919   2.329
 1114SOL    HW2 4242   0.789   2.861   2.212
 1115SOL     OW 4243   0.410   2.675   3.113
 1115SOL    HW1 4244   0.496   2.687   3.163
 1115SOL    HW2 4245   0.368   2.588   3.140
 1116SOL     OW 4246   1.274   2.248   3.124
 1116SOL    HW1 4247   1.295   2.322   3.188
 1116SOL    HW2 4248   1.185   2.265   3.081
 1117SOL     OW 4249   0.064   3.426   3.193
 1117SOL    HW1 4250   0.018   3.508   3.159
 1117SOL    HW2 4251   0.162   3.445   3.202
 1118SOL     OW 4252   0.367   2.962   2.363
 1118SOL    HW1 4253   0.360   3.045   2.307
 1118SOL    HW2 4254   0.371   2.882   2.303
 1119SOL     OW 4255   0.566   2.399   2.727
 1119SOL    HW1 4256   0.578   2.465   2.653
 1119SOL    HW2 4257   0.612   2.433   2.810
 1120SOL     OW 4258   1.252   3.210   2.250
 1120SOL    HW1 4259   1.302   3.287   2.290
 1120SOL    HW2 4260   1.157   3.212   2.282
 1121SOL     OW 4261   1.272   3.307   3.004
 1121SOL    HW1 4262   1.319   3.320   3.091
 1121SOL    HW2 4263   1.206   3.233   3.013
 1122SOL     OW 4264   1.582   2.501   2.334
 1122SOL    HW1 4265   1.551   2.562   2.407
 1122SOL    HW2 4266   1.632   2.553   2.265
 1123SOL     OW 4267   0.354   3.372   3.191
 1123SOL    HW1 4268   0.333   3.328   3.104
 1123SOL    HW2 4269   0.451   3.398   3.194
 1124SOL     OW 4270   0.402   2.613   3.460
 1124SOL    HW1 4271   0.470   2.668   3.413
 1124SOL    HW2 4272   0.442   2.525   3.487
 1125SOL     OW 4273   1.587   2.641   3.532
 1125SOL    HW1 4274   1.495   2.679   3.527
 1125SOL    HW2 4275   1.647   2.688   3.467
 1126SOL     OW 4276   1.013   1.967   3.632
 1126SOL    HW1 4277   1.019   2.052   3.580
 1126SOL    HW2 4278   1.045   1.891   3.575
 1127SOL     OW 4279   0.504   1.912   3.602
 1127SOL    HW1 4280   0.462   1.855   3.532
 1127SOL    HW2 4281   0.438   1.981   3.634
 1128SOL     OW 4282   0.573   2.732   2.891
 1128SOL    HW1 4283   0.617   2.821   2.882
 1128SOL    HW2 4284   0.510   2.732   2.968
 1129SOL     OW 4285   1.360   2.724   2.907
 1129SOL    HW1 4286   1.285   2.724   2.841
 1129SOL    HW2 4287   1.397   2.632   2.916
 1130SOL     OW 4288   1.209   2.387   2.137
 1130SOL    HW1 4289   1.222   2.303   2.191
 1130SOL    HW2 4290   1.180   2.461   2.197
 1131SOL     OW 4291   0.307   2.075   3.093
 1131SOL    HW1 4292   0.284   2.112   3.183
 1131SOL    HW2 4293   0.277   1.980   3.087
 1132SOL     OW 4294   0.037   3.172   3.144
 1132SOL    HW1 4295   0.090   3.123   3.212
 1132SOL    HW2 4296   0.059   3.270   3.149
 1133SOL     OW 4297   0.732   2.496   2.926
 1133SOL    HW1 4298   0.791   2.470   2.850
 1133SOL    HW2 4299   0.704   2.592   2.915
 1134SOL     OW 4300   1.728   2.797   3.716
 1134SOL    HW1 4301   1.682   2.790   3.627
 1134SOL    HW2 4302   1.666   2.841   3.782
 1135SOL     OW 4303   0.307   1.925   2.480
 1135SOL    HW1 4304   0.296   2.019   2.513
 1135SOL    HW2 4305   0.302   1.862   2.557
 1136SOL     OW 4306   1.622   2.229   2.236
 1136SOL    HW1 4307   1.624   2.153   2.300
 1136SOL    HW2 4308   1.574   2.306   2.276
 1137SOL     OW 4309   1.023   2.628   2.828
 1137SOL    HW1 4310   1.038   2.649   2.924
 1137SOL    HW2 4311   0.993   2.533   2.819
 1138SOL     OW 4312   0.980   3.435   3.562
 1138SOL    HW1 4313   0.960   3.479   3.474
 1138SOL    HW2 4314   1.019   3.344   3.546
 1139SOL     OW 4315   1.859   3.380   3.467
 1139SOL    HW1 4316   1.873   3.407   3.372
 1139SOL    HW2 4317   1.942   3.402   3.520
 1140SOL     OW 4318   0.350   2.760   3.666
 1140SOL    HW1 4319   0.426   2.804   3.714
 1140SOL    HW2 4320   0.385   2.713   3.584
 1141SOL     OW 4321   1.540   2.136   1.987
 1141SOL    HW1 4322   1.479   2.061   2.010
 1141SOL    HW2 4323   1.562   2.188   2.070
 1142SOL     OW 4324   1.303   2.700   1.904
 1142SOL    HW1 4325   1.337   2.607   1.919
 1142SOL    HW2 4326   1.321   2.727   1.809
 1143SOL     OW 4327   1.068   3.195   2.711
 1143SOL    HW1 4328   1.075   3.111   2.656
 1143SOL    HW2 4329   1.130   3.264   2.675
 1144SOL     OW 4330   0.319   2.672   2.811
 1144SOL    HW1 4331   0.412   2.708   2.816
 1144SOL    HW2 4332   0.313   2.587   2.863
 1145SOL     OW 4333   0.339   2.371   2.868
 1145SOL    HW1 4334   0.287   2.288   2.851
 1145SOL    HW2 4335   0.416   2.376   2.804
 1146SOL     OW 4336   1.138   2.242   3.540
 1146SOL    HW1 4337   1.093   2.305   3.604
 1146SOL    HW2 4338   1.231   2.273   3.523
 1147SOL     OW 4339   1.160   2.069   3.339
 1147SOL    HW1 4340   1.160   2.133   3.416
 1147SOL    HW2 4341   1.188   2.117   3.256
 1148SOL     OW 4342   0.008   3.188   2.062
 1148SOL    HW1 4343  -0.085   3.209   2.031
 1148SOL    HW2 4344   0.018   3.089   2.075
 1149SOL     OW 4345   0.088   3.663   2.789
 1149SOL    HW1 4346   0.046   3.577   2.762
 1149SOL    HW2 4347   0.182   3.666   2.755
 1150SOL     OW 4348   0.504   3.430   2.772
 1150SOL    HW1 4349   0.570   3.504   2.781
 1150SOL    HW2 4350   0.548   3.351   2.730
 1151SOL     OW 4351   1.002   2.658   3.100
 1151SOL    HW1 4352   1.043   2.626   3.186
 1151SOL    HW2 4353   0.906   2.631   3.097
 1152SOL     OW 4354   0.040   2.406   2.976
 1152SOL    HW1 4355   0.125   2.373   2.935
 1152SOL    HW2 4356   0.053   2.421   3.074
 1153SOL     OW 4357   0.189   2.382   3.584
 1153SOL    HW1 4358   0.248   2.342   3.514
 1153SOL    HW2 4359   0.131   2.453   3.543
 1154SOL     OW 4360   1.369   2.812   3.522
 1154SOL    HW1 4361   1.408   2.901   3.542
 1154SOL    HW2 4362   1.379   2.792   3.425
 1155SOL     OW 4363   0.815   2.434   2.187
 1155SOL    HW1 4364   0.822   2.345   2.141
 1155SOL    HW2 4365   0.721   2.468   2.179
 1156SOL     OW 4366   1.657   2.466   3.068
 1156SOL    HW1 4367   1.619   2.397   3.130
 1156SOL    HW2 4368   1.739   2.430   3.024
 1157SOL     OW 4369   0.252   3.426   3.606
 1157SOL    HW1 4370   0.222   3.483   3.682
 1157SOL    HW2 4371   0.245   3.329   3.632
 1158SOL     OW 4372   0.671   2.326   3.131
 1158SOL    HW1 4373   0.637   2.237   3.101
 1158SOL    HW2 4374   0.697   2.380   3.051
 1159SOL     OW 4375   0.930   3.540   3.327
 1159SOL    HW1 4376   0.906   3.522   3.232
 1159SOL    HW2 4377   0.960   3.634   3.337
 1160SOL     OW 4378   0.473   2.362   2.053
 1160SOL    HW1 4379   0.534   2.442   2.057
 1160SOL    HW2 4380   0.378   2.393   2.060
 1161SOL     OW 4381   0.159   2.999   3.328
 1161SOL    HW1 4382   0.181   2.938   3.404
 1161SOL    HW2 4383   0.169   2.950   3.242
 1162SOL     OW 4384   1.347   2.921   3.096
 1162SOL    HW1 4385   1.371   2.858   3.022
 1162SOL    HW2 4386   1.257   2.961   3.078
 1163SOL     OW 4387   1.302   2.717   2.171
 1163SOL    HW1 4388   1.216   2.686   2.213
 1163SOL    HW2 4389   1.298   2.703   2.072
 1164SOL     OW 4390   1.759   3.609   3.016
 1164SOL    HW1 4391   1.820   3.639   2.943
 1164SOL    HW2 4392   1.721   3.520   2.994
 1165SOL     OW 4393   1.252   3.593   2.990
 1165SOL    HW1 4394   1.336   3.598   2.936
 1165SOL    HW2 4395   1.229   3.497   3.008
 1166SOL     OW 4396   0.083   3.120   2.884
 1166SOL    HW1 4397   0.078   3.119   2.984
 1166SOL    HW2 4398   0.000   3.079   2.846
 1167SOL     OW 4399   0.688   3.524   3.578
 1167SOL    HW1 4400   0.632   3.605   3.587
 1167SOL    HW2 4401   0.740   3.528   3.492
 1168SOL     OW 4402   1.726   1.997   2.385
 1168SOL    HW1 4403   1.799   1.980   2.318
 1168SOL    HW2 4404   1.695   1.910   2.423
 1169SOL     OW 4405   1.388   3.435   2.339
 1169SOL    HW1 4406   1.455   3.447   2.265
 1169SOL    HW2 4407   1.348   3.524   2.362
 1170SOL     OW 4408   0.130   3.656   3.713
 1170SOL    HW1 4409   0.089   3.582   3.766
 1170SOL    HW2 4410   0.194   3.707   3.771
 1171SOL     OW 4411   1.280   2.789   2.534
 1171SOL    HW1 4412   1.340   2.708   2.536
 1171SOL    HW2 4413   1.320   2.858   2.474
 1172SOL     OW 4414   0.830   3.135   3.284
 1172SOL    HW1 4415   0.825   3.168   3.379
 1172SOL    HW2 4416   0.744   3.154   3.238
 1173SOL     OW 4417   0.672   3.478   2.016
 1173SOL    HW1 4418   0.681   3.488   1.917
 1173SOL    HW2 4419   0.632   3.389   2.037
 1174SOL     OW 4420   1.650   3.582   3.256
 1174SOL    HW1 4421   1.703   3.592   3.172
 1174SOL    HW2 4422   1.623   3.672   3.290
 1175SOL     OW 4423   1.841   2.037   2.825
 1175SOL    HW1 4424   1.880   1.952   2.789
 1175SOL    HW2 4425   1.743   2.039   2.806
 1176SOL     OW 4426   0.263   2.188   2.582
 1176SOL    HW1 4427   0.184   2.239   2.548
 1176SOL    HW2 4428   0.254   2.173   2.680
 1177SOL     OW 4429   1.194   3.474   1.893
 1177SOL    HW1 4430   1.200   3.381   1.930
 1177SOL    HW2 4431   1.135   3.474   1.813
 1178SOL     OW 4432   0.822   2.864   3.234
 1178SOL    HW1 4433   0.862   2.863   3.142
 1178SOL    HW2 4434   0.832   2.956   3.274
 1179SOL     OW 4435   0.916   2.772   2.153
 1179SOL    HW1 4436   0.979   2.810   2.085
 1179SOL    HW2 4437   0.956   2.689   2.192
 1180SOL     OW 4438   1.504   3.469   1.906
 1180SOL    HW1 4439   1.412   3.506   1.913
 1180SOL    HW2 4440   1.542   3.489   1.816
 1181SOL     OW 4441   0.372   3.150   3.352
 1181SOL    HW1 4442   0.359   3.243   3.318
 1181SOL    HW2 4443   0.288   3.098   3.339
 1182SOL     OW 4444   1.614   3.154   3.151
 1182SOL    HW1 4445   1.674   3.157   3.231
 1182SOL    HW2 4446   1.539   3.218   3.164
 1183SOL     OW 4447   1.039   2.960   2.558
 1183SOL    HW1 4448   0.969   2.913   2.612
 1183SOL    HW2 4449   1.098   2.892   2.515
 1184SOL     OW 4450   1.014   2.098   2.833
 1184SOL    HW1 4451   1.006   2.062   2.740
 1184SOL    HW2 4452   1.012   2.022   2.898
 1185SOL     OW 4453   0.590   3.349   2.353
 1185SOL    HW1 4454   0.632   3.291   2.283
 1185SOL    HW2 4455   0.546   3.428   2.309
 1186SOL     OW 4456   1.709   2.247   3.243
 1186SOL    HW1 4457   1.782   2.316   3.247
 1186SOL    HW2 4458   1.737   2.172   3.184
 1187SOL     OW 4459   0.255   3.210   2.152
 1187SOL    HW1 4460   0.159   3.211   2.125
 1187SOL    HW2 4461   0.267   3.263   2.236
 1188SOL     OW 4462   0.105   2.875   3.588
 1188SOL    HW1 4463   0.028   2.842   3.642
 1188SOL    HW2 4464   0.190   2.845   3.630
 1189SOL     OW 4465   0.672   2.065   3.351
 1189SOL    HW1 4466   0.762   2.049   3.311
 1189SOL    HW2 4467   0.680   2.070   3.450
 1190SOL     OW 4468   0.075   2.207   1.895
 1190SOL    HW1 4469  -0.017   2.179   1.866
 1190SOL    HW2 4470   0.106   2.284   1.839
 1191SOL     OW 4471   1.440   2.718   3.260
 1191SOL    HW1 4472   1.383   2.770   3.197
 1191SOL    HW2 4473   1.536   2.730   3.236
 1192SOL     OW 4474   0.072   2.028   2.180
 1192SOL    HW1 4475   0.055   2.111   2.126
 1192SOL    HW2 4476   0.162   1.991   2.158
 1193SOL     OW 4477   1.183   3.197   1.981
 1193SOL    HW1 4478   1.084   3.186   1.983
 1193SOL    HW2 4479   1.217   3.212   2.074
 1194SOL     OW 4480   0.613   2.704   3.293
 1194SOL    HW1 4481   0.669   2.785   3.276
 1194SOL    HW2 4482   0.672   2.624   3.296
 1195SOL     OW 4483   1.493   3.629   2.821
 1195SOL    HW1 4484   1.526   3.693   2.752
 1195SOL    HW2 4485   1.559   3.623   2.896
 1196SOL     OW 4486   0.716   2.427   3.570
 1196SOL    HW1 4487   0.735   2.492   3.644
 1196SOL    HW2 4488   0.776   2.347   3.579
 1197SOL     OW 4489   1.450   3.082   3.495
 1197SOL    HW1 4490   1.441   3.072   3.594
 1197SOL    HW2 4491   1.546   3.075   3.469
 1198SOL     OW 4492   0.390   3.603   3.422
 1198SOL    HW1 4493   0.299   3.644   3.420
 1198SOL    HW2 4494   0.383   3.509   3.454
 1199SOL     OW 4495   1.674   2.745   3.116
 1199SOL    HW1 4496   1.647   2.656   3.079
 1199SOL    HW2 4497   1.675   2.813   3.043
 1200SOL     OW 4498   1.225   2.187   2.311
 1200SOL    HW1 4499   1.290   2.113   2.300
 1200SOL    HW2 4500   1.245   2.237   2.395
 1201SOL     OW 4501   0.594   2.607   2.514
 1201SOL    HW1 4502   0.644   2.692   2.495
 1201SOL    HW2 4503   0.506   2.609   2.466
 1202SOL     OW 4504   1.777   2.204   3.504
 1202SOL    HW1 4505   1.760   2.235   3.410
 1202SOL    HW2 4506   1.693   2.167   3.542
 1203SOL     OW 4507   1.730   2.796   3.379
 1203SOL    HW1 4508   1.768   2.887   3.394
 1203SOL    HW2 4509   1.722   2.779   3.280
 1204SOL     OW 4510   0.859   3.236   1.878
 1204SOL    HW1 4511   0.813   3.251   1.966
 1204SOL    HW2 4512   0.903   3.321   1.848
 1205SOL     OW 4513   0.661   3.652   2.815
 1205SOL    HW1 4514   0.615   3.740   2.802
 1205SOL    HW2 4515   0.760   3.664   2.808
 1206SOL     OW 4516   0.859   2.818   2.723
 1206SOL    HW1 4517   0.913   2.749   2.771
 1206SOL    HW2 4518   0.827   2.887   2.789
 1207SOL     OW 4519   1.083   2.846   1.949
 1207SOL    HW1 4520   1.060   2.899   1.867
 1207SOL    HW2 4521   1.164   2.790   1.930
 1208SOL     OW 4522   1.861   3.431   2.713
 1208SOL    HW1 4523   1.790   3.419   2.643
 1208SOL    HW2 4524   1.862   3.352   2.773
 1209SOL     OW 4525   0.221   3.176   3.706
 1209SOL    HW1 4526   0.156   3.103   3.685
 1209SOL    HW2 4527   0.225   3.190   3.804
 1210SOL     OW 4528   0.079   3.102   2.515
 1210SOL    HW1 4529   0.078   3.055   2.603
 1210SOL    HW2 4530   0.161   3.074   2.464
 1211SOL     OW 4531   0.672   3.253   3.486
 1211SOL    HW1 4532   0.594   3.203   3.524
 1211SOL    HW2 4533   0.669   3.348   3.517
 1212SOL     OW 4534   1.824   2.054   3.089
 1212SOL    HW1 4535   1.820   1.964   3.133
 1212SOL    HW2 4536   1.827   2.043   2.990
 1213SOL     OW 4537   0.428   2.286   2.382
 1213SOL    HW1 4538   0.458   2.214   2.320
 1213SOL    HW2 4539   0.389   2.246   2.465
 1214SOL     OW 4540   1.705   3.349   2.966
 1214SOL    HW1 4541   1.612   3.324   2.939
 1214SOL    HW2 4542   1.731   3.299   3.048
 1215SOL     OW 4543   0.317   2.409   3.142
 1215SOL    HW1 4544   0.355   2.350   3.214
 1215SOL    HW2 4545   0.357   2.383   3.054
 1216SOL     OW 4546   0.812   3.448   2.549
 1216SOL    HW1 4547   0.844   3.458   2.455
 1216SOL    HW2 4548   0.733   3.386   2.551
 1217SOL     OW 4549   1.424   2.076   2.974
 1217SOL    HW1 4550   1.476   2.011   3.029
 1217SOL    HW2 4551   1.375   2.139   3.035
 1218SOL     OW 4552   1.001   1.896   3.016
 1218SOL    HW1 4553   0.938   1.824   2.985
 1218SOL    HW2 4554   1.094   1.860   3.016
 1219SOL     OW 4555   0.770   3.192   2.163
 1219SOL    HW1 4556   0.724   3.105   2.180
 1219SOL    HW2 4557   0.861   3.189   2.204
 1220SOL     OW 4558   0.618   3.429   3.146
 1220SOL    HW1 4559   0.613   3.511   3.203
 1220SOL    HW2 4560   0.707   3.426   3.101
 1221SOL     OW 4561   1.352   1.914   2.030
 1221SOL    HW1 4562   1.387   1.873   1.946
 1221SOL    HW2 4563   1.262   1.876   2.050
 1222SOL     OW 4564   1.300   2.315   2.553
 1222SOL    HW1 4565   1.241   2.395   2.557
 1222SOL    HW2 4566   1.315   2.280   2.646
 1223SOL     OW 4567   1.593   2.083   2.744
 1223SOL    HW1 4568   1.509   2.082   2.798
 1223SOL    HW2 4569   1.595   2.166   2.688
 1224SOL     OW 4570   0.039   2.939   2.162
 1224SOL    HW1 4571   0.138   2.928   2.153
 1224SOL    HW2 4572  -0.001   2.853   2.194
 1225SOL     OW 4573   0.875   3.508   2.199
 1225SOL    HW1 4574   0.798   3.473   2.145
 1225SOL    HW2 4575   0.843   3.579   2.261
 1226SOL     OW 4576   0.230   2.490   3.837
 1226SOL    HW1 4577   0.137   2.488   3.874
 1226SOL    HW2 4578   0.231   2.451   3.745
 1227SOL     OW 4579   0.225   2.137   4.720
 1227SOL    HW1 4580   0.260   2.120   4.812
 1227SOL    HW2 4581   0.137   2.092   4.708
 1228SOL     OW 4582   0.019   2.230   4.371
 1228SOL    HW1 4583  -0.063   2.273   4.410
 1228SOL    HW2 4584  -0.009   2.157   4.308
 1229SOL     OW 4585   0.569   3.137   4.889
 1229SOL    HW1 4586   0.476   3.130   4.852
 1229SOL    HW2 4587   0.580   3.226   4.933
 1230SOL     OW 4588   1.555   3.373   4.427
 1230SOL    HW1 4589   1.498   3.357   4.508
 1230SOL    HW2 4590   1.496   3.383   4.347
 1231SOL     OW 4591   1.135   2.565   4.441
 1231SOL    HW1 4592   1.192   2.643   4.416
 1231SOL    HW2 4593   1.075   2.591   4.517
 1232SOL     OW 4594   1.755   2.469   3.955
 1232SOL    HW1 4595   1.743   2.456   3.856
 1232SOL    HW2 4596   1.725   2.388   4.004
 1233SOL     OW 4597   0.768   3.006   4.747
 1233SOL    HW1 4598   0.690   3.023   4.807
 1233SOL    HW2 4599   0.802   3.093   4.711
 1234SOL     OW 4600   0.850   2.660   5.547
 1234SOL    HW1 4601   0.846   2.736   5.612
 1234SOL    HW2 4602   0.872   2.696   5.456
 1235SOL     OW 4603   0.685   2.874   4.389
 1235SOL    HW1 4604   0.754   2.858   4.459
 1235SOL    HW2 4605   0.612   2.931   4.427
 1236SOL     OW 4606   0.686   3.023   5.527
 1236SOL    HW1 4607   0.746   3.102   5.541
 1236SOL    HW2 4608   0.600   3.054   5.486
 1237SOL     OW 4609   0.335   3.297   4.785
 1237SOL    HW1 4610   0.257   3.266   4.732
 1237SOL    HW2 4611   0.393   3.355   4.728
 1238SOL     OW 4612   1.460   3.367   5.063
 1238SOL    HW1 4613   1.484   3.461   5.089
 1238SOL    HW2 4614   1.444   3.313   5.145
 1239SOL     OW 4615   0.438   2.254   5.223
 1239SOL    HW1 4616   0.520   2.198   5.232
 1239SOL    HW2 4617   0.357   2.196   5.227
 1240SOL     OW 4618   1.603   2.309   4.461
 1240SOL    HW1 4619   1.529   2.355   4.411
 1240SOL    HW2 4620   1.654   2.377   4.514
 1241SOL     OW 4621   0.231   3.575   4.207
 1241SOL    HW1 4622   0.265   3.652   4.261
 1241SOL    HW2 4623   0.275   3.575   4.117
 1242SOL     OW 4624   1.127   3.203   5.414
 1242SOL    HW1 4625   1.174   3.203   5.502
 1242SOL    HW2 4626   1.079   3.116   5.403
 1243SOL     OW 4627   0.230   3.296   4.262
 1243SOL    HW1 4628   0.204   3.392   4.262
 1243SOL    HW2 4629   0.159   3.242   4.307
 1244SOL     OW 4630   0.240   2.953   4.610
 1244SOL    HW1 4631   0.254   2.869   4.662
 1244SOL    HW2 4632   0.185   3.017   4.665
 1245SOL     OW 4633   0.620   3.648   5.163
 1245SOL    HW1 4634   0.528   3.631   5.198
 1245SOL    HW2 4635   0.648   3.740   5.189
 1246SOL     OW 4636   0.606   2.826   3.847
 1246SOL    HW1 4637   0.613   2.910   3.793
 1246SOL    HW2 4638   0.652   2.839   3.935
 1247SOL     OW 4639   1.594   1.976   5.204
 1247SOL    HW1 4640   1.576   2.043   5.132
 1247SOL    HW2 4641   1.591   2.022   5.293
 1248SOL     OW 4642   0.122   2.505   4.287
 1248SOL    HW1 4643   0.077   2.417   4.304
 1248SOL    HW2 4644   0.121   2.559   4.371
 1249SOL     OW 4645   1.842   3.629   4.083
 1249SOL    HW1 4646   1.896   3.600   4.163
 1249SOL    HW2 4647   1.872   3.719   4.054
 1250SOL     OW 4648   0.027   3.458   3.841
 1250SOL    HW1 4649   0.008   3.362   3.862
 1250SOL    HW2 4650  -0.006   3.516   3.916
 1251SOL     OW 4651   1.689   2.784   4.336
 1251SOL    HW1 4652   1.784   2.755   4.344
 1251SOL    HW2 4653   1.681   2.849   4.261
 1252SOL     OW 4654   1.641   2.970   4.156
 1252SOL    HW1 4655   1.727   2.972   4.104
 1252SOL    HW2 4656   1.655   3.017   4.244
 1253SOL     OW 4657   0.113   2.599   5.321
 1253SOL    HW1 4658   0.201   2.586   5.366
 1253SOL    HW2 4659   0.100   2.696   5.299
 1254SOL     OW 4660   0.613   3.227   4.450
 1254SOL    HW1 4661   0.564   3.140   4.459
 1254SOL    HW2 4662   0.590   3.270   4.363
 1255SOL     OW 4663   1.293   3.090   5.147
 1255SOL    HW1 4664   1.330   3.017   5.089
 1255SOL    HW2 4665   1.345   3.095   5.232
 1256SOL     OW 4666   0.809   1.866   4.226
 1256SOL    HW1 4667   0.849   1.957   4.217
 1256SOL    HW2 4668   0.709   1.874   4.232
 1257SOL     OW 4669   0.197   2.838   4.988
 1257SOL    HW1 4670   0.286   2.793   4.974
 1257SOL    HW2 4671   0.124   2.773   4.969
 1258SOL     OW 4672   1.525   2.861   3.914
 1258SOL    HW1 4673   1.462   2.785   3.927
 1258SOL    HW2 4674   1.573   2.879   4.000
 1259SOL     OW 4675   1.187   3.654   5.340
 1259SOL    HW1 4676   1.211   3.714   5.264
 1259SOL    HW2 4677   1.194   3.559   5.310
 1260SOL     OW 4678   0.317   2.113   5.525
 1260SOL    HW1 4679   0.388   2.184   5.531
 1260SOL    HW2 4680   0.229   2.152   5.553
 1261SOL     OW 4681   1.466   3.279   4.677
 1261SOL    HW1 4682   1.407   3.285   4.757
 1261SOL    HW2 4683   1.451   3.191   4.631
 1262SOL     OW 4684   1.667   3.576   4.296
 1262SOL    HW1 4685   1.626   3.553   4.208
 1262SOL    HW2 4686   1.649   3.502   4.361
 1263SOL     OW 4687   0.598   2.591   3.994
 1263SOL    HW1 4688   0.622   2.660   3.926
 1263SOL    HW2 4689   0.520   2.624   4.048
 1264SOL     OW 4690   1.281   2.207   4.668
 1264SOL    HW1 4691   1.195   2.157   4.655
 1264SOL    HW2 4692   1.343   2.153   4.724
 1265SOL     OW 4693   1.576   3.524   4.031
 1265SOL    HW1 4694   1.665   3.570   4.034
 1265SOL    HW2 4695   1.555   3.500   3.936
 1266SOL     OW 4696   0.807   2.467   5.189
 1266SOL    HW1 4697   0.760   2.464   5.278
 1266SOL    HW2 4698   0.756   2.412   5.123
 1267SOL     OW 4699   1.394   2.331   5.398
 1267SOL    HW1 4700   1.374   2.374   5.486
 1267SOL    HW2 4701   1.472   2.269   5.407
 1268SOL     OW 4702   0.973   2.752   5.296
 1268SOL    HW1 4703   1.019   2.668   5.267
 1268SOL    HW2 4704   0.917   2.786   5.221
 1269SOL     OW 4705   0.991   2.272   4.966
 1269SOL    HW1 4706   0.914   2.306   5.020
 1269SOL    HW2 4707   0.957   2.221   4.887
 1270SOL     OW 4708   1.041   2.563   4.153
 1270SOL    HW1 4709   1.067   2.559   4.249
 1270SOL    HW2 4710   0.956   2.512   4.139
 1271SOL     OW 4711   0.076   2.673   4.513
 1271SOL    HW1 4712   0.175   2.661   4.522
 1271SOL    HW2 4713   0.052   2.768   4.534
 1272SOL     OW 4714   0.130   3.683   5.295
 1272SOL    HW1 4715   0.120   3.668   5.394
 1272SOL    HW2 4716   0.044   3.719   5.259
 1273SOL     OW 4717   0.865   2.210   3.919
 1273SOL    HW1 4718   0.924   2.273   3.870
 1273SOL    HW2 4719   0.884   2.116   3.890
 1274SOL     OW 4720   1.719   2.447   5.555
 1274SOL    HW1 4721   1.693   2.536   5.519
 1274SOL    HW2 4722   1.717   2.379   5.482
 1275SOL     OW 4723   1.362   3.006   4.269
 1275SOL    HW1 4724   1.445   2.977   4.221
 1275SOL    HW2 4725   1.313   3.073   4.213
 1276SOL     OW 4726   0.550   2.058   4.609
 1276SOL    HW1 4727   0.545   2.053   4.709
 1276SOL    HW2 4728   0.552   2.154   4.580
 1277SOL     OW 4729   1.008   3.318   4.201
 1277SOL    HW1 4730   0.962   3.390   4.149
 1277SOL    HW2 4731   1.004   3.338   4.299
 1278SOL     OW 4732   0.351   3.663   4.577
 1278SOL    HW1 4733   0.401   3.577   4.583
 1278SOL    HW2 4734   0.416   3.740   4.574
 1279SOL     OW 4735   1.795   2.928   4.597
 1279SOL    HW1 4736   1.733   2.913   4.521
 1279SOL    HW2 4737   1.743   2.939   4.682
 1280SOL     OW 4738   1.227   3.412   5.230
 1280SOL    HW1 4739   1.233   3.335   5.294
 1280SOL    HW2 4740   1.175   3.386   5.150
 1281SOL     OW 4741   0.321   2.805   3.966
 1281SOL    HW1 4742   0.403   2.844   3.924
 1281SOL    HW2 4743   0.294   2.723   3.917
 1282SOL     OW 4744   1.458   2.597   4.452
 1282SOL    HW1 4745   1.453   2.532   4.527
 1282SOL    HW2 4746   1.538   2.656   4.465
 1283SOL     OW 4747   0.461   3.128   5.451
 1283SOL    HW1 4748   0.411   3.129   5.365
 1283SOL    HW2 4749   0.398   3.110   5.527
 1284SOL     OW 4750   1.111   3.638   3.961
 1284SOL    HW1 4751   1.051   3.576   4.011
 1284SOL    HW2 4752   1.142   3.594   3.876
 1285SOL     OW 4753   0.202   2.147   5.222
 1285SOL    HW1 4754   0.122   2.207   5.209
 1285SOL    HW2 4755   0.192   2.098   5.308
 1286SOL     OW 4756   1.632   3.239   3.805
 1286SOL    HW1 4757   1.600   3.333   3.795
 1286SOL    HW2 4758   1.556   3.176   3.793
 1287SOL     OW 4759   0.464   3.605   4.047
 1287SOL    HW1 4760   0.497   3.644   4.133
 1287SOL    HW2 4761   0.540   3.598   3.982
 1288SOL     OW 4762   1.400   1.969   4.150
 1288SOL    HW1 4763   1.376   1.932   4.060
 1288SOL    HW2 4764   1.499   1.985   4.154
 1289SOL     OW 4765   0.249   3.647   4.965
 1289SOL    HW1 4766   0.306   3.582   5.015
 1289SOL    HW2 4767   0.233   3.614   4.872
 1290SOL     OW 4768   0.940   3.560   4.628
 1290SOL    HW1 4769   1.020   3.503   4.649
 1290SOL    HW2 4770   0.891   3.520   4.551
 1291SOL     OW 4771   0.382   2.562   4.204
 1291SOL    HW1 4772   0.427   2.472   4.201
 1291SOL    HW2 4773   0.288   2.551   4.237
 1292SOL     OW 4774   1.547   2.084   5.453
 1292SOL    HW1 4775   1.542   2.121   5.545
 1292SOL    HW2 4776   1.475   2.015   5.441
 1293SOL     OW 4777   0.614   1.984   3.841
 1293SOL    HW1 4778   0.712   1.962   3.848
 1293SOL    HW2 4779   0.583   1.967   3.748
 1294SOL     OW 4780   0.781   2.126   5.473
 1294SOL    HW1 4781   0.848   2.065   5.516
 1294SOL    HW2 4782   0.708   2.145   5.538
 1295SOL     OW 4783   0.888   3.376   4.919
 1295SOL    HW1 4784   0.865   3.351   4.825
 1295SOL    HW2 4785   0.949   3.307   4.958
 1296SOL     OW 4786   1.351   2.452   5.157
 1296SOL    HW1 4787   1.379   2.409   5.242
 1296SOL    HW2 4788   1.376   2.548   5.158
 1297SOL     OW 4789   0.803   3.264   4.648
 1297SOL    HW1 4790   0.893   3.278   4.606
 1297SOL    HW2 4791   0.732   3.266   4.577
 1298SOL     OW 4792   0.922   2.365   4.623
 1298SOL    HW1 4793   0.897   2.356   4.527
 1298SOL    HW2 4794   0.970   2.283   4.654
 1299SOL     OW 4795   0.539   1.926   4.236
 1299SOL    HW1 4796   0.458   1.927   4.294
 1299SOL    HW2 4797   0.542   2.009   4.181
 1300SOL     OW 4798   1.434   3.050   3.765
 1300SOL    HW1 4799   1.466   2.974   3.822
 1300SOL    HW2 4800   1.342   3.077   3.795
 1301SOL     OW 4801   0.297   1.897   3.895
 1301SOL    HW1 4802   0.346   1.981   3.874
 1301SOL    HW2 4803   0.359   1.832   3.940
 1302SOL     OW 4804   0.935   2.098   4.204
 1302SOL    HW1 4805   0.887   2.139   4.126
 1302SOL    HW2 4806   1.034   2.096   4.185
 1303SOL     OW 4807   1.076   2.545   5.188
 1303SOL    HW1 4808   0.996   2.484   5.191
 1303SOL    HW2 4809   1.157   2.492   5.164
 1304SOL     OW 4810   1.227   3.432   4.517
 1304SOL    HW1 4811   1.248   3.506   4.452
 1304SOL    HW2 4812   1.295   3.432   4.590
 1305SOL     OW 4813   0.459   3.014   4.465
 1305SOL    HW1 4814   0.388   2.987   4.530
 1305SOL    HW2 4815   0.433   2.986   4.372
 1306SOL     OW 4816   1.271   3.659   4.315
 1306SOL    HW1 4817   1.315   3.723   4.251
 1306SOL    HW2 4818   1.221   3.711   4.385
 1307SOL     OW 4819   1.032   2.411   3.740
 1307SOL    HW1 4820   0.991   2.493   3.701
 1307SOL    HW2 4821   1.096   2.437   3.813
 1308SOL     OW 4822   0.078   2.418   5.110
 1308SOL    HW1 4823   0.170   2.417   5.069
 1308SOL    HW2 4824   0.072   2.492   5.177
 1309SOL     OW 4825   0.561   2.084   4.871
 1309SOL    HW1 4826   0.599   2.000   4.908
 1309SOL    HW2 4827   0.473   2.103   4.915
 1310SOL     OW 4828   0.866   2.316   4.366
 1310SOL    HW1 4829   0.834   2.388   4.304
 1310SOL    HW2 4830   0.890   2.235   4.313
 1311SOL     OW 4831   1.017   1.901   4.477
 1311SOL    HW1 4832   0.945   1.906   4.408
 1311SOL    HW2 4833   0.993   1.832   4.546
 1312SOL     OW 4834   1.429   3.035   4.591
 1312SOL    HW1 4835   1.374   2.951   4.584
 1312SOL    HW2 4836   1.455   3.064   4.499
 1313SOL     OW 4837   1.466   2.452   4.716
 1313SOL    HW1 4838   1.436   2.357   4.723
 1313SOL    HW2 4839   1.539   2.468   4.782
 1314SOL     OW 4840   1.857   2.695   4.101
 1314SOL    HW1 4841   1.899   2.631   4.165
 1314SOL    HW2 4842   1.819   2.644   4.023
 1315SOL     OW 4843   0.488   3.247   3.898
 1315SOL    HW1 4844   0.401   3.232   3.945
 1315SOL    HW2 4845   0.471   3.273   3.803
 1316SOL     OW 4846   1.664   3.142   4.381
 1316SOL    HW1 4847   1.763   3.150   4.395
 1316SOL    HW2 4848   1.619   3.226   4.412
 1317SOL     OW 4849   1.390   2.437   3.802
 1317SOL    HW1 4850   1.336   2.416   3.883
 1317SOL    HW2 4851   1.481   2.396   3.811
 1318SOL     OW 4852   0.527   2.118   4.052
 1318SOL    HW1 4853   0.554   2.059   3.977
 1318SOL    HW2 4854   0.527   2.213   4.021
 1319SOL     OW 4855   1.754   3.085   5.312
 1319SOL    HW1 4856   1.845   3.046   5.299
 1319SOL    HW2 4857   1.762   3.181   5.336
 1320SOL     OW 4858   1.064   3.209   5.064
 1320SOL    HW1 4859   0.984   3.186   5.119
 1320SOL    HW2 4860   1.147   3.183   5.113
 1321SOL     OW 4861   1.592   3.491   5.349
 1321SOL    HW1 4862   1.619   3.525   5.259
 1321SOL    HW2 4863   1.671   3.453   5.395
 1322SOL     OW 4864   1.111   3.057   4.824
 1322SOL    HW1 4865   1.071   3.101   4.905
 1322SOL    HW2 4866   1.070   3.094   4.741
 1323SOL     OW 4867   1.638   2.961   4.803
 1323SOL    HW1 4868   1.643   3.042   4.862
 1323SOL    HW2 4869   1.552   2.963   4.752
 1324SOL     OW 4870   0.915   1.951   5.126
 1324SOL    HW1 4871   0.940   1.931   5.031
 1324SOL    HW2 4872   0.987   2.007   5.168
 1325SOL     OW 4873   0.980   2.978   5.443
 1325SOL    HW1 4874   0.881   2.984   5.453
 1325SOL    HW2 4875   1.003   2.898   5.387
 1326SOL     OW 4876   0.705   2.912   4.092
 1326SOL    HW1 4877   0.691   2.919   4.191
 1326SOL    HW2 4878   0.789   2.861   4.074
 1327SOL     OW 4879   0.410   2.675   4.975
 1327SOL    HW1 4880   0.496   2.687   5.025
 1327SOL    HW2 4881   0.368   2.588   5.002
 1328SOL     OW 4882   1.274   2.248   4.986
 1328SOL    HW1 4883   1.295   2.322   5.050
 1328SOL    HW2 4884   1.185   2.265   4.943
 1329SOL     OW 4885   0.064   3.426   5.055
 1329SOL    HW1 4886   0.018   3.508   5.021
 1329SOL    HW2 4887   0.162   3.445   5.064
 1330SOL     OW 4888   0.367   2.962   4.225
 1330SOL    HW1 4889   0.360   3.045   4.169
 1330SOL    HW2 4890   0.371   2.882   4.165
 1331SOL     OW 4891   0.566   2.399   4.589
 1331SOL    HW1 4892   0.578   2.465   4.515
 1331SOL    HW2 4893   0.612   2.433   4.672
 1332SOL     OW 4894   1.252   3.210   4.112
 1332SOL    HW1 4895   1.302   3.287   4.152
 1332SOL    HW2 4896   1.157   3.212   4.144
 1333SOL     OW 4897   1.272   3.307   4.866
 1333SOL    HW1 4898   1.319   3.320   4.953
 1333SOL    HW2 4899   1.206   3.233   4.875
 1334SOL     OW 4900   1.582   2.501   4.196
 1334SOL    HW1 4901   1.551   2.562   4.269
 1334SOL    HW2 4902   1.632   2.553   4.127
 1335SOL     OW 4903   0.354   3.372   5.053
 1335SOL    HW1 4904   0.333   3.328   4.966
 1335SOL    HW2 4905   0.451   3.398   5.056
 1336SOL     OW 4906   0.402   2.613   5.322
 1336SOL    HW1 4907   0.470   2.668   5.275
 1336SOL    HW2 4908   0.442   2.525   5.349
 1337SOL     OW 4909   1.587   2.641   5.394
 1337SOL    HW1 4910   1.495   2.679   5.389
 1337SOL    HW2 4911   1.647   2.688   5.329
 1338SOL     OW 4912   1.013   1.967   5.494
 1338SOL    HW1 4913   1.019   2.052   5.442
 1338SOL    HW2 4914   1.045   1.891   5.437
 1339SOL     OW 4915   0.504   1.912   5.464
 1339SOL    HW1 4916   0.462   1.855   5.394
 1339SOL    HW2 4917   0.438   1.981   5.496
 1340SOL     OW 4918   0.573   2.732   4.753
 1340SOL    HW1 4919   0.617   2.821   4.744
 1340SOL    HW2 4920   0.510   2.732   4.830
 1341SOL     OW 4921   1.360   2.724   4.769
 1341SOL    HW1 4922   1.285   2.724   4.703
 1341SOL    HW2 4923   1.397   2.632   4.778
 1342SOL     OW 4924   1.209   2.387   3.999
 1342SOL    HW1 4925   1.222   2.303   4.053
 1342SOL    HW2 4926   1.180   2.461   4.059
 1343SOL     OW 4927   0.307   2.075   4.955
 1343SOL    HW1 4928   0.284   2.112   5.045
 1343SOL    HW2 4929   0.277   1.980   4.949
 1344SOL     OW 4930   0.037   3.172   5.006
 1344SOL    HW1 4931   0.090   3.123   5.074
 1344SOL    HW2 4932   0.059   3.270   5.011
 1345SOL     OW 4933   0.732   2.496   4.788
 1345SOL    HW1 4934   0.791   2.470   4.712
 1345SOL    HW2 4935   0.704   2.592   4.777
 1346SOL     OW 4936   1.728   2.797   5.578
 1346SOL    HW1 4937   1.682   2.790   5.489
 1346SOL    HW2 4938   1.666   2.841   5.644
 1347SOL     OW 4939   0.307   1.925   4.342
 1347SOL    HW1 4940   0.296   2.019   4.375
 1347SOL    HW2 4941   0.302   1.862   4.419
 1348SOL     OW 4942   1.622   2.229   4.098
 1348SOL    HW1 4943   1.624   2.153   4.162
 1348SOL    HW2 4944   1.574   2.306   4.138
 1349SOL     OW 4945   1.023   2.628   4.690
 1349SOL    HW1 4946   1.038   2.649   4.786
 1349SOL    HW2 4947   0.993   2.533   4.681
 1350SOL     OW 4948   0.980   3.435   5.424
 1350SOL    HW1 4949   0.960   3.479   5.336
 1350SOL    HW2 4950   1.019   3.344   5.408
 1351SOL     OW 4951   1.859   3.380   5.329
 1351SOL    HW1 4952   1.873   3.407   5.234
 1351SOL    HW2 4953   1.942   3.402   5.382
 1352SOL     OW 4954   0.350   2.760   5.528
 1352SOL    HW1 4955   0.426   2.804   5.576
 1352SOL    HW2 4956   0.385   2.713   5.446
 1353SOL     OW 4957   1.540   2.136   3.849
 1353SOL    HW1 4958   1.479   2.061   3.872
 1353SOL    HW2 4959   1.562   2.188   3.932
 1354SOL     OW 4960   1.303   2.700   3.766
 1354SOL    HW1 4961   1.337   2.607   3.781
 1354SOL    HW2 4962   1.321   2.727   3.671
 1355SOL     OW 4963   1.068   3.195   4.573
 1355SOL    HW1 4964   1.075   3.111   4.518
 1355SOL    HW2 4965   1.130   3.264   4.537
 1356SOL     OW 4966   0.319   2.672   4.673
 1356SOL    HW1 4967   0.412   2.708   4.678
 1356SOL    HW2 4968   0.313   2.587   4.725
 1357SOL     OW 4969   0.339   2.371   4.730
 1357SOL    HW1 4970   0.287   2.288   4.713
 1357SOL    HW2 4971   0.416   2.376   4.666
 1358SOL     OW 4972   1.138   2.242   5.402
 1358SOL    HW1 4973   1.093   2.305   5.466
 1358SOL    HW2 4974   1.231   2.273   5.385
 1359SOL     OW 4975   1.160   2.069   5.201
 1359SOL    HW1 4976   1.160   2.133   5.278
 1359SOL    HW2 4977   1.188   2.117   5.118
 1360SOL     OW 4978   0.008   3.188   3.924
 1360SOL    HW1 4979  -0.085   3.209   3.893
 1360SOL    HW2 4980   0.018   3.089   3.937
 1361SOL     OW 4981   0.088   3.663   4.651
 1361SOL    HW1 4982   0.046   3.577   4.624
 1361SOL    HW2 4983   0.182   3.666   4.617
 1362SOL     OW 4984   0.504   3.430   4.634
 1362SOL    HW1 4985   0.570   3.504   4.643
 1362SOL    HW2 4986   0.548   3.351   4.592
 1363SOL     OW 4987   1.002   2.658   4.962
 1363SOL    HW1 4988   1.043   2.626   5.048
 1363SOL    HW2 4989   0.906   2.631   4.959
 1364SOL     OW 4990   0.040   2.406   4.838
 1364SOL    HW1 4991   0.125   2.373   4.797
 1364SOL    HW2 4992   0.053   2.421   4.936
 1365SOL     OW 4993   0.189   2.382   5.446
 1365SOL    HW1 4994   0.248   2.342   5.376
 1365SOL    HW2 4995   0.131   2.453   5.405
 1366SOL     OW 4996   1.369   2.812   5.384
 1366SOL    HW1 4997   1.408   2.901   5.404
 1366SOL    HW2 4998   1.379   2.792   5.287
 1367SOL     OW 4999   0.815   2.434   4.049
 1367SOL    HW1 5000   0.822   2.345   4.003
 1367SOL    HW2 5001   0.721   2.468   4.041
 1368SOL     OW 5002   1.657   2.466   4.930
 1368SOL    HW1 5003   1.619   2.397   4.992
 1368SOL    HW2 5004   1.739   2.430   4.886
 1369SOL     OW 5005   0.252   3.426   5.468
 1369SOL    HW1 5006   0.222   3.483   5.544
 1369SOL    HW2 5007   0.245   3.329   5.494
 1370SOL     OW 5008   0.671   2.326   4.993
 1370SOL    HW1 5009   0.637   2.237   4.963
 1370SOL    HW2 5010   0.697   2.380   4.913
 1371SOL     OW 5011   0.930   3.540   5.189
 1371SOL    HW1 5012   0.906   3.522   5.094
 1371SOL    HW2 5013   0.960   3.634   5.199
 1372SOL     OW 5014   0.473   2.362   3.915
 1372SOL    HW1 5015   0.534   2.442   3.919
 1372SOL    HW2 5016   0.378   2.393   3.922
 1373SOL     OW 5017   0.159   2.999   5.190
 1373SOL    HW1 5018   0.181   2.938   5.266
 1373SOL    HW2 5019   0.169   2.950   5.104
 1374SOL     OW 5020   1.347   2.921   4.958
 1374SOL    HW1 5021   1.371   2.858   4.884
 1374SOL    HW2 5022   1.257   2.961   4.940
 1375SOL     OW 5023   1.302   2.717   4.033
 1375SOL    HW1 5024   1.216   2.686   4.075
 1375SOL    HW2 5025   1.298   2.703   3.934
 1376SOL     OW 5026   1.759   3.609   4.878
 1376SOL    HW1 5027   1.820   3.639   4.805
 1376SOL    HW2 5028   1.721   3.520   4.856
 1377SOL     OW 5029   1.252   3.593   4.852
 1377SOL    HW1 5030   1.336   3.598   4.798
 1377SOL    HW2 5031   1.229   3.497   4.870
 1378SOL     OW 5032   0.083   3.120   4.746
 1378SOL    HW1 5033   0.078   3.119   4.846
 1378SOL    HW2 5034   0.000   3.079   4.708
 1379SOL     OW 5035   0.688   3.524   5.440
 1379SOL    HW1 5036   0.632   3.605   5.449
 1379SOL    HW2 5037   0.740   3.528   5.354
 1380SOL     OW 5038   1.726   1.997   4.247
 1380SOL    HW1 5039   1.799   1.980   4.180
 1380SOL    HW2 5040   1.695   1.910   4.285
 1381SOL     OW 5041   1.388   3.435   4.201
 1381SOL    HW1 5042   1.455   3.447   4.127
 1381SOL    HW2 5043   1.348   3.524   4.224
 1382SOL     OW 5044   0.130   3.656   5.575
 1382SOL    HW1 5045   0.089   3.582   5.628
 1382SOL    HW2 5046   0.194   3.707   5.633
 1383SOL     OW 5047   1.280   2.789   4.396
 1383SOL    HW1 5048   1.340   2.708   4.398
 1383SOL    HW2 5049   1.320   2.858   4.336
 1384SOL     OW 5050   0.830   3.135   5.146
 1384SOL    HW1 5051   0.825   3.168   5.241
 1384SOL    HW2 5052   0.744   3.154   5.100
 1385SOL     OW 5053   0.672   3.478   3.878
 1385SOL    HW1 5054   0.681   3.488   3.779
 1385SOL    HW2 5055   0.632   3.389   3.899
 1386SOL     OW 5056   1.650   3.582   5.118
 1386SOL    HW1 5057   1.703   3.592   5.034
 1386SOL    HW2 5058   1.623   3.672   5.152
 1387SOL     OW 5059   1.841   2.037   4.687
 1387SOL    HW1 5060   1.880   1.952   4.651
 1387SOL    HW2 5061   1.743   2.039   4.668
 1388SOL     OW 5062   0.263   2.188   4.444
 1388SOL    HW1 5063   0.184   2.239   4.410
 1388SOL    HW2 5064   0.254   2.173   4.542
 1389SOL     OW 5065   1.194   3.474   3.755
 1389SOL    HW1 5066   1.200   3.381   3.792
 1389SOL    HW2 5067   1.135   3.474   3.675
 1390SOL     OW 5068   0.822   2.864   5.096
 1390SOL    HW1 5069   0.862   2.863   5.004
 1390SOL    HW2 5070   0.832   2.956   5.136
 1391SOL     OW 5071   0.916   2.772   4.015
 1391SOL    HW1 5072   0.979   2.810   3.947
 1391SOL    HW2 5073   0.956   2.689   4.054
 1392SOL     OW 5074   1.504   3.469   3.768
 1392SOL    HW1 5075   1.412   3.506   3.775
 1392SOL    HW2 5076   1.542   3.489   3.678
 1393SOL     OW 5077   0.372   3.150   5.214
 1393SOL    HW1 5078   0.359   3.243   5.180
 1393SOL    HW2 5079   0.288   3.098   5.201
 1394SOL     OW 5080   1.614   3.154   5.013
 1394SOL    HW1 5081   1.674   3.157   5.093
 1394SOL    HW2 5082   1.539   3.218   5.026
 1395SOL     OW 5083   1.039   2.960   4.420
 1395SOL    HW1 5084   0.969   2.913   4.474
 1395SOL    HW2 5085   1.098   2.892   4.377
 1396SOL     OW 5086   1.014   2.098   4.695
 1396SOL    HW1 5087   1.006   2.062   4.602
 1396SOL    HW2 5088   1.012   2.022   4.760
 1397SOL     OW 5089   0.590   3.349   4.215
 1397SOL    HW1 5090   0.632   3.291   4.145
 1397SOL    HW2 5091   0.546   3.428   4.171
 1398SOL     OW 5092   1.709   2.247   5.105
 1398SOL    HW1 5093   1.782   2.316   5.109
 1398SOL    HW2 5094   1.737   2.172   5.046
 1399SOL     OW 5095   0.255   3.210   4.014
 1399SOL    HW1 5096   0.159   3.211   3.987
 1399SOL    HW2 5097   0.267   3.263   4.098
 1400SOL     OW 5098   0.105   2.875   5.450
 1400SOL    HW1 5099   0.028   2.842   5.504
 1400SOL    HW2 5100   0.190   2.845   5.492
 1401SOL     OW 5101   0.672   2.065   5.213
 1401SOL    HW1 5102   0.762   2.049   5.173
 1401SOL    HW2 5103   0.680   2.070   5.312
 1402SOL     OW 5104   0.075   2.207   3.757
 1402SOL    HW1 5105  -0.017   2.179   3.728
 1402SOL    HW2 5106   0.106   2.284   3.701
 1403SOL     OW 5107   1.440   2.718   5.122
 1403SOL    HW1 5108   1.383   2.770   5.059
 1403SOL    HW2 5109   1.536   2.730   5.098
 1404SOL     OW 5110   0.072   2.028   4.042
 1404SOL    HW1 5111   0.055   2.111   3.988
 1404SOL    HW2 5112   0.162   1.991   4.020
 1405SOL     OW 5113   1.183   3.197   3.843
 1405SOL    HW1 5114   1.084   3.186   3.845
 1405SOL    HW2 5115   1.217   3.212   3.936
 1406SOL     OW 5116   0.613   2.704   5.155
 1406SOL    HW1 5117   0.669   2.785   5.138
 1406SOL    HW2 5118   0.672   2.624   5.158
 1407SOL     OW 5119   1.493   3.629   4.683
 1407SOL    HW1 5120   1.526   3.693   4.614
 1407SOL    HW2 5121   1.559   3.623   4.758
 1408SOL     OW 5122   0.716   2.427   5.432
 1408SOL    HW1 5123   0.735   2.492   5.506
 1408SOL    HW2 5124   0.776   2.347   5.441
 1409SOL     OW 5125   1.450   3.082   5.357
 1409SOL    HW1 5126   1.441   3.072   5.456
 1409SOL    HW2 5127   1.546   3.075   5.331
 1410SOL     OW 5128   0.390   3.603   5.284
 1410SOL    HW1 5129   0.299   3.644   5.282
 1410SOL    HW2 5130   0.383   3.509   5.316
 1411SOL     OW 5131   1.674   2.745   4.978
 1411SOL    HW1 5132   1.647   2.656   4.941
 1411SOL    HW2 5133   1.675   2.813   4.905
 1412SOL     OW 5134   1.225   2.187   4.173
 1412SOL    HW1 5135   1.290   2.113   4.162
 1412SOL    HW2 5136   1.245   2.237   4.257
 1413SOL     OW 5137   0.594   2.607   4.376
 1413SOL    HW1 5138   0.644   2.692   4.357
 1413SOL    HW2 5139   0.506   2.609   4.328
 1414SOL     OW 5140   1.777   2.204   5.366
 1414SOL    HW1 5141   1.760   2.235   5.272
 1414SOL    HW2 5142   1.693   2.167   5.404
 1415SOL     OW 5143   1.730   2.796   5.241
 1415SOL    HW1 5144   1.768   2.887   5.256
 1415SOL    HW2 5145   1.722   2.779   5.142
 1416SOL     OW 5146   0.859   3.236   3.740
 1416SOL    HW1 5147   0.813   3.251   3.828
 1416SOL    HW2 5148   0.903   3.321   3.710
 1417SOL     OW 5149   0.661   3.652   4.677
 1417SOL    HW1 5150   0.615   3.740   4.664
 1417SOL    HW2 5151   0.760   3.664   4.670
 1418SOL     OW 5152   0.859   2.818   4.585
 1418SOL    HW1 5153   0.913   2.749   4.633
 1418SOL    HW2 5154   0.827   2.887   4.651
 1419SOL     OW 5155   1.083   2.846   3.811
 1419SOL    HW1 5156   1.060   2.899   3.729
 1419SOL    HW2 5157   1.164   2.790   3.792
 1420SOL     OW 5158   1.861   3.431   4.575
 1420SOL    HW1 5159   1.790   3.419   4.505
 1420SOL    HW2 5160   1.862   3.352   4.635
 1421SOL     OW 5161   0.221   3.176   5.568
 1421SOL    HW1 5162   0.156   3.103   5.547
 1421SOL    HW2 5163   0.225   3.190   5.666
 1422SOL     OW 5164   0.079   3.102   4.377
 1422SOL    HW1 5165   0.078   3.055   4.465
 1422SOL    HW2 5166   0.161   3.074   4.326
 1423SOL     OW 5167   0.672   3.253   5.348
 1423SOL    HW1 5168   0.594   3.203   5.386
 1423SOL    HW2 5169   0.669   3.348   5.379
 1424SOL     OW 5170   1.824   2.054   4.951
 1424SOL    HW1 5171   1.820   1.964   4.995
 1424SOL    HW2 5172   1.827   2.043   4.852
 1425SOL     OW 5173   0.428   2.286   4.244
 1425SOL    HW1 5174   0.458   2.214   4.182
 1425SOL    HW2 5175   0.389   2.246   4.327
 1426SOL     OW 5176   1.705   3.349   4.828
 1426SOL    HW1 5177   1.612   3.324   4.801
 1426SOL    HW2 5178   1.731   3.299   4.910
 1427SOL     OW 5179   0.317   2.409   5.004
 1427SOL    HW1 5180   0.355   2.350   5.076
 1427SOL    HW2 5181   0.357   2.383   4.916
 1428SOL     OW 5182   0.812   3.448   4.411
 1428SOL    HW1 5183   0.844   3.458   4.317
 1428SOL    HW2 5184   0.733   3.386   4.413
 1429SOL     OW 5185   1.424   2.076   4.836
 1429SOL    HW1 5186   1.476   2.011   4.891
 1429SOL    HW2 5187   1.375   2.139   4.897
 1430SOL     OW 5188   1.001   1.896   4.878
 1430SOL    HW1 5189   0.938   1.824   4.847
 1430SOL    HW2 5190   1.094   1.860   4.878
 1431SOL     OW 5191   0.770   3.192   4.025
 1431SOL    HW1 5192   0.724   3.105   4.042
 1431SOL    HW2 5193   0.861   3.189   4.066
 1432SOL     OW 5194   0.618   3.429   5.008
 1432SOL    HW1 5195   0.613   3.511   5.065
 1432SOL    HW2 5196   0.707   3.426   4.963
 1433SOL     OW 5197   1.352   1.914   3.892
 1433SOL    HW1 5198   1.387   1.873   3.808
 1433SOL    HW2 5199   1.262   1.876   3.912
 1434SOL     OW 5200   1.300   2.315   4.415
 1434SOL    HW1 5201   1.241   2.395   4.419
 1434SOL    HW2 5202   1.315   2.280   4.508
 1435SOL     OW 5203   1.593   2.083   4.606
 1435SOL    HW1 5204   1.509   2.082   4.660
 1435SOL    HW2 5205   1.595   2.166   4.550
 1436SOL     OW 5206   0.039   2.939   4.024
 1436SOL    HW1 5207   0.138   2.928   4.015
 1436SOL    HW2 5208  -0.001   2.853   4.056
 1437SOL     OW 5209   0.875   3.508   4.061
 1437SOL    HW1 5210   0.798   3.473   4.007
 1437SOL    HW2 5211   0.843   3.579   4.123
 1438SOL     OW 5212   0.230   2.490   5.699
 1438SOL    HW1 5213   0.137   2.488   5.736
 1438SOL    HW2 5214   0.231   2.451   5.607
 1439SOL     OW 5215   0.225   2.137   6.582
 1439SOL    HW1 5216   0.260   2.120   6.674
 1439SOL    HW2 5217   0.137   2.092   6.570
 1440SOL     OW 5218   0.019   2.230   6.233
 1440SOL    HW1 5219  -0.063   2.273   6.272
 1440SOL    HW2 5220  -0.009   2.157   6.170
 1441SOL     OW 5221   0.569   3.137   6.751
 1441SOL    HW1 5222   0.476   3.130   6.714
 1441SOL    HW2 5223   0.580   3.226   6.795
 1442SOL     OW 5224   1.555   3.373   6.289
 1442SOL    HW1 5225   1.498   3.357   6.370
 1442SOL    HW2 5226   1.496   3.383   6.209
 1443SOL     OW 5227   1.135   2.565   6.303
 1443SOL    HW1 5228   1.192   2.643   6.278
 1443SOL    HW2 5229   1.075   2.591   6.379
 1444SOL     OW 5230   1.755   2.469   5.817
 1444SOL    HW1 5231   1.743   2.456   5.718
 1444SOL    HW2 5232   1.725   2.388   5.866
 1445SOL     OW 5233   0.768   3.006   6.609
 1445SOL    HW1 5234   0.690   3.023   6.669
 1445SOL    HW2 5235   0.802   3.093   6.573
 1446SOL     OW 5236   0.685   2.874   6.251
 1446SOL    HW1 5237   0.754   2.858   6.321
 1446SOL    HW2 5238   0.612   2.931   6.289
 1447SOL     OW 5239   0.335   3.297   6.647
 1447SOL    HW1 5240   0.257   3.266   6.594
 1447SOL    HW2 5241   0.393   3.355   6.590
 1448SOL     OW 5242   1.603   2.309   6.323
 1448SOL    HW1 5243   1.529   2.355   6.273
 1448SOL    HW2 5244   1.654   2.377   6.376
 1449SOL     OW 5245   0.231   3.575   6.069
 1449SOL    HW1 5246   0.265   3.652   6.123
 1449SOL    HW2 5247   0.275   3.575   5.979
 1450SOL     OW 5248   0.230   3.296   6.124
 1450SOL    HW1 5249   0.204   3.392   6.124
 1450SOL    HW2 5250   0.159   3.242   6.169
 1451SOL     OW 5251   0.240   2.953   6.472
 1451SOL    HW1 5252   0.254   2.869   6.524
 1451SOL    HW2 5253   0.185   3.017   6.527
 1452SOL     OW 5254   0.620   3.648   7.025
 1452SOL    HW1 5255   0.528   3.631   7.060
 1452SOL    HW2 5256   0.648   3.740   7.051
 1453SOL     OW 5257   0.606   2.826   5.709
 1453SOL    HW1 5258   0.613   2.910   5.655
 1453SOL    HW2 5259   0.652   2.839   5.797
 1454SOL     OW 5260   0.122   2.505   6.149
 1454SOL    HW1 5261   0.077   2.417   6.166
 1454SOL    HW2 5262   0.121   2.559   6.233
 1455SOL     OW 5263   1.842   3.629   5.945
 1455SOL    HW1 5264   1.896   3.600   6.025
 1455SOL    HW2 5265   1.872   3.719   5.916
 1456SOL     OW 5266   0.027   3.458   5.703
 1456SOL    HW1 5267   0.008   3.362   5.724
 1456SOL    HW2 5268  -0.006   3.516   5.778
 1457SOL     OW 5269   1.689   2.784   6.198
 1457SOL    HW1 5270   1.784   2.755   6.206
 1457SOL    HW2 5271   1.681   2.849   6.123
 1458SOL     OW 5272   1.641   2.970   6.018
 1458SOL    HW1 5273   1.727   2.972   5.966
 1458SOL    HW2 5274   1.655   3.017   6.106
 1459SOL     OW 5275   0.613   3.227   6.312
 1459SOL    HW1 5276   0.564   3.140   6.321
 1459SOL    HW2 5277   0.590   3.270   6.225
 1460SOL     OW 5278   0.809   1.866   6.088
 1460SOL    HW1 5279   0.849   1.957   6.079
 1460SOL    HW2 5280   0.709   1.874   6.094
 1461SOL     OW 5281   0.197   2.838   6.850
 1461SOL    HW1 5282   0.286   2.793   6.836
 1461SOL    HW2 5283   0.124   2.773   6.831
 1462SOL     OW 5284   1.525   2.861   5.776
 1462SOL    HW1 5285   1.462   2.785   5.789
 1462SOL    HW2 5286   1.573   2.879   5.862
 1463SOL     OW 5287   1.466   3.279   6.539
 1463SOL    HW1 5288   1.407   3.285   6.619
 1463SOL    HW2 5289   1.451   3.191   6.493
 1464SOL     OW 5290   1.667   3.576   6.158
 1464SOL    HW1 5291   1.626   3.553   6.070
 1464SOL    HW2 5292   1.649   3.502   6.223
 1465SOL     OW 5293   0.598   2.591   5.856
 1465SOL    HW1 5294   0.622   2.660   5.788
 1465SOL    HW2 5295   0.520   2.624   5.910
 1466SOL     OW 5296   1.281   2.207   6.530
 1466SOL    HW1 5297   1.195   2.157   6.517
 1466SOL    HW2 5298   1.343   2.153   6.586
 1467SOL     OW 5299   1.576   3.524   5.893
 1467SOL    HW1 5300   1.665   3.570   5.896
 1467SOL    HW2 5301   1.555   3.500   5.798
 1468SOL     OW 5302   0.807   2.467   7.051
 1468SOL    HW1 5303   0.760   2.464   7.140
 1468SOL    HW2 5304   0.756   2.412   6.985
 1469SOL     OW 5305   0.991   2.272   6.828
 1469SOL    HW1 5306   0.914   2.306   6.882
 1469SOL    HW2 5307   0.957   2.221   6.749
 1470SOL     OW 5308   1.041   2.563   6.015
 1470SOL    HW1 5309   1.067   2.559   6.111
 1470SOL    HW2 5310   0.956   2.512   6.001
 1471SOL     OW 5311   0.076   2.673   6.375
 1471SOL    HW1 5312   0.175   2.661   6.384
 1471SOL    HW2 5313   0.052   2.768   6.396
 1472SOL     OW 5314   0.130   3.683   7.157
 1472SOL    HW1 5315   0.120   3.668   7.256
 1472SOL    HW2 5316   0.044   3.719   7.121
 1473SOL     OW 5317   0.865   2.210   5.781
 1473SOL    HW1 5318   0.924   2.273   5.732
 1473SOL    HW2 5319   0.884   2.116   5.752
 1474SOL     OW 5320   1.362   3.006   6.131
 1474SOL    HW1 5321   1.445   2.977   6.083
 1474SOL    HW2 5322   1.313   3.073   6.075
 1475SOL     OW 5323   0.550   2.058   6.471
 1475SOL    HW1 5324   0.545   2.053   6.571
 1475SOL    HW2 5325   0.552   2.154   6.442
 1476SOL     OW 5326   1.008   3.318   6.063
 1476SOL    HW1 5327   0.962   3.390   6.011
 1476SOL    HW2 5328   1.004   3.338   6.161
 1477SOL     OW 5329   0.351   3.663   6.439
 1477SOL    HW1 5330   0.401   3.577   6.445
 1477SOL    HW2 5331   0.416   3.740   6.436
 1478SOL     OW 5332   1.795   2.928   6.459
 1478SOL    HW1 5333   1.733   2.913   6.383
 1478SOL    HW2 5334   1.743   2.939   6.544
 1479SOL     OW 5335   0.321   2.805   5.828
 1479SOL    HW1 5336   0.403   2.844   5.786
 1479SOL    HW2 5337   0.294   2.723   5.779
 1480SOL     OW 5338   1.458   2.597   6.314
 1480SOL    HW1 5339   1.453   2.532   6.389
 1480SOL    HW2 5340   1.538   2.656   6.327
 1481SOL     OW 5341   1.111   3.638   5.823
 1481SOL    HW1 5342   1.051   3.576   5.873
 1481SOL    HW2 5343   1.142   3.594   5.738
 1482SOL     OW 5344   1.632   3.239   5.667
 1482SOL    HW1 5345   1.600   3.333   5.657
 1482SOL    HW2 5346   1.556   3.176   5.655
 1483SOL     OW 5347   0.464   3.605   5.909
 1483SOL    HW1 5348   0.497   3.644   5.995
 1483SOL    HW2 5349   0.540   3.598   5.844
 1484SOL     OW 5350   1.400   1.969   6.012
 1484SOL    HW1 5351   1.376   1.932   5.922
 1484SOL    HW2 5352   1.499   1.985   6.016
 1485SOL     OW 5353   0.249   3.647   6.827
 1485SOL    HW1 5354   0.306   3.582   6.877
 1485SOL    HW2 5355   0.233   3.614   6.734
 1486SOL     OW 5356   0.940   3.560   6.490
 1486SOL    HW1 5357   1.020   3.503   6.511
 1486SOL    HW2 5358   0.891   3.520   6.413
 1487SOL     OW 5359   0.382   2.562   6.066
 1487SOL    HW1 5360   0.427   2.472   6.063
 1487SOL    HW2 5361   0.288   2.551   6.099
 1488SOL     OW 5362   0.614   1.984   5.703
 1488SOL    HW1 5363   0.712   1.962   5.710
 1488SOL    HW2 5364   0.583   1.967   5.610
 1489SOL     OW 5365   0.888   3.376   6.781
 1489SOL    HW1 5366   0.865   3.351   6.687
 1489SOL    HW2 5367   0.949   3.307   6.820
 1490SOL     OW 5368   0.803   3.264   6.510
 1490SOL    HW1 5369   0.893   3.278   6.468
 1490SOL    HW2 5370   0.732   3.266   6.439
 1491SOL     OW 5371   0.922   2.365   6.485
 1491SOL    HW1 5372   0.897   2.356   6.389
 1491SOL    HW2 5373   0.970   2.283   6.516
 1492SOL     OW 5374   0.539   1.926   6.098
 1492SOL    HW1 5375   0.458   1.927   6.156
 1492SOL    HW2 5376   0.542   2.009   6.043
 1493SOL     OW 5377   1.434   3.050   5.627
 1493SOL    HW1 5378   1.466   2.974   5.684
 1493SOL    HW2 5379   1.342   3.077   5.657
 1494SOL     OW 5380   0.297   1.897   5.757
 1494SOL    HW1 5381   0.346   1.981   5.736
 1494SOL    HW2 5382   0.359   1.832   5.802
 1495SOL     OW 5383   0.935   2.098   6.066
 1495SOL    HW1 5384   0.887   2.139   5.988
 1495SOL    HW2 5385   1.034   2.096   6.047
 1496SOL     OW 5386   1.227   3.432   6.379
 1496SOL    HW1 5387   1.248   3.506   6.314
 1496SOL    HW2 5388   1.295   3.432   6.452
 1497SOL     OW 5389   0.459   3.014   6.327
 1497SOL    HW1 5390   0.388   2.987   6.392
 1497SOL    HW2 5391   0.433   2.986   6.234
 1498SOL     OW 5392   1.271   3.659   6.177
 1498SOL    HW1 5393   1.315   3.723   6.113
 1498SOL    HW2 5394   1.221   3.711   6.247
 1499SOL     OW 5395   1.032   2.411   5.602
 1499SOL    HW1 5396   0.991   2.493   5.563
 1499SOL    HW2 5397   1.096   2.437   5.675
 1500SOL     OW 5398   0.561   2.084   6.733
 1500SOL    HW1 5399   0.599   2.000   6.770
 1500SOL    HW2 5400   0.473   2.103   6.777
 1501SOL     OW 5401   0.866   2.316   6.228
 1501SOL    HW1 5402   0.834   2.388   6.166
 1501SOL    HW2 5403   0.890   2.235   6.175
 1502SOL     OW 5404   1.017   1.901   6.339
 1502SOL    HW1 5405   0.945   1.906   6.270
 1502SOL    HW2 5406   0.993   1.832   6.408
 1503SOL     OW 5407   1.429   3.035   6.453
 1503SOL    HW1 5408   1.374   2.951   6.446
 1503SOL    HW2 5409   1.455   3.064   6.361
 1504SOL     OW 5410   1.466   2.452   6.578
 1504SOL    HW1 5411   1.436   2.357   6.585
 1504SOL    HW2 5412   1.539   2.468   6.644
 1505SOL     OW 5413   1.857   2.695   5.963
 1505SOL    HW1 5414   1.899   2.631   6.027
 1505SOL    HW2 5415   1.819   2.644   5.885
 1506SOL     OW 5416   0.488   3.247   5.760
 1506SOL    HW1 5417   0.401   3.232   5.807
 1506SOL    HW2 5418   0.471   3.273   5.665
 1507SOL     OW 5419   1.664   3.142   6.243
 1507SOL    HW1 5420   1.763   3.150   6.257
 1507SOL    HW2 5421   1.619   3.226   6.274
 1508SOL     OW 5422   1.390   2.437   5.664
 1508SOL    HW1 5423   1.336   2.416   5.745
 1508SOL    HW2 5424   1.481   2.396   5.673
 1509SOL     OW 5425   0.527   2.118   5.914
 1509SOL    HW1 5426   0.554   2.059   5.839
 1509SOL    HW2 5427   0.527   2.213   5.883
 1510SOL     OW 5428   1.754   3.085   7.174
 1510SOL    HW1 5429   1.845   3.046   7.161
 1510SOL    HW2 5430   1.762   3.181   7.198
 1511SOL     OW 5431   1.111   3.057   6.686
 1511SOL    HW1 5432   1.071   3.101   6.767
 1511SOL    HW2 5433   1.070   3.094   6.603
 1512SOL     OW 5434   1.638   2.961   6.665
 1512SOL    HW1 5435   1.643   3.042   6.724
 1512SOL    HW2 5436   1.552   2.963   6.614
 1513SOL     OW 5437   0.705   2.912   5.954
 1513SOL    HW1 5438   0.691   2.919   6.053
 1513SOL    HW2 5439   0.789   2.861   5.936
 1514SOL     OW 5440   0.410   2.675   6.837
 1514SOL    HW1 5441   0.496   2.687   6.887
 1514SOL    HW2 5442   0.368   2.588   6.864
 1515SOL     OW 5443   1.274   2.248   6.848
 1515SOL    HW1 5444   1.295   2.322   6.912
 1515SOL    HW2 5445   1.185   2.265   6.805
 1516SOL     OW 5446   0.064   3.426   6.917
 1516SOL    HW1 5447   0.018   3.508   6.883
 1516SOL    HW2 5448   0.162   3.445   6.926
 1517SOL     OW 5449   0.367   2.962   6.087
 1517SOL    HW1 5450   0.360   3.045   6.031
 1517SOL    HW2 5451   0.371   2.882   6.027
 1518SOL     OW 5452   0.566   2.399   6.451
 1518SOL    HW1 5453   0.578   2.465   6.377
 1518SOL    HW2 5454   0.612   2.433   6.534
 1519SOL     OW 5455   1.252   3.210   5.974
 1519SOL    HW1 5456   1.302   3.287   6.014
 1519SOL    HW2 5457   1.157   3.212   6.006
 1520SOL     OW 5458   1.272   3.307   6.728
 1520SOL    HW1 5459   1.319   3.320   6.815
 1520SOL    HW2 5460   1.206   3.233   6.737
 1521SOL     OW 5461   1.582   2.501   6.058
 1521SOL    HW1 5462   1.551   2.562   6.131
 1521SOL    HW2 5463   1.632   2.553   5.989
 1522SOL     OW 5464   0.354   3.372   6.915
 1522SOL    HW1 5465   0.333   3.328   6.828
 1522SOL    HW2 5466   0.451   3.398   6.918
 1523SOL     OW 5467   0.573   2.732   6.615
 1523SOL    HW1 5468   0.617   2.821   6.606
 1523SOL    HW2 5469   0.510   2.732   6.692
 1524SOL     OW 5470   1.360   2.724   6.631
 1524SOL    HW1 5471   1.285   2.724   6.565
 1524SOL    HW2 5472   1.397   2.632   6.640
 1525SOL     OW 5473   1.209   2.387   5.861
 1525SOL    HW1 5474   1.222   2.303   5.915
 1525SOL    HW2 5475   1.180   2.461   5.921
 1526SOL     OW 5476   0.307   2.075   6.817
 1526SOL    HW1 5477   0.284   2.112   6.907
 1526SOL    HW2 5478   0.277   1.980   6.811
 1527SOL     OW 5479   0.037   3.172   6.868
 1527SOL    HW1 5480   0.090   3.123   6.936
 1527SOL    HW2 5481   0.059   3.270   6.873
 1528SOL     OW 5482   0.732   2.496   6.650
 1528SOL    HW1 5483   0.791   2.470   6.574
 1528SOL    HW2 5484   0.704   2.592   6.639
 1529SOL     OW 5485   0.307   1.925   6.204
 1529SOL    HW1 5486   0.296   2.019   6.237
 1529SOL    HW2 5487   0.302   1.862   6.281
 1530SOL     OW 5488   1.622   2.229   5.960
 1530SOL    HW1 5489   1.624   2.153   6.024
 1530SOL    HW2 5490   1.574   2.306   6.000
 1531SOL     OW 5491   1.023   2.628   6.552
 1531SOL    HW1 5492   1.038   2.649   6.648
 1531SOL    HW2 5493   0.993   2.533   6.543
 1532SOL     OW 5494   1.859   3.380   7.191
 1532SOL    HW1 5495   1.873   3.407   7.096
 1532SOL    HW2 5496   1.942   3.402   7.244
 1533SOL     OW 5497   1.540   2.136   5.711
 1533SOL    HW1 5498   1.479   2.061   5.734
 1533SOL    HW2 5499   1.562   2.188   5.794
 1534SOL     OW 5500   1.303   2.700   5.628
 1534SOL    HW1 5501   1.337   2.607   5.643
 1534SOL    HW2 5502   1.321   2.727   5.533
 1535SOL     OW 5503   1.068   3.195   6.435
 1535SOL    HW1 5504   1.075   3.111   6.380
 1535SOL    HW2 5505   1.130   3.264   6.399
 1536SOL     OW 5506   0.319   2.672   6.535
 1536SOL    HW1 5507   0.412   2.708   6.540
 1536SOL    HW2 5508   0.313   2.587   6.587
 1537SOL     OW 5509   0.339   2.371   6.592
 1537SOL    HW1 5510   0.287   2.288   6.575
 1537SOL    HW2 5511   0.416   2.376   6.528
 1538SOL     OW 5512   1.160   2.069   7.063
 1538SOL    HW1 5513   1.160   2.133   7.140
 1538SOL    HW2 5514   1.188   2.117   6.980
 1539SOL     OW 5515   0.008   3.188   5.786
 1539SOL    HW1 5516  -0.085   3.209   5.755
 1539SOL    HW2 5517   0.018   3.089   5.799
 1540SOL     OW 5518   0.088   3.663   6.513
 1540SOL    HW1 5519   0.046   3.577   6.486
 1540SOL    HW2 5520   0.182   3.666   6.479
 1541SOL     OW 5521   0.504   3.430   6.496
 1541SOL    HW1 5522   0.570   3.504   6.505
 1541SOL    HW2 5523   0.548   3.351   6.454
 1542SOL     OW 5524   1.002   2.658   6.824
 1542SOL    HW1 5525   1.043   2.626   6.910
 1542SOL    HW2 5526   0.906   2.631   6.821
 1543SOL     OW 5527   0.040   2.406   6.700
 1543SOL    HW1 5528   0.125   2.373   6.659
 1543SOL    HW2 5529   0.053   2.421   6.798
 1544SOL     OW 5530   0.815   2.434   5.911
 1544SOL    HW1 5531   0.822   2.345   5.865
 1544SOL    HW2 5532   0.721   2.468   5.903
 1545SOL     OW 5533   1.657   2.466   6.792
 1545SOL    HW1 5534   1.619   2.397   6.854
 1545SOL    HW2 5535   1.739   2.430   6.748
 1546SOL     OW 5536   0.671   2.326   6.855
 1546SOL    HW1 5537   0.637   2.237   6.825
 1546SOL    HW2 5538   0.697   2.380   6.775
 1547SOL     OW 5539   0.930   3.540   7.051
 1547SOL    HW1 5540   0.906   3.522   6.956
 1547SOL    HW2 5541   0.960   3.634   7.061
 1548SOL     OW 5542   0.473   2.362   5.777
 1548SOL    HW1 5543   0.534   2.442   5.781
 1548SOL    HW2 5544   0.378   2.393   5.784
 1549SOL     OW 5545   0.159   2.999   7.052
 1549SOL    HW1 5546   0.181   2.938   7.128
 1549SOL    HW2 5547   0.169   2.950   6.966
 1550SOL     OW 5548   1.347   2.921   6.820
 1550SOL    HW1 5549   1.371   2.858   6.746
 1550SOL    HW2 5550   1.257   2.961   6.802
 1551SOL     OW 5551   1.302   2.717   5.895
 1551SOL    HW1 5552   1.216   2.686   5.937
 1551SOL    HW2 5553   1.298   2.703   5.796
 1552SOL     OW 5554   1.759   3.609   6.740
 1552SOL    HW1 5555   1.820   3.639   6.667
 1552SOL    HW2 5556   1.721   3.520   6.718
 1553SOL     OW 5557   1.252   3.593   6.714
 1553SOL    HW1 5558   1.336   3.598   6.660
 1553SOL    HW2 5559   1.229   3.497   6.732
 1554SOL     OW 5560   0.083   3.120   6.608
 1554SOL    HW1 5561   0.078   3.119   6.708
 1554SOL    HW2 5562   0.000   3.079   6.570
 1555SOL     OW 5563   1.726   1.997   6.109
 1555SOL    HW1 5564   1.799   1.980   6.042
 1555SOL    HW2 5565   1.695   1.910   6.147
 1556SOL     OW 5566   1.388   3.435   6.063
 1556SOL    HW1 5567   1.455   3.447   5.989
 1556SOL    HW2 5568   1.348   3.524   6.086
 1557SOL     OW 5569   1.280   2.789   6.258
 1557SOL    HW1 5570   1.340   2.708   6.260
 1557SOL    HW2 5571   1.320   2.858   6.198
 1558SOL     OW 5572   0.672   3.478   5.740
 1558SOL    HW1 5573   0.681   3.488   5.641
 1558SOL    HW2 5574   0.632   3.389   5.761
 1559SOL     OW 5575   1.841   2.037   6.549
 1559SOL    HW1 5576   1.880   1.952   6.513
 1559SOL    HW2 5577   1.743   2.039   6.530
 1560SOL     OW 5578   0.263   2.188   6.306
 1560SOL    HW1 5579   0.184   2.239   6.272
 1560SOL    HW2 5580   0.254   2.173   6.404
 1561SOL     OW 5581   1.194   3.474   5.617
 1561SOL    HW1 5582   1.200   3.381   5.654
 1561SOL    HW2 5583   1.135   3.474   5.537
 1562SOL     OW 5584   0.822   2.864   6.958
 1562SOL    HW1 5585   0.862   2.863   6.866
 1562SOL    HW2 5586   0.832   2.956   6.998
 1563SOL     OW 5587   0.916   2.772   5.877
 1563SOL    HW1 5588   0.979   2.810   5.809
 1563SOL    HW2 5589   0.956   2.689   5.916
 1564SOL     OW 5590   1.504   3.469   5.630
 1564SOL    HW1 5591   1.412   3.506   5.637
 1564SOL    HW2 5592   1.542   3.489   5.540
 1565SOL     OW 5593   1.614   3.154   6.875
 1565SOL    HW1 5594   1.674   3.157   6.955
 1565SOL    HW2 5595   1.539   3.218   6.888
 1566SOL     OW 5596   1.039   2.960   6.282
 1566SOL    HW1 5597   0.969   2.913   6.336
 1566SOL    HW2 5598   1.098   2.892   6.239
 1567SOL     OW 5599   1.014   2.098   6.557
 1567SOL    HW1 5600   1.006   2.062   6.464
 1567SOL    HW2 5601   1.012   2.022   6.622
 1568SOL     OW 5602   0.590   3.349   6.077
 1568SOL    HW1 5603   0.632   3.291   6.007
 1568SOL    HW2 5604   0.546   3.428   6.033
 1569SOL     OW 5605   1.709   2.247   6.967
 1569SOL    HW1 5606   1.782   2.316   6.971
 1569SOL    HW2 5607   1.737   2.172   6.908
 1570SOL     OW 5608   0.255   3.210   5.876
 1570SOL    HW1 5609   0.159   3.211   5.849
 1570SOL    HW2 5610   0.267   3.263   5.960
 1571SOL     OW 5611   0.672   2.065   7.075
 1571SOL    HW1 5612   0.762   2.049   7.035
 1571SOL    HW2 5613   0.680   2.070   7.174
 1572SOL     OW 5614   0.075   2.207   5.619
 1572SOL    HW1 5615  -0.017   2.179   5.590
 1572SOL    HW2 5616   0.106   2.284   5.563
 1573SOL     OW 5617   0.072   2.028   5.904
 1573SOL    HW1 5618   0.055   2.111   5.850
 1573SOL    HW2 5619   0.162   1.991   5.882
 1574SOL     OW 5620   1.183   3.197   5.705
 1574SOL    HW1 5621   1.084   3.186   5.707
 1574SOL    HW2 5622   1.217   3.212   5.798
 1575SOL     OW 5623   1.493   3.629   6.545
 1575SOL    HW1 5624   1.526   3.693   6.476
 1575SOL    HW2 5625   1.559   3.623   6.620
 1576SOL     OW 5626   1.450   3.082   7.219
 1576SOL    HW1 5627   1.441   3.072   7.318
 1576SOL    HW2 5628   1.546   3.075   7.193
 1577SOL     OW 5629   0.390   3.603   7.146
 1577SOL    HW1 5630   0.299   3.644   7.144
 1577SOL    HW2 5631   0.383   3.509   7.178
 1578SOL     OW 5632   1.674   2.745   6.840
 1578SOL    HW1 5633   1.647   2.656   6.803
 1578SOL    HW2 5634   1.675   2.813   6.767
 1579SOL     OW 5635   1.225   2.187   6.035
 1579SOL    HW1 5636   1.290   2.113   6.024
 1579SOL    HW2 5637   1.245   2.237   6.119
 1580SOL     OW 5638   0.594   2.607   6.238
 1580SOL    HW1 5639   0.644   2.692   6.219
 1580SOL    HW2 5640   0.506   2.609   6.190
 1581SOL     OW 5641   1.730   2.796   7.103
 1581SOL    HW1 5642   1.768   2.887   7.118
 1581SOL    HW2 5643   1.722   2.779   7.004
 1582SOL     OW 5644   0.859   3.236   5.602
 1582SOL    HW1 5645   0.813   3.251   5.690
 1582SOL    HW2 5646   0.903   3.321   5.572
 1583SOL     OW 5647   0.661   3.652   6.539
 1583SOL    HW1 5648   0.615   3.740   6.526
 1583SOL    HW2 5649   0.760   3.664   6.532
 1584SOL     OW 5650   0.859   2.818   6.447
 1584SOL    HW1 5651   0.913   2.749   6.495
 1584SOL    HW2 5652   0.827   2.887   6.513
 1585SOL     OW 5653   1.083   2.846   5.673
 1585SOL    HW1 5654   1.060   2.899   5.591
 1585SOL    HW2 5655   1.164   2.790   5.654
 1586SOL     OW 5656   1.861   3.431   6.437
 1586SOL    HW1 5657   1.790   3.419   6.367
 1586SOL    HW2 5658   1.862   3.352   6.497
 1587SOL     OW 5659   0.079   3.102   6.239
 1587SOL    HW1 5660   0.078   3.055   6.327
 1587SOL    HW2 5661   0.161   3.074   6.188
 1588SOL     OW 5662   1.824   2.054   6.813
 1588SOL    HW1 5663   1.820   1.964   6.857
 1588SOL    HW2 5664   1.827   2.043   6.714
 1589SOL     OW 5665   0.428   2.286   6.106
 1589SOL    HW1 5666   0.458   2.214   6.044
 1589SOL    HW2 5667   0.389   2.246   6.189
 1590SOL     OW 5668   1.705   3.349   6.690
 1590SOL    HW1 5669   1.612   3.324   6.663
 1590SOL    HW2 5670   1.731   3.299   6.772
 1591SOL     OW 5671   0.317   2.409   6.866
 1591SOL    HW1 5672   0.355   2.350   6.938
 1591SOL    HW2 5673   0.357   2.383   6.778
 1592SOL     OW 5674   0.812   3.448   6.273
 1592SOL    HW1 5675   0.844   3.458   6.179
 1592SOL    HW2 5676   0.733   3.386   6.275
 1593SOL     OW 5677   1.424   2.076   6.698
 1593SOL    HW1 5678   1.476   2.011   6.753
 1593SOL    HW2 5679   1.375   2.139   6.759
 1594SOL     OW 5680   1.001   1.896   6.740
 1594SOL    HW1 5681   0.938   1.824   6.709
 1594SOL    HW2 5682   1.094   1.860   6.740
 1595SOL     OW 5683   0.770   3.192   5.887
 1595SOL    HW1 5684   0.724   3.105   5.904
 1595SOL    HW2 5685   0.861   3.189   5.928
 1596SOL     OW 5686   0.618   3.429   6.870
 1596SOL    HW1 5687   0.613   3.511   6.927
 1596SOL    HW2 5688   0.707   3.426   6.825
 1597SOL     OW 5689   1.352   1.914   5.754
 1597SOL    HW1 5690   1.387   1.873   5.670
 1597SOL    HW2 5691   1.262   1.876   5.774
 1598SOL     OW 5692   1.300   2.315   6.277
 1598SOL    HW1 5693   1.241   2.395   6.281
 1598SOL    HW2 5694   1.315   2.280   6.370
 1599SOL     OW 5695   1.593   2.083   6.468
 1599SOL    HW1 5696   1.509   2.082   6.522
 1599SOL    HW2 5697   1.595   2.166   6.412
 1600SOL     OW 5698   0.039   2.939   5.886
 1600SOL    HW1 5699   0.138   2.928   5.877
 1600SOL    HW2 5700  -0.001   2.853   5.918
 1601SOL     OW 5701   0.875   3.508   5.923
 1601SOL    HW1 5702   0.798   3.473   5.869
 1601SOL    HW2 5703   0.843   3.579   5.985
 1602SOL     OW 5704   0.230   4.352   0.113
 1602SOL    HW1 5705   0.137   4.350   0.150
 1602SOL    HW2 5706   0.231   4.313   0.021
 1603SOL     OW 5707   0.225   3.999   0.996
 1603SOL    HW1 5708   0.260   3.982   1.088
 1603SOL    HW2 5709   0.137   3.954   0.984
 1604SOL     OW 5710   0.019   4.092   0.647
 1604SOL    HW1 5711  -0.063   4.135   0.686
 1604SOL    HW2 5712  -0.009   4.019   0.584
 1605SOL     OW 5713   0.569   4.999   1.165
 1605SOL    HW1 5714   0.476   4.992   1.128
 1605SOL    HW2 5715   0.580   5.088   1.209
 1606SOL     OW 5716   1.555   5.235   0.703
 1606SOL    HW1 5717   1.498   5.219   0.784
 1606SOL    HW2 5718   1.496   5.245   0.623
 1607SOL     OW 5719   1.135   4.427   0.717
 1607SOL    HW1 5720   1.192   4.505   0.692
 1607SOL    HW2 5721   1.075   4.453   0.793
 1608SOL     OW 5722   1.755   4.331   0.231
 1608SOL    HW1 5723   1.743   4.318   0.132
 1608SOL    HW2 5724   1.725   4.250   0.280
 1609SOL     OW 5725   0.768   4.868   1.023
 1609SOL    HW1 5726   0.690   4.885   1.083
 1609SOL    HW2 5727   0.802   4.955   0.987
 1610SOL     OW 5728   0.850   4.522   1.823
 1610SOL    HW1 5729   0.846   4.598   1.888
 1610SOL    HW2 5730   0.872   4.558   1.732
 1611SOL     OW 5731   0.685   4.736   0.665
 1611SOL    HW1 5732   0.754   4.720   0.735
 1611SOL    HW2 5733   0.612   4.793   0.703
 1612SOL     OW 5734   0.686   4.885   1.803
 1612SOL    HW1 5735   0.746   4.964   1.817
 1612SOL    HW2 5736   0.600   4.916   1.762
 1613SOL     OW 5737   0.335   5.159   1.061
 1613SOL    HW1 5738   0.257   5.128   1.008
 1613SOL    HW2 5739   0.393   5.217   1.004
 1614SOL     OW 5740   1.460   5.229   1.339
 1614SOL    HW1 5741   1.484   5.323   1.365
 1614SOL    HW2 5742   1.444   5.175   1.421
 1615SOL     OW 5743   0.438   4.116   1.499
 1615SOL    HW1 5744   0.520   4.060   1.508
 1615SOL    HW2 5745   0.357   4.058   1.503
 1616SOL     OW 5746   1.603   4.171   0.737
 1616SOL    HW1 5747   1.529   4.217   0.687
 1616SOL    HW2 5748   1.654   4.239   0.790
 1617SOL     OW 5749   0.231   5.437   0.483
 1617SOL    HW1 5750   0.265   5.514   0.537
 1617SOL    HW2 5751   0.275   5.437   0.393
 1618SOL     OW 5752   1.127   5.065   1.690
 1618SOL    HW1 5753   1.174   5.065   1.778
 1618SOL    HW2 5754   1.079   4.978   1.679
 1619SOL     OW 5755   0.230   5.158   0.538
 1619SOL    HW1 5756   0.204   5.254   0.538
 1619SOL    HW2 5757   0.159   5.104   0.583
 1620SOL     OW 5758   0.240   4.815   0.886
 1620SOL    HW1 5759   0.254   4.731   0.938
 1620SOL    HW2 5760   0.185   4.879   0.941
 1621SOL     OW 5761   0.620   5.510   1.439
 1621SOL    HW1 5762   0.528   5.493   1.474
 1621SOL    HW2 5763   0.648   5.602   1.465
 1622SOL     OW 5764   0.606   4.688   0.123
 1622SOL    HW1 5765   0.613   4.772   0.069
 1622SOL    HW2 5766   0.652   4.701   0.211
 1623SOL     OW 5767   1.594   3.838   1.480
 1623SOL    HW1 5768   1.576   3.905   1.408
 1623SOL    HW2 5769   1.591   3.884   1.569
 1624SOL     OW 5770   0.122   4.367   0.563
 1624SOL    HW1 5771   0.077   4.279   0.580
 1624SOL    HW2 5772   0.121   4.421   0.647
 1625SOL     OW 5773   1.842   5.491   0.359
 1625SOL    HW1 5774   1.896   5.462   0.439
 1625SOL    HW2 5775   1.872   5.581   0.330
 1626SOL     OW 5776   0.027   5.320   0.117
 1626SOL    HW1 5777   0.008   5.224   0.138
 1626SOL    HW2 5778  -0.006   5.378   0.192
 1627SOL     OW 5779   1.689   4.646   0.612
 1627SOL    HW1 5780   1.784   4.617   0.620
 1627SOL    HW2 5781   1.681   4.711   0.537
 1628SOL     OW 5782   1.641   4.832   0.432
 1628SOL    HW1 5783   1.727   4.834   0.380
 1628SOL    HW2 5784   1.655   4.879   0.520
 1629SOL     OW 5785   0.113   4.461   1.597
 1629SOL    HW1 5786   0.201   4.448   1.642
 1629SOL    HW2 5787   0.100   4.558   1.575
 1630SOL     OW 5788   0.613   5.089   0.726
 1630SOL    HW1 5789   0.564   5.002   0.735
 1630SOL    HW2 5790   0.590   5.132   0.639
 1631SOL     OW 5791   1.293   4.952   1.423
 1631SOL    HW1 5792   1.330   4.879   1.365
 1631SOL    HW2 5793   1.345   4.957   1.508
 1632SOL     OW 5794   0.809   3.728   0.502
 1632SOL    HW1 5795   0.849   3.819   0.493
 1632SOL    HW2 5796   0.709   3.736   0.508
 1633SOL     OW 5797   0.197   4.700   1.264
 1633SOL    HW1 5798   0.286   4.655   1.250
 1633SOL    HW2 5799   0.124   4.635   1.245
 1634SOL     OW 5800   1.525   4.723   0.190
 1634SOL    HW1 5801   1.462   4.647   0.203
 1634SOL    HW2 5802   1.573   4.741   0.276
 1635SOL     OW 5803   1.187   5.516   1.616
 1635SOL    HW1 5804   1.211   5.576   1.540
 1635SOL    HW2 5805   1.194   5.421   1.586
 1636SOL     OW 5806   0.317   3.975   1.801
 1636SOL    HW1 5807   0.388   4.046   1.807
 1636SOL    HW2 5808   0.229   4.014   1.829
 1637SOL     OW 5809   1.466   5.141   0.953
 1637SOL    HW1 5810   1.407   5.147   1.033
 1637SOL    HW2 5811   1.451   5.053   0.907
 1638SOL     OW 5812   1.667   5.438   0.572
 1638SOL    HW1 5813   1.626   5.415   0.484
 1638SOL    HW2 5814   1.649   5.364   0.637
 1639SOL     OW 5815   0.598   4.453   0.270
 1639SOL    HW1 5816   0.622   4.522   0.202
 1639SOL    HW2 5817   0.520   4.486   0.324
 1640SOL     OW 5818   1.281   4.069   0.944
 1640SOL    HW1 5819   1.195   4.019   0.931
 1640SOL    HW2 5820   1.343   4.015   1.000
 1641SOL     OW 5821   1.576   5.386   0.307
 1641SOL    HW1 5822   1.665   5.432   0.310
 1641SOL    HW2 5823   1.555   5.362   0.212
 1642SOL     OW 5824   0.807   4.329   1.465
 1642SOL    HW1 5825   0.760   4.326   1.554
 1642SOL    HW2 5826   0.756   4.274   1.399
 1643SOL     OW 5827   1.394   4.193   1.674
 1643SOL    HW1 5828   1.374   4.236   1.762
 1643SOL    HW2 5829   1.472   4.131   1.683
 1644SOL     OW 5830   0.973   4.614   1.572
 1644SOL    HW1 5831   1.019   4.530   1.543
 1644SOL    HW2 5832   0.917   4.648   1.497
 1645SOL     OW 5833   0.991   4.134   1.242
 1645SOL    HW1 5834   0.914   4.168   1.296
 1645SOL    HW2 5835   0.957   4.083   1.163
 1646SOL     OW 5836   1.041   4.425   0.429
 1646SOL    HW1 5837   1.067   4.421   0.525
 1646SOL    HW2 5838   0.956   4.374   0.415
 1647SOL     OW 5839   0.076   4.535   0.789
 1647SOL    HW1 5840   0.175   4.523   0.798
 1647SOL    HW2 5841   0.052   4.630   0.810
 1648SOL     OW 5842   0.130   5.545   1.571
 1648SOL    HW1 5843   0.120   5.530   1.670
 1648SOL    HW2 5844   0.044   5.581   1.535
 1649SOL     OW 5845   0.865   4.072   0.195
 1649SOL    HW1 5846   0.924   4.135   0.146
 1649SOL    HW2 5847   0.884   3.978   0.166
 1650SOL     OW 5848   1.719   4.309   1.831
 1650SOL    HW1 5849   1.693   4.398   1.795
 1650SOL    HW2 5850   1.717   4.241   1.758
 1651SOL     OW 5851   1.362   4.868   0.545
 1651SOL    HW1 5852   1.445   4.839   0.497
 1651SOL    HW2 5853   1.313   4.935   0.489
 1652SOL     OW 5854   0.550   3.920   0.885
 1652SOL    HW1 5855   0.545   3.915   0.985
 1652SOL    HW2 5856   0.552   4.016   0.856
 1653SOL     OW 5857   1.008   5.180   0.477
 1653SOL    HW1 5858   0.962   5.252   0.425
 1653SOL    HW2 5859   1.004   5.200   0.575
 1654SOL     OW 5860   0.351   5.525   0.853
 1654SOL    HW1 5861   0.401   5.439   0.859
 1654SOL    HW2 5862   0.416   5.602   0.850
 1655SOL     OW 5863   1.795   4.790   0.873
 1655SOL    HW1 5864   1.733   4.775   0.797
 1655SOL    HW2 5865   1.743   4.801   0.958
 1656SOL     OW 5866   1.227   5.274   1.506
 1656SOL    HW1 5867   1.233   5.197   1.570
 1656SOL    HW2 5868   1.175   5.248   1.426
 1657SOL     OW 5869   0.321   4.667   0.242
 1657SOL    HW1 5870   0.403   4.706   0.200
 1657SOL    HW2 5871   0.294   4.585   0.193
 1658SOL     OW 5872   1.458   4.459   0.728
 1658SOL    HW1 5873   1.453   4.394   0.803
 1658SOL    HW2 5874   1.538   4.518   0.741
 1659SOL     OW 5875   0.461   4.990   1.727
 1659SOL    HW1 5876   0.411   4.991   1.641
 1659SOL    HW2 5877   0.398   4.972   1.803
 1660SOL     OW 5878   1.111   5.500   0.237
 1660SOL    HW1 5879   1.051   5.438   0.287
 1660SOL    HW2 5880   1.142   5.456   0.152
 1661SOL     OW 5881   0.202   4.009   1.498
 1661SOL    HW1 5882   0.122   4.069   1.485
 1661SOL    HW2 5883   0.192   3.960   1.584
 1662SOL     OW 5884   1.632   5.101   0.081
 1662SOL    HW1 5885   1.600   5.195   0.071
 1662SOL    HW2 5886   1.556   5.038   0.069
 1663SOL     OW 5887   0.464   5.467   0.323
 1663SOL    HW1 5888   0.497   5.506   0.409
 1663SOL    HW2 5889   0.540   5.460   0.258
 1664SOL     OW 5890   1.400   3.831   0.426
 1664SOL    HW1 5891   1.376   3.794   0.336
 1664SOL    HW2 5892   1.499   3.847   0.430
 1665SOL     OW 5893   0.249   5.509   1.241
 1665SOL    HW1 5894   0.306   5.444   1.291
 1665SOL    HW2 5895   0.233   5.476   1.148
 1666SOL     OW 5896   0.940   5.422   0.904
 1666SOL    HW1 5897   1.020   5.365   0.925
 1666SOL    HW2 5898   0.891   5.382   0.827
 1667SOL     OW 5899   0.382   4.424   0.480
 1667SOL    HW1 5900   0.427   4.334   0.477
 1667SOL    HW2 5901   0.288   4.413   0.513
 1668SOL     OW 5902   1.547   3.946   1.729
 1668SOL    HW1 5903   1.542   3.983   1.821
 1668SOL    HW2 5904   1.475   3.877   1.717
 1669SOL     OW 5905   0.781   3.988   1.749
 1669SOL    HW1 5906   0.848   3.927   1.792
 1669SOL    HW2 5907   0.708   4.007   1.814
 1670SOL     OW 5908   0.888   5.238   1.195
 1670SOL    HW1 5909   0.865   5.213   1.101
 1670SOL    HW2 5910   0.949   5.169   1.234
 1671SOL     OW 5911   1.351   4.314   1.433
 1671SOL    HW1 5912   1.379   4.271   1.518
 1671SOL    HW2 5913   1.376   4.410   1.434
 1672SOL     OW 5914   0.803   5.126   0.924
 1672SOL    HW1 5915   0.893   5.140   0.882
 1672SOL    HW2 5916   0.732   5.128   0.853
 1673SOL     OW 5917   0.922   4.227   0.899
 1673SOL    HW1 5918   0.897   4.218   0.803
 1673SOL    HW2 5919   0.970   4.145   0.930
 1674SOL     OW 5920   0.539   3.788   0.512
 1674SOL    HW1 5921   0.458   3.789   0.570
 1674SOL    HW2 5922   0.542   3.871   0.457
 1675SOL     OW 5923   1.434   4.912   0.041
 1675SOL    HW1 5924   1.466   4.836   0.098
 1675SOL    HW2 5925   1.342   4.939   0.071
 1676SOL     OW 5926   0.935   3.960   0.480
 1676SOL    HW1 5927   0.887   4.001   0.402
 1676SOL    HW2 5928   1.034   3.958   0.461
 1677SOL     OW 5929   1.076   4.407   1.464
 1677SOL    HW1 5930   0.996   4.346   1.467
 1677SOL    HW2 5931   1.157   4.354   1.440
 1678SOL     OW 5932   1.227   5.294   0.793
 1678SOL    HW1 5933   1.248   5.368   0.728
 1678SOL    HW2 5934   1.295   5.294   0.866
 1679SOL     OW 5935   0.459   4.876   0.741
 1679SOL    HW1 5936   0.388   4.849   0.806
 1679SOL    HW2 5937   0.433   4.848   0.648
 1680SOL     OW 5938   1.271   5.521   0.591
 1680SOL    HW1 5939   1.315   5.585   0.527
 1680SOL    HW2 5940   1.221   5.573   0.661
 1681SOL     OW 5941   1.032   4.273   0.016
 1681SOL    HW1 5942   0.991   4.355  -0.023
 1681SOL    HW2 5943   1.096   4.299   0.089
 1682SOL     OW 5944   0.078   4.280   1.386
 1682SOL    HW1 5945   0.170   4.279   1.345
 1682SOL    HW2 5946   0.072   4.354   1.453
 1683SOL     OW 5947   0.561   3.946   1.147
 1683SOL    HW1 5948   0.599   3.862   1.184
 1683SOL    HW2 5949   0.473   3.965   1.191
 1684SOL     OW 5950   0.866   4.178   0.642
 1684SOL    HW1 5951   0.834   4.250   0.580
 1684SOL    HW2 5952   0.890   4.097   0.589
 1685SOL     OW 5953   1.017   3.763   0.753
 1685SOL    HW1 5954   0.945   3.768   0.684
 1685SOL    HW2 5955   0.993   3.694   0.822
 1686SOL     OW 5956   1.429   4.897   0.867
 1686SOL    HW1 5957   1.374   4.813   0.860
 1686SOL    HW2 5958   1.455   4.926   0.775
 1687SOL     OW 5959   1.466   4.314   0.992
 1687SOL    HW1 5960   1.436   4.219   0.999
 1687SOL    HW2 5961   1.539   4.330   1.058
 1688SOL     OW 5962   1.857   4.557   0.377
 1688SOL    HW1 5963   1.899   4.493   0.441
 1688SOL    HW2 5964   1.819   4.506   0.299
 1689SOL     OW 5965   0.488   5.109   0.174
 1689SOL    HW1 5966   0.401   5.094   0.221
 1689SOL    HW2 5967   0.471   5.135   0.079
 1690SOL     OW 5968   1.664   5.004   0.657
 1690SOL    HW1 5969   1.763   5.012   0.671
 1690SOL    HW2 5970   1.619   5.088   0.688
 1691SOL     OW 5971   1.390   4.299   0.078
 1691SOL    HW1 5972   1.336   4.278   0.159
 1691SOL    HW2 5973   1.481   4.258   0.087
 1692SOL     OW 5974   0.527   3.980   0.328
 1692SOL    HW1 5975   0.554   3.921   0.253
 1692SOL    HW2 5976   0.527   4.075   0.297
 1693SOL     OW 5977   1.754   4.947   1.588
 1693SOL    HW1 5978   1.845   4.908   1.575
 1693SOL    HW2 5979   1.762   5.043   1.612
 1694SOL     OW 5980   1.064   5.071   1.340
 1694SOL    HW1 5981   0.984   5.048   1.395
 1694SOL    HW2 5982   1.147   5.045   1.389
 1695SOL     OW 5983   1.592   5.353   1.625
 1695SOL    HW1 5984   1.619   5.387   1.535
 1695SOL    HW2 5985   1.671   5.315   1.671
 1696SOL     OW 5986   1.111   4.919   1.100
 1696SOL    HW1 5987   1.071   4.963   1.181
 1696SOL    HW2 5988   1.070   4.956   1.017
 1697SOL     OW 5989   1.638   4.823   1.079
 1697SOL    HW1 5990   1.643   4.904   1.138
 1697SOL    HW2 5991   1.552   4.825   1.028
 1698SOL     OW 5992   0.915   3.813   1.402
 1698SOL    HW1 5993   0.940   3.793   1.307
 1698SOL    HW2 5994   0.987   3.869   1.444
 1699SOL     OW 5995   0.980   4.840   1.719
 1699SOL    HW1 5996   0.881   4.846   1.729
 1699SOL    HW2 5997   1.003   4.760   1.663
 1700SOL     OW 5998   0.705   4.774   0.368
 1700SOL    HW1 5999   0.691   4.781   0.467
 1700SOL    HW2 6000   0.789   4.723   0.350
 1701SOL     OW 6001   0.410   4.537   1.251
 1701SOL    HW1 6002   0.496   4.549   1.301
 1701SOL    HW2 6003   0.368   4.450   1.278
 1702SOL     OW 6004   1.274   4.110   1.262
 1702SOL    HW1 6005   1.295   4.184   1.326
 1702SOL    HW2 6006   1.185   4.127   1.219
 1703SOL     OW 6007   0.064   5.288   1.331
 1703SOL    HW1 6008   0.018   5.370   1.297
 1703SOL    HW2 6009   0.162   5.307   1.340
 1704SOL     OW 6010   0.367   4.824   0.501
 1704SOL    HW1 6011   0.360   4.907   0.445
 1704SOL    HW2 6012   0.371   4.744   0.441
 1705SOL     OW 6013   0.566   4.261   0.865
 1705SOL    HW1 6014   0.578   4.327   0.791
 1705SOL    HW2 6015   0.612   4.295   0.948
 1706SOL     OW 6016   1.252   5.072   0.388
 1706SOL    HW1 6017   1.302   5.149   0.428
 1706SOL    HW2 6018   1.157   5.074   0.420
 1707SOL     OW 6019   1.272   5.169   1.142
 1707SOL    HW1 6020   1.319   5.182   1.229
 1707SOL    HW2 6021   1.206   5.095   1.151
 1708SOL     OW 6022   1.582   4.363   0.472
 1708SOL    HW1 6023   1.551   4.424   0.545
 1708SOL    HW2 6024   1.632   4.415   0.403
 1709SOL     OW 6025   0.354   5.234   1.329
 1709SOL    HW1 6026   0.333   5.190   1.242
 1709SOL    HW2 6027   0.451   5.260   1.332
 1710SOL     OW 6028   0.402   4.475   1.598
 1710SOL    HW1 6029   0.470   4.530   1.551
 1710SOL    HW2 6030   0.442   4.387   1.625
 1711SOL     OW 6031   1.587   4.503   1.670
 1711SOL    HW1 6032   1.495   4.541   1.665
 1711SOL    HW2 6033   1.647   4.550   1.605
 1712SOL     OW 6034   1.013   3.829   1.770
 1712SOL    HW1 6035   1.019   3.914   1.718
 1712SOL    HW2 6036   1.045   3.753   1.713
 1713SOL     OW 6037   0.504   3.774   1.740
 1713SOL    HW1 6038   0.462   3.717   1.670
 1713SOL    HW2 6039   0.438   3.843   1.772
 1714SOL     OW 6040   0.573   4.594   1.029
 1714SOL    HW1 6041   0.617   4.683   1.020
 1714SOL    HW2 6042   0.510   4.594   1.106
 1715SOL     OW 6043   1.360   4.586   1.045
 1715SOL    HW1 6044   1.285   4.586   0.979
 1715SOL    HW2 6045   1.397   4.494   1.054
 1716SOL     OW 6046   1.209   4.249   0.275
 1716SOL    HW1 6047   1.222   4.165   0.329
 1716SOL    HW2 6048   1.180   4.323   0.335
 1717SOL     OW 6049   0.307   3.937   1.231
 1717SOL    HW1 6050   0.284   3.974   1.321
 1717SOL    HW2 6051   0.277   3.842   1.225
 1718SOL     OW 6052   0.037   5.034   1.282
 1718SOL    HW1 6053   0.090   4.985   1.350
 1718SOL    HW2 6054   0.059   5.132   1.287
 1719SOL     OW 6055   0.732   4.358   1.064
 1719SOL    HW1 6056   0.791   4.332   0.988
 1719SOL    HW2 6057   0.704   4.454   1.053
 1720SOL     OW 6058   1.728   4.659   1.854
 1720SOL    HW1 6059   1.682   4.652   1.765
 1720SOL    HW2 6060   1.666   4.703   1.920
 1721SOL     OW 6061   0.307   3.787   0.618
 1721SOL    HW1 6062   0.296   3.881   0.651
 1721SOL    HW2 6063   0.302   3.724   0.695
 1722SOL     OW 6064   1.622   4.091   0.374
 1722SOL    HW1 6065   1.624   4.015   0.438
 1722SOL    HW2 6066   1.574   4.168   0.414
 1723SOL     OW 6067   1.023   4.490   0.966
 1723SOL    HW1 6068   1.038   4.511   1.062
 1723SOL    HW2 6069   0.993   4.395   0.957
 1724SOL     OW 6070   0.980   5.297   1.700
 1724SOL    HW1 6071   0.960   5.341   1.612
 1724SOL    HW2 6072   1.019   5.206   1.684
 1725SOL     OW 6073   1.859   5.242   1.605
 1725SOL    HW1 6074   1.873   5.269   1.510
 1725SOL    HW2 6075   1.942   5.264   1.658
 1726SOL     OW 6076   0.350   4.622   1.804
 1726SOL    HW1 6077   0.426   4.666   1.852
 1726SOL    HW2 6078   0.385   4.575   1.722
 1727SOL     OW 6079   1.540   3.998   0.125
 1727SOL    HW1 6080   1.479   3.923   0.148
 1727SOL    HW2 6081   1.562   4.050   0.208
 1728SOL     OW 6082   1.303   4.562   0.042
 1728SOL    HW1 6083   1.337   4.469   0.057
 1728SOL    HW2 6084   1.321   4.589  -0.053
 1729SOL     OW 6085   1.068   5.057   0.849
 1729SOL    HW1 6086   1.075   4.973   0.794
 1729SOL    HW2 6087   1.130   5.126   0.813
 1730SOL     OW 6088   0.319   4.534   0.949
 1730SOL    HW1 6089   0.412   4.570   0.954
 1730SOL    HW2 6090   0.313   4.449   1.001
 1731SOL     OW 6091   0.339   4.233   1.006
 1731SOL    HW1 6092   0.287   4.150   0.989
 1731SOL    HW2 6093   0.416   4.238   0.942
 1732SOL     OW 6094   1.138   4.104   1.678
 1732SOL    HW1 6095   1.093   4.167   1.742
 1732SOL    HW2 6096   1.231   4.135   1.661
 1733SOL     OW 6097   1.160   3.931   1.477
 1733SOL    HW1 6098   1.160   3.995   1.554
 1733SOL    HW2 6099   1.188   3.979   1.394
 1734SOL     OW 6100   0.008   5.050   0.200
 1734SOL    HW1 6101  -0.085   5.071   0.169
 1734SOL    HW2 6102   0.018   4.951   0.213
 1735SOL     OW 6103   0.088   5.525   0.927
 1735SOL    HW1 6104   0.046   5.439   0.900
 1735SOL    HW2 6105   0.182   5.528   0.893
 1736SOL     OW 6106   0.504   5.292   0.910
 1736SOL    HW1 6107   0.570   5.366   0.919
 1736SOL    HW2 6108   0.548   5.213   0.868
 1737SOL     OW 6109   1.002   4.520   1.238
 1737SOL    HW1 6110   1.043   4.488   1.324
 1737SOL    HW2 6111   0.906   4.493   1.235
 1738SOL     OW 6112   0.040   4.268   1.114
 1738SOL    HW1 6113   0.125   4.235   1.073
 1738SOL    HW2 6114   0.053   4.283   1.212
 1739SOL     OW 6115   0.189   4.244   1.722
 1739SOL    HW1 6116   0.248   4.204   1.652
 1739SOL    HW2 6117   0.131   4.315   1.681
 1740SOL     OW 6118   1.369   4.674   1.660
 1740SOL    HW1 6119   1.408   4.763   1.680
 1740SOL    HW2 6120   1.379   4.654   1.563
 1741SOL     OW 6121   0.815   4.296   0.325
 1741SOL    HW1 6122   0.822   4.207   0.279
 1741SOL    HW2 6123   0.721   4.330   0.317
 1742SOL     OW 6124   1.657   4.328   1.206
 1742SOL    HW1 6125   1.619   4.259   1.268
 1742SOL    HW2 6126   1.739   4.292   1.162
 1743SOL     OW 6127   0.252   5.288   1.744
 1743SOL    HW1 6128   0.222   5.345   1.820
 1743SOL    HW2 6129   0.245   5.191   1.770
 1744SOL     OW 6130   0.671   4.188   1.269
 1744SOL    HW1 6131   0.637   4.099   1.239
 1744SOL    HW2 6132   0.697   4.242   1.189
 1745SOL     OW 6133   0.930   5.402   1.465
 1745SOL    HW1 6134   0.906   5.384   1.370
 1745SOL    HW2 6135   0.960   5.496   1.475
 1746SOL     OW 6136   0.473   4.224   0.191
 1746SOL    HW1 6137   0.534   4.304   0.195
 1746SOL    HW2 6138   0.378   4.255   0.198
 1747SOL     OW 6139   0.159   4.861   1.466
 1747SOL    HW1 6140   0.181   4.800   1.542
 1747SOL    HW2 6141   0.169   4.812   1.380
 1748SOL     OW 6142   1.347   4.783   1.234
 1748SOL    HW1 6143   1.371   4.720   1.160
 1748SOL    HW2 6144   1.257   4.823   1.216
 1749SOL     OW 6145   1.302   4.579   0.309
 1749SOL    HW1 6146   1.216   4.548   0.351
 1749SOL    HW2 6147   1.298   4.565   0.210
 1750SOL     OW 6148   1.759   5.471   1.154
 1750SOL    HW1 6149   1.820   5.501   1.081
 1750SOL    HW2 6150   1.721   5.382   1.132
 1751SOL     OW 6151   1.252   5.455   1.128
 1751SOL    HW1 6152   1.336   5.460   1.074
 1751SOL    HW2 6153   1.229   5.359   1.146
 1752SOL     OW 6154   0.083   4.982   1.022
 1752SOL    HW1 6155   0.078   4.981   1.122
 1752SOL    HW2 6156   0.000   4.941   0.984
 1753SOL     OW 6157   0.688   5.386   1.716
 1753SOL    HW1 6158   0.632   5.467   1.725
 1753SOL    HW2 6159   0.740   5.390   1.630
 1754SOL     OW 6160   0.903   3.810   0.133
 1754SOL    HW1 6161   0.954   3.811   0.047
 1754SOL    HW2 6162   0.959   3.768   0.204
 1755SOL     OW 6163   1.726   3.859   0.523
 1755SOL    HW1 6164   1.799   3.842   0.456
 1755SOL    HW2 6165   1.695   3.772   0.561
 1756SOL     OW 6166   1.388   5.297   0.477
 1756SOL    HW1 6167   1.455   5.309   0.403
 1756SOL    HW2 6168   1.348   5.386   0.500
 1757SOL     OW 6169   0.130   5.518   1.851
 1757SOL    HW1 6170   0.089   5.444   1.904
 1757SOL    HW2 6171   0.194   5.569   1.909
 1758SOL     OW 6172   1.280   4.651   0.672
 1758SOL    HW1 6173   1.340   4.570   0.674
 1758SOL    HW2 6174   1.320   4.720   0.612
 1759SOL     OW 6175   0.830   4.997   1.422
 1759SOL    HW1 6176   0.825   5.030   1.517
 1759SOL    HW2 6177   0.744   5.016   1.376
 1760SOL     OW 6178   0.672   5.340   0.154
 1760SOL    HW1 6179   0.681   5.350   0.055
 1760SOL    HW2 6180   0.632   5.251   0.175
 1761SOL     OW 6181   1.650   5.444   1.394
 1761SOL    HW1 6182   1.703   5.454   1.310
 1761SOL    HW2 6183   1.623   5.534   1.428
 1762SOL     OW 6184   1.841   3.899   0.963
 1762SOL    HW1 6185   1.880   3.814   0.927
 1762SOL    HW2 6186   1.743   3.901   0.944
 1763SOL     OW 6187   0.263   4.050   0.720
 1763SOL    HW1 6188   0.184   4.101   0.686
 1763SOL    HW2 6189   0.254   4.035   0.818
 1764SOL     OW 6190   1.194   5.336   0.031
 1764SOL    HW1 6191   1.200   5.243   0.068
 1764SOL    HW2 6192   1.135   5.336  -0.049
 1765SOL     OW 6193   0.822   4.726   1.372
 1765SOL    HW1 6194   0.862   4.725   1.280
 1765SOL    HW2 6195   0.832   4.818   1.412
 1766SOL     OW 6196   0.916   4.634   0.291
 1766SOL    HW1 6197   0.979   4.672   0.223
 1766SOL    HW2 6198   0.956   4.551   0.330
 1767SOL     OW 6199   1.504   5.331   0.044
 1767SOL    HW1 6200   1.412   5.368   0.051
 1767SOL    HW2 6201   1.542   5.351  -0.046
 1768SOL     OW 6202   0.372   5.012   1.490
 1768SOL    HW1 6203   0.359   5.105   1.456
 1768SOL    HW2 6204   0.288   4.960   1.477
 1769SOL     OW 6205   1.614   5.016   1.289
 1769SOL    HW1 6206   1.674   5.019   1.369
 1769SOL    HW2 6207   1.539   5.080   1.302
 1770SOL     OW 6208   1.039   4.822   0.696
 1770SOL    HW1 6209   0.969   4.775   0.750
 1770SOL    HW2 6210   1.098   4.754   0.653
 1771SOL     OW 6211   1.014   3.960   0.971
 1771SOL    HW1 6212   1.006   3.924   0.878
 1771SOL    HW2 6213   1.012   3.884   1.036
 1772SOL     OW 6214   0.590   5.211   0.491
 1772SOL    HW1 6215   0.632   5.153   0.421
 1772SOL    HW2 6216   0.546   5.290   0.447
 1773SOL     OW 6217   1.709   4.109   1.381
 1773SOL    HW1 6218   1.782   4.178   1.385
 1773SOL    HW2 6219   1.737   4.034   1.322
 1774SOL     OW 6220   0.255   5.072   0.290
 1774SOL    HW1 6221   0.159   5.073   0.263
 1774SOL    HW2 6222   0.267   5.125   0.374
 1775SOL     OW 6223   0.105   4.737   1.726
 1775SOL    HW1 6224   0.028   4.704   1.780
 1775SOL    HW2 6225   0.190   4.707   1.768
 1776SOL     OW 6226   0.672   3.927   1.489
 1776SOL    HW1 6227   0.762   3.911   1.449
 1776SOL    HW2 6228   0.680   3.932   1.588
 1777SOL     OW 6229   0.075   4.069   0.033
 1777SOL    HW1 6230  -0.017   4.041   0.004
 1777SOL    HW2 6231   0.106   4.146  -0.023
 1778SOL     OW 6232   1.440   4.580   1.398
 1778SOL    HW1 6233   1.383   4.632   1.335
 1778SOL    HW2 6234   1.536   4.592   1.374
 1779SOL     OW 6235   0.072   3.890   0.318
 1779SOL    HW1 6236   0.055   3.973   0.264
 1779SOL    HW2 6237   0.162   3.853   0.296
 1780SOL     OW 6238   1.183   5.059   0.119
 1780SOL    HW1 6239   1.084   5.048   0.121
 1780SOL    HW2 6240   1.217   5.074   0.212
 1781SOL     OW 6241   0.613   4.566   1.431
 1781SOL    HW1 6242   0.669   4.647   1.414
 1781SOL    HW2 6243   0.672   4.486   1.434
 1782SOL     OW 6244   1.493   5.491   0.959
 1782SOL    HW1 6245   1.526   5.555   0.890
 1782SOL    HW2 6246   1.559   5.485   1.034
 1783SOL     OW 6247   0.716   4.289   1.708
 1783SOL    HW1 6248   0.735   4.354   1.782
 1783SOL    HW2 6249   0.776   4.209   1.717
 1784SOL     OW 6250   1.450   4.944   1.633
 1784SOL    HW1 6251   1.441   4.934   1.732
 1784SOL    HW2 6252   1.546   4.937   1.607
 1785SOL     OW 6253   0.390   5.465   1.560
 1785SOL    HW1 6254   0.299   5.506   1.558
 1785SOL    HW2 6255   0.383   5.371   1.592
 1786SOL     OW 6256   1.674   4.607   1.254
 1786SOL    HW1 6257   1.647   4.518   1.217
 1786SOL    HW2 6258   1.675   4.675   1.181
 1787SOL     OW 6259   1.225   4.049   0.449
 1787SOL    HW1 6260   1.290   3.975   0.438
 1787SOL    HW2 6261   1.245   4.099   0.533
 1788SOL     OW 6262   0.594   4.469   0.652
 1788SOL    HW1 6263   0.644   4.554   0.633
 1788SOL    HW2 6264   0.506   4.471   0.604
 1789SOL     OW 6265   1.777   4.066   1.642
 1789SOL    HW1 6266   1.760   4.097   1.548
 1789SOL    HW2 6267   1.693   4.029   1.680
 1790SOL     OW 6268   1.730   4.658   1.517
 1790SOL    HW1 6269   1.768   4.749   1.532
 1790SOL    HW2 6270   1.722   4.641   1.418
 1791SOL     OW 6271   0.859   5.098   0.016
 1791SOL    HW1 6272   0.813   5.113   0.104
 1791SOL    HW2 6273   0.903   5.183  -0.014
 1792SOL     OW 6274   0.661   5.514   0.953
 1792SOL    HW1 6275   0.615   5.602   0.940
 1792SOL    HW2 6276   0.760   5.526   0.946
 1793SOL     OW 6277   0.859   4.680   0.861
 1793SOL    HW1 6278   0.913   4.611   0.909
 1793SOL    HW2 6279   0.827   4.749   0.927
 1794SOL     OW 6280   1.083   4.708   0.087
 1794SOL    HW1 6281   1.060   4.761   0.005
 1794SOL    HW2 6282   1.164   4.652   0.068
 1795SOL     OW 6283   1.861   5.293   0.851
 1795SOL    HW1 6284   1.790   5.281   0.781
 1795SOL    HW2 6285   1.862   5.214   0.911
 1796SOL     OW 6286   0.221   5.038   1.844
 1796SOL    HW1 6287   0.156   4.965   1.823
 1796SOL    HW2 6288   0.225   5.052   1.942
 1797SOL     OW 6289   0.079   4.964   0.653
 1797SOL    HW1 6290   0.078   4.917   0.741
 1797SOL    HW2 6291   0.161   4.936   0.602
 1798SOL     OW 6292   0.672   5.115   1.624
 1798SOL    HW1 6293   0.594   5.065   1.662
 1798SOL    HW2 6294   0.669   5.210   1.655
 1799SOL     OW 6295   1.824   3.916   1.227
 1799SOL    HW1 6296   1.820   3.826   1.271
 1799SOL    HW2 6297   1.827   3.905   1.128
 1800SOL     OW 6298   0.428   4.148   0.520
 1800SOL    HW1 6299   0.458   4.076   0.458
 1800SOL    HW2 6300   0.389   4.108   0.603
 1801SOL     OW 6301   1.705   5.211   1.104
 1801SOL    HW1 6302   1.612   5.186   1.077
 1801SOL    HW2 6303   1.731   5.161   1.186
 1802SOL     OW 6304   0.317   4.271   1.280
 1802SOL    HW1 6305   0.355   4.212   1.352
 1802SOL    HW2 6306   0.357   4.245   1.192
 1803SOL     OW 6307   0.812   5.310   0.687
 1803SOL    HW1 6308   0.844   5.320   0.593
 1803SOL    HW2 6309   0.733   5.248   0.689
 1804SOL     OW 6310   1.424   3.938   1.112
 1804SOL    HW1 6311   1.476   3.873   1.167
 1804SOL    HW2 6312   1.375   4.001   1.173
 1805SOL     OW 6313   1.001   3.758   1.154
 1805SOL    HW1 6314   0.938   3.686   1.123
 1805SOL    HW2 6315   1.094   3.722   1.154
 1806SOL     OW 6316   0.770   5.054   0.301
 1806SOL    HW1 6317   0.724   4.967   0.318
 1806SOL    HW2 6318   0.861   5.051   0.342
 1807SOL     OW 6319   0.618   5.291   1.284
 1807SOL    HW1 6320   0.613   5.373   1.341
 1807SOL    HW2 6321   0.707   5.288   1.239
 1808SOL     OW 6322   1.352   3.776   0.168
 1808SOL    HW1 6323   1.387   3.735   0.084
 1808SOL    HW2 6324   1.262   3.738   0.188
 1809SOL     OW 6325   1.300   4.177   0.691
 1809SOL    HW1 6326   1.241   4.257   0.695
 1809SOL    HW2 6327   1.315   4.142   0.784
 1810SOL     OW 6328   1.593   3.945   0.882
 1810SOL    HW1 6329   1.509   3.944   0.936
 1810SOL    HW2 6330   1.595   4.028   0.826
 1811SOL     OW 6331   0.039   4.801   0.300
 1811SOL    HW1 6332   0.138   4.790   0.291
 1811SOL    HW2 6333  -0.001   4.715   0.332
 1812SOL     OW 6334   0.875   5.370   0.337
 1812SOL    HW1 6335   0.798   5.335   0.283
 1812SOL    HW2 6336   0.843   5.441   0.399
 1813SOL     OW 6337   0.230   4.352   1.975
 1813SOL    HW1 6338   0.137   4.350   2.012
 1813SOL    HW2 6339   0.231   4.313   1.883
 1814SOL     OW 6340   0.225   3.999   2.858
 1814SOL    HW1 6341   0.260   3.982   2.950
 1814SOL    HW2 6342   0.137   3.954   2.846
 1815SOL     OW 6343   0.019   4.092   2.509
 1815SOL    HW1 6344  -0.063   4.135   2.548
 1815SOL    HW2 6345  -0.009   4.019   2.446
 1816SOL     OW 6346   0.569   4.999   3.027
 1816SOL    HW1 6347   0.476   4.992   2.990
 1816SOL    HW2 6348   0.580   5.088   3.071
 1817SOL     OW 6349   1.555   5.235   2.565
 1817SOL    HW1 6350   1.498   5.219   2.646
 1817SOL    HW2 6351   1.496   5.245   2.485
 1818SOL     OW 6352   1.135   4.427   2.579
 1818SOL    HW1 6353   1.192   4.505   2.554
 1818SOL    HW2 6354   1.075   4.453   2.655
 1819SOL     OW 6355   1.755   4.331   2.093
 1819SOL    HW1 6356   1.743   4.318   1.994
 1819SOL    HW2 6357   1.725   4.250   2.142
 1820SOL     OW 6358   0.768   4.868   2.885
 1820SOL    HW1 6359   0.690   4.885   2.945
 1820SOL    HW2 6360   0.802   4.955   2.849
 1821SOL     OW 6361   0.850   4.522   3.685
 1821SOL    HW1 6362   0.846   4.598   3.750
 1821SOL    HW2 6363   0.872   4.558   3.594
 1822SOL     OW 6364   0.685   4.736   2.527
 1822SOL    HW1 6365   0.754   4.720   2.597
 1822SOL    HW2 6366   0.612   4.793   2.565
 1823SOL     OW 6367   0.686   4.885   3.665
 1823SOL    HW1 6368   0.746   4.964   3.679
 1823SOL    HW2 6369   0.600   4.916   3.624
 1824SOL     OW 6370   0.335   5.159   2.923
 1824SOL    HW1 6371   0.257   5.128   2.870
 1824SOL    HW2 6372   0.393   5.217   2.866
 1825SOL     OW 6373   1.460   5.229   3.201
 1825SOL    HW1 6374   1.484   5.323   3.227
 1825SOL    HW2 6375   1.444   5.175   3.283
 1826SOL     OW 6376   0.438   4.116   3.361
 1826SOL    HW1 6377   0.520   4.060   3.370
 1826SOL    HW2 6378   0.357   4.058   3.365
 1827SOL     OW 6379   1.603   4.171   2.599
 1827SOL    HW1 6380   1.529   4.217   2.549
 1827SOL    HW2 6381   1.654   4.239   2.652
 1828SOL     OW 6382   0.231   5.437   2.345
 1828SOL    HW1 6383   0.265   5.514   2.399
 1828SOL    HW2 6384   0.275   5.437   2.255
 1829SOL     OW 6385   1.127   5.065   3.552
 1829SOL    HW1 6386   1.174   5.065   3.640
 1829SOL    HW2 6387   1.079   4.978   3.541
 1830SOL     OW 6388   0.230   5.158   2.400
 1830SOL    HW1 6389   0.204   5.254   2.400
 1830SOL    HW2 6390   0.159   5.104   2.445
 1831SOL     OW 6391   0.240   4.815   2.748
 1831SOL    HW1 6392   0.254   4.731   2.800
 1831SOL    HW2 6393   0.185   4.879   2.803
 1832SOL     OW 6394   0.620   5.510   3.301
 1832SOL    HW1 6395   0.528   5.493   3.336
 1832SOL    HW2 6396   0.648   5.602   3.327
 1833SOL     OW 6397   0.606   4.688   1.985
 1833SOL    HW1 6398   0.613   4.772   1.931
 1833SOL    HW2 6399   0.652   4.701   2.073
 1834SOL     OW 6400   1.594   3.838   3.342
 1834SOL    HW1 6401   1.576   3.905   3.270
 1834SOL    HW2 6402   1.591   3.884   3.431
 1835SOL     OW 6403   0.122   4.367   2.425
 1835SOL    HW1 6404   0.077   4.279   2.442
 1835SOL    HW2 6405   0.121   4.421   2.509
 1836SOL     OW 6406   1.842   5.491   2.221
 1836SOL    HW1 6407   1.896   5.462   2.301
 1836SOL    HW2 6408   1.872   5.581   2.192
 1837SOL     OW 6409   0.027   5.320   1.979
 1837SOL    HW1 6410   0.008   5.224   2.000
 1837SOL    HW2 6411  -0.006   5.378   2.054
 1838SOL     OW 6412   1.689   4.646   2.474
 1838SOL    HW1 6413   1.784   4.617   2.482
 1838SOL    HW2 6414   1.681   4.711   2.399
 1839SOL     OW 6415   1.641   4.832   2.294
 1839SOL    HW1 6416   1.727   4.834   2.242
 1839SOL    HW2 6417   1.655   4.879   2.382
 1840SOL     OW 6418   0.113   4.461   3.459
 1840SOL    HW1 6419   0.201   4.448   3.504
 1840SOL    HW2 6420   0.100   4.558   3.437
 1841SOL     OW 6421   0.613   5.089   2.588
 1841SOL    HW1 6422   0.564   5.002   2.597
 1841SOL    HW2 6423   0.590   5.132   2.501
 1842SOL     OW 6424   1.293   4.952   3.285
 1842SOL    HW1 6425   1.330   4.879   3.227
 1842SOL    HW2 6426   1.345   4.957   3.370
 1843SOL     OW 6427   0.809   3.728   2.364
 1843SOL    HW1 6428   0.849   3.819   2.355
 1843SOL    HW2 6429   0.709   3.736   2.370
 1844SOL     OW 6430   0.197   4.700   3.126
 1844SOL    HW1 6431   0.286   4.655   3.112
 1844SOL    HW2 6432   0.124   4.635   3.107
 1845SOL     OW 6433   1.525   4.723   2.052
 1845SOL    HW1 6434   1.462   4.647   2.065
 1845SOL    HW2 6435   1.573   4.741   2.138
 1846SOL     OW 6436   1.187   5.516   3.478
 1846SOL    HW1 6437   1.211   5.576   3.402
 1846SOL    HW2 6438   1.194   5.421   3.448
 1847SOL     OW 6439   0.317   3.975   3.663
 1847SOL    HW1 6440   0.388   4.046   3.669
 1847SOL    HW2 6441   0.229   4.014   3.691
 1848SOL     OW 6442   1.466   5.141   2.815
 1848SOL    HW1 6443   1.407   5.147   2.895
 1848SOL    HW2 6444   1.451   5.053   2.769
 1849SOL     OW 6445   1.667   5.438   2.434
 1849SOL    HW1 6446   1.626   5.415   2.346
 1849SOL    HW2 6447   1.649   5.364   2.499
 1850SOL     OW 6448   0.598   4.453   2.132
 1850SOL    HW1 6449   0.622   4.522   2.064
 1850SOL    HW2 6450   0.520   4.486   2.186
 1851SOL     OW 6451   1.281   4.069   2.806
 1851SOL    HW1 6452   1.195   4.019   2.793
 1851SOL    HW2 6453   1.343   4.015   2.862
 1852SOL     OW 6454   1.576   5.386   2.169
 1852SOL    HW1 6455   1.665   5.432   2.172
 1852SOL    HW2 6456   1.555   5.362   2.074
 1853SOL     OW 6457   0.807   4.329   3.327
 1853SOL    HW1 6458   0.760   4.326   3.416
 1853SOL    HW2 6459   0.756   4.274   3.261
 1854SOL     OW 6460   1.394   4.193   3.536
 1854SOL    HW1 6461   1.374   4.236   3.624
 1854SOL    HW2 6462   1.472   4.131   3.545
 1855SOL     OW 6463   0.973   4.614   3.434
 1855SOL    HW1 6464   1.019   4.530   3.405
 1855SOL    HW2 6465   0.917   4.648   3.359
 1856SOL     OW 6466   0.991   4.134   3.104
 1856SOL    HW1 6467   0.914   4.168   3.158
 1856SOL    HW2 6468   0.957   4.083   3.025
 1857SOL     OW 6469   1.041   4.425   2.291
 1857SOL    HW1 6470   1.067   4.421   2.387
 1857SOL    HW2 6471   0.956   4.374   2.277
 1858SOL     OW 6472   0.076   4.535   2.651
 1858SOL    HW1 6473   0.175   4.523   2.660
 1858SOL    HW2 6474   0.052   4.630   2.672
 1859SOL     OW 6475   0.130   5.545   3.433
 1859SOL    HW1 6476   0.120   5.530   3.532
 1859SOL    HW2 6477   0.044   5.581   3.397
 1860SOL     OW 6478   0.865   4.072   2.057
 1860SOL    HW1 6479   0.924   4.135   2.008
 1860SOL    HW2 6480   0.884   3.978   2.028
 1861SOL     OW 6481   1.719   4.309   3.693
 1861SOL    HW1 6482   1.693   4.398   3.657
 1861SOL    HW2 6483   1.717   4.241   3.620
 1862SOL     OW 6484   1.362   4.868   2.407
 1862SOL    HW1 6485   1.445   4.839   2.359
 1862SOL    HW2 6486   1.313   4.935   2.351
 1863SOL     OW 6487   0.550   3.920   2.747
 1863SOL    HW1 6488   0.545   3.915   2.847
 1863SOL    HW2 6489   0.552   4.016   2.718
 1864SOL     OW 6490   1.008   5.180   2.339
 1864SOL    HW1 6491   0.962   5.252   2.287
 1864SOL    HW2 6492   1.004   5.200   2.437
 1865SOL     OW 6493   0.351   5.525   2.715
 1865SOL    HW1 6494   0.401   5.439   2.721
 1865SOL    HW2 6495   0.416   5.602   2.712
 1866SOL     OW 6496   1.795   4.790   2.735
 1866SOL    HW1 6497   1.733   4.775   2.659
 1866SOL    HW2 6498   1.743   4.801   2.820
 1867SOL     OW 6499   1.227   5.274   3.368
 1867SOL    HW1 6500   1.233   5.197   3.432
 1867SOL    HW2 6501   1.175   5.248   3.288
 1868SOL     OW 6502   0.321   4.667   2.104
 1868SOL    HW1 6503   0.403   4.706   2.062
 1868SOL    HW2 6504   0.294   4.585   2.055
 1869SOL     OW 6505   1.458   4.459   2.590
 1869SOL    HW1 6506   1.453   4.394   2.665
 1869SOL    HW2 6507   1.538   4.518   2.603
 1870SOL     OW 6508   0.461   4.990   3.589
 1870SOL    HW1 6509   0.411   4.991   3.503
 1870SOL    HW2 6510   0.398   4.972   3.665
 1871SOL     OW 6511   1.111   5.500   2.099
 1871SOL    HW1 6512   1.051   5.438   2.149
 1871SOL    HW2 6513   1.142   5.456   2.014
 1872SOL     OW 6514   0.202   4.009   3.360
 1872SOL    HW1 6515   0.122   4.069   3.347
 1872SOL    HW2 6516   0.192   3.960   3.446
 1873SOL     OW 6517   1.632   5.101   1.943
 1873SOL    HW1 6518   1.600   5.195   1.933
 1873SOL    HW2 6519   1.556   5.038   1.931
 1874SOL     OW 6520   0.464   5.467   2.185
 1874SOL    HW1 6521   0.497   5.506   2.271
 1874SOL    HW2 6522   0.540   5.460   2.120
 1875SOL     OW 6523   1.400   3.831   2.288
 1875SOL    HW1 6524   1.376   3.794   2.198
 1875SOL    HW2 6525   1.499   3.847   2.292
 1876SOL     OW 6526   0.249   5.509   3.103
 1876SOL    HW1 6527   0.306   5.444   3.153
 1876SOL    HW2 6528   0.233   5.476   3.010
 1877SOL     OW 6529   0.940   5.422   2.766
 1877SOL    HW1 6530   1.020   5.365   2.787
 1877SOL    HW2 6531   0.891   5.382   2.689
 1878SOL     OW 6532   0.382   4.424   2.342
 1878SOL    HW1 6533   0.427   4.334   2.339
 1878SOL    HW2 6534   0.288   4.413   2.375
 1879SOL     OW 6535   1.547   3.946   3.591
 1879SOL    HW1 6536   1.542   3.983   3.683
 1879SOL    HW2 6537   1.475   3.877   3.579
 1880SOL     OW 6538   0.614   3.846   1.979
 1880SOL    HW1 6539   0.712   3.824   1.986
 1880SOL    HW2 6540   0.583   3.829   1.886
 1881SOL     OW 6541   0.781   3.988   3.611
 1881SOL    HW1 6542   0.848   3.927   3.654
 1881SOL    HW2 6543   0.708   4.007   3.676
 1882SOL     OW 6544   0.888   5.238   3.057
 1882SOL    HW1 6545   0.865   5.213   2.963
 1882SOL    HW2 6546   0.949   5.169   3.096
 1883SOL     OW 6547   1.351   4.314   3.295
 1883SOL    HW1 6548   1.379   4.271   3.380
 1883SOL    HW2 6549   1.376   4.410   3.296
 1884SOL     OW 6550   0.803   5.126   2.786
 1884SOL    HW1 6551   0.893   5.140   2.744
 1884SOL    HW2 6552   0.732   5.128   2.715
 1885SOL     OW 6553   0.922   4.227   2.761
 1885SOL    HW1 6554   0.897   4.218   2.665
 1885SOL    HW2 6555   0.970   4.145   2.792
 1886SOL     OW 6556   0.539   3.788   2.374
 1886SOL    HW1 6557   0.458   3.789   2.432
 1886SOL    HW2 6558   0.542   3.871   2.319
 1887SOL     OW 6559   1.434   4.912   1.903
 1887SOL    HW1 6560   1.466   4.836   1.960
 1887SOL    HW2 6561   1.342   4.939   1.933
 1888SOL     OW 6562   0.297   3.759   2.033
 1888SOL    HW1 6563   0.346   3.843   2.012
 1888SOL    HW2 6564   0.359   3.694   2.078
 1889SOL     OW 6565   0.935   3.960   2.342
 1889SOL    HW1 6566   0.887   4.001   2.264
 1889SOL    HW2 6567   1.034   3.958   2.323
 1890SOL     OW 6568   1.076   4.407   3.326
 1890SOL    HW1 6569   0.996   4.346   3.329
 1890SOL    HW2 6570   1.157   4.354   3.302
 1891SOL     OW 6571   1.227   5.294   2.655
 1891SOL    HW1 6572   1.248   5.368   2.590
 1891SOL    HW2 6573   1.295   5.294   2.728
 1892SOL     OW 6574   0.459   4.876   2.603
 1892SOL    HW1 6575   0.388   4.849   2.668
 1892SOL    HW2 6576   0.433   4.848   2.510
 1893SOL     OW 6577   1.271   5.521   2.453
 1893SOL    HW1 6578   1.315   5.585   2.389
 1893SOL    HW2 6579   1.221   5.573   2.523
 1894SOL     OW 6580   1.032   4.273   1.878
 1894SOL    HW1 6581   0.991   4.355   1.839
 1894SOL    HW2 6582   1.096   4.299   1.951
 1895SOL     OW 6583   0.078   4.280   3.248
 1895SOL    HW1 6584   0.170   4.279   3.207
 1895SOL    HW2 6585   0.072   4.354   3.315
 1896SOL     OW 6586   0.561   3.946   3.009
 1896SOL    HW1 6587   0.599   3.862   3.046
 1896SOL    HW2 6588   0.473   3.965   3.053
 1897SOL     OW 6589   0.866   4.178   2.504
 1897SOL    HW1 6590   0.834   4.250   2.442
 1897SOL    HW2 6591   0.890   4.097   2.451
 1898SOL     OW 6592   1.017   3.763   2.615
 1898SOL    HW1 6593   0.945   3.768   2.546
 1898SOL    HW2 6594   0.993   3.694   2.684
 1899SOL     OW 6595   1.429   4.897   2.729
 1899SOL    HW1 6596   1.374   4.813   2.722
 1899SOL    HW2 6597   1.455   4.926   2.637
 1900SOL     OW 6598   1.466   4.314   2.854
 1900SOL    HW1 6599   1.436   4.219   2.861
 1900SOL    HW2 6600   1.539   4.330   2.920
 1901SOL     OW 6601   1.857   4.557   2.239
 1901SOL    HW1 6602   1.899   4.493   2.303
 1901SOL    HW2 6603   1.819   4.506   2.161
 1902SOL     OW 6604   0.488   5.109   2.036
 1902SOL    HW1 6605   0.401   5.094   2.083
 1902SOL    HW2 6606   0.471   5.135   1.941
 1903SOL     OW 6607   1.664   5.004   2.519
 1903SOL    HW1 6608   1.763   5.012   2.533
 1903SOL    HW2 6609   1.619   5.088   2.550
 1904SOL     OW 6610   1.390   4.299   1.940
 1904SOL    HW1 6611   1.336   4.278   2.021
 1904SOL    HW2 6612   1.481   4.258   1.949
 1905SOL     OW 6613   0.527   3.980   2.190
 1905SOL    HW1 6614   0.554   3.921   2.115
 1905SOL    HW2 6615   0.527   4.075   2.159
 1906SOL     OW 6616   1.754   4.947   3.450
 1906SOL    HW1 6617   1.845   4.908   3.437
 1906SOL    HW2 6618   1.762   5.043   3.474
 1907SOL     OW 6619   1.064   5.071   3.202
 1907SOL    HW1 6620   0.984   5.048   3.257
 1907SOL    HW2 6621   1.147   5.045   3.251
 1908SOL     OW 6622   1.592   5.353   3.487
 1908SOL    HW1 6623   1.619   5.387   3.397
 1908SOL    HW2 6624   1.671   5.315   3.533
 1909SOL     OW 6625   1.111   4.919   2.962
 1909SOL    HW1 6626   1.071   4.963   3.043
 1909SOL    HW2 6627   1.070   4.956   2.879
 1910SOL     OW 6628   1.638   4.823   2.941
 1910SOL    HW1 6629   1.643   4.904   3.000
 1910SOL    HW2 6630   1.552   4.825   2.890
 1911SOL     OW 6631   0.915   3.813   3.264
 1911SOL    HW1 6632   0.940   3.793   3.169
 1911SOL    HW2 6633   0.987   3.869   3.306
 1912SOL     OW 6634   0.980   4.840   3.581
 1912SOL    HW1 6635   0.881   4.846   3.591
 1912SOL    HW2 6636   1.003   4.760   3.525
 1913SOL     OW 6637   0.705   4.774   2.230
 1913SOL    HW1 6638   0.691   4.781   2.329
 1913SOL    HW2 6639   0.789   4.723   2.212
 1914SOL     OW 6640   0.410   4.537   3.113
 1914SOL    HW1 6641   0.496   4.549   3.163
 1914SOL    HW2 6642   0.368   4.450   3.140
 1915SOL     OW 6643   1.274   4.110   3.124
 1915SOL    HW1 6644   1.295   4.184   3.188
 1915SOL    HW2 6645   1.185   4.127   3.081
 1916SOL     OW 6646   0.064   5.288   3.193
 1916SOL    HW1 6647   0.018   5.370   3.159
 1916SOL    HW2 6648   0.162   5.307   3.202
 1917SOL     OW 6649   0.367   4.824   2.363
 1917SOL    HW1 6650   0.360   4.907   2.307
 1917SOL    HW2 6651   0.371   4.744   2.303
 1918SOL     OW 6652   0.566   4.261   2.727
 1918SOL    HW1 6653   0.578   4.327   2.653
 1918SOL    HW2 6654   0.612   4.295   2.810
 1919SOL     OW 6655   1.252   5.072   2.250
 1919SOL    HW1 6656   1.302   5.149   2.290
 1919SOL    HW2 6657   1.157   5.074   2.282
 1920SOL     OW 6658   1.272   5.169   3.004
 1920SOL    HW1 6659   1.319   5.182   3.091
 1920SOL    HW2 6660   1.206   5.095   3.013
 1921SOL     OW 6661   1.582   4.363   2.334
 1921SOL    HW1 6662   1.551   4.424   2.407
 1921SOL    HW2 6663   1.632   4.415   2.265
 1922SOL     OW 6664   0.354   5.234   3.191
 1922SOL    HW1 6665   0.333   5.190   3.104
 1922SOL    HW2 6666   0.451   5.260   3.194
 1923SOL     OW 6667   0.402   4.475   3.460
 1923SOL    HW1 6668   0.470   4.530   3.413
 1923SOL    HW2 6669   0.442   4.387   3.487
 1924SOL     OW 6670   1.587   4.503   3.532
 1924SOL    HW1 6671   1.495   4.541   3.527
 1924SOL    HW2 6672   1.647   4.550   3.467
 1925SOL     OW 6673   1.013   3.829   3.632
 1925SOL    HW1 6674   1.019   3.914   3.580
 1925SOL    HW2 6675   1.045   3.753   3.575
 1926SOL     OW 6676   0.504   3.774   3.602
 1926SOL    HW1 6677   0.462   3.717   3.532
 1926SOL    HW2 6678   0.438   3.843   3.634
 1927SOL     OW 6679   0.573   4.594   2.891
 1927SOL    HW1 6680   0.617   4.683   2.882
 1927SOL    HW2 6681   0.510   4.594   2.968
 1928SOL     OW 6682   1.360   4.586   2.907
 1928SOL    HW1 6683   1.285   4.586   2.841
 1928SOL    HW2 6684   1.397   4.494   2.916
 1929SOL     OW 6685   1.209   4.249   2.137
 1929SOL    HW1 6686   1.222   4.165   2.191
 1929SOL    HW2 6687   1.180   4.323   2.197
 1930SOL     OW 6688   0.307   3.937   3.093
 1930SOL    HW1 6689   0.284   3.974   3.183
 1930SOL    HW2 6690   0.277   3.842   3.087
 1931SOL     OW 6691   0.037   5.034   3.144
 1931SOL    HW1 6692   0.090   4.985   3.212
 1931SOL    HW2 6693   0.059   5.132   3.149
 1932SOL     OW 6694   0.732   4.358   2.926
 1932SOL    HW1 6695   0.791   4.332   2.850
 1932SOL    HW2 6696   0.704   4.454   2.915
 1933SOL     OW 6697   1.728   4.659   3.716
 1933SOL    HW1 6698   1.682   4.652   3.627
 1933SOL    HW2 6699   1.666   4.703   3.782
 1934SOL     OW 6700   0.307   3.787   2.480
 1934SOL    HW1 6701   0.296   3.881   2.513
 1934SOL    HW2 6702   0.302   3.724   2.557
 1935SOL     OW 6703   1.622   4.091   2.236
 1935SOL    HW1 6704   1.624   4.015   2.300
 1935SOL    HW2 6705   1.574   4.168   2.276
 1936SOL     OW 6706   1.023   4.490   2.828
 1936SOL    HW1 6707   1.038   4.511   2.924
 1936SOL    HW2 6708   0.993   4.395   2.819
 1937SOL     OW 6709   0.980   5.297   3.562
 1937SOL    HW1 6710   0.960   5.341   3.474
 1937SOL    HW2 6711   1.019   5.206   3.546
 1938SOL     OW 6712   1.859   5.242   3.467
 1938SOL    HW1 6713   1.873   5.269   3.372
 1938SOL    HW2 6714   1.942   5.264   3.520
 1939SOL     OW 6715   0.350   4.622   3.666
 1939SOL    HW1 6716   0.426   4.666   3.714
 1939SOL    HW2 6717   0.385   4.575   3.584
 1940SOL     OW 6718   1.540   3.998   1.987
 1940SOL    HW1 6719   1.479   3.923   2.010
 1940SOL    HW2 6720   1.562   4.050   2.070
 1941SOL     OW 6721   1.303   4.562   1.904
 1941SOL    HW1 6722   1.337   4.469   1.919
 1941SOL    HW2 6723   1.321   4.589   1.809
 1942SOL     OW 6724   1.068   5.057   2.711
 1942SOL    HW1 6725   1.075   4.973   2.656
 1942SOL    HW2 6726   1.130   5.126   2.675
 1943SOL     OW 6727   0.319   4.534   2.811
 1943SOL    HW1 6728   0.412   4.570   2.816
 1943SOL    HW2 6729   0.313   4.449   2.863
 1944SOL     OW 6730   0.339   4.233   2.868
 1944SOL    HW1 6731   0.287   4.150   2.851
 1944SOL    HW2 6732   0.416   4.238   2.804
 1945SOL     OW 6733   1.138   4.104   3.540
 1945SOL    HW1 6734   1.093   4.167   3.604
 1945SOL    HW2 6735   1.231   4.135   3.523
 1946SOL     OW 6736   1.160   3.931   3.339
 1946SOL    HW1 6737   1.160   3.995   3.416
 1946SOL    HW2 6738   1.188   3.979   3.256
 1947SOL     OW 6739   0.008   5.050   2.062
 1947SOL    HW1 6740  -0.085   5.071   2.031
 1947SOL    HW2 6741   0.018   4.951   2.075
 1948SOL     OW 6742   0.088   5.525   2.789
 1948SOL    HW1 6743   0.046   5.439   2.762
 1948SOL    HW2 6744   0.182   5.528   2.755
 1949SOL     OW 6745   0.504   5.292   2.772
 1949SOL    HW1 6746   0.570   5.366   2.781
 1949SOL    HW2 6747   0.548   5.213   2.730
 1950SOL     OW 6748   1.002   4.520   3.100
 1950SOL    HW1 6749   1.043   4.488   3.186
 1950SOL    HW2 6750   0.906   4.493   3.097
 1951SOL     OW 6751   0.040   4.268   2.976
 1951SOL    HW1 6752   0.125   4.235   2.935
 1951SOL    HW2 6753   0.053   4.283   3.074
 1952SOL     OW 6754   0.189   4.244   3.584
 1952SOL    HW1 6755   0.248   4.204   3.514
 1952SOL    HW2 6756   0.131   4.315   3.543
 1953SOL     OW 6757   1.369   4.674   3.522
 1953SOL    HW1 6758   1.408   4.763   3.542
 1953SOL    HW2 6759   1.379   4.654   3.425
 1954SOL     OW 6760   0.815   4.296   2.187
 1954SOL    HW1 6761   0.822   4.207   2.141
 1954SOL    HW2 6762   0.721   4.330   2.179
 1955SOL     OW 6763   1.657   4.328   3.068
 1955SOL    HW1 6764   1.619   4.259   3.130
 1955SOL    HW2 6765   1.739   4.292   3.024
 1956SOL     OW 6766   0.252   5.288   3.606
 1956SOL    HW1 6767   0.222   5.345   3.682
 1956SOL    HW2 6768   0.245   5.191   3.632
 1957SOL     OW 6769   0.671   4.188   3.131
 1957SOL    HW1 6770   0.637   4.099   3.101
 1957SOL    HW2 6771   0.697   4.242   3.051
 1958SOL     OW 6772   0.930   5.402   3.327
 1958SOL    HW1 6773   0.906   5.384   3.232
 1958SOL    HW2 6774   0.960   5.496   3.337
 1959SOL     OW 6775   0.473   4.224   2.053
 1959SOL    HW1 6776   0.534   4.304   2.057
 1959SOL    HW2 6777   0.378   4.255   2.060
 1960SOL     OW 6778   0.159   4.861   3.328
 1960SOL    HW1 6779   0.181   4.800   3.404
 1960SOL    HW2 6780   0.169   4.812   3.242
 1961SOL     OW 6781   1.347   4.783   3.096
 1961SOL    HW1 6782   1.371   4.720   3.022
 1961SOL    HW2 6783   1.257   4.823   3.078
 1962SOL     OW 6784   1.302   4.579   2.171
 1962SOL    HW1 6785   1.216   4.548   2.213
 1962SOL    HW2 6786   1.298   4.565   2.072
 1963SOL     OW 6787   1.759   5.471   3.016
 1963SOL    HW1 6788   1.820   5.501   2.943
 1963SOL    HW2 6789   1.721   5.382   2.994
 1964SOL     OW 6790   1.252   5.455   2.990
 1964SOL    HW1 6791   1.336   5.460   2.936
 1964SOL    HW2 6792   1.229   5.359   3.008
 1965SOL     OW 6793   0.083   4.982   2.884
 1965SOL    HW1 6794   0.078   4.981   2.984
 1965SOL    HW2 6795   0.000   4.941   2.846
 1966SOL     OW 6796   0.688   5.386   3.578
 1966SOL    HW1 6797   0.632   5.467   3.587
 1966SOL    HW2 6798   0.740   5.390   3.492
 1967SOL     OW 6799   1.726   3.859   2.385
 1967SOL    HW1 6800   1.799   3.842   2.318
 1967SOL    HW2 6801   1.695   3.772   2.423
 1968SOL     OW 6802   1.388   5.297   2.339
 1968SOL    HW1 6803   1.455   5.309   2.265
 1968SOL    HW2 6804   1.348   5.386   2.362
 1969SOL     OW 6805   0.130   5.518   3.713
 1969SOL    HW1 6806   0.089   5.444   3.766
 1969SOL    HW2 6807   0.194   5.569   3.771
 1970SOL     OW 6808   1.280   4.651   2.534
 1970SOL    HW1 6809   1.340   4.570   2.536
 1970SOL    HW2 6810   1.320   4.720   2.474
 1971SOL     OW 6811   0.830   4.997   3.284
 1971SOL    HW1 6812   0.825   5.030   3.379
 1971SOL    HW2 6813   0.744   5.016   3.238
 1972SOL     OW 6814   0.672   5.340   2.016
 1972SOL    HW1 6815   0.681   5.350   1.917
 1972SOL    HW2 6816   0.632   5.251   2.037
 1973SOL     OW 6817   1.650   5.444   3.256
 1973SOL    HW1 6818   1.703   5.454   3.172
 1973SOL    HW2 6819   1.623   5.534   3.290
 1974SOL     OW 6820   1.841   3.899   2.825
 1974SOL    HW1 6821   1.880   3.814   2.789
 1974SOL    HW2 6822   1.743   3.901   2.806
 1975SOL     OW 6823   0.263   4.050   2.582
 1975SOL    HW1 6824   0.184   4.101   2.548
 1975SOL    HW2 6825   0.254   4.035   2.680
 1976SOL     OW 6826   1.194   5.336   1.893
 1976SOL    HW1 6827   1.200   5.243   1.930
 1976SOL    HW2 6828   1.135   5.336   1.813
 1977SOL     OW 6829   0.822   4.726   3.234
 1977SOL    HW1 6830   0.862   4.725   3.142
 1977SOL    HW2 6831   0.832   4.818   3.274
 1978SOL     OW 6832   0.916   4.634   2.153
 1978SOL    HW1 6833   0.979   4.672   2.085
 1978SOL    HW2 6834   0.956   4.551   2.192
 1979SOL     OW 6835   1.504   5.331   1.906
 1979SOL    HW1 6836   1.412   5.368   1.913
 1979SOL    HW2 6837   1.542   5.351   1.816
 1980SOL     OW 6838   0.372   5.012   3.352
 1980SOL    HW1 6839   0.359   5.105   3.318
 1980SOL    HW2 6840   0.288   4.960   3.339
 1981SOL     OW 6841   1.614   5.016   3.151
 1981SOL    HW1 6842   1.674   5.019   3.231
 1981SOL    HW2 6843   1.539   5.080   3.164
 1982SOL     OW 6844   1.039   4.822   2.558
 1982SOL    HW1 6845   0.969   4.775   2.612
 1982SOL    HW2 6846   1.098   4.754   2.515
 1983SOL     OW 6847   1.014   3.960   2.833
 1983SOL    HW1 6848   1.006   3.924   2.740
 1983SOL    HW2 6849   1.012   3.884   2.898
 1984SOL     OW 6850   0.590   5.211   2.353
 1984SOL    HW1 6851   0.632   5.153   2.283
 1984SOL    HW2 6852   0.546   5.290   2.309
 1985SOL     OW 6853   1.709   4.109   3.243
 1985SOL    HW1 6854   1.782   4.178   3.247
 1985SOL    HW2 6855   1.737   4.034   3.184
 1986SOL     OW 6856   0.255   5.072   2.152
 1986SOL    HW1 6857   0.159   5.073   2.125
 1986SOL    HW2 6858   0.267   5.125   2.236
 1987SOL     OW 6859   0.105   4.737   3.588
 1987SOL    HW1 6860   0.028   4.704   3.642
 1987SOL    HW2 6861   0.190   4.707   3.630
 1988SOL     OW 6862   0.672   3.927   3.351
 1988SOL    HW1 6863   0.762   3.911   3.311
 1988SOL    HW2 6864   0.680   3.932   3.450
 1989SOL     OW 6865   0.075   4.069   1.895
 1989SOL    HW1 6866  -0.017   4.041   1.866
 1989SOL    HW2 6867   0.106   4.146   1.839
 1990SOL     OW 6868   1.440   4.580   3.260
 1990SOL    HW1 6869   1.383   4.632   3.197
 1990SOL    HW2 6870   1.536   4.592   3.236
 1991SOL     OW 6871   0.072   3.890   2.180
 1991SOL    HW1 6872   0.055   3.973   2.126
 1991SOL    HW2 6873   0.162   3.853   2.158
 1992SOL     OW 6874   1.183   5.059   1.981
 1992SOL    HW1 6875   1.084   5.048   1.983
 1992SOL    HW2 6876   1.217   5.074   2.074
 1993SOL     OW 6877   0.613   4.566   3.293
 1993SOL    HW1 6878   0.669   4.647   3.276
 1993SOL    HW2 6879   0.672   4.486   3.296
 1994SOL     OW 6880   1.493   5.491   2.821
 1994SOL    HW1 6881   1.526   5.555   2.752
 1994SOL    HW2 6882   1.559   5.485   2.896
 1995SOL     OW 6883   0.716   4.289   3.570
 1995SOL    HW1 6884   0.735   4.354   3.644
 1995SOL    HW2 6885   0.776   4.209   3.579
 1996SOL     OW 6886   1.450   4.944   3.495
 1996SOL    HW1 6887   1.441   4.934   3.594
 1996SOL    HW2 6888   1.546   4.937   3.469
 1997SOL     OW 6889   0.390   5.465   3.422
 1997SOL    HW1 6890   0.299   5.506   3.420
 1997SOL    HW2 6891   0.383   5.371   3.454
 1998SOL     OW 6892   1.674   4.607   3.116
 1998SOL    HW1 6893   1.647   4.518   3.079
 1998SOL    HW2 6894   1.675   4.675   3.043
 1999SOL     OW 6895   1.225   4.049   2.311
 1999SOL    HW1 6896   1.290   3.975   2.300
 1999SOL    HW2 6897   1.245   4.099   2.395
 2000SOL     OW 6898   0.594   4.469   2.514
 2000SOL    HW1 6899   0.644   4.554   2.495
 2000SOL    HW2 6900   0.506   4.471   2.466
 2001SOL     OW 6901   1.777   4.066   3.504
 2001SOL    HW1 6902   1.760   4.097   3.410
 2001SOL    HW2 6903   1.693   4.029   3.542
 2002SOL     OW 6904   1.730   4.658   3.379
 2002SOL    HW1 6905   1.768   4.749   3.394
 2002SOL    HW2 6906   1.722   4.641   3.280
 2003SOL     OW 6907   0.859   5.098   1.878
 2003SOL    HW1 6908   0.813   5.113   1.966
 2003SOL    HW2 6909   0.903   5.183   1.848
 2004SOL     OW 6910   0.661   5.514   2.815
 2004SOL    HW1 6911   0.615   5.602   2.802
 2004SOL    HW2 6912   0.760   5.526   2.808
 2005SOL     OW 6913   0.859   4.680   2.723
 2005SOL    HW1 6914   0.913   4.611   2.771
 2005SOL    HW2 6915   0.827   4.749   2.789
 2006SOL     OW 6916   1.083   4.708   1.949
 2006SOL    HW1 6917   1.060   4.761   1.867
 2006SOL    HW2 6918   1.164   4.652   1.930
 2007SOL     OW 6919   1.861   5.293   2.713
 2007SOL    HW1 6920   1.790   5.281   2.643
 2007SOL    HW2 6921   1.862   5.214   2.773
 2008SOL     OW 6922   0.221   5.038   3.706
 2008SOL    HW1 6923   0.156   4.965   3.685
 2008SOL    HW2 6924   0.225   5.052   3.804
 2009SOL     OW 6925   0.079   4.964   2.515
 2009SOL    HW1 6926   0.078   4.917   2.603
 2009SOL    HW2 6927   0.161   4.936   2.464
 2010SOL     OW 6928   0.672   5.115   3.486
 2010SOL    HW1 6929   0.594   5.065   3.524
 2010SOL    HW2 6930   0.669   5.210   3.517
 2011SOL     OW 6931   1.824   3.916   3.089
 2011SOL    HW1 6932   1.820   3.826   3.133
 2011SOL    HW2 6933   1.827   3.905   2.990
 2012SOL     OW 6934   0.428   4.148   2.382
 2012SOL    HW1 6935   0.458   4.076   2.320
 2012SOL    HW2 6936   0.389   4.108   2.465
 2013SOL     OW 6937   1.705   5.211   2.966
 2013SOL    HW1 6938   1.612   5.186   2.939
 2013SOL    HW2 6939   1.731   5.161   3.048
 2014SOL     OW 6940   0.317   4.271   3.142
 2014SOL    HW1 6941   0.355   4.212   3.214
 2014SOL    HW2 6942   0.357   4.245   3.054
 2015SOL     OW 6943   0.812   5.310   2.549
 2015SOL    HW1 6944   0.844   5.320   2.455
 2015SOL    HW2 6945   0.733   5.248   2.551
 2016SOL     OW 6946   1.424   3.938   2.974
 2016SOL    HW1 6947   1.476   3.873   3.029
 2016SOL    HW2 6948   1.375   4.001   3.035
 2017SOL     OW 6949   1.001   3.758   3.016
 2017SOL    HW1 6950   0.938   3.686   2.985
 2017SOL    HW2 6951   1.094   3.722   3.016
 2018SOL     OW 6952   0.770   5.054   2.163
 2018SOL    HW1 6953   0.724   4.967   2.180
 2018SOL    HW2 6954   0.861   5.051   2.204
 2019SOL     OW 6955   0.618   5.291   3.146
 2019SOL    HW1 6956   0.613   5.373   3.203
 2019SOL    HW2 6957   0.707   5.288   3.101
 2020SOL     OW 6958   1.352   3.776   2.030
 2020SOL    HW1 6959   1.387   3.735   1.946
 2020SOL    HW2 6960   1.262   3.738   2.050
 2021SOL     OW 6961   1.300   4.177   2.553
 2021SOL    HW1 6962   1.241   4.257   2.557
 2021SOL    HW2 6963   1.315   4.142   2.646
 2022SOL     OW 6964   1.593   3.945   2.744
 2022SOL    HW1 6965   1.509   3.944   2.798
 2022SOL    HW2 6966   1.595   4.028   2.688
 2023SOL     OW 6967   0.039   4.801   2.162
 2023SOL    HW1 6968   0.138   4.790   2.153
 2023SOL    HW2 6969  -0.001   4.715   2.194
 2024SOL     OW 6970   0.875   5.370   2.199
 2024SOL    HW1 6971   0.798   5.335   2.145
 2024SOL    HW2 6972   0.843   5.441   2.261
 2025SOL     OW 6973   0.230   4.352   3.837
 2025SOL    HW1 6974   0.137   4.350   3.874
 2025SOL    HW2 6975   0.231   4.313   3.745
 2026SOL     OW 6976   0.225   3.999   4.720
 2026SOL    HW1 6977   0.260   3.982   4.812
 2026SOL    HW2 6978   0.137   3.954   4.708
 2027SOL     OW 6979   0.019   4.092   4.371
 2027SOL    HW1 6980  -0.063   4.135   4.410
 2027SOL    HW2 6981  -0.009   4.019   4.308
 2028SOL     OW 6982   0.569   4.999   4.889
 2028SOL    HW1 6983   0.476   4.992   4.852
 2028SOL    HW2 6984   0.580   5.088   4.933
 2029SOL     OW 6985   1.555   5.235   4.427
 2029SOL    HW1 6986   1.498   5.219   4.508
 2029SOL    HW2 6987   1.496   5.245   4.347
 2030SOL     OW 6988   1.135   4.427   4.441
 2030SOL    HW1 6989   1.192   4.505   4.416
 2030SOL    HW2 6990   1.075   4.453   4.517
 2031SOL     OW 6991   1.755   4.331   3.955
 2031SOL    HW1 6992   1.743   4.318   3.856
 2031SOL    HW2 6993   1.725   4.250   4.004
 2032SOL     OW 6994   0.768   4.868   4.747
 2032SOL    HW1 6995   0.690   4.885   4.807
 2032SOL    HW2 6996   0.802   4.955   4.711
 2033SOL     OW 6997   0.850   4.522   5.547
 2033SOL    HW1 6998   0.846   4.598   5.612
 2033SOL    HW2 6999   0.872   4.558   5.456
 2034SOL     OW 7000   0.685   4.736   4.389
 2034SOL    HW1 7001   0.754   4.720   4.459
 2034SOL    HW2 7002   0.612   4.793   4.427
 2035SOL     OW 7003   0.686   4.885   5.527
 2035SOL    HW1 7004   0.746   4.964   5.541
 2035SOL    HW2 7005   0.600   4.916   5.486
 2036SOL     OW 7006   0.335   5.159   4.785
 2036SOL    HW1 7007   0.257   5.128   4.732
 2036SOL    HW2 7008   0.393   5.217   4.728
 2037SOL     OW 7009   1.460   5.229   5.063
 2037SOL    HW1 7010   1.484   5.323   5.089
 2037SOL    HW2 7011   1.444   5.175   5.145
 2038SOL     OW 7012   0.438   4.116   5.223
 2038SOL    HW1 7013   0.520   4.060   5.232
 2038SOL    HW2 7014   0.357   4.058   5.227
 2039SOL     OW 7015   1.603   4.171   4.461
 2039SOL    HW1 7016   1.529   4.217   4.411
 2039SOL    HW2 7017   1.654   4.239   4.514
 2040SOL     OW 7018   0.231   5.437   4.207
 2040SOL    HW1 7019   0.265   5.514   4.261
 2040SOL    HW2 7020   0.275   5.437   4.117
 2041SOL     OW 7021   1.127   5.065   5.414
 2041SOL    HW1 7022   1.174   5.065   5.502
 2041SOL    HW2 7023   1.079   4.978   5.403
 2042SOL     OW 7024   0.230   5.158   4.262
 2042SOL    HW1 7025   0.204   5.254   4.262
 2042SOL    HW2 7026   0.159   5.104   4.307
 2043SOL     OW 7027   0.240   4.815   4.610
 2043SOL    HW1 7028   0.254   4.731   4.662
 2043SOL    HW2 7029   0.185   4.879   4.665
 2044SOL     OW 7030   0.620   5.510   5.163
 2044SOL    HW1 7031   0.528   5.493   5.198
 2044SOL    HW2 7032   0.648   5.602   5.189
 2045SOL     OW 7033   0.606   4.688   3.847
 2045SOL    HW1 7034   0.613   4.772   3.793
 2045SOL    HW2 7035   0.652   4.701   3.935
 2046SOL     OW 7036   1.594   3.838   5.204
 2046SOL    HW1 7037   1.576   3.905   5.132
 2046SOL    HW2 7038   1.591   3.884   5.293
 2047SOL     OW 7039   0.122   4.367   4.287
 2047SOL    HW1 7040   0.077   4.279   4.304
 2047SOL    HW2 7041   0.121   4.421   4.371
 2048SOL     OW 7042   1.842   5.491   4.083
 2048SOL    HW1 7043   1.896   5.462   4.163
 2048SOL    HW2 7044   1.872   5.581   4.054
 2049SOL     OW 7045   0.027   5.320   3.841
 2049SOL    HW1 7046   0.008   5.224   3.862
 2049SOL    HW2 7047  -0.006   5.378   3.916
 2050SOL     OW 7048   1.689   4.646   4.336
 2050SOL    HW1 7049   1.784   4.617   4.344
 2050SOL    HW2 7050   1.681   4.711   4.261
 2051SOL     OW 7051   1.641   4.832   4.156
 2051SOL    HW1 7052   1.727   4.834   4.104
 2051SOL    HW2 7053   1.655   4.879   4.244
 2052SOL     OW 7054   0.113   4.461   5.321
 2052SOL    HW1 7055   0.201   4.448   5.366
 2052SOL    HW2 7056   0.100   4.558   5.299
 2053SOL     OW 7057   0.613   5.089   4.450
 2053SOL    HW1 7058   0.564   5.002   4.459
 2053SOL    HW2 7059   0.590   5.132   4.363
 2054SOL     OW 7060   1.293   4.952   5.147
 2054SOL    HW1 7061   1.330   4.879   5.089
 2054SOL    HW2 7062   1.345   4.957   5.232
 2055SOL     OW 7063   0.809   3.728   4.226
 2055SOL    HW1 7064   0.849   3.819   4.217
 2055SOL    HW2 7065   0.709   3.736   4.232
 2056SOL     OW 7066   0.197   4.700   4.988
 2056SOL    HW1 7067   0.286   4.655   4.974
 2056SOL    HW2 7068   0.124   4.635   4.969
 2057SOL     OW 7069   1.525   4.723   3.914
 2057SOL    HW1 7070   1.462   4.647   3.927
 2057SOL    HW2 7071   1.573   4.741   4.000
 2058SOL     OW 7072   1.187   5.516   5.340
 2058SOL    HW1 7073   1.211   5.576   5.264
 2058SOL    HW2 7074   1.194   5.421   5.310
 2059SOL     OW 7075   0.317   3.975   5.525
 2059SOL    HW1 7076   0.388   4.046   5.531
 2059SOL    HW2 7077   0.229   4.014   5.553
 2060SOL     OW 7078   1.466   5.141   4.677
 2060SOL    HW1 7079   1.407   5.147   4.757
 2060SOL    HW2 7080   1.451   5.053   4.631
 2061SOL     OW 7081   1.667   5.438   4.296
 2061SOL    HW1 7082   1.626   5.415   4.208
 2061SOL    HW2 7083   1.649   5.364   4.361
 2062SOL     OW 7084   0.598   4.453   3.994
 2062SOL    HW1 7085   0.622   4.522   3.926
 2062SOL    HW2 7086   0.520   4.486   4.048
 2063SOL     OW 7087   1.281   4.069   4.668
 2063SOL    HW1 7088   1.195   4.019   4.655
 2063SOL    HW2 7089   1.343   4.015   4.724
 2064SOL     OW 7090   1.576   5.386   4.031
 2064SOL    HW1 7091   1.665   5.432   4.034
 2064SOL    HW2 7092   1.555   5.362   3.936
 2065SOL     OW 7093   0.807   4.329   5.189
 2065SOL    HW1 7094   0.760   4.326   5.278
 2065SOL    HW2 7095   0.756   4.274   5.123
 2066SOL     OW 7096   1.394   4.193   5.398
 2066SOL    HW1 7097   1.374   4.236   5.486
 2066SOL    HW2 7098   1.472   4.131   5.407
 2067SOL     OW 7099   0.973   4.614   5.296
 2067SOL    HW1 7100   1.019   4.530   5.267
 2067SOL    HW2 7101   0.917   4.648   5.221
 2068SOL     OW 7102   0.991   4.134   4.966
 2068SOL    HW1 7103   0.914   4.168   5.020
 2068SOL    HW2 7104   0.957   4.083   4.887
 2069SOL     OW 7105   1.041   4.425   4.153
 2069SOL    HW1 7106   1.067   4.421   4.249
 2069SOL    HW2 7107   0.956   4.374   4.139
 2070SOL     OW 7108   0.076   4.535   4.513
 2070SOL    HW1 7109   0.175   4.523   4.522
 2070SOL    HW2 7110   0.052   4.630   4.534
 2071SOL     OW 7111   0.130   5.545   5.295
 2071SOL    HW1 7112   0.120   5.530   5.394
 2071SOL    HW2 7113   0.044   5.581   5.259
 2072SOL     OW 7114   0.865   4.072   3.919
 2072SOL    HW1 7115   0.924   4.135   3.870
 2072SOL    HW2 7116   0.884   3.978   3.890
 2073SOL     OW 7117   1.719   4.309   5.555
 2073SOL    HW1 7118   1.693   4.398   5.519
 2073SOL    HW2 7119   1.717   4.241   5.482
 2074SOL     OW 7120   1.362   4.868   4.269
 2074SOL    HW1 7121   1.445   4.839   4.221
 2074SOL    HW2 7122   1.313   4.935   4.213
 2075SOL     OW 7123   0.550   3.920   4.609
 2075SOL    HW1 7124   0.545   3.915   4.709
 2075SOL    HW2 7125   0.552   4.016   4.580
 2076SOL     OW 7126   1.008   5.180   4.201
 2076SOL    HW1 7127   0.962   5.252   4.149
 2076SOL    HW2 7128   1.004   5.200   4.299
 2077SOL     OW 7129   0.351   5.525   4.577
 2077SOL    HW1 7130   0.401   5.439   4.583
 2077SOL    HW2 7131   0.416   5.602   4.574
 2078SOL     OW 7132   1.795   4.790   4.597
 2078SOL    HW1 7133   1.733   4.775   4.521
 2078SOL    HW2 7134   1.743   4.801   4.682
 2079SOL     OW 7135   1.227   5.274   5.230
 2079SOL    HW1 7136   1.233   5.197   5.294
 2079SOL    HW2 7137   1.175   5.248   5.150
 2080SOL     OW 7138   0.321   4.667   3.966
 2080SOL    HW1 7139   0.403   4.706   3.924
 2080SOL    HW2 7140   0.294   4.585   3.917
 2081SOL     OW 7141   1.458   4.459   4.452
 2081SOL    HW1 7142   1.453   4.394   4.527
 2081SOL    HW2 7143   1.538   4.518   4.465
 2082SOL     OW 7144   0.461   4.990   5.451
 2082SOL    HW1 7145   0.411   4.991   5.365
 2082SOL    HW2 7146   0.398   4.972   5.527
 2083SOL     OW 7147   1.111   5.500   3.961
 2083SOL    HW1 7148   1.051   5.438   4.011
 2083SOL    HW2 7149   1.142   5.456   3.876
 2084SOL     OW 7150   0.202   4.009   5.222
 2084SOL    HW1 7151   0.122   4.069   5.209
 2084SOL    HW2 7152   0.192   3.960   5.308
 2085SOL     OW 7153   1.632   5.101   3.805
 2085SOL    HW1 7154   1.600   5.195   3.795
 2085SOL    HW2 7155   1.556   5.038   3.793
 2086SOL     OW 7156   0.464   5.467   4.047
 2086SOL    HW1 7157   0.497   5.506   4.133
 2086SOL    HW2 7158   0.540   5.460   3.982
 2087SOL     OW 7159   1.400   3.831   4.150
 2087SOL    HW1 7160   1.376   3.794   4.060
 2087SOL    HW2 7161   1.499   3.847   4.154
 2088SOL     OW 7162   0.249   5.509   4.965
 2088SOL    HW1 7163   0.306   5.444   5.015
 2088SOL    HW2 7164   0.233   5.476   4.872
 2089SOL     OW 7165   0.940   5.422   4.628
 2089SOL    HW1 7166   1.020   5.365   4.649
 2089SOL    HW2 7167   0.891   5.382   4.551
 2090SOL     OW 7168   0.382   4.424   4.204
 2090SOL    HW1 7169   0.427   4.334   4.201
 2090SOL    HW2 7170   0.288   4.413   4.237
 2091SOL     OW 7171   1.547   3.946   5.453
 2091SOL    HW1 7172   1.542   3.983   5.545
 2091SOL    HW2 7173   1.475   3.877   5.441
 2092SOL     OW 7174   0.614   3.846   3.841
 2092SOL    HW1 7175   0.712   3.824   3.848
 2092SOL    HW2 7176   0.583   3.829   3.748
 2093SOL     OW 7177   0.781   3.988   5.473
 2093SOL    HW1 7178   0.848   3.927   5.516
 2093SOL    HW2 7179   0.708   4.007   5.538
 2094SOL     OW 7180   0.888   5.238   4.919
 2094SOL    HW1 7181   0.865   5.213   4.825
 2094SOL    HW2 7182   0.949   5.169   4.958
 2095SOL     OW 7183   1.351   4.314   5.157
 2095SOL    HW1 7184   1.379   4.271   5.242
 2095SOL    HW2 7185   1.376   4.410   5.158
 2096SOL     OW 7186   0.803   5.126   4.648
 2096SOL    HW1 7187   0.893   5.140   4.606
 2096SOL    HW2 7188   0.732   5.128   4.577
 2097SOL     OW 7189   0.922   4.227   4.623
 2097SOL    HW1 7190   0.897   4.218   4.527
 2097SOL    HW2 7191   0.970   4.145   4.654
 2098SOL     OW 7192   0.539   3.788   4.236
 2098SOL    HW1 7193   0.458   3.789   4.294
 2098SOL    HW2 7194   0.542   3.871   4.181
 2099SOL     OW 7195   1.434   4.912   3.765
 2099SOL    HW1 7196   1.466   4.836   3.822
 2099SOL    HW2 7197   1.342   4.939   3.795
 2100SOL     OW 7198   0.297   3.759   3.895
 2100SOL    HW1 7199   0.346   3.843   3.874
 2100SOL    HW2 7200   0.359   3.694   3.940
 2101SOL     OW 7201   0.935   3.960   4.204
 2101SOL    HW1 7202   0.887   4.001   4.126
 2101SOL    HW2 7203   1.034   3.958   4.185
 2102SOL     OW 7204   1.076   4.407   5.188
 2102SOL    HW1 7205   0.996   4.346   5.191
 2102SOL    HW2 7206   1.157   4.354   5.164
 2103SOL     OW 7207   1.227   5.294   4.517
 2103SOL    HW1 7208   1.248   5.368   4.452
 2103SOL    HW2 7209   1.295   5.294   4.590
 2104SOL     OW 7210   0.459   4.876   4.465
 2104SOL    HW1 7211   0.388   4.849   4.530
 2104SOL    HW2 7212   0.433   4.848   4.372
 2105SOL     OW 7213   1.271   5.521   4.315
 2105SOL    HW1 7214   1.315   5.585   4.251
 2105SOL    HW2 7215   1.221   5.573   4.385
 2106SOL     OW 7216   1.032   4.273   3.740
 2106SOL    HW1 7217   0.991   4.355   3.701
 2106SOL    HW2 7218   1.096   4.299   3.813
 2107SOL     OW 7219   0.078   4.280   5.110
 2107SOL    HW1 7220   0.170   4.279   5.069
 2107SOL    HW2 7221   0.072   4.354   5.177
 2108SOL     OW 7222   0.561   3.946   4.871
 2108SOL    HW1 7223   0.599   3.862   4.908
 2108SOL    HW2 7224   0.473   3.965   4.915
 2109SOL     OW 7225   0.866   4.178   4.366
 2109SOL    HW1 7226   0.834   4.250   4.304
 2109SOL    HW2 7227   0.890   4.097   4.313
 2110SOL     OW 7228   1.017   3.763   4.477
 2110SOL    HW1 7229   0.945   3.768   4.408
 2110SOL    HW2 7230   0.993   3.694   4.546
 2111SOL     OW 7231   1.429   4.897   4.591
 2111SOL    HW1 7232   1.374   4.813   4.584
 2111SOL    HW2 7233   1.455   4.926   4.499
 2112SOL     OW 7234   1.466   4.314   4.716
 2112SOL    HW1 7235   1.436   4.219   4.723
 2112SOL    HW2 7236   1.539   4.330   4.782
 2113SOL     OW 7237   1.857   4.557   4.101
 2113SOL    HW1 7238   1.899   4.493   4.165
 2113SOL    HW2 7239   1.819   4.506   4.023
 2114SOL     OW 7240   0.488   5.109   3.898
 2114SOL    HW1 7241   0.401   5.094   3.945
 2114SOL    HW2 7242   0.471   5.135   3.803
 2115SOL     OW 7243   1.664   5.004   4.381
 2115SOL    HW1 7244   1.763   5.012   4.395
 2115SOL    HW2 7245   1.619   5.088   4.412
 2116SOL     OW 7246   1.390   4.299   3.802
 2116SOL    HW1 7247   1.336   4.278   3.883
 2116SOL    HW2 7248   1.481   4.258   3.811
 2117SOL     OW 7249   0.527   3.980   4.052
 2117SOL    HW1 7250   0.554   3.921   3.977
 2117SOL    HW2 7251   0.527   4.075   4.021
 2118SOL     OW 7252   1.754   4.947   5.312
 2118SOL    HW1 7253   1.845   4.908   5.299
 2118SOL    HW2 7254   1.762   5.043   5.336
 2119SOL     OW 7255   1.064   5.071   5.064
 2119SOL    HW1 7256   0.984   5.048   5.119
 2119SOL    HW2 7257   1.147   5.045   5.113
 2120SOL     OW 7258   1.592   5.353   5.349
 2120SOL    HW1 7259   1.619   5.387   5.259
 2120SOL    HW2 7260   1.671   5.315   5.395
 2121SOL     OW 7261   1.111   4.919   4.824
 2121SOL    HW1 7262   1.071   4.963   4.905
 2121SOL    HW2 7263   1.070   4.956   4.741
 2122SOL     OW 7264   1.638   4.823   4.803
 2122SOL    HW1 7265   1.643   4.904   4.862
 2122SOL    HW2 7266   1.552   4.825   4.752
 2123SOL     OW 7267   0.915   3.813   5.126
 2123SOL    HW1 7268   0.940   3.793   5.031
 2123SOL    HW2 7269   0.987   3.869   5.168
 2124SOL     OW 7270   0.980   4.840   5.443
 2124SOL    HW1 7271   0.881   4.846   5.453
 2124SOL    HW2 7272   1.003   4.760   5.387
 2125SOL     OW 7273   0.705   4.774   4.092
 2125SOL    HW1 7274   0.691   4.781   4.191
 2125SOL    HW2 7275   0.789   4.723   4.074
 2126SOL     OW 7276   0.410   4.537   4.975
 2126SOL    HW1 7277   0.496   4.549   5.025
 2126SOL    HW2 7278   0.368   4.450   5.002
 2127SOL     OW 7279   1.274   4.110   4.986
 2127SOL    HW1 7280   1.295   4.184   5.050
 2127SOL    HW2 7281   1.185   4.127   4.943
 2128SOL     OW 7282   0.064   5.288   5.055
 2128SOL    HW1 7283   0.018   5.370   5.021
 2128SOL    HW2 7284   0.162   5.307   5.064
 2129SOL     OW 7285   0.367   4.824   4.225
 2129SOL    HW1 7286   0.360   4.907   4.169
 2129SOL    HW2 7287   0.371   4.744   4.165
 2130SOL     OW 7288   0.566   4.261   4.589
 2130SOL    HW1 7289   0.578   4.327   4.515
 2130SOL    HW2 7290   0.612   4.295   4.672
 2131SOL     OW 7291   1.252   5.072   4.112
 2131SOL    HW1 7292   1.302   5.149   4.152
 2131SOL    HW2 7293   1.157   5.074   4.144
 2132SOL     OW 7294   1.272   5.169   4.866
 2132SOL    HW1 7295   1.319   5.182   4.953
 2132SOL    HW2 7296   1.206   5.095   4.875
 2133SOL     OW 7297   1.582   4.363   4.196
 2133SOL    HW1 7298   1.551   4.424   4.269
 2133SOL    HW2 7299   1.632   4.415   4.127
 2134SOL     OW 7300   0.354   5.234   5.053
 2134SOL    HW1 7301   0.333   5.190   4.966
 2134SOL    HW2 7302   0.451   5.260   5.056
 2135SOL     OW 7303   0.402   4.475   5.322
 2135SOL    HW1 7304   0.470   4.530   5.275
 2135SOL    HW2 7305   0.442   4.387   5.349
 2136SOL     OW 7306   1.587   4.503   5.394
 2136SOL    HW1 7307   1.495   4.541   5.389
 2136SOL    HW2 7308   1.647   4.550   5.329
 2137SOL     OW 7309   1.013   3.829   5.494
 2137SOL    HW1 7310   1.019   3.914   5.442
 2137SOL    HW2 7311   1.045   3.753   5.437
 2138SOL     OW 7312   0.504   3.774   5.464
 2138SOL    HW1 7313   0.462   3.717   5.394
 2138SOL    HW2 7314   0.438   3.843   5.496
 2139SOL     OW 7315   0.573   4.594   4.753
 2139SOL    HW1 7316   0.617   4.683   4.744
 2139SOL    HW2 7317   0.510   4.594   4.830
 2140SOL     OW 7318   1.360   4.586   4.769
 2140SOL    HW1 7319   1.285   4.586   4.703
 2140SOL    HW2 7320   1.397   4.494   4.778
 2141SOL     OW 7321   1.209   4.249   3.999
 2141SOL    HW1 7322   1.222   4.165   4.053
 2141SOL    HW2 7323   1.180   4.323   4.059
 2142SOL     OW 7324   0.307   3.937   4.955
 2142SOL    HW1 7325   0.284   3.974   5.045
 2142SOL    HW2 7326   0.277   3.842   4.949
 2143SOL     OW 7327   0.037   5.034   5.006
 2143SOL    HW1 7328   0.090   4.985   5.074
 2143SOL    HW2 7329   0.059   5.132   5.011
 2144SOL     OW 7330   0.732   4.358   4.788
 2144SOL    HW1 7331   0.791   4.332   4.712
 2144SOL    HW2 7332   0.704   4.454   4.777
 2145SOL     OW 7333   1.728   4.659   5.578
 2145SOL    HW1 7334   1.682   4.652   5.489
 2145SOL    HW2 7335   1.666   4.703   5.644
 2146SOL     OW 7336   0.307   3.787   4.342
 2146SOL    HW1 7337   0.296   3.881   4.375
 2146SOL    HW2 7338   0.302   3.724   4.419
 2147SOL     OW 7339   1.622   4.091   4.098
 2147SOL    HW1 7340   1.624   4.015   4.162
 2147SOL    HW2 7341   1.574   4.168   4.138
 2148SOL     OW 7342   1.023   4.490   4.690
 2148SOL    HW1 7343   1.038   4.511   4.786
 2148SOL    HW2 7344   0.993   4.395   4.681
 2149SOL     OW 7345   0.980   5.297   5.424
 2149SOL    HW1 7346   0.960   5.341   5.336
 2149SOL    HW2 7347   1.019   5.206   5.408
 2150SOL     OW 7348   1.859   5.242   5.329
 2150SOL    HW1 7349   1.873   5.269   5.234
 2150SOL    HW2 7350   1.942   5.264   5.382
 2151SOL     OW 7351   0.350   4.622   5.528
 2151SOL    HW1 7352   0.426   4.666   5.576
 2151SOL    HW2 7353   0.385   4.575   5.446
 2152SOL     OW 7354   1.540   3.998   3.849
 2152SOL    HW1 7355   1.479   3.923   3.872
 2152SOL    HW2 7356   1.562   4.050   3.932
 2153SOL     OW 7357   1.303   4.562   3.766
 2153SOL    HW1 7358   1.337   4.469   3.781
 2153SOL    HW2 7359   1.321   4.589   3.671
 2154SOL     OW 7360   1.068   5.057   4.573
 2154SOL    HW1 7361   1.075   4.973   4.518
 2154SOL    HW2 7362   1.130   5.126   4.537
 2155SOL     OW 7363   0.319   4.534   4.673
 2155SOL    HW1 7364   0.412   4.570   4.678
 2155SOL    HW2 7365   0.313   4.449   4.725
 2156SOL     OW 7366   0.339   4.233   4.730
 2156SOL    HW1 7367   0.287   4.150   4.713
 2156SOL    HW2 7368   0.416   4.238   4.666
 2157SOL     OW 7369   1.138   4.104   5.402
 2157SOL    HW1 7370   1.093   4.167   5.466
 2157SOL    HW2 7371   1.231   4.135   5.385
 2158SOL     OW 7372   1.160   3.931   5.201
 2158SOL    HW1 7373   1.160   3.995   5.278
 2158SOL    HW2 7374   1.188   3.979   5.118
 2159SOL     OW 7375   0.008   5.050   3.924
 2159SOL    HW1 7376  -0.085   5.071   3.893
 2159SOL    HW2 7377   0.018   4.951   3.937
 2160SOL     OW 7378   0.088   5.525   4.651
 2160SOL    HW1 7379   0.046   5.439   4.624
 2160SOL    HW2 7380   0.182   5.528   4.617
 2161SOL     OW 7381   0.504   5.292   4.634
 2161SOL    HW1 7382   0.570   5.366   4.643
 2161SOL    HW2 7383   0.548   5.213   4.592
 2162SOL     OW 7384   1.002   4.520   4.962
 2162SOL    HW1 7385   1.043   4.488   5.048
 2162SOL    HW2 7386   0.906   4.493   4.959
 2163SOL     OW 7387   0.040   4.268   4.838
 2163SOL    HW1 7388   0.125   4.235   4.797
 2163SOL    HW2 7389   0.053   4.283   4.936
 2164SOL     OW 7390   0.189   4.244   5.446
 2164SOL    HW1 7391   0.248   4.204   5.376
 2164SOL    HW2 7392   0.131   4.315   5.405
 2165SOL     OW 7393   1.369   4.674   5.384
 2165SOL    HW1 7394   1.408   4.763   5.404
 2165SOL    HW2 7395   1.379   4.654   5.287
 2166SOL     OW 7396   0.815   4.296   4.049
 2166SOL    HW1 7397   0.822   4.207   4.003
 2166SOL    HW2 7398   0.721   4.330   4.041
 2167SOL     OW 7399   1.657   4.328   4.930
 2167SOL    HW1 7400   1.619   4.259   4.992
 2167SOL    HW2 7401   1.739   4.292   4.886
 2168SOL     OW 7402   0.252   5.288   5.468
 2168SOL    HW1 7403   0.222   5.345   5.544
 2168SOL    HW2 7404   0.245   5.191   5.494
 2169SOL     OW 7405   0.671   4.188   4.993
 2169SOL    HW1 7406   0.637   4.099   4.963
 2169SOL    HW2 7407   0.697   4.242   4.913
 2170SOL     OW 7408   0.930   5.402   5.189
 2170SOL    HW1 7409   0.906   5.384   5.094
 2170SOL    HW2 7410   0.960   5.496   5.199
 2171SOL     OW 7411   0.473   4.224   3.915
 2171SOL    HW1 7412   0.534   4.304   3.919
 2171SOL    HW2 7413   0.378   4.255   3.922
 2172SOL     OW 7414   0.159   4.861   5.190
 2172SOL    HW1 7415   0.181   4.800   5.266
 2172SOL    HW2 7416   0.169   4.812   5.104
 2173SOL     OW 7417   1.347   4.783   4.958
 2173SOL    HW1 7418   1.371   4.720   4.884
 2173SOL    HW2 7419   1.257   4.823   4.940
 2174SOL     OW 7420   1.302   4.579   4.033
 2174SOL    HW1 7421   1.216   4.548   4.075
 2174SOL    HW2 7422   1.298   4.565   3.934
 2175SOL     OW 7423   1.759   5.471   4.878
 2175SOL    HW1 7424   1.820   5.501   4.805
 2175SOL    HW2 7425   1.721   5.382   4.856
 2176SOL     OW 7426   1.252   5.455   4.852
 2176SOL    HW1 7427   1.336   5.460   4.798
 2176SOL    HW2 7428   1.229   5.359   4.870
 2177SOL     OW 7429   0.083   4.982   4.746
 2177SOL    HW1 7430   0.078   4.981   4.846
 2177SOL    HW2 7431   0.000   4.941   4.708
 2178SOL     OW 7432   0.688   5.386   5.440
 2178SOL    HW1 7433   0.632   5.467   5.449
 2178SOL    HW2 7434   0.740   5.390   5.354
 2179SOL     OW 7435   1.726   3.859   4.247
 2179SOL    HW1 7436   1.799   3.842   4.180
 2179SOL    HW2 7437   1.695   3.772   4.285
 2180SOL     OW 7438   1.388   5.297   4.201
 2180SOL    HW1 7439   1.455   5.309   4.127
 2180SOL    HW2 7440   1.348   5.386   4.224
 2181SOL     OW 7441   0.130   5.518   5.575
 2181SOL    HW1 7442   0.089   5.444   5.628
 2181SOL    HW2 7443   0.194   5.569   5.633
 2182SOL     OW 7444   1.280   4.651   4.396
 2182SOL    HW1 7445   1.340   4.570   4.398
 2182SOL    HW2 7446   1.320   4.720   4.336
 2183SOL     OW 7447   0.830   4.997   5.146
 2183SOL    HW1 7448   0.825   5.030   5.241
 2183SOL    HW2 7449   0.744   5.016   5.100
 2184SOL     OW 7450   0.672   5.340   3.878
 2184SOL    HW1 7451   0.681   5.350   3.779
 2184SOL    HW2 7452   0.632   5.251   3.899
 2185SOL     OW 7453   1.650   5.444   5.118
 2185SOL    HW1 7454   1.703   5.454   5.034
 2185SOL    HW2 7455   1.623   5.534   5.152
 2186SOL     OW 7456   1.841   3.899   4.687
 2186SOL    HW1 7457   1.880   3.814   4.651
 2186SOL    HW2 7458   1.743   3.901   4.668
 2187SOL     OW 7459   0.263   4.050   4.444
 2187SOL    HW1 7460   0.184   4.101   4.410
 2187SOL    HW2 7461   0.254   4.035   4.542
 2188SOL     OW 7462   1.194   5.336   3.755
 2188SOL    HW1 7463   1.200   5.243   3.792
 2188SOL    HW2 7464   1.135   5.336   3.675
 2189SOL     OW 7465   0.822   4.726   5.096
 2189SOL    HW1 7466   0.862   4.725   5.004
 2189SOL    HW2 7467   0.832   4.818   5.136
 2190SOL     OW 7468   0.916   4.634   4.015
 2190SOL    HW1 7469   0.979   4.672   3.947
 2190SOL    HW2 7470   0.956   4.551   4.054
 2191SOL     OW 7471   1.504   5.331   3.768
 2191SOL    HW1 7472   1.412   5.368   3.775
 2191SOL    HW2 7473   1.542   5.351   3.678
 2192SOL     OW 7474   0.372   5.012   5.214
 2192SOL    HW1 7475   0.359   5.105   5.180
 2192SOL    HW2 7476   0.288   4.960   5.201
 2193SOL     OW 7477   1.614   5.016   5.013
 2193SOL    HW1 7478   1.674   5.019   5.093
 2193SOL    HW2 7479   1.539   5.080   5.026
 2194SOL     OW 7480   1.039   4.822   4.420
 2194SOL    HW1 7481   0.969   4.775   4.474
 2194SOL    HW2 7482   1.098   4.754   4.377
 2195SOL     OW 7483   1.014   3.960   4.695
 2195SOL    HW1 7484   1.006   3.924   4.602
 2195SOL    HW2 7485   1.012   3.884   4.760
 2196SOL     OW 7486   0.590   5.211   4.215
 2196SOL    HW1 7487   0.632   5.153   4.145
 2196SOL    HW2 7488   0.546   5.290   4.171
 2197SOL     OW 7489   1.709   4.109   5.105
 2197SOL    HW1 7490   1.782   4.178   5.109
 2197SOL    HW2 7491   1.737   4.034   5.046
 2198SOL     OW 7492   0.255   5.072   4.014
 2198SOL    HW1 7493   0.159   5.073   3.987
 2198SOL    HW2 7494   0.267   5.125   4.098
 2199SOL     OW 7495   0.105   4.737   5.450
 2199SOL    HW1 7496   0.028   4.704   5.504
 2199SOL    HW2 7497   0.190   4.707   5.492
 2200SOL     OW 7498   0.672   3.927   5.213
 2200SOL    HW1 7499   0.762   3.911   5.173
 2200SOL    HW2 7500   0.680   3.932   5.312
 2201SOL     OW 7501   0.075   4.069   3.757
 2201SOL    HW1 7502  -0.017   4.041   3.728
 2201SOL    HW2 7503   0.106   4.146   3.701
 2202SOL     OW 7504   1.440   4.580   5.122
 2202SOL    HW1 7505   1.383   4.632   5.059
 2202SOL    HW2 7506   1.536   4.592   5.098
 2203SOL     OW 7507   0.072   3.890   4.042
 2203SOL    HW1 7508   0.055   3.973   3.988
 2203SOL    HW2 7509   0.162   3.853   4.020
 2204SOL     OW 7510   1.183   5.059   3.843
 2204SOL    HW1 7511   1.084   5.048   3.845
 2204SOL    HW2 7512   1.217   5.074   3.936
 2205SOL     OW 7513   0.613   4.566   5.155
 2205SOL    HW1 7514   0.669   4.647   5.138
 2205SOL    HW2 7515   0.672   4.486   5.158
 2206SOL     OW 7516   1.493   5.491   4.683
 2206SOL    HW1 7517   1.526   5.555   4.614
 2206SOL    HW2 7518   1.559   5.485   4.758
 2207SOL     OW 7519   0.716   4.289   5.432
 2207SOL    HW1 7520   0.735   4.354   5.506
 2207SOL    HW2 7521   0.776   4.209   5.441
 2208SOL     OW 7522   1.450   4.944   5.357
 2208SOL    HW1 7523   1.441   4.934   5.456
 2208SOL    HW2 7524   1.546   4.937   5.331
 2209SOL     OW 7525   0.390   5.465   5.284
 2209SOL    HW1 7526   0.299   5.506   5.282
 2209SOL    HW2 7527   0.383   5.371   5.316
 2210SOL     OW 7528   1.674   4.607   4.978
 2210SOL    HW1 7529   1.647   4.518   4.941
 2210SOL    HW2 7530   1.675   4.675   4.905
 2211SOL     OW 7531   1.225   4.049   4.173
 2211SOL    HW1 7532   1.290   3.975   4.162
 2211SOL    HW2 7533   1.245   4.099   4.257
 2212SOL     OW 7534   0.594   4.469   4.376
 2212SOL    HW1 7535   0.644   4.554   4.357
 2212SOL    HW2 7536   0.506   4.471   4.328
 2213SOL     OW 7537   1.777   4.066   5.366
 2213SOL    HW1 7538   1.760   4.097   5.272
 2213SOL    HW2 7539   1.693   4.029   5.404
 2214SOL     OW 7540   1.730   4.658   5.241
 2214SOL    HW1 7541   1.768   4.749   5.256
 2214SOL    HW2 7542   1.722   4.641   5.142
 2215SOL     OW 7543   0.859   5.098   3.740
 2215SOL    HW1 7544   0.813   5.113   3.828
 2215SOL    HW2 7545   0.903   5.183   3.710
 2216SOL     OW 7546   0.661   5.514   4.677
 2216SOL    HW1 7547   0.615   5.602   4.664
 2216SOL    HW2 7548   0.760   5.526   4.670
 2217SOL     OW 7549   0.859   4.680   4.585
 2217SOL    HW1 7550   0.913   4.611   4.633
 2217SOL    HW2 7551   0.827   4.749   4.651
 2218SOL     OW 7552   1.083   4.708   3.811
 2218SOL    HW1 7553   1.060   4.761   3.729
 2218SOL    HW2 7554   1.164   4.652   3.792
 2219SOL     OW 7555   1.861   5.293   4.575
 2219SOL    HW1 7556   1.790   5.281   4.505
 2219SOL    HW2 7557   1.862   5.214   4.635
 2220SOL     OW 7558   0.221   5.038   5.568
 2220SOL    HW1 7559   0.156   4.965   5.547
 2220SOL    HW2 7560   0.225   5.052   5.666
 2221SOL     OW 7561   0.079   4.964   4.377
 2221SOL    HW1 7562   0.078   4.917   4.465
 2221SOL    HW2 7563   0.161   4.936   4.326
 2222SOL     OW 7564   0.672   5.115   5.348
 2222SOL    HW1 7565   0.594   5.065   5.386
 2222SOL    HW2 7566   0.669   5.210   5.379
 2223SOL     OW 7567   1.824   3.916   4.951
 2223SOL    HW1 7568   1.820   3.826   4.995
 2223SOL    HW2 7569   1.827   3.905   4.852
 2224SOL     OW 7570   0.428   4.148   4.244
 2224SOL    HW1 7571   0.458   4.076   4.182
 2224SOL    HW2 7572   0.389   4.108   4.327
 2225SOL     OW 7573   1.705   5.211   4.828
 2225SOL    HW1 7574   1.612   5.186   4.801
 2225SOL    HW2 7575   1.731   5.161   4.910
 2226SOL     OW 7576   0.317   4.271   5.004
 2226SOL    HW1 7577   0.355   4.212   5.076
 2226SOL    HW2 7578   0.357   4.245   4.916
 2227SOL     OW 7579   0.812   5.310   4.411
 2227SOL    HW1 7580   0.844   5.320   4.317
 2227SOL    HW2 7581   0.733   5.248   4.413
 2228SOL     OW 7582   1.424   3.938   4.836
 2228SOL    HW1 7583   1.476   3.873   4.891
 2228SOL    HW2 7584   1.375   4.001   4.897
 2229SOL     OW 7585   1.001   3.758   4.878
 2229SOL    HW1 7586   0.938   3.686   4.847
 2229SOL    HW2 7587   1.094   3.722   4.878
 2230SOL     OW 7588   0.770   5.054   4.025
 2230SOL    HW1 7589   0.724   4.967   4.042
 2230SOL    HW2 7590   0.861   5.051   4.066
 2231SOL     OW 7591   0.618   5.291   5.008
 2231SOL    HW1 7592   0.613   5.373   5.065
 2231SOL    HW2 7593   0.707   5.288   4.963
 2232SOL     OW 7594   1.352   3.776   3.892
 2232SOL    HW1 7595   1.387   3.735   3.808
 2232SOL    HW2 7596   1.262   3.738   3.912
 2233SOL     OW 7597   1.300   4.177   4.415
 2233SOL    HW1 7598   1.241   4.257   4.419
 2233SOL    HW2 7599   1.315   4.142   4.508
 2234SOL     OW 7600   1.593   3.945   4.606
 2234SOL    HW1 7601   1.509   3.944   4.660
 2234SOL    HW2 7602   1.595   4.028   4.550
 2235SOL     OW 7603   0.039   4.801   4.024
 2235SOL    HW1 7604   0.138   4.790   4.015
 2235SOL    HW2 7605  -0.001   4.715   4.056
 2236SOL     OW 7606   0.875   5.370   4.061
 2236SOL    HW1 7607   0.798   5.335   4.007
 2236SOL    HW2 7608   0.843   5.441   4.123
 2237SOL     OW 7609   0.230   4.352   5.699
 2237SOL    HW1 7610   0.137   4.350   5.736
 2237SOL    HW2 7611   0.231   4.313   5.607
 2238SOL     OW 7612   0.225   3.999   6.582
 2238SOL    HW1 7613   0.260   3.982   6.674
 2238SOL    HW2 7614   0.137   3.954   6.570
 2239SOL     OW 7615   0.019   4.092   6.233
 2239SOL    HW1 7616  -0.063   4.135   6.272
 2239SOL    HW2 7617  -0.009   4.019   6.170
 2240SOL     OW 7618   0.569   4.999   6.751
 2240SOL    HW1 7619   0.476   4.992   6.714
 2240SOL    HW2 7620   0.580   5.088   6.795
 2241SOL     OW 7621   1.555   5.235   6.289
 2241SOL    HW1 7622   1.498   5.219   6.370
 2241SOL    HW2 7623   1.496   5.245   6.209
 2242SOL     OW 7624   1.135   4.427   6.303
 2242SOL    HW1 7625   1.192   4.505   6.278
 2242SOL    HW2 7626   1.075   4.453   6.379
 2243SOL     OW 7627   1.755   4.331   5.817
 2243SOL    HW1 7628   1.743   4.318   5.718
 2243SOL    HW2 7629   1.725   4.250   5.866
 2244SOL     OW 7630   0.768   4.868   6.609
 2244SOL    HW1 7631   0.690   4.885   6.669
 2244SOL    HW2 7632   0.802   4.955   6.573
 2245SOL     OW 7633   0.685   4.736   6.251
 2245SOL    HW1 7634   0.754   4.720   6.321
 2245SOL    HW2 7635   0.612   4.793   6.289
 2246SOL     OW 7636   0.335   5.159   6.647
 2246SOL    HW1 7637   0.257   5.128   6.594
 2246SOL    HW2 7638   0.393   5.217   6.590
 2247SOL     OW 7639   1.603   4.171   6.323
 2247SOL    HW1 7640   1.529   4.217   6.273
 2247SOL    HW2 7641   1.654   4.239   6.376
 2248SOL     OW 7642   0.231   5.437   6.069
 2248SOL    HW1 7643   0.265   5.514   6.123
 2248SOL    HW2 7644   0.275   5.437   5.979
 2249SOL     OW 7645   0.230   5.158   6.124
 2249SOL    HW1 7646   0.204   5.254   6.124
 2249SOL    HW2 7647   0.159   5.104   6.169
 2250SOL     OW 7648   0.240   4.815   6.472
 2250SOL    HW1 7649   0.254   4.731   6.524
 2250SOL    HW2 7650   0.185   4.879   6.527
 2251SOL     OW 7651   0.620   5.510   7.025
 2251SOL    HW1 7652   0.528   5.493   7.060
 2251SOL    HW2 7653   0.648   5.602   7.051
 2252SOL     OW 7654   0.606   4.688   5.709
 2252SOL    HW1 7655   0.613   4.772   5.655
 2252SOL    HW2 7656   0.652   4.701   5.797
 2253SOL     OW 7657   0.122   4.367   6.149
 2253SOL    HW1 7658   0.077   4.279   6.166
 2253SOL    HW2 7659   0.121   4.421   6.233
 2254SOL     OW 7660   1.842   5.491   5.945
 2254SOL    HW1 7661   1.896   5.462   6.025
 2254SOL    HW2 7662   1.872   5.581   5.916
 2255SOL     OW 7663   0.027   5.320   5.703
 2255SOL    HW1 7664   0.008   5.224   5.724
 2255SOL    HW2 7665  -0.006   5.378   5.778
 2256SOL     OW 7666   1.689   4.646   6.198
 2256SOL    HW1 7667   1.784   4.617   6.206
 2256SOL    HW2 7668   1.681   4.711   6.123
 2257SOL     OW 7669   1.641   4.832   6.018
 2257SOL    HW1 7670   1.727   4.834   5.966
 2257SOL    HW2 7671   1.655   4.879   6.106
 2258SOL     OW 7672   0.613   5.089   6.312
 2258SOL    HW1 7673   0.564   5.002   6.321
 2258SOL    HW2 7674   0.590   5.132   6.225
 2259SOL     OW 7675   0.809   3.728   6.088
 2259SOL    HW1 7676   0.849   3.819   6.079
 2259SOL    HW2 7677   0.709   3.736   6.094
 2260SOL     OW 7678   0.197   4.700   6.850
 2260SOL    HW1 7679   0.286   4.655   6.836
 2260SOL    HW2 7680   0.124   4.635   6.831
 2261SOL     OW 7681   1.525   4.723   5.776
 2261SOL    HW1 7682   1.462   4.647   5.789
 2261SOL    HW2 7683   1.573   4.741   5.862
 2262SOL     OW 7684   1.466   5.141   6.539
 2262SOL    HW1 7685   1.407   5.147   6.619
 2262SOL    HW2 7686   1.451   5.053   6.493
 2263SOL     OW 7687   1.667   5.438   6.158
 2263SOL    HW1 7688   1.626   5.415   6.070
 2263SOL    HW2 7689   1.649   5.364   6.223
 2264SOL     OW 7690   0.598   4.453   5.856
 2264SOL    HW1 7691   0.622   4.522   5.788
 2264SOL    HW2 7692   0.520   4.486   5.910
 2265SOL     OW 7693   1.281   4.069   6.530
 2265SOL    HW1 7694   1.195   4.019   6.517
 2265SOL    HW2 7695   1.343   4.015   6.586
 2266SOL     OW 7696   1.576   5.386   5.893
 2266SOL    HW1 7697   1.665   5.432   5.896
 2266SOL    HW2 7698   1.555   5.362   5.798
 2267SOL     OW 7699   0.807   4.329   7.051
 2267SOL    HW1 7700   0.760   4.326   7.140
 2267SOL    HW2 7701   0.756   4.274   6.985
 2268SOL     OW 7702   0.991   4.134   6.828
 2268SOL    HW1 7703   0.914   4.168   6.882
 2268SOL    HW2 7704   0.957   4.083   6.749
 2269SOL     OW 7705   1.041   4.425   6.015
 2269SOL    HW1 7706   1.067   4.421   6.111
 2269SOL    HW2 7707   0.956   4.374   6.001
 2270SOL     OW 7708   0.076   4.535   6.375
 2270SOL    HW1 7709   0.175   4.523   6.384
 2270SOL    HW2 7710   0.052   4.630   6.396
 2271SOL     OW 7711   0.130   5.545   7.157
 2271SOL    HW1 7712   0.120   5.530   7.256
 2271SOL    HW2 7713   0.044   5.581   7.121
 2272SOL     OW 7714   0.865   4.072   5.781
 2272SOL    HW1 7715   0.924   4.135   5.732
 2272SOL    HW2 7716   0.884   3.978   5.752
 2273SOL     OW 7717   1.362   4.868   6.131
 2273SOL    HW1 7718   1.445   4.839   6.083
 2273SOL    HW2 7719   1.313   4.935   6.075
 2274SOL     OW 7720   0.550   3.920   6.471
 2274SOL    HW1 7721   0.545   3.915   6.571
 2274SOL    HW2 7722   0.552   4.016   6.442
 2275SOL     OW 7723   1.008   5.180   6.063
 2275SOL    HW1 7724   0.962   5.252   6.011
 2275SOL    HW2 7725   1.004   5.200   6.161
 2276SOL     OW 7726   0.351   5.525   6.439
 2276SOL    HW1 7727   0.401   5.439   6.445
 2276SOL    HW2 7728   0.416   5.602   6.436
 2277SOL     OW 7729   1.795   4.790   6.459
 2277SOL    HW1 7730   1.733   4.775   6.383
 2277SOL    HW2 7731   1.743   4.801   6.544
 2278SOL     OW 7732   0.321   4.667   5.828
 2278SOL    HW1 7733   0.403   4.706   5.786
 2278SOL    HW2 7734   0.294   4.585   5.779
 2279SOL     OW 7735   1.458   4.459   6.314
 2279SOL    HW1 7736   1.453   4.394   6.389
 2279SOL    HW2 7737   1.538   4.518   6.327
 2280SOL     OW 7738   1.111   5.500   5.823
 2280SOL    HW1 7739   1.051   5.438   5.873
 2280SOL    HW2 7740   1.142   5.456   5.738
 2281SOL     OW 7741   1.632   5.101   5.667
 2281SOL    HW1 7742   1.600   5.195   5.657
 2281SOL    HW2 7743   1.556   5.038   5.655
 2282SOL     OW 7744   0.464   5.467   5.909
 2282SOL    HW1 7745   0.497   5.506   5.995
 2282SOL    HW2 7746   0.540   5.460   5.844
 2283SOL     OW 7747   1.400   3.831   6.012
 2283SOL    HW1 7748   1.376   3.794   5.922
 2283SOL    HW2 7749   1.499   3.847   6.016
 2284SOL     OW 7750   0.249   5.509   6.827
 2284SOL    HW1 7751   0.306   5.444   6.877
 2284SOL    HW2 7752   0.233   5.476   6.734
 2285SOL     OW 7753   0.940   5.422   6.490
 2285SOL    HW1 7754   1.020   5.365   6.511
 2285SOL    HW2 7755   0.891   5.382   6.413
 2286SOL     OW 7756   0.382   4.424   6.066
 2286SOL    HW1 7757   0.427   4.334   6.063
 2286SOL    HW2 7758   0.288   4.413   6.099
 2287SOL     OW 7759   0.614   3.846   5.703
 2287SOL    HW1 7760   0.712   3.824   5.710
 2287SOL    HW2 7761   0.583   3.829   5.610
 2288SOL     OW 7762   0.888   5.238   6.781
 2288SOL    HW1 7763   0.865   5.213   6.687
 2288SOL    HW2 7764   0.949   5.169   6.820
 2289SOL     OW 7765   0.803   5.126   6.510
 2289SOL    HW1 7766   0.893   5.140   6.468
 2289SOL    HW2 7767   0.732   5.128   6.439
 2290SOL     OW 7768   0.922   4.227   6.485
 2290SOL    HW1 7769   0.897   4.218   6.389
 2290SOL    HW2 7770   0.970   4.145   6.516
 2291SOL     OW 7771   0.539   3.788   6.098
 2291SOL    HW1 7772   0.458   3.789   6.156
 2291SOL    HW2 7773   0.542   3.871   6.043
 2292SOL     OW 7774   1.434   4.912   5.627
 2292SOL    HW1 7775   1.466   4.836   5.684
 2292SOL    HW2 7776   1.342   4.939   5.657
 2293SOL     OW 7777   0.297   3.759   5.757
 2293SOL    HW1 7778   0.346   3.843   5.736
 2293SOL    HW2 7779   0.359   3.694   5.802
 2294SOL     OW 7780   0.935   3.960   6.066
 2294SOL    HW1 7781   0.887   4.001   5.988
 2294SOL    HW2 7782   1.034   3.958   6.047
 2295SOL     OW 7783   1.227   5.294   6.379
 2295SOL    HW1 7784   1.248   5.368   6.314
 2295SOL    HW2 7785   1.295   5.294   6.452
 2296SOL     OW 7786   0.459   4.876   6.327
 2296SOL    HW1 7787   0.388   4.849   6.392
 2296SOL    HW2 7788   0.433   4.848   6.234
 2297SOL     OW 7789   1.271   5.521   6.177
 2297SOL    HW1 7790   1.315   5.585   6.113
 2297SOL    HW2 7791   1.221   5.573   6.247
 2298SOL     OW 7792   1.032   4.273   5.602
 2298SOL    HW1 7793   0.991   4.355   5.563
 2298SOL    HW2 7794   1.096   4.299   5.675
 2299SOL     OW 7795   0.561   3.946   6.733
 2299SOL    HW1 7796   0.599   3.862   6.770
 2299SOL    HW2 7797   0.473   3.965   6.777
 2300SOL     OW 7798   0.866   4.178   6.228
 2300SOL    HW1 7799   0.834   4.250   6.166
 2300SOL    HW2 7800   0.890   4.097   6.175
 2301SOL     OW 7801   1.017   3.763   6.339
 2301SOL    HW1 7802   0.945   3.768   6.270
 2301SOL    HW2 7803   0.993   3.694   6.408
 2302SOL     OW 7804   1.429   4.897   6.453
 2302SOL    HW1 7805   1.374   4.813   6.446
 2302SOL    HW2 7806   1.455   4.926   6.361
 2303SOL     OW 7807   1.466   4.314   6.578
 2303SOL    HW1 7808   1.436   4.219   6.585
 2303SOL    HW2 7809   1.539   4.330   6.644
 2304SOL     OW 7810   1.857   4.557   5.963
 2304SOL    HW1 7811   1.899   4.493   6.027
 2304SOL    HW2 7812   1.819   4.506   5.885
 2305SOL     OW 7813   0.488   5.109   5.760
 2305SOL    HW1 7814   0.401   5.094   5.807
 2305SOL    HW2 7815   0.471   5.135   5.665
 2306SOL     OW 7816   1.664   5.004   6.243
 2306SOL    HW1 7817   1.763   5.012   6.257
 2306SOL    HW2 7818   1.619   5.088   6.274
 2307SOL     OW 7819   1.390   4.299   5.664
 2307SOL    HW1 7820   1.336   4.278   5.745
 2307SOL    HW2 7821   1.481   4.258   5.673
 2308SOL     OW 7822   0.527   3.980   5.914
 2308SOL    HW1 7823   0.554   3.921   5.839
 2308SOL    HW2 7824   0.527   4.075   5.883
 2309SOL     OW 7825   1.754   4.947   7.174
 2309SOL    HW1 7826   1.845   4.908   7.161
 2309SOL    HW2 7827   1.762   5.043   7.198
 2310SOL     OW 7828   1.111   4.919   6.686
 2310SOL    HW1 7829   1.071   4.963   6.767
 2310SOL    HW2 7830   1.070   4.956   6.603
 2311SOL     OW 7831   1.638   4.823   6.665
 2311SOL    HW1 7832   1.643   4.904   6.724
 2311SOL    HW2 7833   1.552   4.825   6.614
 2312SOL     OW 7834   0.705   4.774   5.954
 2312SOL    HW1 7835   0.691   4.781   6.053
 2312SOL    HW2 7836   0.789   4.723   5.936
 2313SOL     OW 7837   0.410   4.537   6.837
 2313SOL    HW1 7838   0.496   4.549   6.887
 2313SOL    HW2 7839   0.368   4.450   6.864
 2314SOL     OW 7840   1.274   4.110   6.848
 2314SOL    HW1 7841   1.295   4.184   6.912
 2314SOL    HW2 7842   1.185   4.127   6.805
 2315SOL     OW 7843   0.064   5.288   6.917
 2315SOL    HW1 7844   0.018   5.370   6.883
 2315SOL    HW2 7845   0.162   5.307   6.926
 2316SOL     OW 7846   0.367   4.824   6.087
 2316SOL    HW1 7847   0.360   4.907   6.031
 2316SOL    HW2 7848   0.371   4.744   6.027
 2317SOL     OW 7849   0.566   4.261   6.451
 2317SOL    HW1 7850   0.578   4.327   6.377
 2317SOL    HW2 7851   0.612   4.295   6.534
 2318SOL     OW 7852   1.252   5.072   5.974
 2318SOL    HW1 7853   1.302   5.149   6.014
 2318SOL    HW2 7854   1.157   5.074   6.006
 2319SOL     OW 7855   1.272   5.169   6.728
 2319SOL    HW1 7856   1.319   5.182   6.815
 2319SOL    HW2 7857   1.206   5.095   6.737
 2320SOL     OW 7858   1.582   4.363   6.058
 2320SOL    HW1 7859   1.551   4.424   6.131
 2320SOL    HW2 7860   1.632   4.415   5.989
 2321SOL     OW 7861   0.354   5.234   6.915
 2321SOL    HW1 7862   0.333   5.190   6.828
 2321SOL    HW2 7863   0.451   5.260   6.918
 2322SOL     OW 7864   0.573   4.594   6.615
 2322SOL    HW1 7865   0.617   4.683   6.606
 2322SOL    HW2 7866   0.510   4.594   6.692
 2323SOL     OW 7867   1.360   4.586   6.631
 2323SOL    HW1 7868   1.285   4.586   6.565
 2323SOL    HW2 7869   1.397   4.494   6.640
 2324SOL     OW 7870   1.209   4.249   5.861
 2324SOL    HW1 7871   1.222   4.165   5.915
 2324SOL    HW2 7872   1.180   4.323   5.921
 2325SOL     OW 7873   0.307   3.937   6.817
 2325SOL    HW1 7874   0.284   3.974   6.907
 2325SOL    HW2 7875   0.277   3.842   6.811
 2326SOL     OW 7876   0.037   5.034   6.868
 2326SOL    HW1 7877   0.090   4.985   6.936
 2326SOL    HW2 7878   0.059   5.132   6.873
 2327SOL     OW 7879   0.732   4.358   6.650
 2327SOL    HW1 7880   0.791   4.332   6.574
 2327SOL    HW2 7881   0.704   4.454   6.639
 2328SOL     OW 7882   0.307   3.787   6.204
 2328SOL    HW1 7883   0.296   3.881   6.237
 2328SOL    HW2 7884   0.302   3.724   6.281
 2329SOL     OW 7885   1.622   4.091   5.960
 2329SOL    HW1 7886   1.624   4.015   6.024
 2329SOL    HW2 7887   1.574   4.168   6.000
 2330SOL     OW 7888   1.023   4.490   6.552
 2330SOL    HW1 7889   1.038   4.511   6.648
 2330SOL    HW2 7890   0.993   4.395   6.543
 2331SOL     OW 7891   1.859   5.242   7.191
 2331SOL    HW1 7892   1.873   5.269   7.096
 2331SOL    HW2 7893   1.942   5.264   7.244
 2332SOL     OW 7894   1.540   3.998   5.711
 2332SOL    HW1 7895   1.479   3.923   5.734
 2332SOL    HW2 7896   1.562   4.050   5.794
 2333SOL     OW 7897   1.303   4.562   5.628
 2333SOL    HW1 7898   1.337   4.469   5.643
 2333SOL    HW2 7899   1.321   4.589   5.533
 2334SOL     OW 7900   1.068   5.057   6.435
 2334SOL    HW1 7901   1.075   4.973   6.380
 2334SOL    HW2 7902   1.130   5.126   6.399
 2335SOL     OW 7903   0.319   4.534   6.535
 2335SOL    HW1 7904   0.412   4.570   6.540
 2335SOL    HW2 7905   0.313   4.449   6.587
 2336SOL     OW 7906   0.339   4.233   6.592
 2336SOL    HW1 7907   0.287   4.150   6.575
 2336SOL    HW2 7908   0.416   4.238   6.528
 2337SOL     OW 7909   1.160   3.931   7.063
 2337SOL    HW1 7910   1.160   3.995   7.140
 2337SOL    HW2 7911   1.188   3.979   6.980
 2338SOL     OW 7912   0.008   5.050   5.786
 2338SOL    HW1 7913  -0.085   5.071   5.755
 2338SOL    HW2 7914   0.018   4.951   5.799
 2339SOL     OW 7915   0.088   5.525   6.513
 2339SOL    HW1 7916   0.046   5.439   6.486
 2339SOL    HW2 7917   0.182   5.528   6.479
 2340SOL     OW 7918   0.504   5.292   6.496
 2340SOL    HW1 7919   0.570   5.366   6.505
 2340SOL    HW2 7920   0.548   5.213   6.454
 2341SOL     OW 7921   1.002   4.520   6.824
 2341SOL    HW1 7922   1.043   4.488   6.910
 2341SOL    HW2 7923   0.906   4.493   6.821
 2342SOL     OW 7924   0.040   4.268   6.700
 2342SOL    HW1 7925   0.125   4.235   6.659
 2342SOL    HW2 7926   0.053   4.283   6.798
 2343SOL     OW 7927   0.815   4.296   5.911
 2343SOL    HW1 7928   0.822   4.207   5.865
 2343SOL    HW2 7929   0.721   4.330   5.903
 2344SOL     OW 7930   1.657   4.328   6.792
 2344SOL    HW1 7931   1.619   4.259   6.854
 2344SOL    HW2 7932   1.739   4.292   6.748
 2345SOL     OW 7933   0.671   4.188   6.855
 2345SOL    HW1 7934   0.637   4.099   6.825
 2345SOL    HW2 7935   0.697   4.242   6.775
 2346SOL     OW 7936   0.930   5.402   7.051
 2346SOL    HW1 7937   0.906   5.384   6.956
 2346SOL    HW2 7938   0.960   5.496   7.061
 2347SOL     OW 7939   0.473   4.224   5.777
 2347SOL    HW1 7940   0.534   4.304   5.781
 2347SOL    HW2 7941   0.378   4.255   5.784
 2348SOL     OW 7942   0.159   4.861   7.052
 2348SOL    HW1 7943   0.181   4.800   7.128
 2348SOL    HW2 7944   0.169   4.812   6.966
 2349SOL     OW 7945   1.347   4.783   6.820
 2349SOL    HW1 7946   1.371   4.720   6.746
 2349SOL    HW2 7947   1.257   4.823   6.802
 2350SOL     OW 7948   1.302   4.579   5.895
 2350SOL    HW1 7949   1.216   4.548   5.937
 2350SOL    HW2 7950   1.298   4.565   5.796
 2351SOL     OW 7951   1.759   5.471   6.740
 2351SOL    HW1 7952   1.820   5.501   6.667
 2351SOL    HW2 7953   1.721   5.382   6.718
 2352SOL     OW 7954   1.252   5.455   6.714
 2352SOL    HW1 7955   1.336   5.460   6.660
 2352SOL    HW2 7956   1.229   5.359   6.732
 2353SOL     OW 7957   0.083   4.982   6.608
 2353SOL    HW1 7958   0.078   4.981   6.708
 2353SOL    HW2 7959   0.000   4.941   6.570
 2354SOL     OW 7960   1.726   3.859   6.109
 2354SOL    HW1 7961   1.799   3.842   6.042
 2354SOL    HW2 7962   1.695   3.772   6.147
 2355SOL     OW 7963   1.388   5.297   6.063
 2355SOL    HW1 7964   1.455   5.309   5.989
 2355SOL    HW2 7965   1.348   5.386   6.086
 2356SOL     OW 7966   1.280   4.651   6.258
 2356SOL    HW1 7967   1.340   4.570   6.260
 2356SOL    HW2 7968   1.320   4.720   6.198
 2357SOL     OW 7969   0.672   5.340   5.740
 2357SOL    HW1 7970   0.681   5.350   5.641
 2357SOL    HW2 7971   0.632   5.251   5.761
 2358SOL     OW 7972   1.841   3.899   6.549
 2358SOL    HW1 7973   1.880   3.814   6.513
 2358SOL    HW2 7974   1.743   3.901   6.530
 2359SOL     OW 7975   0.263   4.050   6.306
 2359SOL    HW1 7976   0.184   4.101   6.272
 2359SOL    HW2 7977   0.254   4.035   6.404
 2360SOL     OW 7978   1.194   5.336   5.617
 2360SOL    HW1 7979   1.200   5.243   5.654
 2360SOL    HW2 7980   1.135   5.336   5.537
 2361SOL     OW 7981   0.822   4.726   6.958
 2361SOL    HW1 7982   0.862   4.725   6.866
 2361SOL    HW2 7983   0.832   4.818   6.998
 2362SOL     OW 7984   0.916   4.634   5.877
 2362SOL    HW1 7985   0.979   4.672   5.809
 2362SOL    HW2 7986   0.956   4.551   5.916
 2363SOL     OW 7987   1.504   5.331   5.630
 2363SOL    HW1 7988   1.412   5.368   5.637
 2363SOL    HW2 7989   1.542   5.351   5.540
 2364SOL     OW 7990   1.614   5.016   6.875
 2364SOL    HW1 7991   1.674   5.019   6.955
 2364SOL    HW2 7992   1.539   5.080   6.888
 2365SOL     OW 7993   1.039   4.822   6.282
 2365SOL    HW1 7994   0.969   4.775   6.336
 2365SOL    HW2 7995   1.098   4.754   6.239
 2366SOL     OW 7996   1.014   3.960   6.557
 2366SOL    HW1 7997   1.006   3.924   6.464
 2366SOL    HW2 7998   1.012   3.884   6.622
 2367SOL     OW 7999   0.590   5.211   6.077
 2367SOL    HW1 8000   0.632   5.153   6.007
 2367SOL    HW2 8001   0.546   5.290   6.033
 2368SOL     OW 8002   1.709   4.109   6.967
 2368SOL    HW1 8003   1.782   4.178   6.971
 2368SOL    HW2 8004   1.737   4.034   6.908
 2369SOL     OW 8005   0.255   5.072   5.876
 2369SOL    HW1 8006   0.159   5.073   5.849
 2369SOL    HW2 8007   0.267   5.125   5.960
 2370SOL     OW 8008   0.672   3.927   7.075
 2370SOL    HW1 8009   0.762   3.911   7.035
 2370SOL    HW2 8010   0.680   3.932   7.174
 2371SOL     OW 8011   0.075   4.069   5.619
 2371SOL    HW1 8012  -0.017   4.041   5.590
 2371SOL    HW2 8013   0.106   4.146   5.563
 2372SOL     OW 8014   0.072   3.890   5.904
 2372SOL    HW1 8015   0.055   3.973   5.850
 2372SOL    HW2 8016   0.162   3.853   5.882
 2373SOL     OW 8017   1.183   5.059   5.705
 2373SOL    HW1 8018   1.084   5.048   5.707
 2373SOL    HW2 8019   1.217   5.074   5.798
 2374SOL     OW 8020   1.493   5.491   6.545
 2374SOL    HW1 8021   1.526   5.555   6.476
 2374SOL    HW2 8022   1.559   5.485   6.620
 2375SOL     OW 8023   1.450   4.944   7.219
 2375SOL    HW1 8024   1.441   4.934   7.318
 2375SOL    HW2 8025   1.546   4.937   7.193
 2376SOL     OW 8026   0.390   5.465   7.146
 2376SOL    HW1 8027   0.299   5.506   7.144
 2376SOL    HW2 8028   0.383   5.371   7.178
 2377SOL     OW 8029   1.674   4.607   6.840
 2377SOL    HW1 8030   1.647   4.518   6.803
 2377SOL    HW2 8031   1.675   4.675   6.767
 2378SOL     OW 8032   1.225   4.049   6.035
 2378SOL    HW1 8033   1.290   3.975   6.024
 2378SOL    HW2 8034   1.245   4.099   6.119
 2379SOL     OW 8035   0.594   4.469   6.238
 2379SOL    HW1 8036   0.644   4.554   6.219
 2379SOL    HW2 8037   0.506   4.471   6.190
 2380SOL     OW 8038   1.730   4.658   7.103
 2380SOL    HW1 8039   1.768   4.749   7.118
 2380SOL    HW2 8040   1.722   4.641   7.004
 2381SOL     OW 8041   0.859   5.098   5.602
 2381SOL    HW1 8042   0.813   5.113   5.690
 2381SOL    HW2 8043   0.903   5.183   5.572
 2382SOL     OW 8044   0.661   5.514   6.539
 2382SOL    HW1 8045   0.615   5.602   6.526
 2382SOL    HW2 8046   0.760   5.526   6.532
 2383SOL     OW 8047   0.859   4.680   6.447
 2383SOL    HW1 8048   0.913   4.611   6.495
 2383SOL    HW2 8049   0.827   4.749   6.513
 2384SOL     OW 8050   1.083   4.708   5.673
 2384SOL    HW1 8051   1.060   4.761   5.591
 2384SOL    HW2 8052   1.164   4.652   5.654
 2385SOL     OW 8053   1.861   5.293   6.437
 2385SOL    HW1 8054   1.790   5.281   6.367
 2385SOL    HW2 8055   1.862   5.214   6.497
 2386SOL     OW 8056   0.079   4.964   6.239
 2386SOL    HW1 8057   0.078   4.917   6.327
 2386SOL    HW2 8058   0.161   4.936   6.188
 2387SOL     OW 8059   1.824   3.916   6.813
 2387SOL    HW1 8060   1.820   3.826   6.857
 2387SOL    HW2 8061   1.827   3.905   6.714
 2388SOL     OW 8062   0.428   4.148   6.106
 2388SOL    HW1 8063   0.458   4.076   6.044
 2388SOL    HW2 8064   0.389   4.108   6.189
 2389SOL     OW 8065   1.705   5.211   6.690
 2389SOL    HW1 8066   1.612   5.186   6.663
 2389SOL    HW2 8067   1.731   5.161   6.772
 2390SOL     OW 8068   0.317   4.271   6.866
 2390SOL    HW1 8069   0.355   4.212   6.938
 2390SOL    HW2 8070   0.357   4.245   6.778
 2391SOL     OW 8071   0.812   5.310   6.273
 2391SOL    HW1 8072   0.844   5.320   6.179
 2391SOL    HW2 8073   0.733   5.248   6.275
 2392SOL     OW 8074   1.424   3.938   6.698
 2392SOL    HW1 8075   1.476   3.873   6.753
 2392SOL    HW2 8076   1.375   4.001   6.759
 2393SOL     OW 8077   1.001   3.758   6.740
 2393SOL    HW1 8078   0.938   3.686   6.709
 2393SOL    HW2 8079   1.094   3.722   6.740
 2394SOL     OW 8080   0.770   5.054   5.887
 2394SOL    HW1 8081   0.724   4.967   5.904
 2394SOL    HW2 8082   0.861   5.051   5.928
 2395SOL     OW 8083   0.618   5.291   6.870
 2395SOL    HW1 8084   0.613   5.373   6.927
 2395SOL    HW2 8085   0.707   5.288   6.825
 2396SOL     OW 8086   1.352   3.776   5.754
 2396SOL    HW1 8087   1.387   3.735   5.670
 2396SOL    HW2 8088   1.262   3.738   5.774
 2397SOL     OW 8089   1.300   4.177   6.277
 2397SOL    HW1 8090   1.241   4.257   6.281
 2397SOL    HW2 8091   1.315   4.142   6.370
 2398SOL     OW 8092   1.593   3.945   6.468
 2398SOL    HW1 8093   1.509   3.944   6.522
 2398SOL    HW2 8094   1.595   4.028   6.412
 2399SOL     OW 8095   0.039   4.801   5.886
 2399SOL    HW1 8096   0.138   4.790   5.877
 2399SOL    HW2 8097  -0.001   4.715   5.918
 2400SOL     OW 8098   0.875   5.370   5.923
 2400SOL    HW1 8099   0.798   5.335   5.869
 2400SOL    HW2 8100   0.843   5.441   5.985
 2401SOL     OW 8101   0.230   6.214   0.113
 2401SOL    HW1 8102   0.137   6.212   0.150
 2401SOL    HW2 8103   0.231   6.175   0.021
 2402SOL     OW 8104   0.225   5.861   0.996
 2402SOL    HW1 8105   0.260   5.844   1.088
 2402SOL    HW2 8106   0.137   5.816   0.984
 2403SOL     OW 8107   0.019   5.954   0.647
 2403SOL    HW1 8108  -0.063   5.997   0.686
 2403SOL    HW2 8109  -0.009   5.881   0.584
 2404SOL     OW 8110   0.569   6.861   1.165
 2404SOL    HW1 8111   0.476   6.854   1.128
 2404SOL    HW2 8112   0.580   6.950   1.209
 2405SOL     OW 8113   1.555   7.097   0.703
 2405SOL    HW1 8114   1.498   7.081   0.784
 2405SOL    HW2 8115   1.496   7.107   0.623
 2406SOL     OW 8116   1.135   6.289   0.717
 2406SOL    HW1 8117   1.192   6.367   0.692
 2406SOL    HW2 8118   1.075   6.315   0.793
 2407SOL     OW 8119   1.755   6.193   0.231
 2407SOL    HW1 8120   1.743   6.180   0.132
 2407SOL    HW2 8121   1.725   6.112   0.280
 2408SOL     OW 8122   0.768   6.730   1.023
 2408SOL    HW1 8123   0.690   6.747   1.083
 2408SOL    HW2 8124   0.802   6.817   0.987
 2409SOL     OW 8125   0.850   6.384   1.823
 2409SOL    HW1 8126   0.846   6.460   1.888
 2409SOL    HW2 8127   0.872   6.420   1.732
 2410SOL     OW 8128   0.685   6.598   0.665
 2410SOL    HW1 8129   0.754   6.582   0.735
 2410SOL    HW2 8130   0.612   6.655   0.703
 2411SOL     OW 8131   0.686   6.747   1.803
 2411SOL    HW1 8132   0.746   6.826   1.817
 2411SOL    HW2 8133   0.600   6.778   1.762
 2412SOL     OW 8134   0.335   7.021   1.061
 2412SOL    HW1 8135   0.257   6.990   1.008
 2412SOL    HW2 8136   0.393   7.079   1.004
 2413SOL     OW 8137   0.438   5.978   1.499
 2413SOL    HW1 8138   0.520   5.922   1.508
 2413SOL    HW2 8139   0.357   5.920   1.503
 2414SOL     OW 8140   1.603   6.033   0.737
 2414SOL    HW1 8141   1.529   6.079   0.687
 2414SOL    HW2 8142   1.654   6.101   0.790
 2415SOL     OW 8143   0.240   6.677   0.886
 2415SOL    HW1 8144   0.254   6.593   0.938
 2415SOL    HW2 8145   0.185   6.741   0.941
 2416SOL     OW 8146   0.606   6.550   0.123
 2416SOL    HW1 8147   0.613   6.634   0.069
 2416SOL    HW2 8148   0.652   6.563   0.211
 2417SOL     OW 8149   1.594   5.700   1.480
 2417SOL    HW1 8150   1.576   5.767   1.408
 2417SOL    HW2 8151   1.591   5.746   1.569
 2418SOL     OW 8152   0.122   6.229   0.563
 2418SOL    HW1 8153   0.077   6.141   0.580
 2418SOL    HW2 8154   0.121   6.283   0.647
 2419SOL     OW 8155   1.689   6.508   0.612
 2419SOL    HW1 8156   1.784   6.479   0.620
 2419SOL    HW2 8157   1.681   6.573   0.537
 2420SOL     OW 8158   1.641   6.694   0.432
 2420SOL    HW1 8159   1.727   6.696   0.380
 2420SOL    HW2 8160   1.655   6.741   0.520
 2421SOL     OW 8161   0.113   6.323   1.597
 2421SOL    HW1 8162   0.201   6.310   1.642
 2421SOL    HW2 8163   0.100   6.420   1.575
 2422SOL     OW 8164   1.293   6.814   1.423
 2422SOL    HW1 8165   1.330   6.741   1.365
 2422SOL    HW2 8166   1.345   6.819   1.508
 2423SOL     OW 8167   0.809   5.590   0.502
 2423SOL    HW1 8168   0.849   5.681   0.493
 2423SOL    HW2 8169   0.709   5.598   0.508
 2424SOL     OW 8170   0.197   6.562   1.264
 2424SOL    HW1 8171   0.286   6.517   1.250
 2424SOL    HW2 8172   0.124   6.497   1.245
 2425SOL     OW 8173   1.525   6.585   0.190
 2425SOL    HW1 8174   1.462   6.509   0.203
 2425SOL    HW2 8175   1.573   6.603   0.276
 2426SOL     OW 8176   0.317   5.837   1.801
 2426SOL    HW1 8177   0.388   5.908   1.807
 2426SOL    HW2 8178   0.229   5.876   1.829
 2427SOL     OW 8179   1.466   7.003   0.953
 2427SOL    HW1 8180   1.407   7.009   1.033
 2427SOL    HW2 8181   1.451   6.915   0.907
 2428SOL     OW 8182   0.598   6.315   0.270
 2428SOL    HW1 8183   0.622   6.384   0.202
 2428SOL    HW2 8184   0.520   6.348   0.324
 2429SOL     OW 8185   1.281   5.931   0.944
 2429SOL    HW1 8186   1.195   5.881   0.931
 2429SOL    HW2 8187   1.343   5.877   1.000
 2430SOL     OW 8188   0.807   6.191   1.465
 2430SOL    HW1 8189   0.760   6.188   1.554
 2430SOL    HW2 8190   0.756   6.136   1.399
 2431SOL     OW 8191   1.394   6.055   1.674
 2431SOL    HW1 8192   1.374   6.098   1.762
 2431SOL    HW2 8193   1.472   5.993   1.683
 2432SOL     OW 8194   0.973   6.476   1.572
 2432SOL    HW1 8195   1.019   6.392   1.543
 2432SOL    HW2 8196   0.917   6.510   1.497
 2433SOL     OW 8197   0.991   5.996   1.242
 2433SOL    HW1 8198   0.914   6.030   1.296
 2433SOL    HW2 8199   0.957   5.945   1.163
 2434SOL     OW 8200   1.041   6.287   0.429
 2434SOL    HW1 8201   1.067   6.283   0.525
 2434SOL    HW2 8202   0.956   6.236   0.415
 2435SOL     OW 8203   0.076   6.397   0.789
 2435SOL    HW1 8204   0.175   6.385   0.798
 2435SOL    HW2 8205   0.052   6.492   0.810
 2436SOL     OW 8206   0.865   5.934   0.195
 2436SOL    HW1 8207   0.924   5.997   0.146
 2436SOL    HW2 8208   0.884   5.840   0.166
 2437SOL     OW 8209   1.719   6.171   1.831
 2437SOL    HW1 8210   1.693   6.260   1.795
 2437SOL    HW2 8211   1.717   6.103   1.758
 2438SOL     OW 8212   1.362   6.730   0.545
 2438SOL    HW1 8213   1.445   6.701   0.497
 2438SOL    HW2 8214   1.313   6.797   0.489
 2439SOL     OW 8215   0.550   5.782   0.885
 2439SOL    HW1 8216   0.545   5.777   0.985
 2439SOL    HW2 8217   0.552   5.878   0.856
 2440SOL     OW 8218   1.795   6.652   0.873
 2440SOL    HW1 8219   1.733   6.637   0.797
 2440SOL    HW2 8220   1.743   6.663   0.958
 2441SOL     OW 8221   0.321   6.529   0.242
 2441SOL    HW1 8222   0.403   6.568   0.200
 2441SOL    HW2 8223   0.294   6.447   0.193
 2442SOL     OW 8224   1.458   6.321   0.728
 2442SOL    HW1 8225   1.453   6.256   0.803
 2442SOL    HW2 8226   1.538   6.380   0.741
 2443SOL     OW 8227   0.202   5.871   1.498
 2443SOL    HW1 8228   0.122   5.931   1.485
 2443SOL    HW2 8229   0.192   5.822   1.584
 2444SOL     OW 8230   1.632   6.963   0.081
 2444SOL    HW1 8231   1.600   7.057   0.071
 2444SOL    HW2 8232   1.556   6.900   0.069
 2445SOL     OW 8233   1.400   5.693   0.426
 2445SOL    HW1 8234   1.376   5.656   0.336
 2445SOL    HW2 8235   1.499   5.709   0.430
 2446SOL     OW 8236   0.382   6.286   0.480
 2446SOL    HW1 8237   0.427   6.196   0.477
 2446SOL    HW2 8238   0.288   6.275   0.513
 2447SOL     OW 8239   1.547   5.808   1.729
 2447SOL    HW1 8240   1.542   5.845   1.821
 2447SOL    HW2 8241   1.475   5.739   1.717
 2448SOL     OW 8242   0.781   5.850   1.749
 2448SOL    HW1 8243   0.848   5.789   1.792
 2448SOL    HW2 8244   0.708   5.869   1.814
 2449SOL     OW 8245   1.351   6.176   1.433
 2449SOL    HW1 8246   1.379   6.133   1.518
 2449SOL    HW2 8247   1.376   6.272   1.434
 2450SOL     OW 8248   0.922   6.089   0.899
 2450SOL    HW1 8249   0.897   6.080   0.803
 2450SOL    HW2 8250   0.970   6.007   0.930
 2451SOL     OW 8251   0.539   5.650   0.512
 2451SOL    HW1 8252   0.458   5.651   0.570
 2451SOL    HW2 8253   0.542   5.733   0.457
 2452SOL     OW 8254   1.434   6.774   0.041
 2452SOL    HW1 8255   1.466   6.698   0.098
 2452SOL    HW2 8256   1.342   6.801   0.071
 2453SOL     OW 8257   0.935   5.822   0.480
 2453SOL    HW1 8258   0.887   5.863   0.402
 2453SOL    HW2 8259   1.034   5.820   0.461
 2454SOL     OW 8260   1.076   6.269   1.464
 2454SOL    HW1 8261   0.996   6.208   1.467
 2454SOL    HW2 8262   1.157   6.216   1.440
 2455SOL     OW 8263   1.227   7.156   0.793
 2455SOL    HW1 8264   1.248   7.230   0.728
 2455SOL    HW2 8265   1.295   7.156   0.866
 2456SOL     OW 8266   0.459   6.738   0.741
 2456SOL    HW1 8267   0.388   6.711   0.806
 2456SOL    HW2 8268   0.433   6.710   0.648
 2457SOL     OW 8269   1.032   6.135   0.016
 2457SOL    HW1 8270   0.991   6.217  -0.023
 2457SOL    HW2 8271   1.096   6.161   0.089
 2458SOL     OW 8272   0.078   6.142   1.386
 2458SOL    HW1 8273   0.170   6.141   1.345
 2458SOL    HW2 8274   0.072   6.216   1.453
 2459SOL     OW 8275   0.561   5.808   1.147
 2459SOL    HW1 8276   0.599   5.724   1.184
 2459SOL    HW2 8277   0.473   5.827   1.191
 2460SOL     OW 8278   0.866   6.040   0.642
 2460SOL    HW1 8279   0.834   6.112   0.580
 2460SOL    HW2 8280   0.890   5.959   0.589
 2461SOL     OW 8281   1.017   5.625   0.753
 2461SOL    HW1 8282   0.945   5.630   0.684
 2461SOL    HW2 8283   0.993   5.556   0.822
 2462SOL     OW 8284   1.429   6.759   0.867
 2462SOL    HW1 8285   1.374   6.675   0.860
 2462SOL    HW2 8286   1.455   6.788   0.775
 2463SOL     OW 8287   1.466   6.176   0.992
 2463SOL    HW1 8288   1.436   6.081   0.999
 2463SOL    HW2 8289   1.539   6.192   1.058
 2464SOL     OW 8290   1.857   6.419   0.377
 2464SOL    HW1 8291   1.899   6.355   0.441
 2464SOL    HW2 8292   1.819   6.368   0.299
 2465SOL     OW 8293   1.664   6.866   0.657
 2465SOL    HW1 8294   1.763   6.874   0.671
 2465SOL    HW2 8295   1.619   6.950   0.688
 2466SOL     OW 8296   1.390   6.161   0.078
 2466SOL    HW1 8297   1.336   6.140   0.159
 2466SOL    HW2 8298   1.481   6.120   0.087
 2467SOL     OW 8299   0.527   5.842   0.328
 2467SOL    HW1 8300   0.554   5.783   0.253
 2467SOL    HW2 8301   0.527   5.937   0.297
 2468SOL     OW 8302   1.754   6.809   1.588
 2468SOL    HW1 8303   1.845   6.770   1.575
 2468SOL    HW2 8304   1.762   6.905   1.612
 2469SOL     OW 8305   1.064   6.933   1.340
 2469SOL    HW1 8306   0.984   6.910   1.395
 2469SOL    HW2 8307   1.147   6.907   1.389
 2470SOL     OW 8308   1.111   6.781   1.100
 2470SOL    HW1 8309   1.071   6.825   1.181
 2470SOL    HW2 8310   1.070   6.818   1.017
 2471SOL     OW 8311   1.638   6.685   1.079
 2471SOL    HW1 8312   1.643   6.766   1.138
 2471SOL    HW2 8313   1.552   6.687   1.028
 2472SOL     OW 8314   0.915   5.675   1.402
 2472SOL    HW1 8315   0.940   5.655   1.307
 2472SOL    HW2 8316   0.987   5.731   1.444
 2473SOL     OW 8317   0.980   6.702   1.719
 2473SOL    HW1 8318   0.881   6.708   1.729
 2473SOL    HW2 8319   1.003   6.622   1.663
 2474SOL     OW 8320   0.705   6.636   0.368
 2474SOL    HW1 8321   0.691   6.643   0.467
 2474SOL    HW2 8322   0.789   6.585   0.350
 2475SOL     OW 8323   0.410   6.399   1.251
 2475SOL    HW1 8324   0.496   6.411   1.301
 2475SOL    HW2 8325   0.368   6.312   1.278
 2476SOL     OW 8326   1.274   5.972   1.262
 2476SOL    HW1 8327   1.295   6.046   1.326
 2476SOL    HW2 8328   1.185   5.989   1.219
 2477SOL     OW 8329   0.064   7.150   1.331
 2477SOL    HW1 8330   0.018   7.232   1.297
 2477SOL    HW2 8331   0.162   7.169   1.340
 2478SOL     OW 8332   0.367   6.686   0.501
 2478SOL    HW1 8333   0.360   6.769   0.445
 2478SOL    HW2 8334   0.371   6.606   0.441
 2479SOL     OW 8335   0.566   6.123   0.865
 2479SOL    HW1 8336   0.578   6.189   0.791
 2479SOL    HW2 8337   0.612   6.157   0.948
 2480SOL     OW 8338   1.582   6.225   0.472
 2480SOL    HW1 8339   1.551   6.286   0.545
 2480SOL    HW2 8340   1.632   6.277   0.403
 2481SOL     OW 8341   0.402   6.337   1.598
 2481SOL    HW1 8342   0.470   6.392   1.551
 2481SOL    HW2 8343   0.442   6.249   1.625
 2482SOL     OW 8344   1.587   6.365   1.670
 2482SOL    HW1 8345   1.495   6.403   1.665
 2482SOL    HW2 8346   1.647   6.412   1.605
 2483SOL     OW 8347   1.013   5.691   1.770
 2483SOL    HW1 8348   1.019   5.776   1.718
 2483SOL    HW2 8349   1.045   5.615   1.713
 2484SOL     OW 8350   0.504   5.636   1.740
 2484SOL    HW1 8351   0.462   5.579   1.670
 2484SOL    HW2 8352   0.438   5.705   1.772
 2485SOL     OW 8353   0.573   6.456   1.029
 2485SOL    HW1 8354   0.617   6.545   1.020
 2485SOL    HW2 8355   0.510   6.456   1.106
 2486SOL     OW 8356   1.360   6.448   1.045
 2486SOL    HW1 8357   1.285   6.448   0.979
 2486SOL    HW2 8358   1.397   6.356   1.054
 2487SOL     OW 8359   1.209   6.111   0.275
 2487SOL    HW1 8360   1.222   6.027   0.329
 2487SOL    HW2 8361   1.180   6.185   0.335
 2488SOL     OW 8362   0.307   5.799   1.231
 2488SOL    HW1 8363   0.284   5.836   1.321
 2488SOL    HW2 8364   0.277   5.704   1.225
 2489SOL     OW 8365   0.037   6.896   1.282
 2489SOL    HW1 8366   0.090   6.847   1.350
 2489SOL    HW2 8367   0.059   6.994   1.287
 2490SOL     OW 8368   0.732   6.220   1.064
 2490SOL    HW1 8369   0.791   6.194   0.988
 2490SOL    HW2 8370   0.704   6.316   1.053
 2491SOL     OW 8371   1.728   6.521   1.854
 2491SOL    HW1 8372   1.682   6.514   1.765
 2491SOL    HW2 8373   1.666   6.565   1.920
 2492SOL     OW 8374   0.307   5.649   0.618
 2492SOL    HW1 8375   0.296   5.743   0.651
 2492SOL    HW2 8376   0.302   5.586   0.695
 2493SOL     OW 8377   1.622   5.953   0.374
 2493SOL    HW1 8378   1.624   5.877   0.438
 2493SOL    HW2 8379   1.574   6.030   0.414
 2494SOL     OW 8380   1.023   6.352   0.966
 2494SOL    HW1 8381   1.038   6.373   1.062
 2494SOL    HW2 8382   0.993   6.257   0.957
 2495SOL     OW 8383   1.859   7.104   1.605
 2495SOL    HW1 8384   1.873   7.131   1.510
 2495SOL    HW2 8385   1.942   7.126   1.658
 2496SOL     OW 8386   0.350   6.484   1.804
 2496SOL    HW1 8387   0.426   6.528   1.852
 2496SOL    HW2 8388   0.385   6.437   1.722
 2497SOL     OW 8389   1.540   5.860   0.125
 2497SOL    HW1 8390   1.479   5.785   0.148
 2497SOL    HW2 8391   1.562   5.912   0.208
 2498SOL     OW 8392   1.303   6.424   0.042
 2498SOL    HW1 8393   1.337   6.331   0.057
 2498SOL    HW2 8394   1.321   6.451  -0.053
 2499SOL     OW 8395   0.319   6.396   0.949
 2499SOL    HW1 8396   0.412   6.432   0.954
 2499SOL    HW2 8397   0.313   6.311   1.001
 2500SOL     OW 8398   0.339   6.095   1.006
 2500SOL    HW1 8399   0.287   6.012   0.989
 2500SOL    HW2 8400   0.416   6.100   0.942
 2501SOL     OW 8401   1.138   5.966   1.678
 2501SOL    HW1 8402   1.093   6.029   1.742
 2501SOL    HW2 8403   1.231   5.997   1.661
 2502SOL     OW 8404   1.160   5.793   1.477
 2502SOL    HW1 8405   1.160   5.857   1.554
 2502SOL    HW2 8406   1.188   5.841   1.394
 2503SOL     OW 8407   0.008   6.912   0.200
 2503SOL    HW1 8408  -0.085   6.933   0.169
 2503SOL    HW2 8409   0.018   6.813   0.213
 2504SOL     OW 8410   1.002   6.382   1.238
 2504SOL    HW1 8411   1.043   6.350   1.324
 2504SOL    HW2 8412   0.906   6.355   1.235
 2505SOL     OW 8413   0.040   6.130   1.114
 2505SOL    HW1 8414   0.125   6.097   1.073
 2505SOL    HW2 8415   0.053   6.145   1.212
 2506SOL     OW 8416   0.189   6.106   1.722
 2506SOL    HW1 8417   0.248   6.066   1.652
 2506SOL    HW2 8418   0.131   6.177   1.681
 2507SOL     OW 8419   1.369   6.536   1.660
 2507SOL    HW1 8420   1.408   6.625   1.680
 2507SOL    HW2 8421   1.379   6.516   1.563
 2508SOL     OW 8422   0.815   6.158   0.325
 2508SOL    HW1 8423   0.822   6.069   0.279
 2508SOL    HW2 8424   0.721   6.192   0.317
 2509SOL     OW 8425   1.657   6.190   1.206
 2509SOL    HW1 8426   1.619   6.121   1.268
 2509SOL    HW2 8427   1.739   6.154   1.162
 2510SOL     OW 8428   0.671   6.050   1.269
 2510SOL    HW1 8429   0.637   5.961   1.239
 2510SOL    HW2 8430   0.697   6.104   1.189
 2511SOL     OW 8431   0.473   6.086   0.191
 2511SOL    HW1 8432   0.534   6.166   0.195
 2511SOL    HW2 8433   0.378   6.117   0.198
 2512SOL     OW 8434   0.159   6.723   1.466
 2512SOL    HW1 8435   0.181   6.662   1.542
 2512SOL    HW2 8436   0.169   6.674   1.380
 2513SOL     OW 8437   1.347   6.645   1.234
 2513SOL    HW1 8438   1.371   6.582   1.160
 2513SOL    HW2 8439   1.257   6.685   1.216
 2514SOL     OW 8440   1.302   6.441   0.309
 2514SOL    HW1 8441   1.216   6.410   0.351
 2514SOL    HW2 8442   1.298   6.427   0.210
 2515SOL     OW 8443   0.083   6.844   1.022
 2515SOL    HW1 8444   0.078   6.843   1.122
 2515SOL    HW2 8445   0.000   6.803   0.984
 2516SOL     OW 8446   0.903   5.672   0.133
 2516SOL    HW1 8447   0.954   5.673   0.047
 2516SOL    HW2 8448   0.959   5.630   0.204
 2517SOL     OW 8449   1.726   5.721   0.523
 2517SOL    HW1 8450   1.799   5.704   0.456
 2517SOL    HW2 8451   1.695   5.634   0.561
 2518SOL     OW 8452   1.280   6.513   0.672
 2518SOL    HW1 8453   1.340   6.432   0.674
 2518SOL    HW2 8454   1.320   6.582   0.612
 2519SOL     OW 8455   0.830   6.859   1.422
 2519SOL    HW1 8456   0.825   6.892   1.517
 2519SOL    HW2 8457   0.744   6.878   1.376
 2520SOL     OW 8458   1.841   5.761   0.963
 2520SOL    HW1 8459   1.880   5.676   0.927
 2520SOL    HW2 8460   1.743   5.763   0.944
 2521SOL     OW 8461   0.263   5.912   0.720
 2521SOL    HW1 8462   0.184   5.963   0.686
 2521SOL    HW2 8463   0.254   5.897   0.818
 2522SOL     OW 8464   0.822   6.588   1.372
 2522SOL    HW1 8465   0.862   6.587   1.280
 2522SOL    HW2 8466   0.832   6.680   1.412
 2523SOL     OW 8467   0.916   6.496   0.291
 2523SOL    HW1 8468   0.979   6.534   0.223
 2523SOL    HW2 8469   0.956   6.413   0.330
 2524SOL     OW 8470   0.372   6.874   1.490
 2524SOL    HW1 8471   0.359   6.967   1.456
 2524SOL    HW2 8472   0.288   6.822   1.477
 2525SOL     OW 8473   1.614   6.878   1.289
 2525SOL    HW1 8474   1.674   6.881   1.369
 2525SOL    HW2 8475   1.539   6.942   1.302
 2526SOL     OW 8476   1.039   6.684   0.696
 2526SOL    HW1 8477   0.969   6.637   0.750
 2526SOL    HW2 8478   1.098   6.616   0.653
 2527SOL     OW 8479   1.014   5.822   0.971
 2527SOL    HW1 8480   1.006   5.786   0.878
 2527SOL    HW2 8481   1.012   5.746   1.036
 2528SOL     OW 8482   1.709   5.971   1.381
 2528SOL    HW1 8483   1.782   6.040   1.385
 2528SOL    HW2 8484   1.737   5.896   1.322
 2529SOL     OW 8485   0.105   6.599   1.726
 2529SOL    HW1 8486   0.028   6.566   1.780
 2529SOL    HW2 8487   0.190   6.569   1.768
 2530SOL     OW 8488   0.672   5.789   1.489
 2530SOL    HW1 8489   0.762   5.773   1.449
 2530SOL    HW2 8490   0.680   5.794   1.588
 2531SOL     OW 8491   0.075   5.931   0.033
 2531SOL    HW1 8492  -0.017   5.903   0.004
 2531SOL    HW2 8493   0.106   6.008  -0.023
 2532SOL     OW 8494   1.440   6.442   1.398
 2532SOL    HW1 8495   1.383   6.494   1.335
 2532SOL    HW2 8496   1.536   6.454   1.374
 2533SOL     OW 8497   0.072   5.752   0.318
 2533SOL    HW1 8498   0.055   5.835   0.264
 2533SOL    HW2 8499   0.162   5.715   0.296
 2534SOL     OW 8500   0.613   6.428   1.431
 2534SOL    HW1 8501   0.669   6.509   1.414
 2534SOL    HW2 8502   0.672   6.348   1.434
 2535SOL     OW 8503   0.716   6.151   1.708
 2535SOL    HW1 8504   0.735   6.216   1.782
 2535SOL    HW2 8505   0.776   6.071   1.717
 2536SOL     OW 8506   1.450   6.806   1.633
 2536SOL    HW1 8507   1.441   6.796   1.732
 2536SOL    HW2 8508   1.546   6.799   1.607
 2537SOL     OW 8509   1.674   6.469   1.254
 2537SOL    HW1 8510   1.647   6.380   1.217
 2537SOL    HW2 8511   1.675   6.537   1.181
 2538SOL     OW 8512   1.225   5.911   0.449
 2538SOL    HW1 8513   1.290   5.837   0.438
 2538SOL    HW2 8514   1.245   5.961   0.533
 2539SOL     OW 8515   0.594   6.331   0.652
 2539SOL    HW1 8516   0.644   6.416   0.633
 2539SOL    HW2 8517   0.506   6.333   0.604
 2540SOL     OW 8518   1.777   5.928   1.642
 2540SOL    HW1 8519   1.760   5.959   1.548
 2540SOL    HW2 8520   1.693   5.891   1.680
 2541SOL     OW 8521   1.730   6.520   1.517
 2541SOL    HW1 8522   1.768   6.611   1.532
 2541SOL    HW2 8523   1.722   6.503   1.418
 2542SOL     OW 8524   0.859   6.542   0.861
 2542SOL    HW1 8525   0.913   6.473   0.909
 2542SOL    HW2 8526   0.827   6.611   0.927
 2543SOL     OW 8527   1.083   6.570   0.087
 2543SOL    HW1 8528   1.060   6.623   0.005
 2543SOL    HW2 8529   1.164   6.514   0.068
 2544SOL     OW 8530   0.221   6.900   1.844
 2544SOL    HW1 8531   0.156   6.827   1.823
 2544SOL    HW2 8532   0.225   6.914   1.942
 2545SOL     OW 8533   0.079   6.826   0.653
 2545SOL    HW1 8534   0.078   6.779   0.741
 2545SOL    HW2 8535   0.161   6.798   0.602
 2546SOL     OW 8536   0.672   6.977   1.624
 2546SOL    HW1 8537   0.594   6.927   1.662
 2546SOL    HW2 8538   0.669   7.072   1.655
 2547SOL     OW 8539   1.824   5.778   1.227
 2547SOL    HW1 8540   1.820   5.688   1.271
 2547SOL    HW2 8541   1.827   5.767   1.128
 2548SOL     OW 8542   0.428   6.010   0.520
 2548SOL    HW1 8543   0.458   5.938   0.458
 2548SOL    HW2 8544   0.389   5.970   0.603
 2549SOL     OW 8545   1.705   7.073   1.104
 2549SOL    HW1 8546   1.612   7.048   1.077
 2549SOL    HW2 8547   1.731   7.023   1.186
 2550SOL     OW 8548   0.317   6.133   1.280
 2550SOL    HW1 8549   0.355   6.074   1.352
 2550SOL    HW2 8550   0.357   6.107   1.192
 2551SOL     OW 8551   1.424   5.800   1.112
 2551SOL    HW1 8552   1.476   5.735   1.167
 2551SOL    HW2 8553   1.375   5.863   1.173
 2552SOL     OW 8554   1.001   5.620   1.154
 2552SOL    HW1 8555   0.938   5.548   1.123
 2552SOL    HW2 8556   1.094   5.584   1.154
 2553SOL     OW 8557   0.770   6.916   0.301
 2553SOL    HW1 8558   0.724   6.829   0.318
 2553SOL    HW2 8559   0.861   6.913   0.342
 2554SOL     OW 8560   1.352   5.638   0.168
 2554SOL    HW1 8561   1.387   5.597   0.084
 2554SOL    HW2 8562   1.262   5.600   0.188
 2555SOL     OW 8563   1.300   6.039   0.691
 2555SOL    HW1 8564   1.241   6.119   0.695
 2555SOL    HW2 8565   1.315   6.004   0.784
 2556SOL     OW 8566   1.593   5.807   0.882
 2556SOL    HW1 8567   1.509   5.806   0.936
 2556SOL    HW2 8568   1.595   5.890   0.826
 2557SOL     OW 8569   0.039   6.663   0.300
 2557SOL    HW1 8570   0.138   6.652   0.291
 2557SOL    HW2 8571  -0.001   6.577   0.332
 2558SOL     OW 8572   0.230   6.214   1.975
 2558SOL    HW1 8573   0.137   6.212   2.012
 2558SOL    HW2 8574   0.231   6.175   1.883
 2559SOL     OW 8575   0.225   5.861   2.858
 2559SOL    HW1 8576   0.260   5.844   2.950
 2559SOL    HW2 8577   0.137   5.816   2.846
 2560SOL     OW 8578   0.019   5.954   2.509
 2560SOL    HW1 8579  -0.063   5.997   2.548
 2560SOL    HW2 8580  -0.009   5.881   2.446
 2561SOL     OW 8581   0.569   6.861   3.027
 2561SOL    HW1 8582   0.476   6.854   2.990
 2561SOL    HW2 8583   0.580   6.950   3.071
 2562SOL     OW 8584   1.555   7.097   2.565
 2562SOL    HW1 8585   1.498   7.081   2.646
 2562SOL    HW2 8586   1.496   7.107   2.485
 2563SOL     OW 8587   1.135   6.289   2.579
 2563SOL    HW1 8588   1.192   6.367   2.554
 2563SOL    HW2 8589   1.075   6.315   2.655
 2564SOL     OW 8590   1.755   6.193   2.093
 2564SOL    HW1 8591   1.743   6.180   1.994
 2564SOL    HW2 8592   1.725   6.112   2.142
 2565SOL     OW 8593   0.768   6.730   2.885
 2565SOL    HW1 8594   0.690   6.747   2.945
 2565SOL    HW2 8595   0.802   6.817   2.849
 2566SOL     OW 8596   0.850   6.384   3.685
 2566SOL    HW1 8597   0.846   6.460   3.750
 2566SOL    HW2 8598   0.872   6.420   3.594
 2567SOL     OW 8599   0.685   6.598   2.527
 2567SOL    HW1 8600   0.754   6.582   2.597
 2567SOL    HW2 8601   0.612   6.655   2.565
 2568SOL     OW 8602   0.686   6.747   3.665
 2568SOL    HW1 8603   0.746   6.826   3.679
 2568SOL    HW2 8604   0.600   6.778   3.624
 2569SOL     OW 8605   0.335   7.021   2.923
 2569SOL    HW1 8606   0.257   6.990   2.870
 2569SOL    HW2 8607   0.393   7.079   2.866
 2570SOL     OW 8608   0.438   5.978   3.361
 2570SOL    HW1 8609   0.520   5.922   3.370
 2570SOL    HW2 8610   0.357   5.920   3.365
 2571SOL     OW 8611   1.603   6.033   2.599
 2571SOL    HW1 8612   1.529   6.079   2.549
 2571SOL    HW2 8613   1.654   6.101   2.652
 2572SOL     OW 8614   0.240   6.677   2.748
 2572SOL    HW1 8615   0.254   6.593   2.800
 2572SOL    HW2 8616   0.185   6.741   2.803
 2573SOL     OW 8617   0.606   6.550   1.985
 2573SOL    HW1 8618   0.613   6.634   1.931
 2573SOL    HW2 8619   0.652   6.563   2.073
 2574SOL     OW 8620   1.594   5.700   3.342
 2574SOL    HW1 8621   1.576   5.767   3.270
 2574SOL    HW2 8622   1.591   5.746   3.431
 2575SOL     OW 8623   0.122   6.229   2.425
 2575SOL    HW1 8624   0.077   6.141   2.442
 2575SOL    HW2 8625   0.121   6.283   2.509
 2576SOL     OW 8626   1.689   6.508   2.474
 2576SOL    HW1 8627   1.784   6.479   2.482
 2576SOL    HW2 8628   1.681   6.573   2.399
 2577SOL     OW 8629   1.641   6.694   2.294
 2577SOL    HW1 8630   1.727   6.696   2.242
 2577SOL    HW2 8631   1.655   6.741   2.382
 2578SOL     OW 8632   0.113   6.323   3.459
 2578SOL    HW1 8633   0.201   6.310   3.504
 2578SOL    HW2 8634   0.100   6.420   3.437
 2579SOL     OW 8635   1.293   6.814   3.285
 2579SOL    HW1 8636   1.330   6.741   3.227
 2579SOL    HW2 8637   1.345   6.819   3.370
 2580SOL     OW 8638   0.809   5.590   2.364
 2580SOL    HW1 8639   0.849   5.681   2.355
 2580SOL    HW2 8640   0.709   5.598   2.370
 2581SOL     OW 8641   0.197   6.562   3.126
 2581SOL    HW1 8642   0.286   6.517   3.112
 2581SOL    HW2 8643   0.124   6.497   3.107
 2582SOL     OW 8644   1.525   6.585   2.052
 2582SOL    HW1 8645   1.462   6.509   2.065
 2582SOL    HW2 8646   1.573   6.603   2.138
 2583SOL     OW 8647   0.317   5.837   3.663
 2583SOL    HW1 8648   0.388   5.908   3.669
 2583SOL    HW2 8649   0.229   5.876   3.691
 2584SOL     OW 8650   1.466   7.003   2.815
 2584SOL    HW1 8651   1.407   7.009   2.895
 2584SOL    HW2 8652   1.451   6.915   2.769
 2585SOL     OW 8653   0.598   6.315   2.132
 2585SOL    HW1 8654   0.622   6.384   2.064
 2585SOL    HW2 8655   0.520   6.348   2.186
 2586SOL     OW 8656   1.281   5.931   2.806
 2586SOL    HW1 8657   1.195   5.881   2.793
 2586SOL    HW2 8658   1.343   5.877   2.862
 2587SOL     OW 8659   0.807   6.191   3.327
 2587SOL    HW1 8660   0.760   6.188   3.416
 2587SOL    HW2 8661   0.756   6.136   3.261
 2588SOL     OW 8662   1.394   6.055   3.536
 2588SOL    HW1 8663   1.374   6.098   3.624
 2588SOL    HW2 8664   1.472   5.993   3.545
 2589SOL     OW 8665   0.973   6.476   3.434
 2589SOL    HW1 8666   1.019   6.392   3.405
 2589SOL    HW2 8667   0.917   6.510   3.359
 2590SOL     OW 8668   0.991   5.996   3.104
 2590SOL    HW1 8669   0.914   6.030   3.158
 2590SOL    HW2 8670   0.957   5.945   3.025
 2591SOL     OW 8671   1.041   6.287   2.291
 2591SOL    HW1 8672   1.067   6.283   2.387
 2591SOL    HW2 8673   0.956   6.236   2.277
 2592SOL     OW 8674   0.076   6.397   2.651
 2592SOL    HW1 8675   0.175   6.385   2.660
 2592SOL    HW2 8676   0.052   6.492   2.672
 2593SOL     OW 8677   0.865   5.934   2.057
 2593SOL    HW1 8678   0.924   5.997   2.008
 2593SOL    HW2 8679   0.884   5.840   2.028
 2594SOL     OW 8680   1.719   6.171   3.693
 2594SOL    HW1 8681   1.693   6.260   3.657
 2594SOL    HW2 8682   1.717   6.103   3.620
 2595SOL     OW 8683   1.362   6.730   2.407
 2595SOL    HW1 8684   1.445   6.701   2.359
 2595SOL    HW2 8685   1.313   6.797   2.351
 2596SOL     OW 8686   0.550   5.782   2.747
 2596SOL    HW1 8687   0.545   5.777   2.847
 2596SOL    HW2 8688   0.552   5.878   2.718
 2597SOL     OW 8689   1.795   6.652   2.735
 2597SOL    HW1 8690   1.733   6.637   2.659
 2597SOL    HW2 8691   1.743   6.663   2.820
 2598SOL     OW 8692   0.321   6.529   2.104
 2598SOL    HW1 8693   0.403   6.568   2.062
 2598SOL    HW2 8694   0.294   6.447   2.055
 2599SOL     OW 8695   1.458   6.321   2.590
 2599SOL    HW1 8696   1.453   6.256   2.665
 2599SOL    HW2 8697   1.538   6.380   2.603
 2600SOL     OW 8698   0.202   5.871   3.360
 2600SOL    HW1 8699   0.122   5.931   3.347
 2600SOL    HW2 8700   0.192   5.822   3.446
 2601SOL     OW 8701   1.632   6.963   1.943
 2601SOL    HW1 8702   1.600   7.057   1.933
 2601SOL    HW2 8703   1.556   6.900   1.931
 2602SOL     OW 8704   1.400   5.693   2.288
 2602SOL    HW1 8705   1.376   5.656   2.198
 2602SOL    HW2 8706   1.499   5.709   2.292
 2603SOL     OW 8707   0.382   6.286   2.342
 2603SOL    HW1 8708   0.427   6.196   2.339
 2603SOL    HW2 8709   0.288   6.275   2.375
 2604SOL     OW 8710   1.547   5.808   3.591
 2604SOL    HW1 8711   1.542   5.845   3.683
 2604SOL    HW2 8712   1.475   5.739   3.579
 2605SOL     OW 8713   0.614   5.708   1.979
 2605SOL    HW1 8714   0.712   5.686   1.986
 2605SOL    HW2 8715   0.583   5.691   1.886
 2606SOL     OW 8716   0.781   5.850   3.611
 2606SOL    HW1 8717   0.848   5.789   3.654
 2606SOL    HW2 8718   0.708   5.869   3.676
 2607SOL     OW 8719   1.351   6.176   3.295
 2607SOL    HW1 8720   1.379   6.133   3.380
 2607SOL    HW2 8721   1.376   6.272   3.296
 2608SOL     OW 8722   0.922   6.089   2.761
 2608SOL    HW1 8723   0.897   6.080   2.665
 2608SOL    HW2 8724   0.970   6.007   2.792
 2609SOL     OW 8725   0.539   5.650   2.374
 2609SOL    HW1 8726   0.458   5.651   2.432
 2609SOL    HW2 8727   0.542   5.733   2.319
 2610SOL     OW 8728   1.434   6.774   1.903
 2610SOL    HW1 8729   1.466   6.698   1.960
 2610SOL    HW2 8730   1.342   6.801   1.933
 2611SOL     OW 8731   0.297   5.621   2.033
 2611SOL    HW1 8732   0.346   5.705   2.012
 2611SOL    HW2 8733   0.359   5.556   2.078
 2612SOL     OW 8734   0.935   5.822   2.342
 2612SOL    HW1 8735   0.887   5.863   2.264
 2612SOL    HW2 8736   1.034   5.820   2.323
 2613SOL     OW 8737   1.076   6.269   3.326
 2613SOL    HW1 8738   0.996   6.208   3.329
 2613SOL    HW2 8739   1.157   6.216   3.302
 2614SOL     OW 8740   1.227   7.156   2.655
 2614SOL    HW1 8741   1.248   7.230   2.590
 2614SOL    HW2 8742   1.295   7.156   2.728
 2615SOL     OW 8743   0.459   6.738   2.603
 2615SOL    HW1 8744   0.388   6.711   2.668
 2615SOL    HW2 8745   0.433   6.710   2.510
 2616SOL     OW 8746   1.032   6.135   1.878
 2616SOL    HW1 8747   0.991   6.217   1.839
 2616SOL    HW2 8748   1.096   6.161   1.951
 2617SOL     OW 8749   0.078   6.142   3.248
 2617SOL    HW1 8750   0.170   6.141   3.207
 2617SOL    HW2 8751   0.072   6.216   3.315
 2618SOL     OW 8752   0.561   5.808   3.009
 2618SOL    HW1 8753   0.599   5.724   3.046
 2618SOL    HW2 8754   0.473   5.827   3.053
 2619SOL     OW 8755   0.866   6.040   2.504
 2619SOL    HW1 8756   0.834   6.112   2.442
 2619SOL    HW2 8757   0.890   5.959   2.451
 2620SOL     OW 8758   1.017   5.625   2.615
 2620SOL    HW1 8759   0.945   5.630   2.546
 2620SOL    HW2 8760   0.993   5.556   2.684
 2621SOL     OW 8761   1.429   6.759   2.729
 2621SOL    HW1 8762   1.374   6.675   2.722
 2621SOL    HW2 8763   1.455   6.788   2.637
 2622SOL     OW 8764   1.466   6.176   2.854
 2622SOL    HW1 8765   1.436   6.081   2.861
 2622SOL    HW2 8766   1.539   6.192   2.920
 2623SOL     OW 8767   1.857   6.419   2.239
 2623SOL    HW1 8768   1.899   6.355   2.303
 2623SOL    HW2 8769   1.819   6.368   2.161
 2624SOL     OW 8770   1.664   6.866   2.519
 2624SOL    HW1 8771   1.763   6.874   2.533
 2624SOL    HW2 8772   1.619   6.950   2.550
 2625SOL     OW 8773   1.390   6.161   1.940
 2625SOL    HW1 8774   1.336   6.140   2.021
 2625SOL    HW2 8775   1.481   6.120   1.949
 2626SOL     OW 8776   0.527   5.842   2.190
 2626SOL    HW1 8777   0.554   5.783   2.115
 2626SOL    HW2 8778   0.527   5.937   2.159
 2627SOL     OW 8779   1.754   6.809   3.450
 2627SOL    HW1 8780   1.845   6.770   3.437
 2627SOL    HW2 8781   1.762   6.905   3.474
 2628SOL     OW 8782   1.064   6.933   3.202
 2628SOL    HW1 8783   0.984   6.910   3.257
 2628SOL    HW2 8784   1.147   6.907   3.251
 2629SOL     OW 8785   1.111   6.781   2.962
 2629SOL    HW1 8786   1.071   6.825   3.043
 2629SOL    HW2 8787   1.070   6.818   2.879
 2630SOL     OW 8788   1.638   6.685   2.941
 2630SOL    HW1 8789   1.643   6.766   3.000
 2630SOL    HW2 8790   1.552   6.687   2.890
 2631SOL     OW 8791   0.915   5.675   3.264
 2631SOL    HW1 8792   0.940   5.655   3.169
 2631SOL    HW2 8793   0.987   5.731   3.306
 2632SOL     OW 8794   0.980   6.702   3.581
 2632SOL    HW1 8795   0.881   6.708   3.591
 2632SOL    HW2 8796   1.003   6.622   3.525
 2633SOL     OW 8797   0.705   6.636   2.230
 2633SOL    HW1 8798   0.691   6.643   2.329
 2633SOL    HW2 8799   0.789   6.585   2.212
 2634SOL     OW 8800   0.410   6.399   3.113
 2634SOL    HW1 8801   0.496   6.411   3.163
 2634SOL    HW2 8802   0.368   6.312   3.140
 2635SOL     OW 8803   1.274   5.972   3.124
 2635SOL    HW1 8804   1.295   6.046   3.188
 2635SOL    HW2 8805   1.185   5.989   3.081
 2636SOL     OW 8806   0.064   7.150   3.193
 2636SOL    HW1 8807   0.018   7.232   3.159
 2636SOL    HW2 8808   0.162   7.169   3.202
 2637SOL     OW 8809   0.367   6.686   2.363
 2637SOL    HW1 8810   0.360   6.769   2.307
 2637SOL    HW2 8811   0.371   6.606   2.303
 2638SOL     OW 8812   0.566   6.123   2.727
 2638SOL    HW1 8813   0.578   6.189   2.653
 2638SOL    HW2 8814   0.612   6.157   2.810
 2639SOL     OW 8815   1.582   6.225   2.334
 2639SOL    HW1 8816   1.551   6.286   2.407
 2639SOL    HW2 8817   1.632   6.277   2.265
 2640SOL     OW 8818   0.402   6.337   3.460
 2640SOL    HW1 8819   0.470   6.392   3.413
 2640SOL    HW2 8820   0.442   6.249   3.487
 2641SOL     OW 8821   1.587   6.365   3.532
 2641SOL    HW1 8822   1.495   6.403   3.527
 2641SOL    HW2 8823   1.647   6.412   3.467
 2642SOL     OW 8824   1.013   5.691   3.632
 2642SOL    HW1 8825   1.019   5.776   3.580
 2642SOL    HW2 8826   1.045   5.615   3.575
 2643SOL     OW 8827   0.504   5.636   3.602
 2643SOL    HW1 8828   0.462   5.579   3.532
 2643SOL    HW2 8829   0.438   5.705   3.634
 2644SOL     OW 8830   0.573   6.456   2.891
 2644SOL    HW1 8831   0.617   6.545   2.882
 2644SOL    HW2 8832   0.510   6.456   2.968
 2645SOL     OW 8833   1.360   6.448   2.907
 2645SOL    HW1 8834   1.285   6.448   2.841
 2645SOL    HW2 8835   1.397   6.356   2.916
 2646SOL     OW 8836   1.209   6.111   2.137
 2646SOL    HW1 8837   1.222   6.027   2.191
 2646SOL    HW2 8838   1.180   6.185   2.197
 2647SOL     OW 8839   0.307   5.799   3.093
 2647SOL    HW1 8840   0.284   5.836   3.183
 2647SOL    HW2 8841   0.277   5.704   3.087
 2648SOL     OW 8842   0.037   6.896   3.144
 2648SOL    HW1 8843   0.090   6.847   3.212
 2648SOL    HW2 8844   0.059   6.994   3.149
 2649SOL     OW 8845   0.732   6.220   2.926
 2649SOL    HW1 8846   0.791   6.194   2.850
 2649SOL    HW2 8847   0.704   6.316   2.915
 2650SOL     OW 8848   1.728   6.521   3.716
 2650SOL    HW1 8849   1.682   6.514   3.627
 2650SOL    HW2 8850   1.666   6.565   3.782
 2651SOL     OW 8851   0.307   5.649   2.480
 2651SOL    HW1 8852   0.296   5.743   2.513
 2651SOL    HW2 8853   0.302   5.586   2.557
 2652SOL     OW 8854   1.622   5.953   2.236
 2652SOL    HW1 8855   1.624   5.877   2.300
 2652SOL    HW2 8856   1.574   6.030   2.276
 2653SOL     OW 8857   1.023   6.352   2.828
 2653SOL    HW1 8858   1.038   6.373   2.924
 2653SOL    HW2 8859   0.993   6.257   2.819
 2654SOL     OW 8860   1.859   7.104   3.467
 2654SOL    HW1 8861   1.873   7.131   3.372
 2654SOL    HW2 8862   1.942   7.126   3.520
 2655SOL     OW 8863   0.350   6.484   3.666
 2655SOL    HW1 8864   0.426   6.528   3.714
 2655SOL    HW2 8865   0.385   6.437   3.584
 2656SOL     OW 8866   1.540   5.860   1.987
 2656SOL    HW1 8867   1.479   5.785   2.010
 2656SOL    HW2 8868   1.562   5.912   2.070
 2657SOL     OW 8869   1.303   6.424   1.904
 2657SOL    HW1 8870   1.337   6.331   1.919
 2657SOL    HW2 8871   1.321   6.451   1.809
 2658SOL     OW 8872   0.319   6.396   2.811
 2658SOL    HW1 8873   0.412   6.432   2.816
 2658SOL    HW2 8874   0.313   6.311   2.863
 2659SOL     OW 8875   0.339   6.095   2.868
 2659SOL    HW1 8876   0.287   6.012   2.851
 2659SOL    HW2 8877   0.416   6.100   2.804
 2660SOL     OW 8878   1.138   5.966   3.540
 2660SOL    HW1 8879   1.093   6.029   3.604
 2660SOL    HW2 8880   1.231   5.997   3.523
 2661SOL     OW 8881   1.160   5.793   3.339
 2661SOL    HW1 8882   1.160   5.857   3.416
 2661SOL    HW2 8883   1.188   5.841   3.256
 2662SOL     OW 8884   0.008   6.912   2.062
 2662SOL    HW1 8885  -0.085   6.933   2.031
 2662SOL    HW2 8886   0.018   6.813   2.075
 2663SOL     OW 8887   1.002   6.382   3.100
 2663SOL    HW1 8888   1.043   6.350   3.186
 2663SOL    HW2 8889   0.906   6.355   3.097
 2664SOL     OW 8890   0.040   6.130   2.976
 2664SOL    HW1 8891   0.125   6.097   2.935
 2664SOL    HW2 8892   0.053   6.145   3.074
 2665SOL     OW 8893   0.189   6.106   3.584
 2665SOL    HW1 8894   0.248   6.066   3.514
 2665SOL    HW2 8895   0.131   6.177   3.543
 2666SOL     OW 8896   1.369   6.536   3.522
 2666SOL    HW1 8897   1.408   6.625   3.542
 2666SOL    HW2 8898   1.379   6.516   3.425
 2667SOL     OW 8899   0.815   6.158   2.187
 2667SOL    HW1 8900   0.822   6.069   2.141
 2667SOL    HW2 8901   0.721   6.192   2.179
 2668SOL     OW 8902   1.657   6.190   3.068
 2668SOL    HW1 8903   1.619   6.121   3.130
 2668SOL    HW2 8904   1.739   6.154   3.024
 2669SOL     OW 8905   0.671   6.050   3.131
 2669SOL    HW1 8906   0.637   5.961   3.101
 2669SOL    HW2 8907   0.697   6.104   3.051
 2670SOL     OW 8908   0.473   6.086   2.053
 2670SOL    HW1 8909   0.534   6.166   2.057
 2670SOL    HW2 8910   0.378   6.117   2.060
 2671SOL     OW 8911   0.159   6.723   3.328
 2671SOL    HW1 8912   0.181   6.662   3.404
 2671SOL    HW2 8913   0.169   6.674   3.242
 2672SOL     OW 8914   1.347   6.645   3.096
 2672SOL    HW1 8915   1.371   6.582   3.022
 2672SOL    HW2 8916   1.257   6.685   3.078
 2673SOL     OW 8917   1.302   6.441   2.171
 2673SOL    HW1 8918   1.216   6.410   2.213
 2673SOL    HW2 8919   1.298   6.427   2.072
 2674SOL     OW 8920   0.083   6.844   2.884
 2674SOL    HW1 8921   0.078   6.843   2.984
 2674SOL    HW2 8922   0.000   6.803   2.846
 2675SOL     OW 8923   1.726   5.721   2.385
 2675SOL    HW1 8924   1.799   5.704   2.318
 2675SOL    HW2 8925   1.695   5.634   2.423
 2676SOL     OW 8926   1.280   6.513   2.534
 2676SOL    HW1 8927   1.340   6.432   2.536
 2676SOL    HW2 8928   1.320   6.582   2.474
 2677SOL     OW 8929   0.830   6.859   3.284
 2677SOL    HW1 8930   0.825   6.892   3.379
 2677SOL    HW2 8931   0.744   6.878   3.238
 2678SOL     OW 8932   1.841   5.761   2.825
 2678SOL    HW1 8933   1.880   5.676   2.789
 2678SOL    HW2 8934   1.743   5.763   2.806
 2679SOL     OW 8935   0.263   5.912   2.582
 2679SOL    HW1 8936   0.184   5.963   2.548
 2679SOL    HW2 8937   0.254   5.897   2.680
 2680SOL     OW 8938   1.194   7.198   1.893
 2680SOL    HW1 8939   1.200   7.105   1.930
 2680SOL    HW2 8940   1.135   7.198   1.813
 2681SOL     OW 8941   0.822   6.588   3.234
 2681SOL    HW1 8942   0.862   6.587   3.142
 2681SOL    HW2 8943   0.832   6.680   3.274
 2682SOL     OW 8944   0.916   6.496   2.153
 2682SOL    HW1 8945   0.979   6.534   2.085
 2682SOL    HW2 8946   0.956   6.413   2.192
 2683SOL     OW 8947   0.372   6.874   3.352
 2683SOL    HW1 8948   0.359   6.967   3.318
 2683SOL    HW2 8949   0.288   6.822   3.339
 2684SOL     OW 8950   1.614   6.878   3.151
 2684SOL    HW1 8951   1.674   6.881   3.231
 2684SOL    HW2 8952   1.539   6.942   3.164
 2685SOL     OW 8953   1.039   6.684   2.558
 2685SOL    HW1 8954   0.969   6.637   2.612
 2685SOL    HW2 8955   1.098   6.616   2.515
 2686SOL     OW 8956   1.014   5.822   2.833
 2686SOL    HW1 8957   1.006   5.786   2.740
 2686SOL    HW2 8958   1.012   5.746   2.898
 2687SOL     OW 8959   1.709   5.971   3.243
 2687SOL    HW1 8960   1.782   6.040   3.247
 2687SOL    HW2 8961   1.737   5.896   3.184
 2688SOL     OW 8962   0.105   6.599   3.588
 2688SOL    HW1 8963   0.028   6.566   3.642
 2688SOL    HW2 8964   0.190   6.569   3.630
 2689SOL     OW 8965   0.672   5.789   3.351
 2689SOL    HW1 8966   0.762   5.773   3.311
 2689SOL    HW2 8967   0.680   5.794   3.450
 2690SOL     OW 8968   0.075   5.931   1.895
 2690SOL    HW1 8969  -0.017   5.903   1.866
 2690SOL    HW2 8970   0.106   6.008   1.839
 2691SOL     OW 8971   1.440   6.442   3.260
 2691SOL    HW1 8972   1.383   6.494   3.197
 2691SOL    HW2 8973   1.536   6.454   3.236
 2692SOL     OW 8974   0.072   5.752   2.180
 2692SOL    HW1 8975   0.055   5.835   2.126
 2692SOL    HW2 8976   0.162   5.715   2.158
 2693SOL     OW 8977   0.613   6.428   3.293
 2693SOL    HW1 8978   0.669   6.509   3.276
 2693SOL    HW2 8979   0.672   6.348   3.296
 2694SOL     OW 8980   0.716   6.151   3.570
 2694SOL    HW1 8981   0.735   6.216   3.644
 2694SOL    HW2 8982   0.776   6.071   3.579
 2695SOL     OW 8983   1.450   6.806   3.495
 2695SOL    HW1 8984   1.441   6.796   3.594
 2695SOL    HW2 8985   1.546   6.799   3.469
 2696SOL     OW 8986   1.674   6.469   3.116
 2696SOL    HW1 8987   1.647   6.380   3.079
 2696SOL    HW2 8988   1.675   6.537   3.043
 2697SOL     OW 8989   1.225   5.911   2.311
 2697SOL    HW1 8990   1.290   5.837   2.300
 2697SOL    HW2 8991   1.245   5.961   2.395
 2698SOL     OW 8992   0.594   6.331   2.514
 2698SOL    HW1 8993   0.644   6.416   2.495
 2698SOL    HW2 8994   0.506   6.333   2.466
 2699SOL     OW 8995   1.777   5.928   3.504
 2699SOL    HW1 8996   1.760   5.959   3.410
 2699SOL    HW2 8997   1.693   5.891   3.542
 2700SOL     OW 8998   1.730   6.520   3.379
 2700SOL    HW1 8999   1.768   6.611   3.394
 2700SOL    HW2 9000   1.722   6.503   3.280
 2701SOL     OW 9001   0.859   6.542   2.723
 2701SOL    HW1 9002   0.913   6.473   2.771
 2701SOL    HW2 9003   0.827   6.611   2.789
 2702SOL     OW 9004   1.083   6.570   1.949
 2702SOL    HW1 9005   1.060   6.623   1.867
 2702SOL    HW2 9006   1.164   6.514   1.930
 2703SOL     OW 9007   0.221   6.900   3.706
 2703SOL    HW1 9008   0.156   6.827   3.685
 2703SOL    HW2 9009   0.225   6.914   3.804
 2704SOL     OW 9010   0.079   6.826   2.515
 2704SOL    HW1 9011   0.078   6.779   2.603
 2704SOL    HW2 9012   0.161   6.798   2.464
 2705SOL     OW 9013   0.672   6.977   3.486
 2705SOL    HW1 9014   0.594   6.927   3.524
 2705SOL    HW2 9015   0.669   7.072   3.517
 2706SOL     OW 9016   1.824   5.778   3.089
 2706SOL    HW1 9017   1.820   5.688   3.133
 2706SOL    HW2 9018   1.827   5.767   2.990
 2707SOL     OW 9019   0.428   6.010   2.382
 2707SOL    HW1 9020   0.458   5.938   2.320
 2707SOL    HW2 9021   0.389   5.970   2.465
 2708SOL     OW 9022   1.705   7.073   2.966
 2708SOL    HW1 9023   1.612   7.048   2.939
 2708SOL    HW2 9024   1.731   7.023   3.048
 2709SOL     OW 9025   0.317   6.133   3.142
 2709SOL    HW1 9026   0.355   6.074   3.214
 2709SOL    HW2 9027   0.357   6.107   3.054
 2710SOL     OW 9028   1.424   5.800   2.974
 2710SOL    HW1 9029   1.476   5.735   3.029
 2710SOL    HW2 9030   1.375   5.863   3.035
 2711SOL     OW 9031   1.001   5.620   3.016
 2711SOL    HW1 9032   0.938   5.548   2.985
 2711SOL    HW2 9033   1.094   5.584   3.016
 2712SOL     OW 9034   0.770   6.916   2.163
 2712SOL    HW1 9035   0.724   6.829   2.180
 2712SOL    HW2 9036   0.861   6.913   2.204
 2713SOL     OW 9037   1.352   5.638   2.030
 2713SOL    HW1 9038   1.387   5.597   1.946
 2713SOL    HW2 9039   1.262   5.600   2.050
 2714SOL     OW 9040   1.300   6.039   2.553
 2714SOL    HW1 9041   1.241   6.119   2.557
 2714SOL    HW2 9042   1.315   6.004   2.646
 2715SOL     OW 9043   1.593   5.807   2.744
 2715SOL    HW1 9044   1.509   5.806   2.798
 2715SOL    HW2 9045   1.595   5.890   2.688
 2716SOL     OW 9046   0.039   6.663   2.162
 2716SOL    HW1 9047   0.138   6.652   2.153
 2716SOL    HW2 9048  -0.001   6.577   2.194
 2717SOL     OW 9049   0.230   6.214   3.837
 2717SOL    HW1 9050   0.137   6.212   3.874
 2717SOL    HW2 9051   0.231   6.175   3.745
 2718SOL     OW 9052   0.225   5.861   4.720
 2718SOL    HW1 9053   0.260   5.844   4.812
 2718SOL    HW2 9054   0.137   5.816   4.708
 2719SOL     OW 9055   0.019   5.954   4.371
 2719SOL    HW1 9056  -0.063   5.997   4.410
 2719SOL    HW2 9057  -0.009   5.881   4.308
 2720SOL     OW 9058   0.569   6.861   4.889
 2720SOL    HW1 9059   0.476   6.854   4.852
 2720SOL    HW2 9060   0.580   6.950   4.933
 2721SOL     OW 9061   1.555   7.097   4.427
 2721SOL    HW1 9062   1.498   7.081   4.508
 2721SOL    HW2 9063   1.496   7.107   4.347
 2722SOL     OW 9064   1.135   6.289   4.441
 2722SOL    HW1 9065   1.192   6.367   4.416
 2722SOL    HW2 9066   1.075   6.315   4.517
 2723SOL     OW 9067   1.755   6.193   3.955
 2723SOL    HW1 9068   1.743   6.180   3.856
 2723SOL    HW2 9069   1.725   6.112   4.004
 2724SOL     OW 9070   0.768   6.730   4.747
 2724SOL    HW1 9071   0.690   6.747   4.807
 2724SOL    HW2 9072   0.802   6.817   4.711
 2725SOL     OW 9073   0.850   6.384   5.547
 2725SOL    HW1 9074   0.846   6.460   5.612
 2725SOL    HW2 9075   0.872   6.420   5.456
 2726SOL     OW 9076   0.685   6.598   4.389
 2726SOL    HW1 9077   0.754   6.582   4.459
 2726SOL    HW2 9078   0.612   6.655   4.427
 2727SOL     OW 9079   0.686   6.747   5.527
 2727SOL    HW1 9080   0.746   6.826   5.541
 2727SOL    HW2 9081   0.600   6.778   5.486
 2728SOL     OW 9082   0.335   7.021   4.785
 2728SOL    HW1 9083   0.257   6.990   4.732
 2728SOL    HW2 9084   0.393   7.079   4.728
 2729SOL     OW 9085   0.438   5.978   5.223
 2729SOL    HW1 9086   0.520   5.922   5.232
 2729SOL    HW2 9087   0.357   5.920   5.227
 2730SOL     OW 9088   1.603   6.033   4.461
 2730SOL    HW1 9089   1.529   6.079   4.411
 2730SOL    HW2 9090   1.654   6.101   4.514
 2731SOL     OW 9091   0.240   6.677   4.610
 2731SOL    HW1 9092   0.254   6.593   4.662
 2731SOL    HW2 9093   0.185   6.741   4.665
 2732SOL     OW 9094   0.606   6.550   3.847
 2732SOL    HW1 9095   0.613   6.634   3.793
 2732SOL    HW2 9096   0.652   6.563   3.935
 2733SOL     OW 9097   1.594   5.700   5.204
 2733SOL    HW1 9098   1.576   5.767   5.132
 2733SOL    HW2 9099   1.591   5.746   5.293
 2734SOL     OW 9100   0.122   6.229   4.287
 2734SOL    HW1 9101   0.077   6.141   4.304
 2734SOL    HW2 9102   0.121   6.283   4.371
 2735SOL     OW 9103   1.689   6.508   4.336
 2735SOL    HW1 9104   1.784   6.479   4.344
 2735SOL    HW2 9105   1.681   6.573   4.261
 2736SOL     OW 9106   1.641   6.694   4.156
 2736SOL    HW1 9107   1.727   6.696   4.104
 2736SOL    HW2 9108   1.655   6.741   4.244
 2737SOL     OW 9109   0.113   6.323   5.321
 2737SOL    HW1 9110   0.201   6.310   5.366
 2737SOL    HW2 9111   0.100   6.420   5.299
 2738SOL     OW 9112   1.293   6.814   5.147
 2738SOL    HW1 9113   1.330   6.741   5.089
 2738SOL    HW2 9114   1.345   6.819   5.232
 2739SOL     OW 9115   0.809   5.590   4.226
 2739SOL    HW1 9116   0.849   5.681   4.217
 2739SOL    HW2 9117   0.709   5.598   4.232
 2740SOL     OW 9118   0.197   6.562   4.988
 2740SOL    HW1 9119   0.286   6.517   4.974
 2740SOL    HW2 9120   0.124   6.497   4.969
 2741SOL     OW 9121   1.525   6.585   3.914
 2741SOL    HW1 9122   1.462   6.509   3.927
 2741SOL    HW2 9123   1.573   6.603   4.000
 2742SOL     OW 9124   0.317   5.837   5.525
 2742SOL    HW1 9125   0.388   5.908   5.531
 2742SOL    HW2 9126   0.229   5.876   5.553
 2743SOL     OW 9127   1.466   7.003   4.677
 2743SOL    HW1 9128   1.407   7.009   4.757
 2743SOL    HW2 9129   1.451   6.915   4.631
 2744SOL     OW 9130   0.598   6.315   3.994
 2744SOL    HW1 9131   0.622   6.384   3.926
 2744SOL    HW2 9132   0.520   6.348   4.048
 2745SOL     OW 9133   1.281   5.931   4.668
 2745SOL    HW1 9134   1.195   5.881   4.655
 2745SOL    HW2 9135   1.343   5.877   4.724
 2746SOL     OW 9136   0.807   6.191   5.189
 2746SOL    HW1 9137   0.760   6.188   5.278
 2746SOL    HW2 9138   0.756   6.136   5.123
 2747SOL     OW 9139   1.394   6.055   5.398
 2747SOL    HW1 9140   1.374   6.098   5.486
 2747SOL    HW2 9141   1.472   5.993   5.407
 2748SOL     OW 9142   0.973   6.476   5.296
 2748SOL    HW1 9143   1.019   6.392   5.267
 2748SOL    HW2 9144   0.917   6.510   5.221
 2749SOL     OW 9145   0.991   5.996   4.966
 2749SOL    HW1 9146   0.914   6.030   5.020
 2749SOL    HW2 9147   0.957   5.945   4.887
 2750SOL     OW 9148   1.041   6.287   4.153
 2750SOL    HW1 9149   1.067   6.283   4.249
 2750SOL    HW2 9150   0.956   6.236   4.139
 2751SOL     OW 9151   0.076   6.397   4.513
 2751SOL    HW1 9152   0.175   6.385   4.522
 2751SOL    HW2 9153   0.052   6.492   4.534
 2752SOL     OW 9154   0.865   5.934   3.919
 2752SOL    HW1 9155   0.924   5.997   3.870
 2752SOL    HW2 9156   0.884   5.840   3.890
 2753SOL     OW 9157   1.719   6.171   5.555
 2753SOL    HW1 9158   1.693   6.260   5.519
 2753SOL    HW2 9159   1.717   6.103   5.482
 2754SOL     OW 9160   1.362   6.730   4.269
 2754SOL    HW1 9161   1.445   6.701   4.221
 2754SOL    HW2 9162   1.313   6.797   4.213
 2755SOL     OW 9163   0.550   5.782   4.609
 2755SOL    HW1 9164   0.545   5.777   4.709
 2755SOL    HW2 9165   0.552   5.878   4.580
 2756SOL     OW 9166   1.795   6.652   4.597
 2756SOL    HW1 9167   1.733   6.637   4.521
 2756SOL    HW2 9168   1.743   6.663   4.682
 2757SOL     OW 9169   0.321   6.529   3.966
 2757SOL    HW1 9170   0.403   6.568   3.924
 2757SOL    HW2 9171   0.294   6.447   3.917
 2758SOL     OW 9172   1.458   6.321   4.452
 2758SOL    HW1 9173   1.453   6.256   4.527
 2758SOL    HW2 9174   1.538   6.380   4.465
 2759SOL     OW 9175   0.202   5.871   5.222
 2759SOL    HW1 9176   0.122   5.931   5.209
 2759SOL    HW2 9177   0.192   5.822   5.308
 2760SOL     OW 9178   1.632   6.963   3.805
 2760SOL    HW1 9179   1.600   7.057   3.795
 2760SOL    HW2 9180   1.556   6.900   3.793
 2761SOL     OW 9181   1.400   5.693   4.150
 2761SOL    HW1 9182   1.376   5.656   4.060
 2761SOL    HW2 9183   1.499   5.709   4.154
 2762SOL     OW 9184   0.382   6.286   4.204
 2762SOL    HW1 9185   0.427   6.196   4.201
 2762SOL    HW2 9186   0.288   6.275   4.237
 2763SOL     OW 9187   1.547   5.808   5.453
 2763SOL    HW1 9188   1.542   5.845   5.545
 2763SOL    HW2 9189   1.475   5.739   5.441
 2764SOL     OW 9190   0.614   5.708   3.841
 2764SOL    HW1 9191   0.712   5.686   3.848
 2764SOL    HW2 9192   0.583   5.691   3.748
 2765SOL     OW 9193   0.781   5.850   5.473
 2765SOL    HW1 9194   0.848   5.789   5.516
 2765SOL    HW2 9195   0.708   5.869   5.538
 2766SOL     OW 9196   1.351   6.176   5.157
 2766SOL    HW1 9197   1.379   6.133   5.242
 2766SOL    HW2 9198   1.376   6.272   5.158
 2767SOL     OW 9199   0.922   6.089   4.623
 2767SOL    HW1 9200   0.897   6.080   4.527
 2767SOL    HW2 9201   0.970   6.007   4.654
 2768SOL     OW 9202   0.539   5.650   4.236
 2768SOL    HW1 9203   0.458   5.651   4.294
 2768SOL    HW2 9204   0.542   5.733   4.181
 2769SOL     OW 9205   1.434   6.774   3.765
 2769SOL    HW1 9206   1.466   6.698   3.822
 2769SOL    HW2 9207   1.342   6.801   3.795
 2770SOL     OW 9208   0.297   5.621   3.895
 2770SOL    HW1 9209   0.346   5.705   3.874
 2770SOL    HW2 9210   0.359   5.556   3.940
 2771SOL     OW 9211   0.935   5.822   4.204
 2771SOL    HW1 9212   0.887   5.863   4.126
 2771SOL    HW2 9213   1.034   5.820   4.185
 2772SOL     OW 9214   1.076   6.269   5.188
 2772SOL    HW1 9215   0.996   6.208   5.191
 2772SOL    HW2 9216   1.157   6.216   5.164
 2773SOL     OW 9217   1.227   7.156   4.517
 2773SOL    HW1 9218   1.248   7.230   4.452
 2773SOL    HW2 9219   1.295   7.156   4.590
 2774SOL     OW 9220   0.459   6.738   4.465
 2774SOL    HW1 9221   0.388   6.711   4.530
 2774SOL    HW2 9222   0.433   6.710   4.372
 2775SOL     OW 9223   1.032   6.135   3.740
 2775SOL    HW1 9224   0.991   6.217   3.701
 2775SOL    HW2 9225   1.096   6.161   3.813
 2776SOL     OW 9226   0.078   6.142   5.110
 2776SOL    HW1 9227   0.170   6.141   5.069
 2776SOL    HW2 9228   0.072   6.216   5.177
 2777SOL     OW 9229   0.561   5.808   4.871
 2777SOL    HW1 9230   0.599   5.724   4.908
 2777SOL    HW2 9231   0.473   5.827   4.915
 2778SOL     OW 9232   0.866   6.040   4.366
 2778SOL    HW1 9233   0.834   6.112   4.304
 2778SOL    HW2 9234   0.890   5.959   4.313
 2779SOL     OW 9235   1.017   5.625   4.477
 2779SOL    HW1 9236   0.945   5.630   4.408
 2779SOL    HW2 9237   0.993   5.556   4.546
 2780SOL     OW 9238   1.429   6.759   4.591
 2780SOL    HW1 9239   1.374   6.675   4.584
 2780SOL    HW2 9240   1.455   6.788   4.499
 2781SOL     OW 9241   1.466   6.176   4.716
 2781SOL    HW1 9242   1.436   6.081   4.723
 2781SOL    HW2 9243   1.539   6.192   4.782
 2782SOL     OW 9244   1.857   6.419   4.101
 2782SOL    HW1 9245   1.899   6.355   4.165
 2782SOL    HW2 9246   1.819   6.368   4.023
 2783SOL     OW 9247   1.664   6.866   4.381
 2783SOL    HW1 9248   1.763   6.874   4.395
 2783SOL    HW2 9249   1.619   6.950   4.412
 2784SOL     OW 9250   1.390   6.161   3.802
 2784SOL    HW1 9251   1.336   6.140   3.883
 2784SOL    HW2 9252   1.481   6.120   3.811
 2785SOL     OW 9253   0.527   5.842   4.052
 2785SOL    HW1 9254   0.554   5.783   3.977
 2785SOL    HW2 9255   0.527   5.937   4.021
 2786SOL     OW 9256   1.754   6.809   5.312
 2786SOL    HW1 9257   1.845   6.770   5.299
 2786SOL    HW2 9258   1.762   6.905   5.336
 2787SOL     OW 9259   1.064   6.933   5.064
 2787SOL    HW1 9260   0.984   6.910   5.119
 2787SOL    HW2 9261   1.147   6.907   5.113
 2788SOL     OW 9262   1.111   6.781   4.824
 2788SOL    HW1 9263   1.071   6.825   4.905
 2788SOL    HW2 9264   1.070   6.818   4.741
 2789SOL     OW 9265   1.638   6.685   4.803
 2789SOL    HW1 9266   1.643   6.766   4.862
 2789SOL    HW2 9267   1.552   6.687   4.752
 2790SOL     OW 9268   0.915   5.675   5.126
 2790SOL    HW1 9269   0.940   5.655   5.031
 2790SOL    HW2 9270   0.987   5.731   5.168
 2791SOL     OW 9271   0.980   6.702   5.443
 2791SOL    HW1 9272   0.881   6.708   5.453
 2791SOL    HW2 9273   1.003   6.622   5.387
 2792SOL     OW 9274   0.705   6.636   4.092
 2792SOL    HW1 9275   0.691   6.643   4.191
 2792SOL    HW2 9276   0.789   6.585   4.074
 2793SOL     OW 9277   0.410   6.399   4.975
 2793SOL    HW1 9278   0.496   6.411   5.025
 2793SOL    HW2 9279   0.368   6.312   5.002
 2794SOL     OW 9280   1.274   5.972   4.986
 2794SOL    HW1 9281   1.295   6.046   5.050
 2794SOL    HW2 9282   1.185   5.989   4.943
 2795SOL     OW 9283   0.064   7.150   5.055
 2795SOL    HW1 9284   0.018   7.232   5.021
 2795SOL    HW2 9285   0.162   7.169   5.064
 2796SOL     OW 9286   0.367   6.686   4.225
 2796SOL    HW1 9287   0.360   6.769   4.169
 2796SOL    HW2 9288   0.371   6.606   4.165
 2797SOL     OW 9289   0.566   6.123   4.589
 2797SOL    HW1 9290   0.578   6.189   4.515
 2797SOL    HW2 9291   0.612   6.157   4.672
 2798SOL     OW 9292   1.582   6.225   4.196
 2798SOL    HW1 9293   1.551   6.286   4.269
 2798SOL    HW2 9294   1.632   6.277   4.127
 2799SOL     OW 9295   0.402   6.337   5.322
 2799SOL    HW1 9296   0.470   6.392   5.275
 2799SOL    HW2 9297   0.442   6.249   5.349
 2800SOL     OW 9298   1.587   6.365   5.394
 2800SOL    HW1 9299   1.495   6.403   5.389
 2800SOL    HW2 9300   1.647   6.412   5.329
 2801SOL     OW 9301   1.013   5.691   5.494
 2801SOL    HW1 9302   1.019   5.776   5.442
 2801SOL    HW2 9303   1.045   5.615   5.437
 2802SOL     OW 9304   0.504   5.636   5.464
 2802SOL    HW1 9305   0.462   5.579   5.394
 2802SOL    HW2 9306   0.438   5.705   5.496
 2803SOL     OW 9307   0.573   6.456   4.753
 2803SOL    HW1 9308   0.617   6.545   4.744
 2803SOL    HW2 9309   0.510   6.456   4.830
 2804SOL     OW 9310   1.360   6.448   4.769
 2804SOL    HW1 9311   1.285   6.448   4.703
 2804SOL    HW2 9312   1.397   6.356   4.778
 2805SOL     OW 9313   1.209   6.111   3.999
 2805SOL    HW1 9314   1.222   6.027   4.053
 2805SOL    HW2 9315   1.180   6.185   4.059
 2806SOL     OW 9316   0.307   5.799   4.955
 2806SOL    HW1 9317   0.284   5.836   5.045
 2806SOL    HW2 9318   0.277   5.704   4.949
 2807SOL     OW 9319   0.037   6.896   5.006
 2807SOL    HW1 9320   0.090   6.847   5.074
 2807SOL    HW2 9321   0.059   6.994   5.011
 2808SOL     OW 9322   0.732   6.220   4.788
 2808SOL    HW1 9323   0.791   6.194   4.712
 2808SOL    HW2 9324   0.704   6.316   4.777
 2809SOL     OW 9325   1.728   6.521   5.578
 2809SOL    HW1 9326   1.682   6.514   5.489
 2809SOL    HW2 9327   1.666   6.565   5.644
 2810SOL     OW 9328   0.307   5.649   4.342
 2810SOL    HW1 9329   0.296   5.743   4.375
 2810SOL    HW2 9330   0.302   5.586   4.419
 2811SOL     OW 9331   1.622   5.953   4.098
 2811SOL    HW1 9332   1.624   5.877   4.162
 2811SOL    HW2 9333   1.574   6.030   4.138
 2812SOL     OW 9334   1.023   6.352   4.690
 2812SOL    HW1 9335   1.038   6.373   4.786
 2812SOL    HW2 9336   0.993   6.257   4.681
 2813SOL     OW 9337   1.859   7.104   5.329
 2813SOL    HW1 9338   1.873   7.131   5.234
 2813SOL    HW2 9339   1.942   7.126   5.382
 2814SOL     OW 9340   0.350   6.484   5.528
 2814SOL    HW1 9341   0.426   6.528   5.576
 2814SOL    HW2 9342   0.385   6.437   5.446
 2815SOL     OW 9343   1.540   5.860   3.849
 2815SOL    HW1 9344   1.479   5.785   3.872
 2815SOL    HW2 9345   1.562   5.912   3.932
 2816SOL     OW 9346   1.303   6.424   3.766
 2816SOL    HW1 9347   1.337   6.331   3.781
 2816SOL    HW2 9348   1.321   6.451   3.671
 2817SOL     OW 9349   0.319   6.396   4.673
 2817SOL    HW1 9350   0.412   6.432   4.678
 2817SOL    HW2 9351   0.313   6.311   4.725
 2818SOL     OW 9352   0.339   6.095   4.730
 2818SOL    HW1 9353   0.287   6.012   4.713
 2818SOL    HW2 9354   0.416   6.100   4.666
 2819SOL     OW 9355   1.138   5.966   5.402
 2819SOL    HW1 9356   1.093   6.029   5.466
 2819SOL    HW2 9357   1.231   5.997   5.385
 2820SOL     OW 9358   1.160   5.793   5.201
 2820SOL    HW1 9359   1.160   5.857   5.278
 2820SOL    HW2 9360   1.188   5.841   5.118
 2821SOL     OW 9361   0.008   6.912   3.924
 2821SOL    HW1 9362  -0.085   6.933   3.893
 2821SOL    HW2 9363   0.018   6.813   3.937
 2822SOL     OW 9364   1.002   6.382   4.962
 2822SOL    HW1 9365   1.043   6.350   5.048
 2822SOL    HW2 9366   0.906   6.355   4.959
 2823SOL     OW 9367   0.040   6.130   4.838
 2823SOL    HW1 9368   0.125   6.097   4.797
 2823SOL    HW2 9369   0.053   6.145   4.936
 2824SOL     OW 9370   0.189   6.106   5.446
 2824SOL    HW1 9371   0.248   6.066   5.376
 2824SOL    HW2 9372   0.131   6.177   5.405
 2825SOL     OW 9373   1.369   6.536   5.384
 2825SOL    HW1 9374   1.408   6.625   5.404
 2825SOL    HW2 9375   1.379   6.516   5.287
 2826SOL     OW 9376   0.815   6.158   4.049
 2826SOL    HW1 9377   0.822   6.069   4.003
 2826SOL    HW2 9378   0.721   6.192   4.041
 2827SOL     OW 9379   1.657   6.190   4.930
 2827SOL    HW1 9380   1.619   6.121   4.992
 2827SOL    HW2 9381   1.739   6.154   4.886
 2828SOL     OW 9382   0.671   6.050   4.993
 2828SOL    HW1 9383   0.637   5.961   4.963
 2828SOL    HW2 9384   0.697   6.104   4.913
 2829SOL     OW 9385   0.473   6.086   3.915
 2829SOL    HW1 9386   0.534   6.166   3.919
 2829SOL    HW2 9387   0.378   6.117   3.922
 2830SOL     OW 9388   0.159   6.723   5.190
 2830SOL    HW1 9389   0.181   6.662   5.266
 2830SOL    HW2 9390   0.169   6.674   5.104
 2831SOL     OW 9391   1.347   6.645   4.958
 2831SOL    HW1 9392   1.371   6.582   4.884
 2831SOL    HW2 9393   1.257   6.685   4.940
 2832SOL     OW 9394   1.302   6.441   4.033
 2832SOL    HW1 9395   1.216   6.410   4.075
 2832SOL    HW2 9396   1.298   6.427   3.934
 2833SOL     OW 9397   0.083   6.844   4.746
 2833SOL    HW1 9398   0.078   6.843   4.846
 2833SOL    HW2 9399   0.000   6.803   4.708
 2834SOL     OW 9400   1.726   5.721   4.247
 2834SOL    HW1 9401   1.799   5.704   4.180
 2834SOL    HW2 9402   1.695   5.634   4.285
 2835SOL     OW 9403   1.280   6.513   4.396
 2835SOL    HW1 9404   1.340   6.432   4.398
 2835SOL    HW2 9405   1.320   6.582   4.336
 2836SOL     OW 9406   0.830   6.859   5.146
 2836SOL    HW1 9407   0.825   6.892   5.241
 2836SOL    HW2 9408   0.744   6.878   5.100
 2837SOL     OW 9409   1.841   5.761   4.687
 2837SOL    HW1 9410   1.880   5.676   4.651
 2837SOL    HW2 9411   1.743   5.763   4.668
 2838SOL     OW 9412   0.263   5.912   4.444
 2838SOL    HW1 9413   0.184   5.963   4.410
 2838SOL    HW2 9414   0.254   5.897   4.542
 2839SOL     OW 9415   1.194   7.198   3.755
 2839SOL    HW1 9416   1.200   7.105   3.792
 2839SOL    HW2 9417   1.135   7.198   3.675
 2840SOL     OW 9418   0.822   6.588   5.096
 2840SOL    HW1 9419   0.862   6.587   5.004
 2840SOL    HW2 9420   0.832   6.680   5.136
 2841SOL     OW 9421   0.916   6.496   4.015
 2841SOL    HW1 9422   0.979   6.534   3.947
 2841SOL    HW2 9423   0.956   6.413   4.054
 2842SOL     OW 9424   0.372   6.874   5.214
 2842SOL    HW1 9425   0.359   6.967   5.180
 2842SOL    HW2 9426   0.288   6.822   5.201
 2843SOL     OW 9427   1.614   6.878   5.013
 2843SOL    HW1 9428   1.674   6.881   5.093
 2843SOL    HW2 9429   1.539   6.942   5.026
 2844SOL     OW 9430   1.039   6.684   4.420
 2844SOL    HW1 9431   0.969   6.637   4.474
 2844SOL    HW2 9432   1.098   6.616   4.377
 2845SOL     OW 9433   1.014   5.822   4.695
 2845SOL    HW1 9434   1.006   5.786   4.602
 2845SOL    HW2 9435   1.012   5.746   4.760
 2846SOL     OW 9436   1.709   5.971   5.105
 2846SOL    HW1 9437   1.782   6.040   5.109
 2846SOL    HW2 9438   1.737   5.896   5.046
 2847SOL     OW 9439   0.105   6.599   5.450
 2847SOL    HW1 9440   0.028   6.566   5.504
 2847SOL    HW2 9441   0.190   6.569   5.492
 2848SOL     OW 9442   0.672   5.789   5.213
 2848SOL    HW1 9443   0.762   5.773   5.173
 2848SOL    HW2 9444   0.680   5.794   5.312
 2849SOL     OW 9445   0.075   5.931   3.757
 2849SOL    HW1 9446  -0.017   5.903   3.728
 2849SOL    HW2 9447   0.106   6.008   3.701
 2850SOL     OW 9448   1.440   6.442   5.122
 2850SOL    HW1 9449   1.383   6.494   5.059
 2850SOL    HW2 9450   1.536   6.454   5.098
 2851SOL     OW 9451   0.072   5.752   4.042
 2851SOL    HW1 9452   0.055   5.835   3.988
 2851SOL    HW2 9453   0.162   5.715   4.020
 2852SOL     OW 9454   0.613   6.428   5.155
 2852SOL    HW1 9455   0.669   6.509   5.138
 2852SOL    HW2 9456   0.672   6.348   5.158
 2853SOL     OW 9457   0.716   6.151   5.432
 2853SOL    HW1 9458   0.735   6.216   5.506
 2853SOL    HW2 9459   0.776   6.071   5.441
 2854SOL     OW 9460   1.450   6.806   5.357
 2854SOL    HW1 9461   1.441   6.796   5.456
 2854SOL    HW2 9462   1.546   6.799   5.331
 2855SOL     OW 9463   1.674   6.469   4.978
 2855SOL    HW1 9464   1.647   6.380   4.941
 2855SOL    HW2 9465   1.675   6.537   4.905
 2856SOL     OW 9466   1.225   5.911   4.173
 2856SOL    HW1 9467   1.290   5.837   4.162
 2856SOL    HW2 9468   1.245   5.961   4.257
 2857SOL     OW 9469   0.594   6.331   4.376
 2857SOL    HW1 9470   0.644   6.416   4.357
 2857SOL    HW2 9471   0.506   6.333   4.328
 2858SOL     OW 9472   1.777   5.928   5.366
 2858SOL    HW1 9473   1.760   5.959   5.272
 2858SOL    HW2 9474   1.693   5.891   5.404
 2859SOL     OW 9475   1.730   6.520   5.241
 2859SOL    HW1 9476   1.768   6.611   5.256
 2859SOL    HW2 9477   1.722   6.503   5.142
 2860SOL     OW 9478   0.859   6.542   4.585
 2860SOL    HW1 9479   0.913   6.473   4.633
 2860SOL    HW2 9480   0.827   6.611   4.651
 2861SOL     OW 9481   1.083   6.570   3.811
 2861SOL    HW1 9482   1.060   6.623   3.729
 2861SOL    HW2 9483   1.164   6.514   3.792
 2862SOL     OW 9484   0.221   6.900   5.568
 2862SOL    HW1 9485   0.156   6.827   5.547
 2862SOL    HW2 9486   0.225   6.914   5.666
 2863SOL     OW 9487   0.079   6.826   4.377
 2863SOL    HW1 9488   0.078   6.779   4.465
 2863SOL    HW2 9489   0.161   6.798   4.326
 2864SOL     OW 9490   0.672   6.977   5.348
 2864SOL    HW1 9491   0.594   6.927   5.386
 2864SOL    HW2 9492   0.669   7.072   5.379
 2865SOL     OW 9493   1.824   5.778   4.951
 2865SOL    HW1 9494   1.820   5.688   4.995
 2865SOL    HW2 9495   1.827   5.767   4.852
 2866SOL     OW 9496   0.428   6.010   4.244
 2866SOL    HW1 9497   0.458   5.938   4.182
 2866SOL    HW2 9498   0.389   5.970   4.327
 2867SOL     OW 9499   1.705   7.073   4.828
 2867SOL    HW1 9500   1.612   7.048   4.801
 2867SOL    HW2 9501   1.731   7.023   4.910
 2868SOL     OW 9502   0.317   6.133   5.004
 2868SOL    HW1 9503   0.355   6.074   5.076
 2868SOL    HW2 9504   0.357   6.107   4.916
 2869SOL     OW 9505   1.424   5.800   4.836
 2869SOL    HW1 9506   1.476   5.735   4.891
 2869SOL    HW2 9507   1.375   5.863   4.897
 2870SOL     OW 9508   1.001   5.620   4.878
 2870SOL    HW1 9509   0.938   5.548   4.847
 2870SOL    HW2 9510   1.094   5.584   4.878
 2871SOL     OW 9511   0.770   6.916   4.025
 2871SOL    HW1 9512   0.724   6.829   4.042
 2871SOL    HW2 9513   0.861   6.913   4.066
 2872SOL     OW 9514   1.352   5.638   3.892
 2872SOL    HW1 9515   1.387   5.597   3.808
 2872SOL    HW2 9516   1.262   5.600   3.912
 2873SOL     OW 9517   1.300   6.039   4.415
 2873SOL    HW1 9518   1.241   6.119   4.419
 2873SOL    HW2 9519   1.315   6.004   4.508
 2874SOL     OW 9520   1.593   5.807   4.606
 2874SOL    HW1 9521   1.509   5.806   4.660
 2874SOL    HW2 9522   1.595   5.890   4.550
 2875SOL     OW 9523   0.039   6.663   4.024
 2875SOL    HW1 9524   0.138   6.652   4.015
 2875SOL    HW2 9525  -0.001   6.577   4.056
 2876SOL     OW 9526   0.230   6.214   5.699
 2876SOL    HW1 9527   0.137   6.212   5.736
 2876SOL    HW2 9528   0.231   6.175   5.607
 2877SOL     OW 9529   0.225   5.861   6.582
 2877SOL    HW1 9530   0.260   5.844   6.674
 2877SOL    HW2 9531   0.137   5.816   6.570
 2878SOL     OW 9532   0.019   5.954   6.233
 2878SOL    HW1 9533  -0.063   5.997   6.272
 2878SOL    HW2 9534  -0.009   5.881   6.170
 2879SOL     OW 9535   0.569   6.861   6.751
 2879SOL    HW1 9536   0.476   6.854   6.714
 2879SOL    HW2 9537   0.580   6.950   6.795
 2880SOL     OW 9538   1.555   7.097   6.289
 2880SOL    HW1 9539   1.498   7.081   6.370
 2880SOL    HW2 9540   1.496   7.107   6.209
 2881SOL     OW 9541   1.135   6.289   6.303
 2881SOL    HW1 9542   1.192   6.367   6.278
 2881SOL    HW2 9543   1.075   6.315   6.379
 2882SOL     OW 9544   1.755   6.193   5.817
 2882SOL    HW1 9545   1.743   6.180   5.718
 2882SOL    HW2 9546   1.725   6.112   5.866
 2883SOL     OW 9547   0.768   6.730   6.609
 2883SOL    HW1 9548   0.690   6.747   6.669
 2883SOL    HW2 9549   0.802   6.817   6.573
 2884SOL     OW 9550   0.685   6.598   6.251
 2884SOL    HW1 9551   0.754   6.582   6.321
 2884SOL    HW2 9552   0.612   6.655   6.289
 2885SOL     OW 9553   0.335   7.021   6.647
 2885SOL    HW1 9554   0.257   6.990   6.594
 2885SOL    HW2 9555   0.393   7.079   6.590
 2886SOL     OW 9556   1.603   6.033   6.323
 2886SOL    HW1 9557   1.529   6.079   6.273
 2886SOL    HW2 9558   1.654   6.101   6.376
 2887SOL     OW 9559   0.240   6.677   6.472
 2887SOL    HW1 9560   0.254   6.593   6.524
 2887SOL    HW2 9561   0.185   6.741   6.527
 2888SOL     OW 9562   0.606   6.550   5.709
 2888SOL    HW1 9563   0.613   6.634   5.655
 2888SOL    HW2 9564   0.652   6.563   5.797
 2889SOL     OW 9565   0.122   6.229   6.149
 2889SOL    HW1 9566   0.077   6.141   6.166
 2889SOL    HW2 9567   0.121   6.283   6.233
 2890SOL     OW 9568   1.689   6.508   6.198
 2890SOL    HW1 9569   1.784   6.479   6.206
 2890SOL    HW2 9570   1.681   6.573   6.123
 2891SOL     OW 9571   1.641   6.694   6.018
 2891SOL    HW1 9572   1.727   6.696   5.966
 2891SOL    HW2 9573   1.655   6.741   6.106
 2892SOL     OW 9574   0.809   5.590   6.088
 2892SOL    HW1 9575   0.849   5.681   6.079
 2892SOL    HW2 9576   0.709   5.598   6.094
 2893SOL     OW 9577   0.197   6.562   6.850
 2893SOL    HW1 9578   0.286   6.517   6.836
 2893SOL    HW2 9579   0.124   6.497   6.831
 2894SOL     OW 9580   1.525   6.585   5.776
 2894SOL    HW1 9581   1.462   6.509   5.789
 2894SOL    HW2 9582   1.573   6.603   5.862
 2895SOL     OW 9583   1.466   7.003   6.539
 2895SOL    HW1 9584   1.407   7.009   6.619
 2895SOL    HW2 9585   1.451   6.915   6.493
 2896SOL     OW 9586   0.598   6.315   5.856
 2896SOL    HW1 9587   0.622   6.384   5.788
 2896SOL    HW2 9588   0.520   6.348   5.910
 2897SOL     OW 9589   1.281   5.931   6.530
 2897SOL    HW1 9590   1.195   5.881   6.517
 2897SOL    HW2 9591   1.343   5.877   6.586
 2898SOL     OW 9592   0.807   6.191   7.051
 2898SOL    HW1 9593   0.760   6.188   7.140
 2898SOL    HW2 9594   0.756   6.136   6.985
 2899SOL     OW 9595   0.991   5.996   6.828
 2899SOL    HW1 9596   0.914   6.030   6.882
 2899SOL    HW2 9597   0.957   5.945   6.749
 2900SOL     OW 9598   1.041   6.287   6.015
 2900SOL    HW1 9599   1.067   6.283   6.111
 2900SOL    HW2 9600   0.956   6.236   6.001
 2901SOL     OW 9601   0.076   6.397   6.375
 2901SOL    HW1 9602   0.175   6.385   6.384
 2901SOL    HW2 9603   0.052   6.492   6.396
 2902SOL     OW 9604   0.865   5.934   5.781
 2902SOL    HW1 9605   0.924   5.997   5.732
 2902SOL    HW2 9606   0.884   5.840   5.752
 2903SOL     OW 9607   1.362   6.730   6.131
 2903SOL    HW1 9608   1.445   6.701   6.083
 2903SOL    HW2 9609   1.313   6.797   6.075
 2904SOL     OW 9610   0.550   5.782   6.471
 2904SOL    HW1 9611   0.545   5.777   6.571
 2904SOL    HW2 9612   0.552   5.878   6.442
 2905SOL     OW 9613   1.795   6.652   6.459
 2905SOL    HW1 9614   1.733   6.637   6.383
 2905SOL    HW2 9615   1.743   6.663   6.544
 2906SOL     OW 9616   0.321   6.529   5.828
 2906SOL    HW1 9617   0.403   6.568   5.786
 2906SOL    HW2 9618   0.294   6.447   5.779
 2907SOL     OW 9619   1.458   6.321   6.314
 2907SOL    HW1 9620   1.453   6.256   6.389
 2907SOL    HW2 9621   1.538   6.380   6.327
 2908SOL     OW 9622   1.632   6.963   5.667
 2908SOL    HW1 9623   1.600   7.057   5.657
 2908SOL    HW2 9624   1.556   6.900   5.655
 2909SOL     OW 9625   1.400   5.693   6.012
 2909SOL    HW1 9626   1.376   5.656   5.922
 2909SOL    HW2 9627   1.499   5.709   6.016
 2910SOL     OW 9628   0.382   6.286   6.066
 2910SOL    HW1 9629   0.427   6.196   6.063
 2910SOL    HW2 9630   0.288   6.275   6.099
 2911SOL     OW 9631   0.614   5.708   5.703
 2911SOL    HW1 9632   0.712   5.686   5.710
 2911SOL    HW2 9633   0.583   5.691   5.610
 2912SOL     OW 9634   0.922   6.089   6.485
 2912SOL    HW1 9635   0.897   6.080   6.389
 2912SOL    HW2 9636   0.970   6.007   6.516
 2913SOL     OW 9637   0.539   5.650   6.098
 2913SOL    HW1 9638   0.458   5.651   6.156
 2913SOL    HW2 9639   0.542   5.733   6.043
 2914SOL     OW 9640   1.434   6.774   5.627
 2914SOL    HW1 9641   1.466   6.698   5.684
 2914SOL    HW2 9642   1.342   6.801   5.657
 2915SOL     OW 9643   0.297   5.621   5.757
 2915SOL    HW1 9644   0.346   5.705   5.736
 2915SOL    HW2 9645   0.359   5.556   5.802
 2916SOL     OW 9646   0.935   5.822   6.066
 2916SOL    HW1 9647   0.887   5.863   5.988
 2916SOL    HW2 9648   1.034   5.820   6.047
 2917SOL     OW 9649   1.227   7.156   6.379
 2917SOL    HW1 9650   1.248   7.230   6.314
 2917SOL    HW2 9651   1.295   7.156   6.452
 2918SOL     OW 9652   0.459   6.738   6.327
 2918SOL    HW1 9653   0.388   6.711   6.392
 2918SOL    HW2 9654   0.433   6.710   6.234
 2919SOL     OW 9655   1.032   6.135   5.602
 2919SOL    HW1 9656   0.991   6.217   5.563
 2919SOL    HW2 9657   1.096   6.161   5.675
 2920SOL     OW 9658   0.561   5.808   6.733
 2920SOL    HW1 9659   0.599   5.724   6.770
 2920SOL    HW2 9660   0.473   5.827   6.777
 2921SOL     OW 9661   0.866   6.040   6.228
 2921SOL    HW1 9662   0.834   6.112   6.166
 2921SOL    HW2 9663   0.890   5.959   6.175
 2922SOL     OW 9664   1.017   5.625   6.339
 2922SOL    HW1 9665   0.945   5.630   6.270
 2922SOL    HW2 9666   0.993   5.556   6.408
 2923SOL     OW 9667   1.429   6.759   6.453
 2923SOL    HW1 9668   1.374   6.675   6.446
 2923SOL    HW2 9669   1.455   6.788   6.361
 2924SOL     OW 9670   1.466   6.176   6.578
 2924SOL    HW1 9671   1.436   6.081   6.585
 2924SOL    HW2 9672   1.539   6.192   6.644
 2925SOL     OW 9673   1.857   6.419   5.963
 2925SOL    HW1 9674   1.899   6.355   6.027
 2925SOL    HW2 9675   1.819   6.368   5.885
 2926SOL     OW 9676   1.664   6.866   6.243
 2926SOL    HW1 9677   1.763   6.874   6.257
 2926SOL    HW2 9678   1.619   6.950   6.274
 2927SOL     OW 9679   1.390   6.161   5.664
 2927SOL    HW1 9680   1.336   6.140   5.745
 2927SOL    HW2 9681   1.481   6.120   5.673
 2928SOL     OW 9682   0.527   5.842   5.914
 2928SOL    HW1 9683   0.554   5.783   5.839
 2928SOL    HW2 9684   0.527   5.937   5.883
 2929SOL     OW 9685   1.754   6.809   7.174
 2929SOL    HW1 9686   1.845   6.770   7.161
 2929SOL    HW2 9687   1.762   6.905   7.198
 2930SOL     OW 9688   1.064   6.933   6.926
 2930SOL    HW1 9689   0.984   6.910   6.981
 2930SOL    HW2 9690   1.147   6.907   6.975
 2931SOL     OW 9691   1.111   6.781   6.686
 2931SOL    HW1 9692   1.071   6.825   6.767
 2931SOL    HW2 9693   1.070   6.818   6.603
 2932SOL     OW 9694   1.638   6.685   6.665
 2932SOL    HW1 9695   1.643   6.766   6.724
 2932SOL    HW2 9696   1.552   6.687   6.614
 2933SOL     OW 9697   0.705   6.636   5.954
 2933SOL    HW1 9698   0.691   6.643   6.053
 2933SOL    HW2 9699   0.789   6.585   5.936
 2934SOL     OW 9700   0.410   6.399   6.837
 2934SOL    HW1 9701   0.496   6.411   6.887
 2934SOL    HW2 9702   0.368   6.312   6.864
 2935SOL     OW 9703   1.274   5.972   6.848
 2935SOL    HW1 9704   1.295   6.046   6.912
 2935SOL    HW2 9705   1.185   5.989   6.805
 2936SOL     OW 9706   0.064   7.150   6.917
 2936SOL    HW1 9707   0.018   7.232   6.883
 2936SOL    HW2 9708   0.162   7.169   6.926
 2937SOL     OW 9709   0.367   6.686   6.087
 2937SOL    HW1 9710   0.360   6.769   6.031
 2937SOL    HW2 9711   0.371   6.606   6.027
 2938SOL     OW 9712   0.566   6.123   6.451
 2938SOL    HW1 9713   0.578   6.189   6.377
 2938SOL    HW2 9714   0.612   6.157   6.534
 2939SOL     OW 9715   1.582   6.225   6.058
 2939SOL    HW1 9716   1.551   6.286   6.131
 2939SOL    HW2 9717   1.632   6.277   5.989
 2940SOL     OW 9718   0.573   6.456   6.615
 2940SOL    HW1 9719   0.617   6.545   6.606
 2940SOL    HW2 9720   0.510   6.456   6.692
 2941SOL     OW 9721   1.360   6.448   6.631
 2941SOL    HW1 9722   1.285   6.448   6.565
 2941SOL    HW2 9723   1.397   6.356   6.640
 2942SOL     OW 9724   1.209   6.111   5.861
 2942SOL    HW1 9725   1.222   6.027   5.915
 2942SOL    HW2 9726   1.180   6.185   5.921
 2943SOL     OW 9727   0.307   5.799   6.817
 2943SOL    HW1 9728   0.284   5.836   6.907
 2943SOL    HW2 9729   0.277   5.704   6.811
 2944SOL     OW 9730   0.037   6.896   6.868
 2944SOL    HW1 9731   0.090   6.847   6.936
 2944SOL    HW2 9732   0.059   6.994   6.873
 2945SOL     OW 9733   0.732   6.220   6.650
 2945SOL    HW1 9734   0.791   6.194   6.574
 2945SOL    HW2 9735   0.704   6.316   6.639
 2946SOL     OW 9736   0.307   5.649   6.204
 2946SOL    HW1 9737   0.296   5.743   6.237
 2946SOL    HW2 9738   0.302   5.586   6.281
 2947SOL     OW 9739   1.622   5.953   5.960
 2947SOL    HW1 9740   1.624   5.877   6.024
 2947SOL    HW2 9741   1.574   6.030   6.000
 2948SOL     OW 9742   1.023   6.352   6.552
 2948SOL    HW1 9743   1.038   6.373   6.648
 2948SOL    HW2 9744   0.993   6.257   6.543
 2949SOL     OW 9745   1.540   5.860   5.711
 2949SOL    HW1 9746   1.479   5.785   5.734
 2949SOL    HW2 9747   1.562   5.912   5.794
 2950SOL     OW 9748   1.303   6.424   5.628
 2950SOL    HW1 9749   1.337   6.331   5.643
 2950SOL    HW2 9750   1.321   6.451   5.533
 2951SOL     OW 9751   0.319   6.396   6.535
 2951SOL    HW1 9752   0.412   6.432   6.540
 2951SOL    HW2 9753   0.313   6.311   6.587
 2952SOL     OW 9754   0.339   6.095   6.592
 2952SOL    HW1 9755   0.287   6.012   6.575
 2952SOL    HW2 9756   0.416   6.100   6.528
 2953SOL     OW 9757   1.160   5.793   7.063
 2953SOL    HW1 9758   1.160   5.857   7.140
 2953SOL    HW2 9759   1.188   5.841   6.980
 2954SOL     OW 9760   0.008   6.912   5.786
 2954SOL    HW1 9761  -0.085   6.933   5.755
 2954SOL    HW2 9762   0.018   6.813   5.799
 2955SOL     OW 9763   1.002   6.382   6.824
 2955SOL    HW1 9764   1.043   6.350   6.910
 2955SOL    HW2 9765   0.906   6.355   6.821
 2956SOL     OW 9766   0.040   6.130   6.700
 2956SOL    HW1 9767   0.125   6.097   6.659
 2956SOL    HW2 9768   0.053   6.145   6.798
 2957SOL     OW 9769   0.815   6.158   5.911
 2957SOL    HW1 9770   0.822   6.069   5.865
 2957SOL    HW2 9771   0.721   6.192   5.903
 2958SOL     OW 9772   1.657   6.190   6.792
 2958SOL    HW1 9773   1.619   6.121   6.854
 2958SOL    HW2 9774   1.739   6.154   6.748
 2959SOL     OW 9775   0.671   6.050   6.855
 2959SOL    HW1 9776   0.637   5.961   6.825
 2959SOL    HW2 9777   0.697   6.104   6.775
 2960SOL     OW 9778   0.473   6.086   5.777
 2960SOL    HW1 9779   0.534   6.166   5.781
 2960SOL    HW2 9780   0.378   6.117   5.784
 2961SOL     OW 9781   0.159   6.723   7.052
 2961SOL    HW1 9782   0.181   6.662   7.128
 2961SOL    HW2 9783   0.169   6.674   6.966
 2962SOL     OW 9784   1.347   6.645   6.820
 2962SOL    HW1 9785   1.371   6.582   6.746
 2962SOL    HW2 9786   1.257   6.685   6.802
 2963SOL     OW 9787   1.302   6.441   5.895
 2963SOL    HW1 9788   1.216   6.410   5.937
 2963SOL    HW2 9789   1.298   6.427   5.796
 2964SOL     OW 9790   0.083   6.844   6.608
 2964SOL    HW1 9791   0.078   6.843   6.708
 2964SOL    HW2 9792   0.000   6.803   6.570
 2965SOL     OW 9793   1.726   5.721   6.109
 2965SOL    HW1 9794   1.799   5.704   6.042
 2965SOL    HW2 9795   1.695   5.634   6.147
 2966SOL     OW 9796   1.280   6.513   6.258
 2966SOL    HW1 9797   1.340   6.432   6.260
 2966SOL    HW2 9798   1.320   6.582   6.198
 2967SOL     OW 9799   0.830   6.859   7.008
 2967SOL    HW1 9800   0.825   6.892   7.103
 2967SOL    HW2 9801   0.744   6.878   6.962
 2968SOL     OW 9802   1.841   5.761   6.549
 2968SOL    HW1 9803   1.880   5.676   6.513
 2968SOL    HW2 9804   1.743   5.763   6.530
 2969SOL     OW 9805   0.263   5.912   6.306
 2969SOL    HW1 9806   0.184   5.963   6.272
 2969SOL    HW2 9807   0.254   5.897   6.404
 2970SOL     OW 9808   1.194   7.198   5.617
 2970SOL    HW1 9809   1.200   7.105   5.654
 2970SOL    HW2 9810   1.135   7.198   5.537
 2971SOL     OW 9811   0.822   6.588   6.958
 2971SOL    HW1 9812   0.862   6.587   6.866
 2971SOL    HW2 9813   0.832   6.680   6.998
 2972SOL     OW 9814   0.916   6.496   5.877
 2972SOL    HW1 9815   0.979   6.534   5.809
 2972SOL    HW2 9816   0.956   6.413   5.916
 2973SOL     OW 9817   0.372   6.874   7.076
 2973SOL    HW1 9818   0.359   6.967   7.042
 2973SOL    HW2 9819   0.288   6.822   7.063
 2974SOL     OW 9820   1.614   6.878   6.875
 2974SOL    HW1 9821   1.674   6.881   6.955
 2974SOL    HW2 9822   1.539   6.942   6.888
 2975SOL     OW 9823   1.039   6.684   6.282
 2975SOL    HW1 9824   0.969   6.637   6.336
 2975SOL    HW2 9825   1.098   6.616   6.239
 2976SOL     OW 9826   1.014   5.822   6.557
 2976SOL    HW1 9827   1.006   5.786   6.464
 2976SOL    HW2 9828   1.012   5.746   6.622
 2977SOL     OW 9829   1.709   5.971   6.967
 2977SOL    HW1 9830   1.782   6.040   6.971
 2977SOL    HW2 9831   1.737   5.896   6.908
 2978SOL     OW 9832   0.672   5.789   7.075
 2978SOL    HW1 9833   0.762   5.773   7.035
 2978SOL    HW2 9834   0.680   5.794   7.174
 2979SOL     OW 9835   0.075   5.931   5.619
 2979SOL    HW1 9836  -0.017   5.903   5.590
 2979SOL    HW2 9837   0.106   6.008   5.563
 2980SOL     OW 9838   0.072   5.752   5.904
 2980SOL    HW1 9839   0.055   5.835   5.850
 2980SOL    HW2 9840   0.162   5.715   5.882
 2981SOL     OW 9841   1.450   6.806   7.219
 2981SOL    HW1 9842   1.441   6.796   7.318
 2981SOL    HW2 9843   1.546   6.799   7.193
 2982SOL     OW 9844   1.674   6.469   6.840
 2982SOL    HW1 9845   1.647   6.380   6.803
 2982SOL    HW2 9846   1.675   6.537   6.767
 2983SOL     OW 9847   1.225   5.911   6.035
 2983SOL    HW1 9848   1.290   5.837   6.024
 2983SOL    HW2 9849   1.245   5.961   6.119
 2984SOL     OW 9850   0.594   6.331   6.238
 2984SOL    HW1 9851   0.644   6.416   6.219
 2984SOL    HW2 9852   0.506   6.333   6.190
 2985SOL     OW 9853   1.730   6.520   7.103
 2985SOL    HW1 9854   1.768   6.611   7.118
 2985SOL    HW2 9855   1.722   6.503   7.004
 2986SOL     OW 9856   0.859   6.542   6.447
 2986SOL    HW1 9857   0.913   6.473   6.495
 2986SOL    HW2 9858   0.827   6.611   6.513
 2987SOL     OW 9859   1.083   6.570   5.673
 2987SOL    HW1 9860   1.060   6.623   5.591
 2987SOL    HW2 9861   1.164   6.514   5.654
 2988SOL     OW 9862   0.079   6.826   6.239
 2988SOL    HW1 9863   0.078   6.779   6.327
 2988SOL    HW2 9864   0.161   6.798   6.188
 2989SOL     OW 9865   1.824   5.778   6.813
 2989SOL    HW1 9866   1.820   5.688   6.857
 2989SOL    HW2 9867   1.827   5.767   6.714
 2990SOL     OW 9868   0.428   6.010   6.106
 2990SOL    HW1 9869   0.458   5.938   6.044
 2990SOL    HW2 9870   0.389   5.970   6.189
 2991SOL     OW 9871   1.705   7.073   6.690
 2991SOL    HW1 9872   1.612   7.048   6.663
 2991SOL    HW2 9873   1.731   7.023   6.772
 2992SOL     OW 9874   0.317   6.133   6.866
 2992SOL    HW1 9875   0.355   6.074   6.938
 2992SOL    HW2 9876   0.357   6.107   6.778
 2993SOL     OW 9877   1.424   5.800   6.698
 2993SOL    HW1 9878   1.476   5.735   6.753
 2993SOL    HW2 9879   1.375   5.863   6.759
 2994SOL     OW 9880   1.001   5.620   6.740
 2994SOL    HW1 9881   0.938   5.548   6.709
 2994SOL    HW2 9882   1.094   5.584   6.740
 2995SOL     OW 9883   0.770   6.916   5.887
 2995SOL    HW1 9884   0.724   6.829   5.904
 2995SOL    HW2 9885   0.861   6.913   5.928
 2996SOL     OW 9886   1.352   5.638   5.754
 2996SOL    HW1 9887   1.387   5.597   5.670
 2996SOL    HW2 9888   1.262   5.600   5.774
 2997SOL     OW 9889   1.300   6.039   6.277
 2997SOL    HW1 9890   1.241   6.119   6.281
 2997SOL    HW2 9891   1.315   6.004   6.370
 2998SOL     OW 9892   1.593   5.807   6.468
 2998SOL    HW1 9893   1.509   5.806   6.522
 2998SOL    HW2 9894   1.595   5.890   6.412
 2999SOL     OW 9895   0.039   6.663   5.886
 2999SOL    HW1 9896   0.138   6.652   5.877
 2999SOL    HW2 9897  -0.001   6.577   5.918
 3000SOL     OW 9898   2.092   0.628   0.113
 3000SOL    HW1 9899   1.999   0.626   0.150
 3000SOL    HW2 9900   2.093   0.589   0.021
 3001SOL     OW 9901   2.087   0.275   0.996
 3001SOL    HW1 9902   2.122   0.258   1.088
 3001SOL    HW2 9903   1.999   0.230   0.984
 3002SOL     OW 9904   1.881   0.368   0.647
 3002SOL    HW1 9905   1.799   0.411   0.686
 3002SOL    HW2 9906   1.853   0.295   0.584
 3003SOL     OW 9907   2.431   1.275   1.165
 3003SOL    HW1 9908   2.338   1.268   1.128
 3003SOL    HW2 9909   2.442   1.364   1.209
 3004SOL     OW 9910   3.417   1.511   0.703
 3004SOL    HW1 9911   3.360   1.495   0.784
 3004SOL    HW2 9912   3.358   1.521   0.623
 3005SOL     OW 9913   2.997   0.703   0.717
 3005SOL    HW1 9914   3.054   0.781   0.692
 3005SOL    HW2 9915   2.937   0.729   0.793
 3006SOL     OW 9916   3.617   0.607   0.231
 3006SOL    HW1 9917   3.605   0.594   0.132
 3006SOL    HW2 9918   3.587   0.526   0.280
 3007SOL     OW 9919   2.630   1.144   1.023
 3007SOL    HW1 9920   2.552   1.161   1.083
 3007SOL    HW2 9921   2.664   1.231   0.987
 3008SOL     OW 9922   2.712   0.798   1.823
 3008SOL    HW1 9923   2.708   0.874   1.888
 3008SOL    HW2 9924   2.734   0.834   1.732
 3009SOL     OW 9925   2.547   1.012   0.665
 3009SOL    HW1 9926   2.616   0.996   0.735
 3009SOL    HW2 9927   2.474   1.069   0.703
 3010SOL     OW 9928   2.548   1.161   1.803
 3010SOL    HW1 9929   2.608   1.240   1.817
 3010SOL    HW2 9930   2.462   1.192   1.762
 3011SOL     OW 9931   2.197   1.435   1.061
 3011SOL    HW1 9932   2.119   1.404   1.008
 3011SOL    HW2 9933   2.255   1.493   1.004
 3012SOL     OW 9934   3.322   1.505   1.339
 3012SOL    HW1 9935   3.346   1.599   1.365
 3012SOL    HW2 9936   3.306   1.451   1.421
 3013SOL     OW 9937   2.300   0.392   1.499
 3013SOL    HW1 9938   2.382   0.336   1.508
 3013SOL    HW2 9939   2.219   0.334   1.503
 3014SOL     OW 9940   3.465   0.447   0.737
 3014SOL    HW1 9941   3.391   0.493   0.687
 3014SOL    HW2 9942   3.516   0.515   0.790
 3015SOL     OW 9943   2.093   1.713   0.483
 3015SOL    HW1 9944   2.127   1.790   0.537
 3015SOL    HW2 9945   2.137   1.713   0.393
 3016SOL     OW 9946   2.989   1.341   1.690
 3016SOL    HW1 9947   3.036   1.341   1.778
 3016SOL    HW2 9948   2.941   1.254   1.679
 3017SOL     OW 9949   2.092   1.434   0.538
 3017SOL    HW1 9950   2.066   1.530   0.538
 3017SOL    HW2 9951   2.021   1.380   0.583
 3018SOL     OW 9952   2.102   1.091   0.886
 3018SOL    HW1 9953   2.116   1.007   0.938
 3018SOL    HW2 9954   2.047   1.155   0.941
 3019SOL     OW 9955   2.482   1.786   1.439
 3019SOL    HW1 9956   2.390   1.769   1.474
 3019SOL    HW2 9957   2.510   1.878   1.465
 3020SOL     OW 9958   2.468   0.964   0.123
 3020SOL    HW1 9959   2.475   1.048   0.069
 3020SOL    HW2 9960   2.514   0.977   0.211
 3021SOL     OW 9961   3.456   0.114   1.480
 3021SOL    HW1 9962   3.438   0.181   1.408
 3021SOL    HW2 9963   3.453   0.160   1.569
 3022SOL     OW 9964   1.984   0.643   0.563
 3022SOL    HW1 9965   1.939   0.555   0.580
 3022SOL    HW2 9966   1.983   0.697   0.647
 3023SOL     OW 9967   3.704   1.767   0.359
 3023SOL    HW1 9968   3.758   1.738   0.439
 3023SOL    HW2 9969   3.734   1.857   0.330
 3024SOL     OW 9970   3.551   0.922   0.612
 3024SOL    HW1 9971   3.646   0.893   0.620
 3024SOL    HW2 9972   3.543   0.987   0.537
 3025SOL     OW 9973   3.503   1.108   0.432
 3025SOL    HW1 9974   3.589   1.110   0.380
 3025SOL    HW2 9975   3.517   1.155   0.520
 3026SOL     OW 9976   1.975   0.737   1.597
 3026SOL    HW1 9977   2.063   0.724   1.642
 3026SOL    HW2 9978   1.962   0.834   1.575
 3027SOL     OW 9979   2.475   1.365   0.726
 3027SOL    HW1 9980   2.426   1.278   0.735
 3027SOL    HW2 9981   2.452   1.408   0.639
 3028SOL     OW 9982   3.155   1.228   1.423
 3028SOL    HW1 9983   3.192   1.155   1.365
 3028SOL    HW2 9984   3.207   1.233   1.508
 3029SOL     OW 9985   2.671   0.004   0.502
 3029SOL    HW1 9986   2.711   0.095   0.493
 3029SOL    HW2 9987   2.571   0.012   0.508
 3030SOL     OW 9988   2.059   0.976   1.264
 3030SOL    HW1 9989   2.148   0.931   1.250
 3030SOL    HW2 9990   1.986   0.911   1.245
 3031SOL     OW 9991   3.387   0.999   0.190
 3031SOL    HW1 9992   3.324   0.923   0.203
 3031SOL    HW2 9993   3.435   1.017   0.276
 3032SOL     OW 9994   3.049   1.792   1.616
 3032SOL    HW1 9995   3.073   1.852   1.540
 3032SOL    HW2 9996   3.056   1.697   1.586
 3033SOL     OW 9997   2.179   0.251   1.801
 3033SOL    HW1 9998   2.250   0.322   1.807
 3033SOL    HW2 9999   2.091   0.290   1.829
 3034SOL     OW10000   3.328   1.417   0.953
 3034SOL    HW110001   3.269   1.423   1.033
 3034SOL    HW210002   3.313   1.329   0.907
 3035SOL     OW10003   3.529   1.714   0.572
 3035SOL    HW110004   3.488   1.691   0.484
 3035SOL    HW210005   3.511   1.640   0.637
 3036SOL     OW10006   2.460   0.729   0.270
 3036SOL    HW110007   2.484   0.798   0.202
 3036SOL    HW210008   2.382   0.762   0.324
 3037SOL     OW10009   3.143   0.345   0.944
 3037SOL    HW110010   3.057   0.295   0.931
 3037SOL    HW210011   3.205   0.291   1.000
 3038SOL     OW10012   3.438   1.662   0.307
 3038SOL    HW110013   3.527   1.708   0.310
 3038SOL    HW210014   3.417   1.638   0.212
 3039SOL     OW10015   2.669   0.605   1.465
 3039SOL    HW110016   2.622   0.602   1.554
 3039SOL    HW210017   2.618   0.550   1.399
 3040SOL     OW10018   3.256   0.469   1.674
 3040SOL    HW110019   3.236   0.512   1.762
 3040SOL    HW210020   3.334   0.407   1.683
 3041SOL     OW10021   2.835   0.890   1.572
 3041SOL    HW110022   2.881   0.806   1.543
 3041SOL    HW210023   2.779   0.924   1.497
 3042SOL     OW10024   2.853   0.410   1.242
 3042SOL    HW110025   2.776   0.444   1.296
 3042SOL    HW210026   2.819   0.359   1.163
 3043SOL     OW10027   2.903   0.701   0.429
 3043SOL    HW110028   2.929   0.697   0.525
 3043SOL    HW210029   2.818   0.650   0.415
 3044SOL     OW10030   1.938   0.811   0.789
 3044SOL    HW110031   2.037   0.799   0.798
 3044SOL    HW210032   1.914   0.906   0.810
 3045SOL     OW10033   1.992   1.821   1.571
 3045SOL    HW110034   1.982   1.806   1.670
 3045SOL    HW210035   1.906   1.857   1.535
 3046SOL     OW10036   2.727   0.348   0.195
 3046SOL    HW110037   2.786   0.411   0.146
 3046SOL    HW210038   2.746   0.254   0.166
 3047SOL     OW10039   3.581   0.585   1.831
 3047SOL    HW110040   3.555   0.674   1.795
 3047SOL    HW210041   3.579   0.517   1.758
 3048SOL     OW10042   3.224   1.144   0.545
 3048SOL    HW110043   3.307   1.115   0.497
 3048SOL    HW210044   3.175   1.211   0.489
 3049SOL     OW10045   2.412   0.196   0.885
 3049SOL    HW110046   2.407   0.191   0.985
 3049SOL    HW210047   2.414   0.292   0.856
 3050SOL     OW10048   2.870   1.456   0.477
 3050SOL    HW110049   2.824   1.528   0.425
 3050SOL    HW210050   2.866   1.476   0.575
 3051SOL     OW10051   2.213   1.801   0.853
 3051SOL    HW110052   2.263   1.715   0.859
 3051SOL    HW210053   2.278   1.878   0.850
 3052SOL     OW10054   3.657   1.066   0.873
 3052SOL    HW110055   3.595   1.051   0.797
 3052SOL    HW210056   3.605   1.077   0.958
 3053SOL     OW10057   3.089   1.550   1.506
 3053SOL    HW110058   3.095   1.473   1.570
 3053SOL    HW210059   3.037   1.524   1.426
 3054SOL     OW10060   2.183   0.943   0.242
 3054SOL    HW110061   2.265   0.982   0.200
 3054SOL    HW210062   2.156   0.861   0.193
 3055SOL     OW10063   3.320   0.735   0.728
 3055SOL    HW110064   3.315   0.670   0.803
 3055SOL    HW210065   3.400   0.794   0.741
 3056SOL     OW10066   2.323   1.266   1.727
 3056SOL    HW110067   2.273   1.267   1.641
 3056SOL    HW210068   2.260   1.248   1.803
 3057SOL     OW10069   2.973   1.776   0.237
 3057SOL    HW110070   2.913   1.714   0.287
 3057SOL    HW210071   3.004   1.732   0.152
 3058SOL     OW10072   2.064   0.285   1.498
 3058SOL    HW110073   1.984   0.345   1.485
 3058SOL    HW210074   2.054   0.236   1.584
 3059SOL     OW10075   3.494   1.377   0.081
 3059SOL    HW110076   3.462   1.471   0.071
 3059SOL    HW210077   3.418   1.314   0.069
 3060SOL     OW10078   2.326   1.743   0.323
 3060SOL    HW110079   2.359   1.782   0.409
 3060SOL    HW210080   2.402   1.736   0.258
 3061SOL     OW10081   3.262   0.107   0.426
 3061SOL    HW110082   3.238   0.070   0.336
 3061SOL    HW210083   3.361   0.123   0.430
 3062SOL     OW10084   2.111   1.785   1.241
 3062SOL    HW110085   2.168   1.720   1.291
 3062SOL    HW210086   2.095   1.752   1.148
 3063SOL     OW10087   2.802   1.698   0.904
 3063SOL    HW110088   2.882   1.641   0.925
 3063SOL    HW210089   2.753   1.658   0.827
 3064SOL     OW10090   2.244   0.700   0.480
 3064SOL    HW110091   2.289   0.610   0.477
 3064SOL    HW210092   2.150   0.689   0.513
 3065SOL     OW10093   3.409   0.222   1.729
 3065SOL    HW110094   3.404   0.259   1.821
 3065SOL    HW210095   3.337   0.153   1.717
 3066SOL     OW10096   2.476   0.122   0.117
 3066SOL    HW110097   2.574   0.100   0.124
 3066SOL    HW210098   2.445   0.105   0.024
 3067SOL     OW10099   2.643   0.264   1.749
 3067SOL    HW110100   2.710   0.203   1.792
 3067SOL    HW210101   2.570   0.283   1.814
 3068SOL     OW10102   2.750   1.514   1.195
 3068SOL    HW110103   2.727   1.489   1.101
 3068SOL    HW210104   2.811   1.445   1.234
 3069SOL     OW10105   3.213   0.590   1.433
 3069SOL    HW110106   3.241   0.547   1.518
 3069SOL    HW210107   3.238   0.686   1.434
 3070SOL     OW10108   2.665   1.402   0.924
 3070SOL    HW110109   2.755   1.416   0.882
 3070SOL    HW210110   2.594   1.404   0.853
 3071SOL     OW10111   2.784   0.503   0.899
 3071SOL    HW110112   2.759   0.494   0.803
 3071SOL    HW210113   2.832   0.421   0.930
 3072SOL     OW10114   2.401   0.064   0.512
 3072SOL    HW110115   2.320   0.065   0.570
 3072SOL    HW210116   2.404   0.147   0.457
 3073SOL     OW10117   3.296   1.188   0.041
 3073SOL    HW110118   3.328   1.112   0.098
 3073SOL    HW210119   3.204   1.215   0.071
 3074SOL     OW10120   2.159   0.035   0.171
 3074SOL    HW110121   2.208   0.119   0.150
 3074SOL    HW210122   2.221  -0.030   0.216
 3075SOL     OW10123   2.797   0.236   0.480
 3075SOL    HW110124   2.749   0.277   0.402
 3075SOL    HW210125   2.896   0.234   0.461
 3076SOL     OW10126   2.938   0.683   1.464
 3076SOL    HW110127   2.858   0.622   1.467
 3076SOL    HW210128   3.019   0.630   1.440
 3077SOL     OW10129   3.089   1.570   0.793
 3077SOL    HW110130   3.110   1.644   0.728
 3077SOL    HW210131   3.157   1.570   0.866
 3078SOL     OW10132   2.321   1.152   0.741
 3078SOL    HW110133   2.250   1.125   0.806
 3078SOL    HW210134   2.295   1.124   0.648
 3079SOL     OW10135   3.133   1.797   0.591
 3079SOL    HW110136   3.177   1.861   0.527
 3079SOL    HW210137   3.083   1.849   0.661
 3080SOL     OW10138   2.894   0.549   0.016
 3080SOL    HW110139   2.853   0.631  -0.023
 3080SOL    HW210140   2.958   0.575   0.089
 3081SOL     OW10141   1.940   0.556   1.386
 3081SOL    HW110142   2.032   0.555   1.345
 3081SOL    HW210143   1.934   0.630   1.453
 3082SOL     OW10144   2.423   0.222   1.147
 3082SOL    HW110145   2.461   0.138   1.184
 3082SOL    HW210146   2.335   0.241   1.191
 3083SOL     OW10147   2.728   0.454   0.642
 3083SOL    HW110148   2.696   0.526   0.580
 3083SOL    HW210149   2.752   0.373   0.589
 3084SOL     OW10150   2.879   0.039   0.753
 3084SOL    HW110151   2.807   0.044   0.684
 3084SOL    HW210152   2.855  -0.030   0.822
 3085SOL     OW10153   3.291   1.173   0.867
 3085SOL    HW110154   3.236   1.089   0.860
 3085SOL    HW210155   3.317   1.202   0.775
 3086SOL     OW10156   3.328   0.590   0.992
 3086SOL    HW110157   3.298   0.495   0.999
 3086SOL    HW210158   3.401   0.606   1.058
 3087SOL     OW10159   3.719   0.833   0.377
 3087SOL    HW110160   3.761   0.769   0.441
 3087SOL    HW210161   3.681   0.782   0.299
 3088SOL     OW10162   2.350   1.385   0.174
 3088SOL    HW110163   2.263   1.370   0.221
 3088SOL    HW210164   2.333   1.411   0.079
 3089SOL     OW10165   3.526   1.280   0.657
 3089SOL    HW110166   3.625   1.288   0.671
 3089SOL    HW210167   3.481   1.364   0.688
 3090SOL     OW10168   3.252   0.575   0.078
 3090SOL    HW110169   3.198   0.554   0.159
 3090SOL    HW210170   3.343   0.534   0.087
 3091SOL     OW10171   2.389   0.256   0.328
 3091SOL    HW110172   2.416   0.197   0.253
 3091SOL    HW210173   2.389   0.351   0.297
 3092SOL     OW10174   3.616   1.223   1.588
 3092SOL    HW110175   3.707   1.184   1.575
 3092SOL    HW210176   3.624   1.319   1.612
 3093SOL     OW10177   2.926   1.347   1.340
 3093SOL    HW110178   2.846   1.324   1.395
 3093SOL    HW210179   3.009   1.321   1.389
 3094SOL     OW10180   3.454   1.629   1.625
 3094SOL    HW110181   3.481   1.663   1.535
 3094SOL    HW210182   3.533   1.591   1.671
 3095SOL     OW10183   2.973   1.195   1.100
 3095SOL    HW110184   2.933   1.239   1.181
 3095SOL    HW210185   2.932   1.232   1.017
 3096SOL     OW10186   3.500   1.099   1.079
 3096SOL    HW110187   3.505   1.180   1.138
 3096SOL    HW210188   3.414   1.101   1.028
 3097SOL     OW10189   2.777   0.089   1.402
 3097SOL    HW110190   2.802   0.069   1.307
 3097SOL    HW210191   2.849   0.145   1.444
 3098SOL     OW10192   2.842   1.116   1.719
 3098SOL    HW110193   2.743   1.122   1.729
 3098SOL    HW210194   2.865   1.036   1.663
 3099SOL     OW10195   2.567   1.050   0.368
 3099SOL    HW110196   2.553   1.057   0.467
 3099SOL    HW210197   2.651   0.999   0.350
 3100SOL     OW10198   2.272   0.813   1.251
 3100SOL    HW110199   2.358   0.825   1.301
 3100SOL    HW210200   2.230   0.726   1.278
 3101SOL     OW10201   3.136   0.386   1.262
 3101SOL    HW110202   3.157   0.460   1.326
 3101SOL    HW210203   3.047   0.403   1.219
 3102SOL     OW10204   1.926   1.564   1.331
 3102SOL    HW110205   1.880   1.646   1.297
 3102SOL    HW210206   2.024   1.583   1.340
 3103SOL     OW10207   2.229   1.100   0.501
 3103SOL    HW110208   2.222   1.183   0.445
 3103SOL    HW210209   2.233   1.020   0.441
 3104SOL     OW10210   2.428   0.537   0.865
 3104SOL    HW110211   2.440   0.603   0.791
 3104SOL    HW210212   2.474   0.571   0.948
 3105SOL     OW10213   3.114   1.348   0.388
 3105SOL    HW110214   3.164   1.425   0.428
 3105SOL    HW210215   3.019   1.350   0.420
 3106SOL     OW10216   3.134   1.445   1.142
 3106SOL    HW110217   3.181   1.458   1.229
 3106SOL    HW210218   3.068   1.371   1.151
 3107SOL     OW10219   3.444   0.639   0.472
 3107SOL    HW110220   3.413   0.700   0.545
 3107SOL    HW210221   3.494   0.691   0.403
 3108SOL     OW10222   2.216   1.510   1.329
 3108SOL    HW110223   2.195   1.466   1.242
 3108SOL    HW210224   2.313   1.536   1.332
 3109SOL     OW10225   2.264   0.751   1.598
 3109SOL    HW110226   2.332   0.806   1.551
 3109SOL    HW210227   2.304   0.663   1.625
 3110SOL     OW10228   3.449   0.779   1.670
 3110SOL    HW110229   3.357   0.817   1.665
 3110SOL    HW210230   3.509   0.826   1.605
 3111SOL     OW10231   2.875   0.105   1.770
 3111SOL    HW110232   2.881   0.190   1.718
 3111SOL    HW210233   2.907   0.029   1.713
 3112SOL     OW10234   2.366   0.050   1.740
 3112SOL    HW110235   2.324  -0.007   1.670
 3112SOL    HW210236   2.300   0.119   1.772
 3113SOL     OW10237   2.435   0.870   1.029
 3113SOL    HW110238   2.479   0.959   1.020
 3113SOL    HW210239   2.372   0.870   1.106
 3114SOL     OW10240   3.222   0.862   1.045
 3114SOL    HW110241   3.147   0.862   0.979
 3114SOL    HW210242   3.259   0.770   1.054
 3115SOL     OW10243   3.071   0.525   0.275
 3115SOL    HW110244   3.084   0.441   0.329
 3115SOL    HW210245   3.042   0.599   0.335
 3116SOL     OW10246   2.169   0.213   1.231
 3116SOL    HW110247   2.146   0.250   1.321
 3116SOL    HW210248   2.139   0.118   1.225
 3117SOL     OW10249   1.899   1.310   1.282
 3117SOL    HW110250   1.952   1.261   1.350
 3117SOL    HW210251   1.921   1.408   1.287
 3118SOL     OW10252   2.594   0.634   1.064
 3118SOL    HW110253   2.653   0.608   0.988
 3118SOL    HW210254   2.566   0.730   1.053
 3119SOL     OW10255   3.590   0.935   1.854
 3119SOL    HW110256   3.544   0.928   1.765
 3119SOL    HW210257   3.528   0.979   1.920
 3120SOL     OW10258   2.169   0.063   0.618
 3120SOL    HW110259   2.158   0.157   0.651
 3120SOL    HW210260   2.164   0.000   0.695
 3121SOL     OW10261   3.484   0.367   0.374
 3121SOL    HW110262   3.486   0.291   0.438
 3121SOL    HW210263   3.436   0.444   0.414
 3122SOL     OW10264   2.885   0.766   0.966
 3122SOL    HW110265   2.900   0.787   1.062
 3122SOL    HW210266   2.855   0.671   0.957
 3123SOL     OW10267   2.842   1.573   1.700
 3123SOL    HW110268   2.822   1.617   1.612
 3123SOL    HW210269   2.881   1.482   1.684
 3124SOL     OW10270   3.721   1.518   1.605
 3124SOL    HW110271   3.735   1.545   1.510
 3124SOL    HW210272   3.804   1.540   1.658
 3125SOL     OW10273   2.212   0.898   1.804
 3125SOL    HW110274   2.288   0.942   1.852
 3125SOL    HW210275   2.247   0.851   1.722
 3126SOL     OW10276   3.402   0.274   0.125
 3126SOL    HW110277   3.341   0.199   0.148
 3126SOL    HW210278   3.424   0.326   0.208
 3127SOL     OW10279   3.165   0.838   0.042
 3127SOL    HW110280   3.199   0.745   0.057
 3127SOL    HW210281   3.183   0.865  -0.053
 3128SOL     OW10282   2.930   1.333   0.849
 3128SOL    HW110283   2.937   1.249   0.794
 3128SOL    HW210284   2.992   1.402   0.813
 3129SOL     OW10285   2.181   0.810   0.949
 3129SOL    HW110286   2.274   0.846   0.954
 3129SOL    HW210287   2.175   0.725   1.001
 3130SOL     OW10288   2.201   0.509   1.006
 3130SOL    HW110289   2.149   0.426   0.989
 3130SOL    HW210290   2.278   0.514   0.942
 3131SOL     OW10291   3.000   0.380   1.678
 3131SOL    HW110292   2.955   0.443   1.742
 3131SOL    HW210293   3.093   0.411   1.661
 3132SOL     OW10294   3.022   0.207   1.477
 3132SOL    HW110295   3.022   0.271   1.554
 3132SOL    HW210296   3.050   0.255   1.394
 3133SOL     OW10297   1.950   1.801   0.927
 3133SOL    HW110298   1.908   1.715   0.900
 3133SOL    HW210299   2.044   1.804   0.893
 3134SOL     OW10300   2.366   1.568   0.910
 3134SOL    HW110301   2.432   1.642   0.919
 3134SOL    HW210302   2.410   1.489   0.868
 3135SOL     OW10303   2.864   0.796   1.238
 3135SOL    HW110304   2.905   0.764   1.324
 3135SOL    HW210305   2.768   0.769   1.235
 3136SOL     OW10306   1.902   0.544   1.114
 3136SOL    HW110307   1.987   0.511   1.073
 3136SOL    HW210308   1.915   0.559   1.212
 3137SOL     OW10309   2.051   0.520   1.722
 3137SOL    HW110310   2.110   0.480   1.652
 3137SOL    HW210311   1.993   0.591   1.681
 3138SOL     OW10312   3.231   0.950   1.660
 3138SOL    HW110313   3.270   1.039   1.680
 3138SOL    HW210314   3.241   0.930   1.563
 3139SOL     OW10315   2.677   0.572   0.325
 3139SOL    HW110316   2.684   0.483   0.279
 3139SOL    HW210317   2.583   0.606   0.317
 3140SOL     OW10318   3.519   0.604   1.206
 3140SOL    HW110319   3.481   0.535   1.268
 3140SOL    HW210320   3.601   0.568   1.162
 3141SOL     OW10321   2.114   1.564   1.744
 3141SOL    HW110322   2.084   1.621   1.820
 3141SOL    HW210323   2.107   1.467   1.770
 3142SOL     OW10324   2.533   0.464   1.269
 3142SOL    HW110325   2.499   0.375   1.239
 3142SOL    HW210326   2.559   0.518   1.189
 3143SOL     OW10327   2.792   1.678   1.465
 3143SOL    HW110328   2.768   1.660   1.370
 3143SOL    HW210329   2.822   1.772   1.475
 3144SOL     OW10330   2.335   0.500   0.191
 3144SOL    HW110331   2.396   0.580   0.195
 3144SOL    HW210332   2.240   0.531   0.198
 3145SOL     OW10333   2.021   1.137   1.466
 3145SOL    HW110334   2.043   1.076   1.542
 3145SOL    HW210335   2.031   1.088   1.380
 3146SOL     OW10336   3.209   1.059   1.234
 3146SOL    HW110337   3.233   0.996   1.160
 3146SOL    HW210338   3.119   1.099   1.216
 3147SOL     OW10339   3.164   0.855   0.309
 3147SOL    HW110340   3.078   0.824   0.351
 3147SOL    HW210341   3.160   0.841   0.210
 3148SOL     OW10342   3.621   1.747   1.154
 3148SOL    HW110343   3.682   1.777   1.081
 3148SOL    HW210344   3.583   1.658   1.132
 3149SOL     OW10345   3.114   1.731   1.128
 3149SOL    HW110346   3.198   1.736   1.074
 3149SOL    HW210347   3.091   1.635   1.146
 3150SOL     OW10348   1.945   1.258   1.022
 3150SOL    HW110349   1.940   1.257   1.122
 3150SOL    HW210350   1.862   1.217   0.984
 3151SOL     OW10351   2.550   1.662   1.716
 3151SOL    HW110352   2.494   1.743   1.725
 3151SOL    HW210353   2.602   1.666   1.630
 3152SOL     OW10354   2.765   0.086   0.133
 3152SOL    HW110355   2.816   0.087   0.047
 3152SOL    HW210356   2.821   0.044   0.204
 3153SOL     OW10357   3.588   0.135   0.523
 3153SOL    HW110358   3.661   0.118   0.456
 3153SOL    HW210359   3.557   0.048   0.561
 3154SOL     OW10360   3.250   1.573   0.477
 3154SOL    HW110361   3.317   1.585   0.403
 3154SOL    HW210362   3.210   1.662   0.500
 3155SOL     OW10363   1.992   1.794   1.851
 3155SOL    HW110364   1.951   1.720   1.904
 3155SOL    HW210365   2.056   1.845   1.909
 3156SOL     OW10366   3.142   0.927   0.672
 3156SOL    HW110367   3.202   0.846   0.674
 3156SOL    HW210368   3.182   0.996   0.612
 3157SOL     OW10369   2.692   1.273   1.422
 3157SOL    HW110370   2.687   1.306   1.517
 3157SOL    HW210371   2.606   1.292   1.376
 3158SOL     OW10372   2.534   1.616   0.154
 3158SOL    HW110373   2.543   1.626   0.055
 3158SOL    HW210374   2.494   1.527   0.175
 3159SOL     OW10375   3.512   1.720   1.394
 3159SOL    HW110376   3.565   1.730   1.310
 3159SOL    HW210377   3.485   1.810   1.428
 3160SOL     OW10378   3.703   0.175   0.963
 3160SOL    HW110379   3.742   0.090   0.927
 3160SOL    HW210380   3.605   0.177   0.944
 3161SOL     OW10381   2.125   0.326   0.720
 3161SOL    HW110382   2.046   0.377   0.686
 3161SOL    HW210383   2.116   0.311   0.818
 3162SOL     OW10384   3.056   1.612   0.031
 3162SOL    HW110385   3.062   1.519   0.068
 3162SOL    HW210386   2.997   1.612  -0.049
 3163SOL     OW10387   2.684   1.002   1.372
 3163SOL    HW110388   2.724   1.001   1.280
 3163SOL    HW210389   2.694   1.094   1.412
 3164SOL     OW10390   2.778   0.910   0.291
 3164SOL    HW110391   2.841   0.948   0.223
 3164SOL    HW210392   2.818   0.827   0.330
 3165SOL     OW10393   3.366   1.607   0.044
 3165SOL    HW110394   3.274   1.644   0.051
 3165SOL    HW210395   3.404   1.627  -0.046
 3166SOL     OW10396   2.234   1.288   1.490
 3166SOL    HW110397   2.221   1.381   1.456
 3166SOL    HW210398   2.150   1.236   1.477
 3167SOL     OW10399   3.476   1.292   1.289
 3167SOL    HW110400   3.536   1.295   1.369
 3167SOL    HW210401   3.401   1.356   1.302
 3168SOL     OW10402   2.901   1.098   0.696
 3168SOL    HW110403   2.831   1.051   0.750
 3168SOL    HW210404   2.960   1.030   0.653
 3169SOL     OW10405   2.876   0.236   0.971
 3169SOL    HW110406   2.868   0.200   0.878
 3169SOL    HW210407   2.874   0.160   1.036
 3170SOL     OW10408   2.452   1.487   0.491
 3170SOL    HW110409   2.494   1.429   0.421
 3170SOL    HW210410   2.408   1.566   0.447
 3171SOL     OW10411   3.571   0.385   1.381
 3171SOL    HW110412   3.644   0.454   1.385
 3171SOL    HW210413   3.599   0.310   1.322
 3172SOL     OW10414   2.117   1.348   0.290
 3172SOL    HW110415   2.021   1.349   0.263
 3172SOL    HW210416   2.129   1.401   0.374
 3173SOL     OW10417   1.967   1.013   1.726
 3173SOL    HW110418   1.890   0.980   1.780
 3173SOL    HW210419   2.052   0.983   1.768
 3174SOL     OW10420   2.534   0.203   1.489
 3174SOL    HW110421   2.624   0.187   1.449
 3174SOL    HW210422   2.542   0.208   1.588
 3175SOL     OW10423   1.937   0.345   0.033
 3175SOL    HW110424   1.845   0.317   0.004
 3175SOL    HW210425   1.968   0.422  -0.023
 3176SOL     OW10426   3.302   0.856   1.398
 3176SOL    HW110427   3.245   0.908   1.335
 3176SOL    HW210428   3.398   0.868   1.374
 3177SOL     OW10429   1.934   0.166   0.318
 3177SOL    HW110430   1.917   0.249   0.264
 3177SOL    HW210431   2.024   0.129   0.296
 3178SOL     OW10432   3.045   1.335   0.119
 3178SOL    HW110433   2.946   1.324   0.121
 3178SOL    HW210434   3.079   1.350   0.212
 3179SOL     OW10435   2.475   0.842   1.431
 3179SOL    HW110436   2.531   0.923   1.414
 3179SOL    HW210437   2.534   0.762   1.434
 3180SOL     OW10438   3.355   1.767   0.959
 3180SOL    HW110439   3.388   1.831   0.890
 3180SOL    HW210440   3.421   1.761   1.034
 3181SOL     OW10441   2.578   0.565   1.708
 3181SOL    HW110442   2.597   0.630   1.782
 3181SOL    HW210443   2.638   0.485   1.717
 3182SOL     OW10444   3.312   1.220   1.633
 3182SOL    HW110445   3.303   1.210   1.732
 3182SOL    HW210446   3.408   1.213   1.607
 3183SOL     OW10447   2.252   1.741   1.560
 3183SOL    HW110448   2.161   1.782   1.558
 3183SOL    HW210449   2.245   1.647   1.592
 3184SOL     OW10450   3.536   0.883   1.254
 3184SOL    HW110451   3.509   0.794   1.217
 3184SOL    HW210452   3.537   0.951   1.181
 3185SOL     OW10453   3.087   0.325   0.449
 3185SOL    HW110454   3.152   0.251   0.438
 3185SOL    HW210455   3.107   0.375   0.533
 3186SOL     OW10456   2.456   0.745   0.652
 3186SOL    HW110457   2.506   0.830   0.633
 3186SOL    HW210458   2.368   0.747   0.604
 3187SOL     OW10459   3.639   0.342   1.642
 3187SOL    HW110460   3.622   0.373   1.548
 3187SOL    HW210461   3.555   0.305   1.680
 3188SOL     OW10462   3.592   0.934   1.517
 3188SOL    HW110463   3.630   1.025   1.532
 3188SOL    HW210464   3.584   0.917   1.418
 3189SOL     OW10465   2.721   1.374   0.016
 3189SOL    HW110466   2.675   1.389   0.104
 3189SOL    HW210467   2.765   1.459  -0.014
 3190SOL     OW10468   2.523   1.790   0.953
 3190SOL    HW110469   2.477   1.878   0.940
 3190SOL    HW210470   2.622   1.802   0.946
 3191SOL     OW10471   2.721   0.956   0.861
 3191SOL    HW110472   2.775   0.887   0.909
 3191SOL    HW210473   2.689   1.025   0.927
 3192SOL     OW10474   2.945   0.984   0.087
 3192SOL    HW110475   2.922   1.037   0.005
 3192SOL    HW210476   3.026   0.928   0.068
 3193SOL     OW10477   3.723   1.569   0.851
 3193SOL    HW110478   3.652   1.557   0.781
 3193SOL    HW210479   3.724   1.490   0.911
 3194SOL     OW10480   2.083   1.314   1.844
 3194SOL    HW110481   2.018   1.241   1.823
 3194SOL    HW210482   2.087   1.328   1.942
 3195SOL     OW10483   1.941   1.240   0.653
 3195SOL    HW110484   1.940   1.193   0.741
 3195SOL    HW210485   2.023   1.212   0.602
 3196SOL     OW10486   2.534   1.391   1.624
 3196SOL    HW110487   2.456   1.341   1.662
 3196SOL    HW210488   2.531   1.486   1.655
 3197SOL     OW10489   3.686   0.192   1.227
 3197SOL    HW110490   3.682   0.102   1.271
 3197SOL    HW210491   3.689   0.181   1.128
 3198SOL     OW10492   2.290   0.424   0.520
 3198SOL    HW110493   2.320   0.352   0.458
 3198SOL    HW210494   2.251   0.384   0.603
 3199SOL     OW10495   3.567   1.487   1.104
 3199SOL    HW110496   3.474   1.462   1.077
 3199SOL    HW210497   3.593   1.437   1.186
 3200SOL     OW10498   2.179   0.547   1.280
 3200SOL    HW110499   2.217   0.488   1.352
 3200SOL    HW210500   2.219   0.521   1.192
 3201SOL     OW10501   2.674   1.586   0.687
 3201SOL    HW110502   2.706   1.596   0.593
 3201SOL    HW210503   2.595   1.524   0.689
 3202SOL     OW10504   3.286   0.214   1.112
 3202SOL    HW110505   3.338   0.149   1.167
 3202SOL    HW210506   3.237   0.277   1.173
 3203SOL     OW10507   2.863   0.034   1.154
 3203SOL    HW110508   2.800  -0.038   1.123
 3203SOL    HW210509   2.956  -0.002   1.154
 3204SOL     OW10510   2.632   1.330   0.301
 3204SOL    HW110511   2.586   1.243   0.318
 3204SOL    HW210512   2.723   1.327   0.342
 3205SOL     OW10513   2.480   1.567   1.284
 3205SOL    HW110514   2.475   1.649   1.341
 3205SOL    HW210515   2.569   1.564   1.239
 3206SOL     OW10516   3.214   0.052   0.168
 3206SOL    HW110517   3.249   0.011   0.084
 3206SOL    HW210518   3.124   0.014   0.188
 3207SOL     OW10519   3.162   0.453   0.691
 3207SOL    HW110520   3.103   0.533   0.695
 3207SOL    HW210521   3.177   0.418   0.784
 3208SOL     OW10522   3.455   0.221   0.882
 3208SOL    HW110523   3.371   0.220   0.936
 3208SOL    HW210524   3.457   0.304   0.826
 3209SOL     OW10525   1.901   1.077   0.300
 3209SOL    HW110526   2.000   1.066   0.291
 3209SOL    HW210527   1.861   0.991   0.332
 3210SOL     OW10528   2.737   1.646   0.337
 3210SOL    HW110529   2.660   1.611   0.283
 3210SOL    HW210530   2.705   1.717   0.399
 3211SOL     OW10531   2.092   0.628   1.975
 3211SOL    HW110532   1.999   0.626   2.012
 3211SOL    HW210533   2.093   0.589   1.883
 3212SOL     OW10534   2.087   0.275   2.858
 3212SOL    HW110535   2.122   0.258   2.950
 3212SOL    HW210536   1.999   0.230   2.846
 3213SOL     OW10537   1.881   0.368   2.509
 3213SOL    HW110538   1.799   0.411   2.548
 3213SOL    HW210539   1.853   0.295   2.446
 3214SOL     OW10540   2.431   1.275   3.027
 3214SOL    HW110541   2.338   1.268   2.990
 3214SOL    HW210542   2.442   1.364   3.071
 3215SOL     OW10543   3.417   1.511   2.565
 3215SOL    HW110544   3.360   1.495   2.646
 3215SOL    HW210545   3.358   1.521   2.485
 3216SOL     OW10546   2.997   0.703   2.579
 3216SOL    HW110547   3.054   0.781   2.554
 3216SOL    HW210548   2.937   0.729   2.655
 3217SOL     OW10549   3.617   0.607   2.093
 3217SOL    HW110550   3.605   0.594   1.994
 3217SOL    HW210551   3.587   0.526   2.142
 3218SOL     OW10552   2.630   1.144   2.885
 3218SOL    HW110553   2.552   1.161   2.945
 3218SOL    HW210554   2.664   1.231   2.849
 3219SOL     OW10555   2.712   0.798   3.685
 3219SOL    HW110556   2.708   0.874   3.750
 3219SOL    HW210557   2.734   0.834   3.594
 3220SOL     OW10558   2.547   1.012   2.527
 3220SOL    HW110559   2.616   0.996   2.597
 3220SOL    HW210560   2.474   1.069   2.565
 3221SOL     OW10561   2.548   1.161   3.665
 3221SOL    HW110562   2.608   1.240   3.679
 3221SOL    HW210563   2.462   1.192   3.624
 3222SOL     OW10564   2.197   1.435   2.923
 3222SOL    HW110565   2.119   1.404   2.870
 3222SOL    HW210566   2.255   1.493   2.866
 3223SOL     OW10567   3.322   1.505   3.201
 3223SOL    HW110568   3.346   1.599   3.227
 3223SOL    HW210569   3.306   1.451   3.283
 3224SOL     OW10570   2.300   0.392   3.361
 3224SOL    HW110571   2.382   0.336   3.370
 3224SOL    HW210572   2.219   0.334   3.365
 3225SOL     OW10573   3.465   0.447   2.599
 3225SOL    HW110574   3.391   0.493   2.549
 3225SOL    HW210575   3.516   0.515   2.652
 3226SOL     OW10576   2.093   1.713   2.345
 3226SOL    HW110577   2.127   1.790   2.399
 3226SOL    HW210578   2.137   1.713   2.255
 3227SOL     OW10579   2.989   1.341   3.552
 3227SOL    HW110580   3.036   1.341   3.640
 3227SOL    HW210581   2.941   1.254   3.541
 3228SOL     OW10582   2.092   1.434   2.400
 3228SOL    HW110583   2.066   1.530   2.400
 3228SOL    HW210584   2.021   1.380   2.445
 3229SOL     OW10585   2.102   1.091   2.748
 3229SOL    HW110586   2.116   1.007   2.800
 3229SOL    HW210587   2.047   1.155   2.803
 3230SOL     OW10588   2.482   1.786   3.301
 3230SOL    HW110589   2.390   1.769   3.336
 3230SOL    HW210590   2.510   1.878   3.327
 3231SOL     OW10591   2.468   0.964   1.985
 3231SOL    HW110592   2.475   1.048   1.931
 3231SOL    HW210593   2.514   0.977   2.073
 3232SOL     OW10594   3.456   0.114   3.342
 3232SOL    HW110595   3.438   0.181   3.270
 3232SOL    HW210596   3.453   0.160   3.431
 3233SOL     OW10597   1.984   0.643   2.425
 3233SOL    HW110598   1.939   0.555   2.442
 3233SOL    HW210599   1.983   0.697   2.509
 3234SOL     OW10600   3.704   1.767   2.221
 3234SOL    HW110601   3.758   1.738   2.301
 3234SOL    HW210602   3.734   1.857   2.192
 3235SOL     OW10603   1.889   1.596   1.979
 3235SOL    HW110604   1.870   1.500   2.000
 3235SOL    HW210605   1.856   1.654   2.054
 3236SOL     OW10606   3.551   0.922   2.474
 3236SOL    HW110607   3.646   0.893   2.482
 3236SOL    HW210608   3.543   0.987   2.399
 3237SOL     OW10609   3.503   1.108   2.294
 3237SOL    HW110610   3.589   1.110   2.242
 3237SOL    HW210611   3.517   1.155   2.382
 3238SOL     OW10612   1.975   0.737   3.459
 3238SOL    HW110613   2.063   0.724   3.504
 3238SOL    HW210614   1.962   0.834   3.437
 3239SOL     OW10615   2.475   1.365   2.588
 3239SOL    HW110616   2.426   1.278   2.597
 3239SOL    HW210617   2.452   1.408   2.501
 3240SOL     OW10618   3.155   1.228   3.285
 3240SOL    HW110619   3.192   1.155   3.227
 3240SOL    HW210620   3.207   1.233   3.370
 3241SOL     OW10621   2.671   0.004   2.364
 3241SOL    HW110622   2.711   0.095   2.355
 3241SOL    HW210623   2.571   0.012   2.370
 3242SOL     OW10624   2.059   0.976   3.126
 3242SOL    HW110625   2.148   0.931   3.112
 3242SOL    HW210626   1.986   0.911   3.107
 3243SOL     OW10627   3.387   0.999   2.052
 3243SOL    HW110628   3.324   0.923   2.065
 3243SOL    HW210629   3.435   1.017   2.138
 3244SOL     OW10630   3.049   1.792   3.478
 3244SOL    HW110631   3.073   1.852   3.402
 3244SOL    HW210632   3.056   1.697   3.448
 3245SOL     OW10633   2.179   0.251   3.663
 3245SOL    HW110634   2.250   0.322   3.669
 3245SOL    HW210635   2.091   0.290   3.691
 3246SOL     OW10636   3.328   1.417   2.815
 3246SOL    HW110637   3.269   1.423   2.895
 3246SOL    HW210638   3.313   1.329   2.769
 3247SOL     OW10639   3.529   1.714   2.434
 3247SOL    HW110640   3.488   1.691   2.346
 3247SOL    HW210641   3.511   1.640   2.499
 3248SOL     OW10642   2.460   0.729   2.132
 3248SOL    HW110643   2.484   0.798   2.064
 3248SOL    HW210644   2.382   0.762   2.186
 3249SOL     OW10645   3.143   0.345   2.806
 3249SOL    HW110646   3.057   0.295   2.793
 3249SOL    HW210647   3.205   0.291   2.862
 3250SOL     OW10648   3.438   1.662   2.169
 3250SOL    HW110649   3.527   1.708   2.172
 3250SOL    HW210650   3.417   1.638   2.074
 3251SOL     OW10651   2.669   0.605   3.327
 3251SOL    HW110652   2.622   0.602   3.416
 3251SOL    HW210653   2.618   0.550   3.261
 3252SOL     OW10654   3.256   0.469   3.536
 3252SOL    HW110655   3.236   0.512   3.624
 3252SOL    HW210656   3.334   0.407   3.545
 3253SOL     OW10657   2.835   0.890   3.434
 3253SOL    HW110658   2.881   0.806   3.405
 3253SOL    HW210659   2.779   0.924   3.359
 3254SOL     OW10660   2.853   0.410   3.104
 3254SOL    HW110661   2.776   0.444   3.158
 3254SOL    HW210662   2.819   0.359   3.025
 3255SOL     OW10663   2.903   0.701   2.291
 3255SOL    HW110664   2.929   0.697   2.387
 3255SOL    HW210665   2.818   0.650   2.277
 3256SOL     OW10666   1.938   0.811   2.651
 3256SOL    HW110667   2.037   0.799   2.660
 3256SOL    HW210668   1.914   0.906   2.672
 3257SOL     OW10669   1.992   1.821   3.433
 3257SOL    HW110670   1.982   1.806   3.532
 3257SOL    HW210671   1.906   1.857   3.397
 3258SOL     OW10672   2.727   0.348   2.057
 3258SOL    HW110673   2.786   0.411   2.008
 3258SOL    HW210674   2.746   0.254   2.028
 3259SOL     OW10675   3.581   0.585   3.693
 3259SOL    HW110676   3.555   0.674   3.657
 3259SOL    HW210677   3.579   0.517   3.620
 3260SOL     OW10678   3.224   1.144   2.407
 3260SOL    HW110679   3.307   1.115   2.359
 3260SOL    HW210680   3.175   1.211   2.351
 3261SOL     OW10681   2.412   0.196   2.747
 3261SOL    HW110682   2.407   0.191   2.847
 3261SOL    HW210683   2.414   0.292   2.718
 3262SOL     OW10684   2.870   1.456   2.339
 3262SOL    HW110685   2.824   1.528   2.287
 3262SOL    HW210686   2.866   1.476   2.437
 3263SOL     OW10687   2.213   1.801   2.715
 3263SOL    HW110688   2.263   1.715   2.721
 3263SOL    HW210689   2.278   1.878   2.712
 3264SOL     OW10690   3.657   1.066   2.735
 3264SOL    HW110691   3.595   1.051   2.659
 3264SOL    HW210692   3.605   1.077   2.820
 3265SOL     OW10693   3.089   1.550   3.368
 3265SOL    HW110694   3.095   1.473   3.432
 3265SOL    HW210695   3.037   1.524   3.288
 3266SOL     OW10696   2.183   0.943   2.104
 3266SOL    HW110697   2.265   0.982   2.062
 3266SOL    HW210698   2.156   0.861   2.055
 3267SOL     OW10699   3.320   0.735   2.590
 3267SOL    HW110700   3.315   0.670   2.665
 3267SOL    HW210701   3.400   0.794   2.603
 3268SOL     OW10702   2.323   1.266   3.589
 3268SOL    HW110703   2.273   1.267   3.503
 3268SOL    HW210704   2.260   1.248   3.665
 3269SOL     OW10705   2.973   1.776   2.099
 3269SOL    HW110706   2.913   1.714   2.149
 3269SOL    HW210707   3.004   1.732   2.014
 3270SOL     OW10708   2.064   0.285   3.360
 3270SOL    HW110709   1.984   0.345   3.347
 3270SOL    HW210710   2.054   0.236   3.446
 3271SOL     OW10711   3.494   1.377   1.943
 3271SOL    HW110712   3.462   1.471   1.933
 3271SOL    HW210713   3.418   1.314   1.931
 3272SOL     OW10714   2.326   1.743   2.185
 3272SOL    HW110715   2.359   1.782   2.271
 3272SOL    HW210716   2.402   1.736   2.120
 3273SOL     OW10717   3.262   0.107   2.288
 3273SOL    HW110718   3.238   0.070   2.198
 3273SOL    HW210719   3.361   0.123   2.292
 3274SOL     OW10720   2.111   1.785   3.103
 3274SOL    HW110721   2.168   1.720   3.153
 3274SOL    HW210722   2.095   1.752   3.010
 3275SOL     OW10723   2.802   1.698   2.766
 3275SOL    HW110724   2.882   1.641   2.787
 3275SOL    HW210725   2.753   1.658   2.689
 3276SOL     OW10726   2.244   0.700   2.342
 3276SOL    HW110727   2.289   0.610   2.339
 3276SOL    HW210728   2.150   0.689   2.375
 3277SOL     OW10729   3.409   0.222   3.591
 3277SOL    HW110730   3.404   0.259   3.683
 3277SOL    HW210731   3.337   0.153   3.579
 3278SOL     OW10732   2.476   0.122   1.979
 3278SOL    HW110733   2.574   0.100   1.986
 3278SOL    HW210734   2.445   0.105   1.886
 3279SOL     OW10735   2.643   0.264   3.611
 3279SOL    HW110736   2.710   0.203   3.654
 3279SOL    HW210737   2.570   0.283   3.676
 3280SOL     OW10738   2.750   1.514   3.057
 3280SOL    HW110739   2.727   1.489   2.963
 3280SOL    HW210740   2.811   1.445   3.096
 3281SOL     OW10741   3.213   0.590   3.295
 3281SOL    HW110742   3.241   0.547   3.380
 3281SOL    HW210743   3.238   0.686   3.296
 3282SOL     OW10744   2.665   1.402   2.786
 3282SOL    HW110745   2.755   1.416   2.744
 3282SOL    HW210746   2.594   1.404   2.715
 3283SOL     OW10747   2.784   0.503   2.761
 3283SOL    HW110748   2.759   0.494   2.665
 3283SOL    HW210749   2.832   0.421   2.792
 3284SOL     OW10750   2.401   0.064   2.374
 3284SOL    HW110751   2.320   0.065   2.432
 3284SOL    HW210752   2.404   0.147   2.319
 3285SOL     OW10753   3.296   1.188   1.903
 3285SOL    HW110754   3.328   1.112   1.960
 3285SOL    HW210755   3.204   1.215   1.933
 3286SOL     OW10756   2.159   0.035   2.033
 3286SOL    HW110757   2.208   0.119   2.012
 3286SOL    HW210758   2.221  -0.030   2.078
 3287SOL     OW10759   2.797   0.236   2.342
 3287SOL    HW110760   2.749   0.277   2.264
 3287SOL    HW210761   2.896   0.234   2.323
 3288SOL     OW10762   2.938   0.683   3.326
 3288SOL    HW110763   2.858   0.622   3.329
 3288SOL    HW210764   3.019   0.630   3.302
 3289SOL     OW10765   3.089   1.570   2.655
 3289SOL    HW110766   3.110   1.644   2.590
 3289SOL    HW210767   3.157   1.570   2.728
 3290SOL     OW10768   2.321   1.152   2.603
 3290SOL    HW110769   2.250   1.125   2.668
 3290SOL    HW210770   2.295   1.124   2.510
 3291SOL     OW10771   3.133   1.797   2.453
 3291SOL    HW110772   3.177   1.861   2.389
 3291SOL    HW210773   3.083   1.849   2.523
 3292SOL     OW10774   2.894   0.549   1.878
 3292SOL    HW110775   2.853   0.631   1.839
 3292SOL    HW210776   2.958   0.575   1.951
 3293SOL     OW10777   1.940   0.556   3.248
 3293SOL    HW110778   2.032   0.555   3.207
 3293SOL    HW210779   1.934   0.630   3.315
 3294SOL     OW10780   2.423   0.222   3.009
 3294SOL    HW110781   2.461   0.138   3.046
 3294SOL    HW210782   2.335   0.241   3.053
 3295SOL     OW10783   2.728   0.454   2.504
 3295SOL    HW110784   2.696   0.526   2.442
 3295SOL    HW210785   2.752   0.373   2.451
 3296SOL     OW10786   2.879   0.039   2.615
 3296SOL    HW110787   2.807   0.044   2.546
 3296SOL    HW210788   2.855  -0.030   2.684
 3297SOL     OW10789   3.291   1.173   2.729
 3297SOL    HW110790   3.236   1.089   2.722
 3297SOL    HW210791   3.317   1.202   2.637
 3298SOL     OW10792   3.328   0.590   2.854
 3298SOL    HW110793   3.298   0.495   2.861
 3298SOL    HW210794   3.401   0.606   2.920
 3299SOL     OW10795   3.719   0.833   2.239
 3299SOL    HW110796   3.761   0.769   2.303
 3299SOL    HW210797   3.681   0.782   2.161
 3300SOL     OW10798   2.350   1.385   2.036
 3300SOL    HW110799   2.263   1.370   2.083
 3300SOL    HW210800   2.333   1.411   1.941
 3301SOL     OW10801   3.526   1.280   2.519
 3301SOL    HW110802   3.625   1.288   2.533
 3301SOL    HW210803   3.481   1.364   2.550
 3302SOL     OW10804   3.252   0.575   1.940
 3302SOL    HW110805   3.198   0.554   2.021
 3302SOL    HW210806   3.343   0.534   1.949
 3303SOL     OW10807   2.389   0.256   2.190
 3303SOL    HW110808   2.416   0.197   2.115
 3303SOL    HW210809   2.389   0.351   2.159
 3304SOL     OW10810   3.616   1.223   3.450
 3304SOL    HW110811   3.707   1.184   3.437
 3304SOL    HW210812   3.624   1.319   3.474
 3305SOL     OW10813   2.926   1.347   3.202
 3305SOL    HW110814   2.846   1.324   3.257
 3305SOL    HW210815   3.009   1.321   3.251
 3306SOL     OW10816   3.454   1.629   3.487
 3306SOL    HW110817   3.481   1.663   3.397
 3306SOL    HW210818   3.533   1.591   3.533
 3307SOL     OW10819   2.973   1.195   2.962
 3307SOL    HW110820   2.933   1.239   3.043
 3307SOL    HW210821   2.932   1.232   2.879
 3308SOL     OW10822   3.500   1.099   2.941
 3308SOL    HW110823   3.505   1.180   3.000
 3308SOL    HW210824   3.414   1.101   2.890
 3309SOL     OW10825   2.777   0.089   3.264
 3309SOL    HW110826   2.802   0.069   3.169
 3309SOL    HW210827   2.849   0.145   3.306
 3310SOL     OW10828   2.842   1.116   3.581
 3310SOL    HW110829   2.743   1.122   3.591
 3310SOL    HW210830   2.865   1.036   3.525
 3311SOL     OW10831   2.567   1.050   2.230
 3311SOL    HW110832   2.553   1.057   2.329
 3311SOL    HW210833   2.651   0.999   2.212
 3312SOL     OW10834   2.272   0.813   3.113
 3312SOL    HW110835   2.358   0.825   3.163
 3312SOL    HW210836   2.230   0.726   3.140
 3313SOL     OW10837   3.136   0.386   3.124
 3313SOL    HW110838   3.157   0.460   3.188
 3313SOL    HW210839   3.047   0.403   3.081
 3314SOL     OW10840   1.926   1.564   3.193
 3314SOL    HW110841   1.880   1.646   3.159
 3314SOL    HW210842   2.024   1.583   3.202
 3315SOL     OW10843   2.229   1.100   2.363
 3315SOL    HW110844   2.222   1.183   2.307
 3315SOL    HW210845   2.233   1.020   2.303
 3316SOL     OW10846   2.428   0.537   2.727
 3316SOL    HW110847   2.440   0.603   2.653
 3316SOL    HW210848   2.474   0.571   2.810
 3317SOL     OW10849   3.114   1.348   2.250
 3317SOL    HW110850   3.164   1.425   2.290
 3317SOL    HW210851   3.019   1.350   2.282
 3318SOL     OW10852   3.134   1.445   3.004
 3318SOL    HW110853   3.181   1.458   3.091
 3318SOL    HW210854   3.068   1.371   3.013
 3319SOL     OW10855   3.444   0.639   2.334
 3319SOL    HW110856   3.413   0.700   2.407
 3319SOL    HW210857   3.494   0.691   2.265
 3320SOL     OW10858   2.216   1.510   3.191
 3320SOL    HW110859   2.195   1.466   3.104
 3320SOL    HW210860   2.313   1.536   3.194
 3321SOL     OW10861   2.264   0.751   3.460
 3321SOL    HW110862   2.332   0.806   3.413
 3321SOL    HW210863   2.304   0.663   3.487
 3322SOL     OW10864   3.449   0.779   3.532
 3322SOL    HW110865   3.357   0.817   3.527
 3322SOL    HW210866   3.509   0.826   3.467
 3323SOL     OW10867   2.875   0.105   3.632
 3323SOL    HW110868   2.881   0.190   3.580
 3323SOL    HW210869   2.907   0.029   3.575
 3324SOL     OW10870   2.366   0.050   3.602
 3324SOL    HW110871   2.324  -0.007   3.532
 3324SOL    HW210872   2.300   0.119   3.634
 3325SOL     OW10873   2.435   0.870   2.891
 3325SOL    HW110874   2.479   0.959   2.882
 3325SOL    HW210875   2.372   0.870   2.968
 3326SOL     OW10876   3.222   0.862   2.907
 3326SOL    HW110877   3.147   0.862   2.841
 3326SOL    HW210878   3.259   0.770   2.916
 3327SOL     OW10879   3.071   0.525   2.137
 3327SOL    HW110880   3.084   0.441   2.191
 3327SOL    HW210881   3.042   0.599   2.197
 3328SOL     OW10882   2.169   0.213   3.093
 3328SOL    HW110883   2.146   0.250   3.183
 3328SOL    HW210884   2.139   0.118   3.087
 3329SOL     OW10885   1.899   1.310   3.144
 3329SOL    HW110886   1.952   1.261   3.212
 3329SOL    HW210887   1.921   1.408   3.149
 3330SOL     OW10888   2.594   0.634   2.926
 3330SOL    HW110889   2.653   0.608   2.850
 3330SOL    HW210890   2.566   0.730   2.915
 3331SOL     OW10891   3.590   0.935   3.716
 3331SOL    HW110892   3.544   0.928   3.627
 3331SOL    HW210893   3.528   0.979   3.782
 3332SOL     OW10894   2.169   0.063   2.480
 3332SOL    HW110895   2.158   0.157   2.513
 3332SOL    HW210896   2.164   0.000   2.557
 3333SOL     OW10897   3.484   0.367   2.236
 3333SOL    HW110898   3.486   0.291   2.300
 3333SOL    HW210899   3.436   0.444   2.276
 3334SOL     OW10900   2.885   0.766   2.828
 3334SOL    HW110901   2.900   0.787   2.924
 3334SOL    HW210902   2.855   0.671   2.819
 3335SOL     OW10903   2.842   1.573   3.562
 3335SOL    HW110904   2.822   1.617   3.474
 3335SOL    HW210905   2.881   1.482   3.546
 3336SOL     OW10906   3.721   1.518   3.467
 3336SOL    HW110907   3.735   1.545   3.372
 3336SOL    HW210908   3.804   1.540   3.520
 3337SOL     OW10909   2.212   0.898   3.666
 3337SOL    HW110910   2.288   0.942   3.714
 3337SOL    HW210911   2.247   0.851   3.584
 3338SOL     OW10912   3.402   0.274   1.987
 3338SOL    HW110913   3.341   0.199   2.010
 3338SOL    HW210914   3.424   0.326   2.070
 3339SOL     OW10915   3.165   0.838   1.904
 3339SOL    HW110916   3.199   0.745   1.919
 3339SOL    HW210917   3.183   0.865   1.809
 3340SOL     OW10918   2.930   1.333   2.711
 3340SOL    HW110919   2.937   1.249   2.656
 3340SOL    HW210920   2.992   1.402   2.675
 3341SOL     OW10921   2.181   0.810   2.811
 3341SOL    HW110922   2.274   0.846   2.816
 3341SOL    HW210923   2.175   0.725   2.863
 3342SOL     OW10924   2.201   0.509   2.868
 3342SOL    HW110925   2.149   0.426   2.851
 3342SOL    HW210926   2.278   0.514   2.804
 3343SOL     OW10927   3.000   0.380   3.540
 3343SOL    HW110928   2.955   0.443   3.604
 3343SOL    HW210929   3.093   0.411   3.523
 3344SOL     OW10930   3.022   0.207   3.339
 3344SOL    HW110931   3.022   0.271   3.416
 3344SOL    HW210932   3.050   0.255   3.256
 3345SOL     OW10933   1.870   1.326   2.062
 3345SOL    HW110934   1.777   1.347   2.031
 3345SOL    HW210935   1.880   1.227   2.075
 3346SOL     OW10936   1.950   1.801   2.789
 3346SOL    HW110937   1.908   1.715   2.762
 3346SOL    HW210938   2.044   1.804   2.755
 3347SOL     OW10939   2.366   1.568   2.772
 3347SOL    HW110940   2.432   1.642   2.781
 3347SOL    HW210941   2.410   1.489   2.730
 3348SOL     OW10942   2.864   0.796   3.100
 3348SOL    HW110943   2.905   0.764   3.186
 3348SOL    HW210944   2.768   0.769   3.097
 3349SOL     OW10945   1.902   0.544   2.976
 3349SOL    HW110946   1.987   0.511   2.935
 3349SOL    HW210947   1.915   0.559   3.074
 3350SOL     OW10948   2.051   0.520   3.584
 3350SOL    HW110949   2.110   0.480   3.514
 3350SOL    HW210950   1.993   0.591   3.543
 3351SOL     OW10951   3.231   0.950   3.522
 3351SOL    HW110952   3.270   1.039   3.542
 3351SOL    HW210953   3.241   0.930   3.425
 3352SOL     OW10954   2.677   0.572   2.187
 3352SOL    HW110955   2.684   0.483   2.141
 3352SOL    HW210956   2.583   0.606   2.179
 3353SOL     OW10957   3.519   0.604   3.068
 3353SOL    HW110958   3.481   0.535   3.130
 3353SOL    HW210959   3.601   0.568   3.024
 3354SOL     OW10960   2.114   1.564   3.606
 3354SOL    HW110961   2.084   1.621   3.682
 3354SOL    HW210962   2.107   1.467   3.632
 3355SOL     OW10963   2.533   0.464   3.131
 3355SOL    HW110964   2.499   0.375   3.101
 3355SOL    HW210965   2.559   0.518   3.051
 3356SOL     OW10966   2.792   1.678   3.327
 3356SOL    HW110967   2.768   1.660   3.232
 3356SOL    HW210968   2.822   1.772   3.337
 3357SOL     OW10969   2.335   0.500   2.053
 3357SOL    HW110970   2.396   0.580   2.057
 3357SOL    HW210971   2.240   0.531   2.060
 3358SOL     OW10972   2.021   1.137   3.328
 3358SOL    HW110973   2.043   1.076   3.404
 3358SOL    HW210974   2.031   1.088   3.242
 3359SOL     OW10975   3.209   1.059   3.096
 3359SOL    HW110976   3.233   0.996   3.022
 3359SOL    HW210977   3.119   1.099   3.078
 3360SOL     OW10978   3.164   0.855   2.171
 3360SOL    HW110979   3.078   0.824   2.213
 3360SOL    HW210980   3.160   0.841   2.072
 3361SOL     OW10981   3.621   1.747   3.016
 3361SOL    HW110982   3.682   1.777   2.943
 3361SOL    HW210983   3.583   1.658   2.994
 3362SOL     OW10984   3.114   1.731   2.990
 3362SOL    HW110985   3.198   1.736   2.936
 3362SOL    HW210986   3.091   1.635   3.008
 3363SOL     OW10987   1.945   1.258   2.884
 3363SOL    HW110988   1.940   1.257   2.984
 3363SOL    HW210989   1.862   1.217   2.846
 3364SOL     OW10990   2.550   1.662   3.578
 3364SOL    HW110991   2.494   1.743   3.587
 3364SOL    HW210992   2.602   1.666   3.492
 3365SOL     OW10993   3.588   0.135   2.385
 3365SOL    HW110994   3.661   0.118   2.318
 3365SOL    HW210995   3.557   0.048   2.423
 3366SOL     OW10996   3.250   1.573   2.339
 3366SOL    HW110997   3.317   1.585   2.265
 3366SOL    HW210998   3.210   1.662   2.362
 3367SOL     OW10999   1.992   1.794   3.713
 3367SOL    HW111000   1.951   1.720   3.766
 3367SOL    HW211001   2.056   1.845   3.771
 3368SOL     OW11002   3.142   0.927   2.534
 3368SOL    HW111003   3.202   0.846   2.536
 3368SOL    HW211004   3.182   0.996   2.474
 3369SOL     OW11005   2.692   1.273   3.284
 3369SOL    HW111006   2.687   1.306   3.379
 3369SOL    HW211007   2.606   1.292   3.238
 3370SOL     OW11008   2.534   1.616   2.016
 3370SOL    HW111009   2.543   1.626   1.917
 3370SOL    HW211010   2.494   1.527   2.037
 3371SOL     OW11011   3.512   1.720   3.256
 3371SOL    HW111012   3.565   1.730   3.172
 3371SOL    HW211013   3.485   1.810   3.290
 3372SOL     OW11014   3.703   0.175   2.825
 3372SOL    HW111015   3.742   0.090   2.789
 3372SOL    HW211016   3.605   0.177   2.806
 3373SOL     OW11017   2.125   0.326   2.582
 3373SOL    HW111018   2.046   0.377   2.548
 3373SOL    HW211019   2.116   0.311   2.680
 3374SOL     OW11020   3.056   1.612   1.893
 3374SOL    HW111021   3.062   1.519   1.930
 3374SOL    HW211022   2.997   1.612   1.813
 3375SOL     OW11023   2.684   1.002   3.234
 3375SOL    HW111024   2.724   1.001   3.142
 3375SOL    HW211025   2.694   1.094   3.274
 3376SOL     OW11026   2.778   0.910   2.153
 3376SOL    HW111027   2.841   0.948   2.085
 3376SOL    HW211028   2.818   0.827   2.192
 3377SOL     OW11029   3.366   1.607   1.906
 3377SOL    HW111030   3.274   1.644   1.913
 3377SOL    HW211031   3.404   1.627   1.816
 3378SOL     OW11032   2.234   1.288   3.352
 3378SOL    HW111033   2.221   1.381   3.318
 3378SOL    HW211034   2.150   1.236   3.339
 3379SOL     OW11035   3.476   1.292   3.151
 3379SOL    HW111036   3.536   1.295   3.231
 3379SOL    HW211037   3.401   1.356   3.164
 3380SOL     OW11038   2.901   1.098   2.558
 3380SOL    HW111039   2.831   1.051   2.612
 3380SOL    HW211040   2.960   1.030   2.515
 3381SOL     OW11041   2.876   0.236   2.833
 3381SOL    HW111042   2.868   0.200   2.740
 3381SOL    HW211043   2.874   0.160   2.898
 3382SOL     OW11044   2.452   1.487   2.353
 3382SOL    HW111045   2.494   1.429   2.283
 3382SOL    HW211046   2.408   1.566   2.309
 3383SOL     OW11047   3.571   0.385   3.243
 3383SOL    HW111048   3.644   0.454   3.247
 3383SOL    HW211049   3.599   0.310   3.184
 3384SOL     OW11050   2.117   1.348   2.152
 3384SOL    HW111051   2.021   1.349   2.125
 3384SOL    HW211052   2.129   1.401   2.236
 3385SOL     OW11053   1.967   1.013   3.588
 3385SOL    HW111054   1.890   0.980   3.642
 3385SOL    HW211055   2.052   0.983   3.630
 3386SOL     OW11056   2.534   0.203   3.351
 3386SOL    HW111057   2.624   0.187   3.311
 3386SOL    HW211058   2.542   0.208   3.450
 3387SOL     OW11059   1.937   0.345   1.895
 3387SOL    HW111060   1.845   0.317   1.866
 3387SOL    HW211061   1.968   0.422   1.839
 3388SOL     OW11062   3.302   0.856   3.260
 3388SOL    HW111063   3.245   0.908   3.197
 3388SOL    HW211064   3.398   0.868   3.236
 3389SOL     OW11065   1.934   0.166   2.180
 3389SOL    HW111066   1.917   0.249   2.126
 3389SOL    HW211067   2.024   0.129   2.158
 3390SOL     OW11068   3.045   1.335   1.981
 3390SOL    HW111069   2.946   1.324   1.983
 3390SOL    HW211070   3.079   1.350   2.074
 3391SOL     OW11071   2.475   0.842   3.293
 3391SOL    HW111072   2.531   0.923   3.276
 3391SOL    HW211073   2.534   0.762   3.296
 3392SOL     OW11074   3.355   1.767   2.821
 3392SOL    HW111075   3.388   1.831   2.752
 3392SOL    HW211076   3.421   1.761   2.896
 3393SOL     OW11077   2.578   0.565   3.570
 3393SOL    HW111078   2.597   0.630   3.644
 3393SOL    HW211079   2.638   0.485   3.579
 3394SOL     OW11080   3.312   1.220   3.495
 3394SOL    HW111081   3.303   1.210   3.594
 3394SOL    HW211082   3.408   1.213   3.469
 3395SOL     OW11083   2.252   1.741   3.422
 3395SOL    HW111084   2.161   1.782   3.420
 3395SOL    HW211085   2.245   1.647   3.454
 3396SOL     OW11086   3.536   0.883   3.116
 3396SOL    HW111087   3.509   0.794   3.079
 3396SOL    HW211088   3.537   0.951   3.043
 3397SOL     OW11089   3.087   0.325   2.311
 3397SOL    HW111090   3.152   0.251   2.300
 3397SOL    HW211091   3.107   0.375   2.395
 3398SOL     OW11092   2.456   0.745   2.514
 3398SOL    HW111093   2.506   0.830   2.495
 3398SOL    HW211094   2.368   0.747   2.466
 3399SOL     OW11095   3.639   0.342   3.504
 3399SOL    HW111096   3.622   0.373   3.410
 3399SOL    HW211097   3.555   0.305   3.542
 3400SOL     OW11098   3.592   0.934   3.379
 3400SOL    HW111099   3.630   1.025   3.394
 3400SOL    HW211100   3.584   0.917   3.280
 3401SOL     OW11101   2.721   1.374   1.878
 3401SOL    HW111102   2.675   1.389   1.966
 3401SOL    HW211103   2.765   1.459   1.848
 3402SOL     OW11104   2.523   1.790   2.815
 3402SOL    HW111105   2.477   1.878   2.802
 3402SOL    HW211106   2.622   1.802   2.808
 3403SOL     OW11107   2.721   0.956   2.723
 3403SOL    HW111108   2.775   0.887   2.771
 3403SOL    HW211109   2.689   1.025   2.789
 3404SOL     OW11110   2.945   0.984   1.949
 3404SOL    HW111111   2.922   1.037   1.867
 3404SOL    HW211112   3.026   0.928   1.930
 3405SOL     OW11113   3.723   1.569   2.713
 3405SOL    HW111114   3.652   1.557   2.643
 3405SOL    HW211115   3.724   1.490   2.773
 3406SOL     OW11116   2.083   1.314   3.706
 3406SOL    HW111117   2.018   1.241   3.685
 3406SOL    HW211118   2.087   1.328   3.804
 3407SOL     OW11119   1.941   1.240   2.515
 3407SOL    HW111120   1.940   1.193   2.603
 3407SOL    HW211121   2.023   1.212   2.464
 3408SOL     OW11122   2.534   1.391   3.486
 3408SOL    HW111123   2.456   1.341   3.524
 3408SOL    HW211124   2.531   1.486   3.517
 3409SOL     OW11125   3.686   0.192   3.089
 3409SOL    HW111126   3.682   0.102   3.133
 3409SOL    HW211127   3.689   0.181   2.990
 3410SOL     OW11128   2.290   0.424   2.382
 3410SOL    HW111129   2.320   0.352   2.320
 3410SOL    HW211130   2.251   0.384   2.465
 3411SOL     OW11131   3.567   1.487   2.966
 3411SOL    HW111132   3.474   1.462   2.939
 3411SOL    HW211133   3.593   1.437   3.048
 3412SOL     OW11134   2.179   0.547   3.142
 3412SOL    HW111135   2.217   0.488   3.214
 3412SOL    HW211136   2.219   0.521   3.054
 3413SOL     OW11137   2.674   1.586   2.549
 3413SOL    HW111138   2.706   1.596   2.455
 3413SOL    HW211139   2.595   1.524   2.551
 3414SOL     OW11140   3.286   0.214   2.974
 3414SOL    HW111141   3.338   0.149   3.029
 3414SOL    HW211142   3.237   0.277   3.035
 3415SOL     OW11143   2.863   0.034   3.016
 3415SOL    HW111144   2.800  -0.038   2.985
 3415SOL    HW211145   2.956  -0.002   3.016
 3416SOL     OW11146   2.632   1.330   2.163
 3416SOL    HW111147   2.586   1.243   2.180
 3416SOL    HW211148   2.723   1.327   2.204
 3417SOL     OW11149   2.480   1.567   3.146
 3417SOL    HW111150   2.475   1.649   3.203
 3417SOL    HW211151   2.569   1.564   3.101
 3418SOL     OW11152   3.214   0.052   2.030
 3418SOL    HW111153   3.249   0.011   1.946
 3418SOL    HW211154   3.124   0.014   2.050
 3419SOL     OW11155   3.162   0.453   2.553
 3419SOL    HW111156   3.103   0.533   2.557
 3419SOL    HW211157   3.177   0.418   2.646
 3420SOL     OW11158   3.455   0.221   2.744
 3420SOL    HW111159   3.371   0.220   2.798
 3420SOL    HW211160   3.457   0.304   2.688
 3421SOL     OW11161   1.901   1.077   2.162
 3421SOL    HW111162   2.000   1.066   2.153
 3421SOL    HW211163   1.861   0.991   2.194
 3422SOL     OW11164   2.737   1.646   2.199
 3422SOL    HW111165   2.660   1.611   2.145
 3422SOL    HW211166   2.705   1.717   2.261
 3423SOL     OW11167   2.092   0.628   3.837
 3423SOL    HW111168   1.999   0.626   3.874
 3423SOL    HW211169   2.093   0.589   3.745
 3424SOL     OW11170   2.087   0.275   4.720
 3424SOL    HW111171   2.122   0.258   4.812
 3424SOL    HW211172   1.999   0.230   4.708
 3425SOL     OW11173   1.881   0.368   4.371
 3425SOL    HW111174   1.799   0.411   4.410
 3425SOL    HW211175   1.853   0.295   4.308
 3426SOL     OW11176   2.431   1.275   4.889
 3426SOL    HW111177   2.338   1.268   4.852
 3426SOL    HW211178   2.442   1.364   4.933
 3427SOL     OW11179   3.417   1.511   4.427
 3427SOL    HW111180   3.360   1.495   4.508
 3427SOL    HW211181   3.358   1.521   4.347
 3428SOL     OW11182   2.997   0.703   4.441
 3428SOL    HW111183   3.054   0.781   4.416
 3428SOL    HW211184   2.937   0.729   4.517
 3429SOL     OW11185   3.617   0.607   3.955
 3429SOL    HW111186   3.605   0.594   3.856
 3429SOL    HW211187   3.587   0.526   4.004
 3430SOL     OW11188   2.630   1.144   4.747
 3430SOL    HW111189   2.552   1.161   4.807
 3430SOL    HW211190   2.664   1.231   4.711
 3431SOL     OW11191   2.712   0.798   5.547
 3431SOL    HW111192   2.708   0.874   5.612
 3431SOL    HW211193   2.734   0.834   5.456
 3432SOL     OW11194   2.547   1.012   4.389
 3432SOL    HW111195   2.616   0.996   4.459
 3432SOL    HW211196   2.474   1.069   4.427
 3433SOL     OW11197   2.548   1.161   5.527
 3433SOL    HW111198   2.608   1.240   5.541
 3433SOL    HW211199   2.462   1.192   5.486
 3434SOL     OW11200   2.197   1.435   4.785
 3434SOL    HW111201   2.119   1.404   4.732
 3434SOL    HW211202   2.255   1.493   4.728
 3435SOL     OW11203   3.322   1.505   5.063
 3435SOL    HW111204   3.346   1.599   5.089
 3435SOL    HW211205   3.306   1.451   5.145
 3436SOL     OW11206   2.300   0.392   5.223
 3436SOL    HW111207   2.382   0.336   5.232
 3436SOL    HW211208   2.219   0.334   5.227
 3437SOL     OW11209   3.465   0.447   4.461
 3437SOL    HW111210   3.391   0.493   4.411
 3437SOL    HW211211   3.516   0.515   4.514
 3438SOL     OW11212   2.093   1.713   4.207
 3438SOL    HW111213   2.127   1.790   4.261
 3438SOL    HW211214   2.137   1.713   4.117
 3439SOL     OW11215   2.989   1.341   5.414
 3439SOL    HW111216   3.036   1.341   5.502
 3439SOL    HW211217   2.941   1.254   5.403
 3440SOL     OW11218   2.092   1.434   4.262
 3440SOL    HW111219   2.066   1.530   4.262
 3440SOL    HW211220   2.021   1.380   4.307
 3441SOL     OW11221   2.102   1.091   4.610
 3441SOL    HW111222   2.116   1.007   4.662
 3441SOL    HW211223   2.047   1.155   4.665
 3442SOL     OW11224   2.482   1.786   5.163
 3442SOL    HW111225   2.390   1.769   5.198
 3442SOL    HW211226   2.510   1.878   5.189
 3443SOL     OW11227   2.468   0.964   3.847
 3443SOL    HW111228   2.475   1.048   3.793
 3443SOL    HW211229   2.514   0.977   3.935
 3444SOL     OW11230   3.456   0.114   5.204
 3444SOL    HW111231   3.438   0.181   5.132
 3444SOL    HW211232   3.453   0.160   5.293
 3445SOL     OW11233   1.984   0.643   4.287
 3445SOL    HW111234   1.939   0.555   4.304
 3445SOL    HW211235   1.983   0.697   4.371
 3446SOL     OW11236   3.704   1.767   4.083
 3446SOL    HW111237   3.758   1.738   4.163
 3446SOL    HW211238   3.734   1.857   4.054
 3447SOL     OW11239   1.889   1.596   3.841
 3447SOL    HW111240   1.870   1.500   3.862
 3447SOL    HW211241   1.856   1.654   3.916
 3448SOL     OW11242   3.551   0.922   4.336
 3448SOL    HW111243   3.646   0.893   4.344
 3448SOL    HW211244   3.543   0.987   4.261
 3449SOL     OW11245   3.503   1.108   4.156
 3449SOL    HW111246   3.589   1.110   4.104
 3449SOL    HW211247   3.517   1.155   4.244
 3450SOL     OW11248   1.975   0.737   5.321
 3450SOL    HW111249   2.063   0.724   5.366
 3450SOL    HW211250   1.962   0.834   5.299
 3451SOL     OW11251   2.475   1.365   4.450
 3451SOL    HW111252   2.426   1.278   4.459
 3451SOL    HW211253   2.452   1.408   4.363
 3452SOL     OW11254   3.155   1.228   5.147
 3452SOL    HW111255   3.192   1.155   5.089
 3452SOL    HW211256   3.207   1.233   5.232
 3453SOL     OW11257   2.671   0.004   4.226
 3453SOL    HW111258   2.711   0.095   4.217
 3453SOL    HW211259   2.571   0.012   4.232
 3454SOL     OW11260   2.059   0.976   4.988
 3454SOL    HW111261   2.148   0.931   4.974
 3454SOL    HW211262   1.986   0.911   4.969
 3455SOL     OW11263   3.387   0.999   3.914
 3455SOL    HW111264   3.324   0.923   3.927
 3455SOL    HW211265   3.435   1.017   4.000
 3456SOL     OW11266   3.049   1.792   5.340
 3456SOL    HW111267   3.073   1.852   5.264
 3456SOL    HW211268   3.056   1.697   5.310
 3457SOL     OW11269   2.179   0.251   5.525
 3457SOL    HW111270   2.250   0.322   5.531
 3457SOL    HW211271   2.091   0.290   5.553
 3458SOL     OW11272   3.328   1.417   4.677
 3458SOL    HW111273   3.269   1.423   4.757
 3458SOL    HW211274   3.313   1.329   4.631
 3459SOL     OW11275   3.529   1.714   4.296
 3459SOL    HW111276   3.488   1.691   4.208
 3459SOL    HW211277   3.511   1.640   4.361
 3460SOL     OW11278   2.460   0.729   3.994
 3460SOL    HW111279   2.484   0.798   3.926
 3460SOL    HW211280   2.382   0.762   4.048
 3461SOL     OW11281   3.143   0.345   4.668
 3461SOL    HW111282   3.057   0.295   4.655
 3461SOL    HW211283   3.205   0.291   4.724
 3462SOL     OW11284   3.438   1.662   4.031
 3462SOL    HW111285   3.527   1.708   4.034
 3462SOL    HW211286   3.417   1.638   3.936
 3463SOL     OW11287   2.669   0.605   5.189
 3463SOL    HW111288   2.622   0.602   5.278
 3463SOL    HW211289   2.618   0.550   5.123
 3464SOL     OW11290   3.256   0.469   5.398
 3464SOL    HW111291   3.236   0.512   5.486
 3464SOL    HW211292   3.334   0.407   5.407
 3465SOL     OW11293   2.835   0.890   5.296
 3465SOL    HW111294   2.881   0.806   5.267
 3465SOL    HW211295   2.779   0.924   5.221
 3466SOL     OW11296   2.853   0.410   4.966
 3466SOL    HW111297   2.776   0.444   5.020
 3466SOL    HW211298   2.819   0.359   4.887
 3467SOL     OW11299   2.903   0.701   4.153
 3467SOL    HW111300   2.929   0.697   4.249
 3467SOL    HW211301   2.818   0.650   4.139
 3468SOL     OW11302   1.938   0.811   4.513
 3468SOL    HW111303   2.037   0.799   4.522
 3468SOL    HW211304   1.914   0.906   4.534
 3469SOL     OW11305   1.992   1.821   5.295
 3469SOL    HW111306   1.982   1.806   5.394
 3469SOL    HW211307   1.906   1.857   5.259
 3470SOL     OW11308   2.727   0.348   3.919
 3470SOL    HW111309   2.786   0.411   3.870
 3470SOL    HW211310   2.746   0.254   3.890
 3471SOL     OW11311   3.581   0.585   5.555
 3471SOL    HW111312   3.555   0.674   5.519
 3471SOL    HW211313   3.579   0.517   5.482
 3472SOL     OW11314   3.224   1.144   4.269
 3472SOL    HW111315   3.307   1.115   4.221
 3472SOL    HW211316   3.175   1.211   4.213
 3473SOL     OW11317   2.412   0.196   4.609
 3473SOL    HW111318   2.407   0.191   4.709
 3473SOL    HW211319   2.414   0.292   4.580
 3474SOL     OW11320   2.870   1.456   4.201
 3474SOL    HW111321   2.824   1.528   4.149
 3474SOL    HW211322   2.866   1.476   4.299
 3475SOL     OW11323   2.213   1.801   4.577
 3475SOL    HW111324   2.263   1.715   4.583
 3475SOL    HW211325   2.278   1.878   4.574
 3476SOL     OW11326   3.657   1.066   4.597
 3476SOL    HW111327   3.595   1.051   4.521
 3476SOL    HW211328   3.605   1.077   4.682
 3477SOL     OW11329   3.089   1.550   5.230
 3477SOL    HW111330   3.095   1.473   5.294
 3477SOL    HW211331   3.037   1.524   5.150
 3478SOL     OW11332   2.183   0.943   3.966
 3478SOL    HW111333   2.265   0.982   3.924
 3478SOL    HW211334   2.156   0.861   3.917
 3479SOL     OW11335   3.320   0.735   4.452
 3479SOL    HW111336   3.315   0.670   4.527
 3479SOL    HW211337   3.400   0.794   4.465
 3480SOL     OW11338   2.323   1.266   5.451
 3480SOL    HW111339   2.273   1.267   5.365
 3480SOL    HW211340   2.260   1.248   5.527
 3481SOL     OW11341   2.973   1.776   3.961
 3481SOL    HW111342   2.913   1.714   4.011
 3481SOL    HW211343   3.004   1.732   3.876
 3482SOL     OW11344   2.064   0.285   5.222
 3482SOL    HW111345   1.984   0.345   5.209
 3482SOL    HW211346   2.054   0.236   5.308
 3483SOL     OW11347   3.494   1.377   3.805
 3483SOL    HW111348   3.462   1.471   3.795
 3483SOL    HW211349   3.418   1.314   3.793
 3484SOL     OW11350   2.326   1.743   4.047
 3484SOL    HW111351   2.359   1.782   4.133
 3484SOL    HW211352   2.402   1.736   3.982
 3485SOL     OW11353   3.262   0.107   4.150
 3485SOL    HW111354   3.238   0.070   4.060
 3485SOL    HW211355   3.361   0.123   4.154
 3486SOL     OW11356   2.111   1.785   4.965
 3486SOL    HW111357   2.168   1.720   5.015
 3486SOL    HW211358   2.095   1.752   4.872
 3487SOL     OW11359   2.802   1.698   4.628
 3487SOL    HW111360   2.882   1.641   4.649
 3487SOL    HW211361   2.753   1.658   4.551
 3488SOL     OW11362   2.244   0.700   4.204
 3488SOL    HW111363   2.289   0.610   4.201
 3488SOL    HW211364   2.150   0.689   4.237
 3489SOL     OW11365   3.409   0.222   5.453
 3489SOL    HW111366   3.404   0.259   5.545
 3489SOL    HW211367   3.337   0.153   5.441
 3490SOL     OW11368   2.476   0.122   3.841
 3490SOL    HW111369   2.574   0.100   3.848
 3490SOL    HW211370   2.445   0.105   3.748
 3491SOL     OW11371   2.643   0.264   5.473
 3491SOL    HW111372   2.710   0.203   5.516
 3491SOL    HW211373   2.570   0.283   5.538
 3492SOL     OW11374   2.750   1.514   4.919
 3492SOL    HW111375   2.727   1.489   4.825
 3492SOL    HW211376   2.811   1.445   4.958
 3493SOL     OW11377   3.213   0.590   5.157
 3493SOL    HW111378   3.241   0.547   5.242
 3493SOL    HW211379   3.238   0.686   5.158
 3494SOL     OW11380   2.665   1.402   4.648
 3494SOL    HW111381   2.755   1.416   4.606
 3494SOL    HW211382   2.594   1.404   4.577
 3495SOL     OW11383   2.784   0.503   4.623
 3495SOL    HW111384   2.759   0.494   4.527
 3495SOL    HW211385   2.832   0.421   4.654
 3496SOL     OW11386   2.401   0.064   4.236
 3496SOL    HW111387   2.320   0.065   4.294
 3496SOL    HW211388   2.404   0.147   4.181
 3497SOL     OW11389   3.296   1.188   3.765
 3497SOL    HW111390   3.328   1.112   3.822
 3497SOL    HW211391   3.204   1.215   3.795
 3498SOL     OW11392   2.159   0.035   3.895
 3498SOL    HW111393   2.208   0.119   3.874
 3498SOL    HW211394   2.221  -0.030   3.940
 3499SOL     OW11395   2.797   0.236   4.204
 3499SOL    HW111396   2.749   0.277   4.126
 3499SOL    HW211397   2.896   0.234   4.185
 3500SOL     OW11398   2.938   0.683   5.188
 3500SOL    HW111399   2.858   0.622   5.191
 3500SOL    HW211400   3.019   0.630   5.164
 3501SOL     OW11401   3.089   1.570   4.517
 3501SOL    HW111402   3.110   1.644   4.452
 3501SOL    HW211403   3.157   1.570   4.590
 3502SOL     OW11404   2.321   1.152   4.465
 3502SOL    HW111405   2.250   1.125   4.530
 3502SOL    HW211406   2.295   1.124   4.372
 3503SOL     OW11407   3.133   1.797   4.315
 3503SOL    HW111408   3.177   1.861   4.251
 3503SOL    HW211409   3.083   1.849   4.385
 3504SOL     OW11410   2.894   0.549   3.740
 3504SOL    HW111411   2.853   0.631   3.701
 3504SOL    HW211412   2.958   0.575   3.813
 3505SOL     OW11413   1.940   0.556   5.110
 3505SOL    HW111414   2.032   0.555   5.069
 3505SOL    HW211415   1.934   0.630   5.177
 3506SOL     OW11416   2.423   0.222   4.871
 3506SOL    HW111417   2.461   0.138   4.908
 3506SOL    HW211418   2.335   0.241   4.915
 3507SOL     OW11419   2.728   0.454   4.366
 3507SOL    HW111420   2.696   0.526   4.304
 3507SOL    HW211421   2.752   0.373   4.313
 3508SOL     OW11422   2.879   0.039   4.477
 3508SOL    HW111423   2.807   0.044   4.408
 3508SOL    HW211424   2.855  -0.030   4.546
 3509SOL     OW11425   3.291   1.173   4.591
 3509SOL    HW111426   3.236   1.089   4.584
 3509SOL    HW211427   3.317   1.202   4.499
 3510SOL     OW11428   3.328   0.590   4.716
 3510SOL    HW111429   3.298   0.495   4.723
 3510SOL    HW211430   3.401   0.606   4.782
 3511SOL     OW11431   3.719   0.833   4.101
 3511SOL    HW111432   3.761   0.769   4.165
 3511SOL    HW211433   3.681   0.782   4.023
 3512SOL     OW11434   2.350   1.385   3.898
 3512SOL    HW111435   2.263   1.370   3.945
 3512SOL    HW211436   2.333   1.411   3.803
 3513SOL     OW11437   3.526   1.280   4.381
 3513SOL    HW111438   3.625   1.288   4.395
 3513SOL    HW211439   3.481   1.364   4.412
 3514SOL     OW11440   3.252   0.575   3.802
 3514SOL    HW111441   3.198   0.554   3.883
 3514SOL    HW211442   3.343   0.534   3.811
 3515SOL     OW11443   2.389   0.256   4.052
 3515SOL    HW111444   2.416   0.197   3.977
 3515SOL    HW211445   2.389   0.351   4.021
 3516SOL     OW11446   3.616   1.223   5.312
 3516SOL    HW111447   3.707   1.184   5.299
 3516SOL    HW211448   3.624   1.319   5.336
 3517SOL     OW11449   2.926   1.347   5.064
 3517SOL    HW111450   2.846   1.324   5.119
 3517SOL    HW211451   3.009   1.321   5.113
 3518SOL     OW11452   3.454   1.629   5.349
 3518SOL    HW111453   3.481   1.663   5.259
 3518SOL    HW211454   3.533   1.591   5.395
 3519SOL     OW11455   2.973   1.195   4.824
 3519SOL    HW111456   2.933   1.239   4.905
 3519SOL    HW211457   2.932   1.232   4.741
 3520SOL     OW11458   3.500   1.099   4.803
 3520SOL    HW111459   3.505   1.180   4.862
 3520SOL    HW211460   3.414   1.101   4.752
 3521SOL     OW11461   2.777   0.089   5.126
 3521SOL    HW111462   2.802   0.069   5.031
 3521SOL    HW211463   2.849   0.145   5.168
 3522SOL     OW11464   2.842   1.116   5.443
 3522SOL    HW111465   2.743   1.122   5.453
 3522SOL    HW211466   2.865   1.036   5.387
 3523SOL     OW11467   2.567   1.050   4.092
 3523SOL    HW111468   2.553   1.057   4.191
 3523SOL    HW211469   2.651   0.999   4.074
 3524SOL     OW11470   2.272   0.813   4.975
 3524SOL    HW111471   2.358   0.825   5.025
 3524SOL    HW211472   2.230   0.726   5.002
 3525SOL     OW11473   3.136   0.386   4.986
 3525SOL    HW111474   3.157   0.460   5.050
 3525SOL    HW211475   3.047   0.403   4.943
 3526SOL     OW11476   1.926   1.564   5.055
 3526SOL    HW111477   1.880   1.646   5.021
 3526SOL    HW211478   2.024   1.583   5.064
 3527SOL     OW11479   2.229   1.100   4.225
 3527SOL    HW111480   2.222   1.183   4.169
 3527SOL    HW211481   2.233   1.020   4.165
 3528SOL     OW11482   2.428   0.537   4.589
 3528SOL    HW111483   2.440   0.603   4.515
 3528SOL    HW211484   2.474   0.571   4.672
 3529SOL     OW11485   3.114   1.348   4.112
 3529SOL    HW111486   3.164   1.425   4.152
 3529SOL    HW211487   3.019   1.350   4.144
 3530SOL     OW11488   3.134   1.445   4.866
 3530SOL    HW111489   3.181   1.458   4.953
 3530SOL    HW211490   3.068   1.371   4.875
 3531SOL     OW11491   3.444   0.639   4.196
 3531SOL    HW111492   3.413   0.700   4.269
 3531SOL    HW211493   3.494   0.691   4.127
 3532SOL     OW11494   2.216   1.510   5.053
 3532SOL    HW111495   2.195   1.466   4.966
 3532SOL    HW211496   2.313   1.536   5.056
 3533SOL     OW11497   2.264   0.751   5.322
 3533SOL    HW111498   2.332   0.806   5.275
 3533SOL    HW211499   2.304   0.663   5.349
 3534SOL     OW11500   3.449   0.779   5.394
 3534SOL    HW111501   3.357   0.817   5.389
 3534SOL    HW211502   3.509   0.826   5.329
 3535SOL     OW11503   2.875   0.105   5.494
 3535SOL    HW111504   2.881   0.190   5.442
 3535SOL    HW211505   2.907   0.029   5.437
 3536SOL     OW11506   2.366   0.050   5.464
 3536SOL    HW111507   2.324  -0.007   5.394
 3536SOL    HW211508   2.300   0.119   5.496
 3537SOL     OW11509   2.435   0.870   4.753
 3537SOL    HW111510   2.479   0.959   4.744
 3537SOL    HW211511   2.372   0.870   4.830
 3538SOL     OW11512   3.222   0.862   4.769
 3538SOL    HW111513   3.147   0.862   4.703
 3538SOL    HW211514   3.259   0.770   4.778
 3539SOL     OW11515   3.071   0.525   3.999
 3539SOL    HW111516   3.084   0.441   4.053
 3539SOL    HW211517   3.042   0.599   4.059
 3540SOL     OW11518   2.169   0.213   4.955
 3540SOL    HW111519   2.146   0.250   5.045
 3540SOL    HW211520   2.139   0.118   4.949
 3541SOL     OW11521   1.899   1.310   5.006
 3541SOL    HW111522   1.952   1.261   5.074
 3541SOL    HW211523   1.921   1.408   5.011
 3542SOL     OW11524   2.594   0.634   4.788
 3542SOL    HW111525   2.653   0.608   4.712
 3542SOL    HW211526   2.566   0.730   4.777
 3543SOL     OW11527   3.590   0.935   5.578
 3543SOL    HW111528   3.544   0.928   5.489
 3543SOL    HW211529   3.528   0.979   5.644
 3544SOL     OW11530   2.169   0.063   4.342
 3544SOL    HW111531   2.158   0.157   4.375
 3544SOL    HW211532   2.164   0.000   4.419
 3545SOL     OW11533   3.484   0.367   4.098
 3545SOL    HW111534   3.486   0.291   4.162
 3545SOL    HW211535   3.436   0.444   4.138
 3546SOL     OW11536   2.885   0.766   4.690
 3546SOL    HW111537   2.900   0.787   4.786
 3546SOL    HW211538   2.855   0.671   4.681
 3547SOL     OW11539   2.842   1.573   5.424
 3547SOL    HW111540   2.822   1.617   5.336
 3547SOL    HW211541   2.881   1.482   5.408
 3548SOL     OW11542   3.721   1.518   5.329
 3548SOL    HW111543   3.735   1.545   5.234
 3548SOL    HW211544   3.804   1.540   5.382
 3549SOL     OW11545   2.212   0.898   5.528
 3549SOL    HW111546   2.288   0.942   5.576
 3549SOL    HW211547   2.247   0.851   5.446
 3550SOL     OW11548   3.402   0.274   3.849
 3550SOL    HW111549   3.341   0.199   3.872
 3550SOL    HW211550   3.424   0.326   3.932
 3551SOL     OW11551   3.165   0.838   3.766
 3551SOL    HW111552   3.199   0.745   3.781
 3551SOL    HW211553   3.183   0.865   3.671
 3552SOL     OW11554   2.930   1.333   4.573
 3552SOL    HW111555   2.937   1.249   4.518
 3552SOL    HW211556   2.992   1.402   4.537
 3553SOL     OW11557   2.181   0.810   4.673
 3553SOL    HW111558   2.274   0.846   4.678
 3553SOL    HW211559   2.175   0.725   4.725
 3554SOL     OW11560   2.201   0.509   4.730
 3554SOL    HW111561   2.149   0.426   4.713
 3554SOL    HW211562   2.278   0.514   4.666
 3555SOL     OW11563   3.000   0.380   5.402
 3555SOL    HW111564   2.955   0.443   5.466
 3555SOL    HW211565   3.093   0.411   5.385
 3556SOL     OW11566   3.022   0.207   5.201
 3556SOL    HW111567   3.022   0.271   5.278
 3556SOL    HW211568   3.050   0.255   5.118
 3557SOL     OW11569   1.870   1.326   3.924
 3557SOL    HW111570   1.777   1.347   3.893
 3557SOL    HW211571   1.880   1.227   3.937
 3558SOL     OW11572   1.950   1.801   4.651
 3558SOL    HW111573   1.908   1.715   4.624
 3558SOL    HW211574   2.044   1.804   4.617
 3559SOL     OW11575   2.366   1.568   4.634
 3559SOL    HW111576   2.432   1.642   4.643
 3559SOL    HW211577   2.410   1.489   4.592
 3560SOL     OW11578   2.864   0.796   4.962
 3560SOL    HW111579   2.905   0.764   5.048
 3560SOL    HW211580   2.768   0.769   4.959
 3561SOL     OW11581   1.902   0.544   4.838
 3561SOL    HW111582   1.987   0.511   4.797
 3561SOL    HW211583   1.915   0.559   4.936
 3562SOL     OW11584   2.051   0.520   5.446
 3562SOL    HW111585   2.110   0.480   5.376
 3562SOL    HW211586   1.993   0.591   5.405
 3563SOL     OW11587   3.231   0.950   5.384
 3563SOL    HW111588   3.270   1.039   5.404
 3563SOL    HW211589   3.241   0.930   5.287
 3564SOL     OW11590   2.677   0.572   4.049
 3564SOL    HW111591   2.684   0.483   4.003
 3564SOL    HW211592   2.583   0.606   4.041
 3565SOL     OW11593   3.519   0.604   4.930
 3565SOL    HW111594   3.481   0.535   4.992
 3565SOL    HW211595   3.601   0.568   4.886
 3566SOL     OW11596   2.114   1.564   5.468
 3566SOL    HW111597   2.084   1.621   5.544
 3566SOL    HW211598   2.107   1.467   5.494
 3567SOL     OW11599   2.533   0.464   4.993
 3567SOL    HW111600   2.499   0.375   4.963
 3567SOL    HW211601   2.559   0.518   4.913
 3568SOL     OW11602   2.792   1.678   5.189
 3568SOL    HW111603   2.768   1.660   5.094
 3568SOL    HW211604   2.822   1.772   5.199
 3569SOL     OW11605   2.335   0.500   3.915
 3569SOL    HW111606   2.396   0.580   3.919
 3569SOL    HW211607   2.240   0.531   3.922
 3570SOL     OW11608   2.021   1.137   5.190
 3570SOL    HW111609   2.043   1.076   5.266
 3570SOL    HW211610   2.031   1.088   5.104
 3571SOL     OW11611   3.209   1.059   4.958
 3571SOL    HW111612   3.233   0.996   4.884
 3571SOL    HW211613   3.119   1.099   4.940
 3572SOL     OW11614   3.164   0.855   4.033
 3572SOL    HW111615   3.078   0.824   4.075
 3572SOL    HW211616   3.160   0.841   3.934
 3573SOL     OW11617   3.621   1.747   4.878
 3573SOL    HW111618   3.682   1.777   4.805
 3573SOL    HW211619   3.583   1.658   4.856
 3574SOL     OW11620   3.114   1.731   4.852
 3574SOL    HW111621   3.198   1.736   4.798
 3574SOL    HW211622   3.091   1.635   4.870
 3575SOL     OW11623   1.945   1.258   4.746
 3575SOL    HW111624   1.940   1.257   4.846
 3575SOL    HW211625   1.862   1.217   4.708
 3576SOL     OW11626   2.550   1.662   5.440
 3576SOL    HW111627   2.494   1.743   5.449
 3576SOL    HW211628   2.602   1.666   5.354
 3577SOL     OW11629   3.588   0.135   4.247
 3577SOL    HW111630   3.661   0.118   4.180
 3577SOL    HW211631   3.557   0.048   4.285
 3578SOL     OW11632   3.250   1.573   4.201
 3578SOL    HW111633   3.317   1.585   4.127
 3578SOL    HW211634   3.210   1.662   4.224
 3579SOL     OW11635   1.992   1.794   5.575
 3579SOL    HW111636   1.951   1.720   5.628
 3579SOL    HW211637   2.056   1.845   5.633
 3580SOL     OW11638   3.142   0.927   4.396
 3580SOL    HW111639   3.202   0.846   4.398
 3580SOL    HW211640   3.182   0.996   4.336
 3581SOL     OW11641   2.692   1.273   5.146
 3581SOL    HW111642   2.687   1.306   5.241
 3581SOL    HW211643   2.606   1.292   5.100
 3582SOL     OW11644   2.534   1.616   3.878
 3582SOL    HW111645   2.543   1.626   3.779
 3582SOL    HW211646   2.494   1.527   3.899
 3583SOL     OW11647   3.512   1.720   5.118
 3583SOL    HW111648   3.565   1.730   5.034
 3583SOL    HW211649   3.485   1.810   5.152
 3584SOL     OW11650   3.703   0.175   4.687
 3584SOL    HW111651   3.742   0.090   4.651
 3584SOL    HW211652   3.605   0.177   4.668
 3585SOL     OW11653   2.125   0.326   4.444
 3585SOL    HW111654   2.046   0.377   4.410
 3585SOL    HW211655   2.116   0.311   4.542
 3586SOL     OW11656   3.056   1.612   3.755
 3586SOL    HW111657   3.062   1.519   3.792
 3586SOL    HW211658   2.997   1.612   3.675
 3587SOL     OW11659   2.684   1.002   5.096
 3587SOL    HW111660   2.724   1.001   5.004
 3587SOL    HW211661   2.694   1.094   5.136
 3588SOL     OW11662   2.778   0.910   4.015
 3588SOL    HW111663   2.841   0.948   3.947
 3588SOL    HW211664   2.818   0.827   4.054
 3589SOL     OW11665   3.366   1.607   3.768
 3589SOL    HW111666   3.274   1.644   3.775
 3589SOL    HW211667   3.404   1.627   3.678
 3590SOL     OW11668   2.234   1.288   5.214
 3590SOL    HW111669   2.221   1.381   5.180
 3590SOL    HW211670   2.150   1.236   5.201
 3591SOL     OW11671   3.476   1.292   5.013
 3591SOL    HW111672   3.536   1.295   5.093
 3591SOL    HW211673   3.401   1.356   5.026
 3592SOL     OW11674   2.901   1.098   4.420
 3592SOL    HW111675   2.831   1.051   4.474
 3592SOL    HW211676   2.960   1.030   4.377
 3593SOL     OW11677   2.876   0.236   4.695
 3593SOL    HW111678   2.868   0.200   4.602
 3593SOL    HW211679   2.874   0.160   4.760
 3594SOL     OW11680   2.452   1.487   4.215
 3594SOL    HW111681   2.494   1.429   4.145
 3594SOL    HW211682   2.408   1.566   4.171
 3595SOL     OW11683   3.571   0.385   5.105
 3595SOL    HW111684   3.644   0.454   5.109
 3595SOL    HW211685   3.599   0.310   5.046
 3596SOL     OW11686   2.117   1.348   4.014
 3596SOL    HW111687   2.021   1.349   3.987
 3596SOL    HW211688   2.129   1.401   4.098
 3597SOL     OW11689   1.967   1.013   5.450
 3597SOL    HW111690   1.890   0.980   5.504
 3597SOL    HW211691   2.052   0.983   5.492
 3598SOL     OW11692   2.534   0.203   5.213
 3598SOL    HW111693   2.624   0.187   5.173
 3598SOL    HW211694   2.542   0.208   5.312
 3599SOL     OW11695   1.937   0.345   3.757
 3599SOL    HW111696   1.845   0.317   3.728
 3599SOL    HW211697   1.968   0.422   3.701
 3600SOL     OW11698   3.302   0.856   5.122
 3600SOL    HW111699   3.245   0.908   5.059
 3600SOL    HW211700   3.398   0.868   5.098
 3601SOL     OW11701   1.934   0.166   4.042
 3601SOL    HW111702   1.917   0.249   3.988
 3601SOL    HW211703   2.024   0.129   4.020
 3602SOL     OW11704   3.045   1.335   3.843
 3602SOL    HW111705   2.946   1.324   3.845
 3602SOL    HW211706   3.079   1.350   3.936
 3603SOL     OW11707   2.475   0.842   5.155
 3603SOL    HW111708   2.531   0.923   5.138
 3603SOL    HW211709   2.534   0.762   5.158
 3604SOL     OW11710   3.355   1.767   4.683
 3604SOL    HW111711   3.388   1.831   4.614
 3604SOL    HW211712   3.421   1.761   4.758
 3605SOL     OW11713   2.578   0.565   5.432
 3605SOL    HW111714   2.597   0.630   5.506
 3605SOL    HW211715   2.638   0.485   5.441
 3606SOL     OW11716   3.312   1.220   5.357
 3606SOL    HW111717   3.303   1.210   5.456
 3606SOL    HW211718   3.408   1.213   5.331
 3607SOL     OW11719   2.252   1.741   5.284
 3607SOL    HW111720   2.161   1.782   5.282
 3607SOL    HW211721   2.245   1.647   5.316
 3608SOL     OW11722   3.536   0.883   4.978
 3608SOL    HW111723   3.509   0.794   4.941
 3608SOL    HW211724   3.537   0.951   4.905
 3609SOL     OW11725   3.087   0.325   4.173
 3609SOL    HW111726   3.152   0.251   4.162
 3609SOL    HW211727   3.107   0.375   4.257
 3610SOL     OW11728   2.456   0.745   4.376
 3610SOL    HW111729   2.506   0.830   4.357
 3610SOL    HW211730   2.368   0.747   4.328
 3611SOL     OW11731   3.639   0.342   5.366
 3611SOL    HW111732   3.622   0.373   5.272
 3611SOL    HW211733   3.555   0.305   5.404
 3612SOL     OW11734   3.592   0.934   5.241
 3612SOL    HW111735   3.630   1.025   5.256
 3612SOL    HW211736   3.584   0.917   5.142
 3613SOL     OW11737   2.721   1.374   3.740
 3613SOL    HW111738   2.675   1.389   3.828
 3613SOL    HW211739   2.765   1.459   3.710
 3614SOL     OW11740   2.523   1.790   4.677
 3614SOL    HW111741   2.477   1.878   4.664
 3614SOL    HW211742   2.622   1.802   4.670
 3615SOL     OW11743   2.721   0.956   4.585
 3615SOL    HW111744   2.775   0.887   4.633
 3615SOL    HW211745   2.689   1.025   4.651
 3616SOL     OW11746   2.945   0.984   3.811
 3616SOL    HW111747   2.922   1.037   3.729
 3616SOL    HW211748   3.026   0.928   3.792
 3617SOL     OW11749   3.723   1.569   4.575
 3617SOL    HW111750   3.652   1.557   4.505
 3617SOL    HW211751   3.724   1.490   4.635
 3618SOL     OW11752   2.083   1.314   5.568
 3618SOL    HW111753   2.018   1.241   5.547
 3618SOL    HW211754   2.087   1.328   5.666
 3619SOL     OW11755   1.941   1.240   4.377
 3619SOL    HW111756   1.940   1.193   4.465
 3619SOL    HW211757   2.023   1.212   4.326
 3620SOL     OW11758   2.534   1.391   5.348
 3620SOL    HW111759   2.456   1.341   5.386
 3620SOL    HW211760   2.531   1.486   5.379
 3621SOL     OW11761   3.686   0.192   4.951
 3621SOL    HW111762   3.682   0.102   4.995
 3621SOL    HW211763   3.689   0.181   4.852
 3622SOL     OW11764   2.290   0.424   4.244
 3622SOL    HW111765   2.320   0.352   4.182
 3622SOL    HW211766   2.251   0.384   4.327
 3623SOL     OW11767   3.567   1.487   4.828
 3623SOL    HW111768   3.474   1.462   4.801
 3623SOL    HW211769   3.593   1.437   4.910
 3624SOL     OW11770   2.179   0.547   5.004
 3624SOL    HW111771   2.217   0.488   5.076
 3624SOL    HW211772   2.219   0.521   4.916
 3625SOL     OW11773   2.674   1.586   4.411
 3625SOL    HW111774   2.706   1.596   4.317
 3625SOL    HW211775   2.595   1.524   4.413
 3626SOL     OW11776   3.286   0.214   4.836
 3626SOL    HW111777   3.338   0.149   4.891
 3626SOL    HW211778   3.237   0.277   4.897
 3627SOL     OW11779   2.863   0.034   4.878
 3627SOL    HW111780   2.800  -0.038   4.847
 3627SOL    HW211781   2.956  -0.002   4.878
 3628SOL     OW11782   2.632   1.330   4.025
 3628SOL    HW111783   2.586   1.243   4.042
 3628SOL    HW211784   2.723   1.327   4.066
 3629SOL     OW11785   2.480   1.567   5.008
 3629SOL    HW111786   2.475   1.649   5.065
 3629SOL    HW211787   2.569   1.564   4.963
 3630SOL     OW11788   3.214   0.052   3.892
 3630SOL    HW111789   3.249   0.011   3.808
 3630SOL    HW211790   3.124   0.014   3.912
 3631SOL     OW11791   3.162   0.453   4.415
 3631SOL    HW111792   3.103   0.533   4.419
 3631SOL    HW211793   3.177   0.418   4.508
 3632SOL     OW11794   3.455   0.221   4.606
 3632SOL    HW111795   3.371   0.220   4.660
 3632SOL    HW211796   3.457   0.304   4.550
 3633SOL     OW11797   1.901   1.077   4.024
 3633SOL    HW111798   2.000   1.066   4.015
 3633SOL    HW211799   1.861   0.991   4.056
 3634SOL     OW11800   2.737   1.646   4.061
 3634SOL    HW111801   2.660   1.611   4.007
 3634SOL    HW211802   2.705   1.717   4.123
 3635SOL     OW11803   2.092   0.628   5.699
 3635SOL    HW111804   1.999   0.626   5.736
 3635SOL    HW211805   2.093   0.589   5.607
 3636SOL     OW11806   2.087   0.275   6.582
 3636SOL    HW111807   2.122   0.258   6.674
 3636SOL    HW211808   1.999   0.230   6.570
 3637SOL     OW11809   1.881   0.368   6.233
 3637SOL    HW111810   1.799   0.411   6.272
 3637SOL    HW211811   1.853   0.295   6.170
 3638SOL     OW11812   2.431   1.275   6.751
 3638SOL    HW111813   2.338   1.268   6.714
 3638SOL    HW211814   2.442   1.364   6.795
 3639SOL     OW11815   3.417   1.511   6.289
 3639SOL    HW111816   3.360   1.495   6.370
 3639SOL    HW211817   3.358   1.521   6.209
 3640SOL     OW11818   2.997   0.703   6.303
 3640SOL    HW111819   3.054   0.781   6.278
 3640SOL    HW211820   2.937   0.729   6.379
 3641SOL     OW11821   3.617   0.607   5.817
 3641SOL    HW111822   3.605   0.594   5.718
 3641SOL    HW211823   3.587   0.526   5.866
 3642SOL     OW11824   2.630   1.144   6.609
 3642SOL    HW111825   2.552   1.161   6.669
 3642SOL    HW211826   2.664   1.231   6.573
 3643SOL     OW11827   2.547   1.012   6.251
 3643SOL    HW111828   2.616   0.996   6.321
 3643SOL    HW211829   2.474   1.069   6.289
 3644SOL     OW11830   2.197   1.435   6.647
 3644SOL    HW111831   2.119   1.404   6.594
 3644SOL    HW211832   2.255   1.493   6.590
 3645SOL     OW11833   3.465   0.447   6.323
 3645SOL    HW111834   3.391   0.493   6.273
 3645SOL    HW211835   3.516   0.515   6.376
 3646SOL     OW11836   2.093   1.713   6.069
 3646SOL    HW111837   2.127   1.790   6.123
 3646SOL    HW211838   2.137   1.713   5.979
 3647SOL     OW11839   2.092   1.434   6.124
 3647SOL    HW111840   2.066   1.530   6.124
 3647SOL    HW211841   2.021   1.380   6.169
 3648SOL     OW11842   2.102   1.091   6.472
 3648SOL    HW111843   2.116   1.007   6.524
 3648SOL    HW211844   2.047   1.155   6.527
 3649SOL     OW11845   2.482   1.786   7.025
 3649SOL    HW111846   2.390   1.769   7.060
 3649SOL    HW211847   2.510   1.878   7.051
 3650SOL     OW11848   2.468   0.964   5.709
 3650SOL    HW111849   2.475   1.048   5.655
 3650SOL    HW211850   2.514   0.977   5.797
 3651SOL     OW11851   1.984   0.643   6.149
 3651SOL    HW111852   1.939   0.555   6.166
 3651SOL    HW211853   1.983   0.697   6.233
 3652SOL     OW11854   3.704   1.767   5.945
 3652SOL    HW111855   3.758   1.738   6.025
 3652SOL    HW211856   3.734   1.857   5.916
 3653SOL     OW11857   1.889   1.596   5.703
 3653SOL    HW111858   1.870   1.500   5.724
 3653SOL    HW211859   1.856   1.654   5.778
 3654SOL     OW11860   3.551   0.922   6.198
 3654SOL    HW111861   3.646   0.893   6.206
 3654SOL    HW211862   3.543   0.987   6.123
 3655SOL     OW11863   3.503   1.108   6.018
 3655SOL    HW111864   3.589   1.110   5.966
 3655SOL    HW211865   3.517   1.155   6.106
 3656SOL     OW11866   2.475   1.365   6.312
 3656SOL    HW111867   2.426   1.278   6.321
 3656SOL    HW211868   2.452   1.408   6.225
 3657SOL     OW11869   2.671   0.004   6.088
 3657SOL    HW111870   2.711   0.095   6.079
 3657SOL    HW211871   2.571   0.012   6.094
 3658SOL     OW11872   2.059   0.976   6.850
 3658SOL    HW111873   2.148   0.931   6.836
 3658SOL    HW211874   1.986   0.911   6.831
 3659SOL     OW11875   3.387   0.999   5.776
 3659SOL    HW111876   3.324   0.923   5.789
 3659SOL    HW211877   3.435   1.017   5.862
 3660SOL     OW11878   3.328   1.417   6.539
 3660SOL    HW111879   3.269   1.423   6.619
 3660SOL    HW211880   3.313   1.329   6.493
 3661SOL     OW11881   3.529   1.714   6.158
 3661SOL    HW111882   3.488   1.691   6.070
 3661SOL    HW211883   3.511   1.640   6.223
 3662SOL     OW11884   2.460   0.729   5.856
 3662SOL    HW111885   2.484   0.798   5.788
 3662SOL    HW211886   2.382   0.762   5.910
 3663SOL     OW11887   3.143   0.345   6.530
 3663SOL    HW111888   3.057   0.295   6.517
 3663SOL    HW211889   3.205   0.291   6.586
 3664SOL     OW11890   3.438   1.662   5.893
 3664SOL    HW111891   3.527   1.708   5.896
 3664SOL    HW211892   3.417   1.638   5.798
 3665SOL     OW11893   2.669   0.605   7.051
 3665SOL    HW111894   2.622   0.602   7.140
 3665SOL    HW211895   2.618   0.550   6.985
 3666SOL     OW11896   2.853   0.410   6.828
 3666SOL    HW111897   2.776   0.444   6.882
 3666SOL    HW211898   2.819   0.359   6.749
 3667SOL     OW11899   2.903   0.701   6.015
 3667SOL    HW111900   2.929   0.697   6.111
 3667SOL    HW211901   2.818   0.650   6.001
 3668SOL     OW11902   1.938   0.811   6.375
 3668SOL    HW111903   2.037   0.799   6.384
 3668SOL    HW211904   1.914   0.906   6.396
 3669SOL     OW11905   1.992   1.821   7.157
 3669SOL    HW111906   1.982   1.806   7.256
 3669SOL    HW211907   1.906   1.857   7.121
 3670SOL     OW11908   2.727   0.348   5.781
 3670SOL    HW111909   2.786   0.411   5.732
 3670SOL    HW211910   2.746   0.254   5.752
 3671SOL     OW11911   3.224   1.144   6.131
 3671SOL    HW111912   3.307   1.115   6.083
 3671SOL    HW211913   3.175   1.211   6.075
 3672SOL     OW11914   2.412   0.196   6.471
 3672SOL    HW111915   2.407   0.191   6.571
 3672SOL    HW211916   2.414   0.292   6.442
 3673SOL     OW11917   2.870   1.456   6.063
 3673SOL    HW111918   2.824   1.528   6.011
 3673SOL    HW211919   2.866   1.476   6.161
 3674SOL     OW11920   2.213   1.801   6.439
 3674SOL    HW111921   2.263   1.715   6.445
 3674SOL    HW211922   2.278   1.878   6.436
 3675SOL     OW11923   3.657   1.066   6.459
 3675SOL    HW111924   3.595   1.051   6.383
 3675SOL    HW211925   3.605   1.077   6.544
 3676SOL     OW11926   2.183   0.943   5.828
 3676SOL    HW111927   2.265   0.982   5.786
 3676SOL    HW211928   2.156   0.861   5.779
 3677SOL     OW11929   3.320   0.735   6.314
 3677SOL    HW111930   3.315   0.670   6.389
 3677SOL    HW211931   3.400   0.794   6.327
 3678SOL     OW11932   2.973   1.776   5.823
 3678SOL    HW111933   2.913   1.714   5.873
 3678SOL    HW211934   3.004   1.732   5.738
 3679SOL     OW11935   3.494   1.377   5.667
 3679SOL    HW111936   3.462   1.471   5.657
 3679SOL    HW211937   3.418   1.314   5.655
 3680SOL     OW11938   2.326   1.743   5.909
 3680SOL    HW111939   2.359   1.782   5.995
 3680SOL    HW211940   2.402   1.736   5.844
 3681SOL     OW11941   3.262   0.107   6.012
 3681SOL    HW111942   3.238   0.070   5.922
 3681SOL    HW211943   3.361   0.123   6.016
 3682SOL     OW11944   2.111   1.785   6.827
 3682SOL    HW111945   2.168   1.720   6.877
 3682SOL    HW211946   2.095   1.752   6.734
 3683SOL     OW11947   2.802   1.698   6.490
 3683SOL    HW111948   2.882   1.641   6.511
 3683SOL    HW211949   2.753   1.658   6.413
 3684SOL     OW11950   2.244   0.700   6.066
 3684SOL    HW111951   2.289   0.610   6.063
 3684SOL    HW211952   2.150   0.689   6.099
 3685SOL     OW11953   2.476   0.122   5.703
 3685SOL    HW111954   2.574   0.100   5.710
 3685SOL    HW211955   2.445   0.105   5.610
 3686SOL     OW11956   2.750   1.514   6.781
 3686SOL    HW111957   2.727   1.489   6.687
 3686SOL    HW211958   2.811   1.445   6.820
 3687SOL     OW11959   2.665   1.402   6.510
 3687SOL    HW111960   2.755   1.416   6.468
 3687SOL    HW211961   2.594   1.404   6.439
 3688SOL     OW11962   2.784   0.503   6.485
 3688SOL    HW111963   2.759   0.494   6.389
 3688SOL    HW211964   2.832   0.421   6.516
 3689SOL     OW11965   2.401   0.064   6.098
 3689SOL    HW111966   2.320   0.065   6.156
 3689SOL    HW211967   2.404   0.147   6.043
 3690SOL     OW11968   3.296   1.188   5.627
 3690SOL    HW111969   3.328   1.112   5.684
 3690SOL    HW211970   3.204   1.215   5.657
 3691SOL     OW11971   2.159   0.035   5.757
 3691SOL    HW111972   2.208   0.119   5.736
 3691SOL    HW211973   2.221  -0.030   5.802
 3692SOL     OW11974   2.797   0.236   6.066
 3692SOL    HW111975   2.749   0.277   5.988
 3692SOL    HW211976   2.896   0.234   6.047
 3693SOL     OW11977   3.089   1.570   6.379
 3693SOL    HW111978   3.110   1.644   6.314
 3693SOL    HW211979   3.157   1.570   6.452
 3694SOL     OW11980   2.321   1.152   6.327
 3694SOL    HW111981   2.250   1.125   6.392
 3694SOL    HW211982   2.295   1.124   6.234
 3695SOL     OW11983   3.133   1.797   6.177
 3695SOL    HW111984   3.177   1.861   6.113
 3695SOL    HW211985   3.083   1.849   6.247
 3696SOL     OW11986   2.894   0.549   5.602
 3696SOL    HW111987   2.853   0.631   5.563
 3696SOL    HW211988   2.958   0.575   5.675
 3697SOL     OW11989   2.423   0.222   6.733
 3697SOL    HW111990   2.461   0.138   6.770
 3697SOL    HW211991   2.335   0.241   6.777
 3698SOL     OW11992   2.728   0.454   6.228
 3698SOL    HW111993   2.696   0.526   6.166
 3698SOL    HW211994   2.752   0.373   6.175
 3699SOL     OW11995   2.879   0.039   6.339
 3699SOL    HW111996   2.807   0.044   6.270
 3699SOL    HW211997   2.855  -0.030   6.408
 3700SOL     OW11998   3.291   1.173   6.453
 3700SOL    HW111999   3.236   1.089   6.446
 3700SOL    HW212000   3.317   1.202   6.361
 3701SOL     OW12001   3.328   0.590   6.578
 3701SOL    HW112002   3.298   0.495   6.585
 3701SOL    HW212003   3.401   0.606   6.644
 3702SOL     OW12004   3.719   0.833   5.963
 3702SOL    HW112005   3.761   0.769   6.027
 3702SOL    HW212006   3.681   0.782   5.885
 3703SOL     OW12007   2.350   1.385   5.760
 3703SOL    HW112008   2.263   1.370   5.807
 3703SOL    HW212009   2.333   1.411   5.665
 3704SOL     OW12010   3.526   1.280   6.243
 3704SOL    HW112011   3.625   1.288   6.257
 3704SOL    HW212012   3.481   1.364   6.274
 3705SOL     OW12013   3.252   0.575   5.664
 3705SOL    HW112014   3.198   0.554   5.745
 3705SOL    HW212015   3.343   0.534   5.673
 3706SOL     OW12016   2.389   0.256   5.914
 3706SOL    HW112017   2.416   0.197   5.839
 3706SOL    HW212018   2.389   0.351   5.883
 3707SOL     OW12019   3.616   1.223   7.174
 3707SOL    HW112020   3.707   1.184   7.161
 3707SOL    HW212021   3.624   1.319   7.198
 3708SOL     OW12022   2.973   1.195   6.686
 3708SOL    HW112023   2.933   1.239   6.767
 3708SOL    HW212024   2.932   1.232   6.603
 3709SOL     OW12025   3.500   1.099   6.665
 3709SOL    HW112026   3.505   1.180   6.724
 3709SOL    HW212027   3.414   1.101   6.614
 3710SOL     OW12028   2.567   1.050   5.954
 3710SOL    HW112029   2.553   1.057   6.053
 3710SOL    HW212030   2.651   0.999   5.936
 3711SOL     OW12031   2.272   0.813   6.837
 3711SOL    HW112032   2.358   0.825   6.887
 3711SOL    HW212033   2.230   0.726   6.864
 3712SOL     OW12034   3.136   0.386   6.848
 3712SOL    HW112035   3.157   0.460   6.912
 3712SOL    HW212036   3.047   0.403   6.805
 3713SOL     OW12037   1.926   1.564   6.917
 3713SOL    HW112038   1.880   1.646   6.883
 3713SOL    HW212039   2.024   1.583   6.926
 3714SOL     OW12040   2.229   1.100   6.087
 3714SOL    HW112041   2.222   1.183   6.031
 3714SOL    HW212042   2.233   1.020   6.027
 3715SOL     OW12043   2.428   0.537   6.451
 3715SOL    HW112044   2.440   0.603   6.377
 3715SOL    HW212045   2.474   0.571   6.534
 3716SOL     OW12046   3.114   1.348   5.974
 3716SOL    HW112047   3.164   1.425   6.014
 3716SOL    HW212048   3.019   1.350   6.006
 3717SOL     OW12049   3.134   1.445   6.728
 3717SOL    HW112050   3.181   1.458   6.815
 3717SOL    HW212051   3.068   1.371   6.737
 3718SOL     OW12052   3.444   0.639   6.058
 3718SOL    HW112053   3.413   0.700   6.131
 3718SOL    HW212054   3.494   0.691   5.989
 3719SOL     OW12055   2.216   1.510   6.915
 3719SOL    HW112056   2.195   1.466   6.828
 3719SOL    HW212057   2.313   1.536   6.918
 3720SOL     OW12058   2.435   0.870   6.615
 3720SOL    HW112059   2.479   0.959   6.606
 3720SOL    HW212060   2.372   0.870   6.692
 3721SOL     OW12061   3.222   0.862   6.631
 3721SOL    HW112062   3.147   0.862   6.565
 3721SOL    HW212063   3.259   0.770   6.640
 3722SOL     OW12064   3.071   0.525   5.861
 3722SOL    HW112065   3.084   0.441   5.915
 3722SOL    HW212066   3.042   0.599   5.921
 3723SOL     OW12067   2.169   0.213   6.817
 3723SOL    HW112068   2.146   0.250   6.907
 3723SOL    HW212069   2.139   0.118   6.811
 3724SOL     OW12070   1.899   1.310   6.868
 3724SOL    HW112071   1.952   1.261   6.936
 3724SOL    HW212072   1.921   1.408   6.873
 3725SOL     OW12073   2.594   0.634   6.650
 3725SOL    HW112074   2.653   0.608   6.574
 3725SOL    HW212075   2.566   0.730   6.639
 3726SOL     OW12076   2.169   0.063   6.204
 3726SOL    HW112077   2.158   0.157   6.237
 3726SOL    HW212078   2.164   0.000   6.281
 3727SOL     OW12079   3.484   0.367   5.960
 3727SOL    HW112080   3.486   0.291   6.024
 3727SOL    HW212081   3.436   0.444   6.000
 3728SOL     OW12082   2.885   0.766   6.552
 3728SOL    HW112083   2.900   0.787   6.648
 3728SOL    HW212084   2.855   0.671   6.543
 3729SOL     OW12085   3.402   0.274   5.711
 3729SOL    HW112086   3.341   0.199   5.734
 3729SOL    HW212087   3.424   0.326   5.794
 3730SOL     OW12088   3.165   0.838   5.628
 3730SOL    HW112089   3.199   0.745   5.643
 3730SOL    HW212090   3.183   0.865   5.533
 3731SOL     OW12091   2.930   1.333   6.435
 3731SOL    HW112092   2.937   1.249   6.380
 3731SOL    HW212093   2.992   1.402   6.399
 3732SOL     OW12094   2.181   0.810   6.535
 3732SOL    HW112095   2.274   0.846   6.540
 3732SOL    HW212096   2.175   0.725   6.587
 3733SOL     OW12097   2.201   0.509   6.592
 3733SOL    HW112098   2.149   0.426   6.575
 3733SOL    HW212099   2.278   0.514   6.528
 3734SOL     OW12100   3.022   0.207   7.063
 3734SOL    HW112101   3.022   0.271   7.140
 3734SOL    HW212102   3.050   0.255   6.980
 3735SOL     OW12103   1.870   1.326   5.786
 3735SOL    HW112104   1.777   1.347   5.755
 3735SOL    HW212105   1.880   1.227   5.799
 3736SOL     OW12106   1.950   1.801   6.513
 3736SOL    HW112107   1.908   1.715   6.486
 3736SOL    HW212108   2.044   1.804   6.479
 3737SOL     OW12109   2.366   1.568   6.496
 3737SOL    HW112110   2.432   1.642   6.505
 3737SOL    HW212111   2.410   1.489   6.454
 3738SOL     OW12112   2.864   0.796   6.824
 3738SOL    HW112113   2.905   0.764   6.910
 3738SOL    HW212114   2.768   0.769   6.821
 3739SOL     OW12115   1.902   0.544   6.700
 3739SOL    HW112116   1.987   0.511   6.659
 3739SOL    HW212117   1.915   0.559   6.798
 3740SOL     OW12118   2.677   0.572   5.911
 3740SOL    HW112119   2.684   0.483   5.865
 3740SOL    HW212120   2.583   0.606   5.903
 3741SOL     OW12121   3.519   0.604   6.792
 3741SOL    HW112122   3.481   0.535   6.854
 3741SOL    HW212123   3.601   0.568   6.748
 3742SOL     OW12124   2.533   0.464   6.855
 3742SOL    HW112125   2.499   0.375   6.825
 3742SOL    HW212126   2.559   0.518   6.775
 3743SOL     OW12127   2.792   1.678   7.051
 3743SOL    HW112128   2.768   1.660   6.956
 3743SOL    HW212129   2.822   1.772   7.061
 3744SOL     OW12130   2.335   0.500   5.777
 3744SOL    HW112131   2.396   0.580   5.781
 3744SOL    HW212132   2.240   0.531   5.784
 3745SOL     OW12133   2.021   1.137   7.052
 3745SOL    HW112134   2.043   1.076   7.128
 3745SOL    HW212135   2.031   1.088   6.966
 3746SOL     OW12136   3.209   1.059   6.820
 3746SOL    HW112137   3.233   0.996   6.746
 3746SOL    HW212138   3.119   1.099   6.802
 3747SOL     OW12139   3.164   0.855   5.895
 3747SOL    HW112140   3.078   0.824   5.937
 3747SOL    HW212141   3.160   0.841   5.796
 3748SOL     OW12142   3.621   1.747   6.740
 3748SOL    HW112143   3.682   1.777   6.667
 3748SOL    HW212144   3.583   1.658   6.718
 3749SOL     OW12145   3.114   1.731   6.714
 3749SOL    HW112146   3.198   1.736   6.660
 3749SOL    HW212147   3.091   1.635   6.732
 3750SOL     OW12148   1.945   1.258   6.608
 3750SOL    HW112149   1.940   1.257   6.708
 3750SOL    HW212150   1.862   1.217   6.570
 3751SOL     OW12151   3.588   0.135   6.109
 3751SOL    HW112152   3.661   0.118   6.042
 3751SOL    HW212153   3.557   0.048   6.147
 3752SOL     OW12154   3.250   1.573   6.063
 3752SOL    HW112155   3.317   1.585   5.989
 3752SOL    HW212156   3.210   1.662   6.086
 3753SOL     OW12157   3.142   0.927   6.258
 3753SOL    HW112158   3.202   0.846   6.260
 3753SOL    HW212159   3.182   0.996   6.198
 3754SOL     OW12160   2.534   1.616   5.740
 3754SOL    HW112161   2.543   1.626   5.641
 3754SOL    HW212162   2.494   1.527   5.761
 3755SOL     OW12163   3.703   0.175   6.549
 3755SOL    HW112164   3.742   0.090   6.513
 3755SOL    HW212165   3.605   0.177   6.530
 3756SOL     OW12166   2.125   0.326   6.306
 3756SOL    HW112167   2.046   0.377   6.272
 3756SOL    HW212168   2.116   0.311   6.404
 3757SOL     OW12169   3.056   1.612   5.617
 3757SOL    HW112170   3.062   1.519   5.654
 3757SOL    HW212171   2.997   1.612   5.537
 3758SOL     OW12172   2.684   1.002   6.958
 3758SOL    HW112173   2.724   1.001   6.866
 3758SOL    HW212174   2.694   1.094   6.998
 3759SOL     OW12175   2.778   0.910   5.877
 3759SOL    HW112176   2.841   0.948   5.809
 3759SOL    HW212177   2.818   0.827   5.916
 3760SOL     OW12178   3.366   1.607   5.630
 3760SOL    HW112179   3.274   1.644   5.637
 3760SOL    HW212180   3.404   1.627   5.540
 3761SOL     OW12181   3.476   1.292   6.875
 3761SOL    HW112182   3.536   1.295   6.955
 3761SOL    HW212183   3.401   1.356   6.888
 3762SOL     OW12184   2.901   1.098   6.282
 3762SOL    HW112185   2.831   1.051   6.336
 3762SOL    HW212186   2.960   1.030   6.239
 3763SOL     OW12187   2.876   0.236   6.557
 3763SOL    HW112188   2.868   0.200   6.464
 3763SOL    HW212189   2.874   0.160   6.622
 3764SOL     OW12190   2.452   1.487   6.077
 3764SOL    HW112191   2.494   1.429   6.007
 3764SOL    HW212192   2.408   1.566   6.033
 3765SOL     OW12193   3.571   0.385   6.967
 3765SOL    HW112194   3.644   0.454   6.971
 3765SOL    HW212195   3.599   0.310   6.908
 3766SOL     OW12196   2.117   1.348   5.876
 3766SOL    HW112197   2.021   1.349   5.849
 3766SOL    HW212198   2.129   1.401   5.960
 3767SOL     OW12199   1.937   0.345   5.619
 3767SOL    HW112200   1.845   0.317   5.590
 3767SOL    HW212201   1.968   0.422   5.563
 3768SOL     OW12202   1.934   0.166   5.904
 3768SOL    HW112203   1.917   0.249   5.850
 3768SOL    HW212204   2.024   0.129   5.882
 3769SOL     OW12205   3.045   1.335   5.705
 3769SOL    HW112206   2.946   1.324   5.707
 3769SOL    HW212207   3.079   1.350   5.798
 3770SOL     OW12208   3.355   1.767   6.545
 3770SOL    HW112209   3.388   1.831   6.476
 3770SOL    HW212210   3.421   1.761   6.620
 3771SOL     OW12211   3.312   1.220   7.219
 3771SOL    HW112212   3.303   1.210   7.318
 3771SOL    HW212213   3.408   1.213   7.193
 3772SOL     OW12214   2.252   1.741   7.146
 3772SOL    HW112215   2.161   1.782   7.144
 3772SOL    HW212216   2.245   1.647   7.178
 3773SOL     OW12217   3.536   0.883   6.840
 3773SOL    HW112218   3.509   0.794   6.803
 3773SOL    HW212219   3.537   0.951   6.767
 3774SOL     OW12220   3.087   0.325   6.035
 3774SOL    HW112221   3.152   0.251   6.024
 3774SOL    HW212222   3.107   0.375   6.119
 3775SOL     OW12223   2.456   0.745   6.238
 3775SOL    HW112224   2.506   0.830   6.219
 3775SOL    HW212225   2.368   0.747   6.190
 3776SOL     OW12226   3.592   0.934   7.103
 3776SOL    HW112227   3.630   1.025   7.118
 3776SOL    HW212228   3.584   0.917   7.004
 3777SOL     OW12229   2.721   1.374   5.602
 3777SOL    HW112230   2.675   1.389   5.690
 3777SOL    HW212231   2.765   1.459   5.572
 3778SOL     OW12232   2.523   1.790   6.539
 3778SOL    HW112233   2.477   1.878   6.526
 3778SOL    HW212234   2.622   1.802   6.532
 3779SOL     OW12235   2.721   0.956   6.447
 3779SOL    HW112236   2.775   0.887   6.495
 3779SOL    HW212237   2.689   1.025   6.513
 3780SOL     OW12238   2.945   0.984   5.673
 3780SOL    HW112239   2.922   1.037   5.591
 3780SOL    HW212240   3.026   0.928   5.654
 3781SOL     OW12241   3.723   1.569   6.437
 3781SOL    HW112242   3.652   1.557   6.367
 3781SOL    HW212243   3.724   1.490   6.497
 3782SOL     OW12244   1.941   1.240   6.239
 3782SOL    HW112245   1.940   1.193   6.327
 3782SOL    HW212246   2.023   1.212   6.188
 3783SOL     OW12247   3.686   0.192   6.813
 3783SOL    HW112248   3.682   0.102   6.857
 3783SOL    HW212249   3.689   0.181   6.714
 3784SOL     OW12250   2.290   0.424   6.106
 3784SOL    HW112251   2.320   0.352   6.044
 3784SOL    HW212252   2.251   0.384   6.189
 3785SOL     OW12253   3.567   1.487   6.690
 3785SOL    HW112254   3.474   1.462   6.663
 3785SOL    HW212255   3.593   1.437   6.772
 3786SOL     OW12256   2.179   0.547   6.866
 3786SOL    HW112257   2.217   0.488   6.938
 3786SOL    HW212258   2.219   0.521   6.778
 3787SOL     OW12259   2.674   1.586   6.273
 3787SOL    HW112260   2.706   1.596   6.179
 3787SOL    HW212261   2.595   1.524   6.275
 3788SOL     OW12262   3.286   0.214   6.698
 3788SOL    HW112263   3.338   0.149   6.753
 3788SOL    HW212264   3.237   0.277   6.759
 3789SOL     OW12265   2.863   0.034   6.740
 3789SOL    HW112266   2.800  -0.038   6.709
 3789SOL    HW212267   2.956  -0.002   6.740
 3790SOL     OW12268   2.632   1.330   5.887
 3790SOL    HW112269   2.586   1.243   5.904
 3790SOL    HW212270   2.723   1.327   5.928
 3791SOL     OW12271   2.480   1.567   6.870
 3791SOL    HW112272   2.475   1.649   6.927
 3791SOL    HW212273   2.569   1.564   6.825
 3792SOL     OW12274   3.214   0.052   5.754
 3792SOL    HW112275   3.249   0.011   5.670
 3792SOL    HW212276   3.124   0.014   5.774
 3793SOL     OW12277   3.162   0.453   6.277
 3793SOL    HW112278   3.103   0.533   6.281
 3793SOL    HW212279   3.177   0.418   6.370
 3794SOL     OW12280   3.455   0.221   6.468
 3794SOL    HW112281   3.371   0.220   6.522
 3794SOL    HW212282   3.457   0.304   6.412
 3795SOL     OW12283   1.901   1.077   5.886
 3795SOL    HW112284   2.000   1.066   5.877
 3795SOL    HW212285   1.861   0.991   5.918
 3796SOL     OW12286   2.737   1.646   5.923
 3796SOL    HW112287   2.660   1.611   5.869
 3796SOL    HW212288   2.705   1.717   5.985
 3797SOL     OW12289   2.092   2.490   0.113
 3797SOL    HW112290   1.999   2.488   0.150
 3797SOL    HW212291   2.093   2.451   0.021
 3798SOL     OW12292   2.087   2.137   0.996
 3798SOL    HW112293   2.122   2.120   1.088
 3798SOL    HW212294   1.999   2.092   0.984
 3799SOL     OW12295   1.881   2.230   0.647
 3799SOL    HW112296   1.799   2.273   0.686
 3799SOL    HW212297   1.853   2.157   0.584
 3800SOL     OW12298   2.431   3.137   1.165
 3800SOL    HW112299   2.338   3.130   1.128
 3800SOL    HW212300   2.442   3.226   1.209
 3801SOL     OW12301   3.417   3.373   0.703
 3801SOL    HW112302   3.360   3.357   0.784
 3801SOL    HW212303   3.358   3.383   0.623
 3802SOL     OW12304   2.997   2.565   0.717
 3802SOL    HW112305   3.054   2.643   0.692
 3802SOL    HW212306   2.937   2.591   0.793
 3803SOL     OW12307   3.617   2.469   0.231
 3803SOL    HW112308   3.605   2.456   0.132
 3803SOL    HW212309   3.587   2.388   0.280
 3804SOL     OW12310   2.547   2.874   0.665
 3804SOL    HW112311   2.616   2.858   0.735
 3804SOL    HW212312   2.474   2.931   0.703
 3805SOL     OW12313   2.197   3.297   1.061
 3805SOL    HW112314   2.119   3.266   1.008
 3805SOL    HW212315   2.255   3.355   1.004
 3806SOL     OW12316   3.322   3.367   1.339
 3806SOL    HW112317   3.346   3.461   1.365
 3806SOL    HW212318   3.306   3.313   1.421
 3807SOL     OW12319   2.300   2.254   1.499
 3807SOL    HW112320   2.382   2.198   1.508
 3807SOL    HW212321   2.219   2.196   1.503
 3808SOL     OW12322   3.465   2.309   0.737
 3808SOL    HW112323   3.391   2.355   0.687
 3808SOL    HW212324   3.516   2.377   0.790
 3809SOL     OW12325   2.093   3.575   0.483
 3809SOL    HW112326   2.127   3.652   0.537
 3809SOL    HW212327   2.137   3.575   0.393
 3810SOL     OW12328   2.989   3.203   1.690
 3810SOL    HW112329   3.036   3.203   1.778
 3810SOL    HW212330   2.941   3.116   1.679
 3811SOL     OW12331   2.092   3.296   0.538
 3811SOL    HW112332   2.066   3.392   0.538
 3811SOL    HW212333   2.021   3.242   0.583
 3812SOL     OW12334   2.102   2.953   0.886
 3812SOL    HW112335   2.116   2.869   0.938
 3812SOL    HW212336   2.047   3.017   0.941
 3813SOL     OW12337   2.482   3.648   1.439
 3813SOL    HW112338   2.390   3.631   1.474
 3813SOL    HW212339   2.510   3.740   1.465
 3814SOL     OW12340   2.468   2.826   0.123
 3814SOL    HW112341   2.475   2.910   0.069
 3814SOL    HW212342   2.514   2.839   0.211
 3815SOL     OW12343   3.456   1.976   1.480
 3815SOL    HW112344   3.438   2.043   1.408
 3815SOL    HW212345   3.453   2.022   1.569
 3816SOL     OW12346   1.984   2.505   0.563
 3816SOL    HW112347   1.939   2.417   0.580
 3816SOL    HW212348   1.983   2.559   0.647
 3817SOL     OW12349   3.704   3.629   0.359
 3817SOL    HW112350   3.758   3.600   0.439
 3817SOL    HW212351   3.734   3.719   0.330
 3818SOL     OW12352   3.551   2.784   0.612
 3818SOL    HW112353   3.646   2.755   0.620
 3818SOL    HW212354   3.543   2.849   0.537
 3819SOL     OW12355   3.503   2.970   0.432
 3819SOL    HW112356   3.589   2.972   0.380
 3819SOL    HW212357   3.517   3.017   0.520
 3820SOL     OW12358   1.975   2.599   1.597
 3820SOL    HW112359   2.063   2.586   1.642
 3820SOL    HW212360   1.962   2.696   1.575
 3821SOL     OW12361   2.475   3.227   0.726
 3821SOL    HW112362   2.426   3.140   0.735
 3821SOL    HW212363   2.452   3.270   0.639
 3822SOL     OW12364   3.155   3.090   1.423
 3822SOL    HW112365   3.192   3.017   1.365
 3822SOL    HW212366   3.207   3.095   1.508
 3823SOL     OW12367   2.671   1.866   0.502
 3823SOL    HW112368   2.711   1.957   0.493
 3823SOL    HW212369   2.571   1.874   0.508
 3824SOL     OW12370   2.059   2.838   1.264
 3824SOL    HW112371   2.148   2.793   1.250
 3824SOL    HW212372   1.986   2.773   1.245
 3825SOL     OW12373   3.387   2.861   0.190
 3825SOL    HW112374   3.324   2.785   0.203
 3825SOL    HW212375   3.435   2.879   0.276
 3826SOL     OW12376   3.049   3.654   1.616
 3826SOL    HW112377   3.073   3.714   1.540
 3826SOL    HW212378   3.056   3.559   1.586
 3827SOL     OW12379   2.179   2.113   1.801
 3827SOL    HW112380   2.250   2.184   1.807
 3827SOL    HW212381   2.091   2.152   1.829
 3828SOL     OW12382   3.529   3.576   0.572
 3828SOL    HW112383   3.488   3.553   0.484
 3828SOL    HW212384   3.511   3.502   0.637
 3829SOL     OW12385   2.460   2.591   0.270
 3829SOL    HW112386   2.484   2.660   0.202
 3829SOL    HW212387   2.382   2.624   0.324
 3830SOL     OW12388   3.143   2.207   0.944
 3830SOL    HW112389   3.057   2.157   0.931
 3830SOL    HW212390   3.205   2.153   1.000
 3831SOL     OW12391   3.438   3.524   0.307
 3831SOL    HW112392   3.527   3.570   0.310
 3831SOL    HW212393   3.417   3.500   0.212
 3832SOL     OW12394   2.669   2.467   1.465
 3832SOL    HW112395   2.622   2.464   1.554
 3832SOL    HW212396   2.618   2.412   1.399
 3833SOL     OW12397   3.256   2.331   1.674
 3833SOL    HW112398   3.236   2.374   1.762
 3833SOL    HW212399   3.334   2.269   1.683
 3834SOL     OW12400   2.835   2.752   1.572
 3834SOL    HW112401   2.881   2.668   1.543
 3834SOL    HW212402   2.779   2.786   1.497
 3835SOL     OW12403   2.853   2.272   1.242
 3835SOL    HW112404   2.776   2.306   1.296
 3835SOL    HW212405   2.819   2.221   1.163
 3836SOL     OW12406   2.903   2.563   0.429
 3836SOL    HW112407   2.929   2.559   0.525
 3836SOL    HW212408   2.818   2.512   0.415
 3837SOL     OW12409   1.938   2.673   0.789
 3837SOL    HW112410   2.037   2.661   0.798
 3837SOL    HW212411   1.914   2.768   0.810
 3838SOL     OW12412   1.992   3.683   1.571
 3838SOL    HW112413   1.982   3.668   1.670
 3838SOL    HW212414   1.906   3.719   1.535
 3839SOL     OW12415   2.727   2.210   0.195
 3839SOL    HW112416   2.786   2.273   0.146
 3839SOL    HW212417   2.746   2.116   0.166
 3840SOL     OW12418   3.224   3.006   0.545
 3840SOL    HW112419   3.307   2.977   0.497
 3840SOL    HW212420   3.175   3.073   0.489
 3841SOL     OW12421   2.412   2.058   0.885
 3841SOL    HW112422   2.407   2.053   0.985
 3841SOL    HW212423   2.414   2.154   0.856
 3842SOL     OW12424   2.870   3.318   0.477
 3842SOL    HW112425   2.824   3.390   0.425
 3842SOL    HW212426   2.866   3.338   0.575
 3843SOL     OW12427   2.213   3.663   0.853
 3843SOL    HW112428   2.263   3.577   0.859
 3843SOL    HW212429   2.278   3.740   0.850
 3844SOL     OW12430   3.657   2.928   0.873
 3844SOL    HW112431   3.595   2.913   0.797
 3844SOL    HW212432   3.605   2.939   0.958
 3845SOL     OW12433   3.089   3.412   1.506
 3845SOL    HW112434   3.095   3.335   1.570
 3845SOL    HW212435   3.037   3.386   1.426
 3846SOL     OW12436   2.183   2.805   0.242
 3846SOL    HW112437   2.265   2.844   0.200
 3846SOL    HW212438   2.156   2.723   0.193
 3847SOL     OW12439   3.320   2.597   0.728
 3847SOL    HW112440   3.315   2.532   0.803
 3847SOL    HW212441   3.400   2.656   0.741
 3848SOL     OW12442   2.323   3.128   1.727
 3848SOL    HW112443   2.273   3.129   1.641
 3848SOL    HW212444   2.260   3.110   1.803
 3849SOL     OW12445   2.973   3.638   0.237
 3849SOL    HW112446   2.913   3.576   0.287
 3849SOL    HW212447   3.004   3.594   0.152
 3850SOL     OW12448   2.064   2.147   1.498
 3850SOL    HW112449   1.984   2.207   1.485
 3850SOL    HW212450   2.054   2.098   1.584
 3851SOL     OW12451   3.494   3.239   0.081
 3851SOL    HW112452   3.462   3.333   0.071
 3851SOL    HW212453   3.418   3.176   0.069
 3852SOL     OW12454   2.326   3.605   0.323
 3852SOL    HW112455   2.359   3.644   0.409
 3852SOL    HW212456   2.402   3.598   0.258
 3853SOL     OW12457   2.111   3.647   1.241
 3853SOL    HW112458   2.168   3.582   1.291
 3853SOL    HW212459   2.095   3.614   1.148
 3854SOL     OW12460   2.244   2.562   0.480
 3854SOL    HW112461   2.289   2.472   0.477
 3854SOL    HW212462   2.150   2.551   0.513
 3855SOL     OW12463   3.409   2.084   1.729
 3855SOL    HW112464   3.404   2.121   1.821
 3855SOL    HW212465   3.337   2.015   1.717
 3856SOL     OW12466   2.643   2.126   1.749
 3856SOL    HW112467   2.710   2.065   1.792
 3856SOL    HW212468   2.570   2.145   1.814
 3857SOL     OW12469   2.750   3.376   1.195
 3857SOL    HW112470   2.727   3.351   1.101
 3857SOL    HW212471   2.811   3.307   1.234
 3858SOL     OW12472   3.213   2.452   1.433
 3858SOL    HW112473   3.241   2.409   1.518
 3858SOL    HW212474   3.238   2.548   1.434
 3859SOL     OW12475   2.784   2.365   0.899
 3859SOL    HW112476   2.759   2.356   0.803
 3859SOL    HW212477   2.832   2.283   0.930
 3860SOL     OW12478   2.401   1.926   0.512
 3860SOL    HW112479   2.320   1.927   0.570
 3860SOL    HW212480   2.404   2.009   0.457
 3861SOL     OW12481   3.296   3.050   0.041
 3861SOL    HW112482   3.328   2.974   0.098
 3861SOL    HW212483   3.204   3.077   0.071
 3862SOL     OW12484   2.797   2.098   0.480
 3862SOL    HW112485   2.749   2.139   0.402
 3862SOL    HW212486   2.896   2.096   0.461
 3863SOL     OW12487   2.938   2.545   1.464
 3863SOL    HW112488   2.858   2.484   1.467
 3863SOL    HW212489   3.019   2.492   1.440
 3864SOL     OW12490   2.321   3.014   0.741
 3864SOL    HW112491   2.250   2.987   0.806
 3864SOL    HW212492   2.295   2.986   0.648
 3865SOL     OW12493   3.133   3.659   0.591
 3865SOL    HW112494   3.177   3.723   0.527
 3865SOL    HW212495   3.083   3.711   0.661
 3866SOL     OW12496   2.894   2.411   0.016
 3866SOL    HW112497   2.853   2.493  -0.023
 3866SOL    HW212498   2.958   2.437   0.089
 3867SOL     OW12499   1.940   2.418   1.386
 3867SOL    HW112500   2.032   2.417   1.345
 3867SOL    HW212501   1.934   2.492   1.453
 3868SOL     OW12502   2.423   2.084   1.147
 3868SOL    HW112503   2.461   2.000   1.184
 3868SOL    HW212504   2.335   2.103   1.191
 3869SOL     OW12505   2.728   2.316   0.642
 3869SOL    HW112506   2.696   2.388   0.580
 3869SOL    HW212507   2.752   2.235   0.589
 3870SOL     OW12508   2.879   1.901   0.753
 3870SOL    HW112509   2.807   1.906   0.684
 3870SOL    HW212510   2.855   1.832   0.822
 3871SOL     OW12511   3.291   3.035   0.867
 3871SOL    HW112512   3.236   2.951   0.860
 3871SOL    HW212513   3.317   3.064   0.775
 3872SOL     OW12514   3.328   2.452   0.992
 3872SOL    HW112515   3.298   2.357   0.999
 3872SOL    HW212516   3.401   2.468   1.058
 3873SOL     OW12517   3.719   2.695   0.377
 3873SOL    HW112518   3.761   2.631   0.441
 3873SOL    HW212519   3.681   2.644   0.299
 3874SOL     OW12520   2.350   3.247   0.174
 3874SOL    HW112521   2.263   3.232   0.221
 3874SOL    HW212522   2.333   3.273   0.079
 3875SOL     OW12523   3.526   3.142   0.657
 3875SOL    HW112524   3.625   3.150   0.671
 3875SOL    HW212525   3.481   3.226   0.688
 3876SOL     OW12526   3.252   2.437   0.078
 3876SOL    HW112527   3.198   2.416   0.159
 3876SOL    HW212528   3.343   2.396   0.087
 3877SOL     OW12529   2.389   2.118   0.328
 3877SOL    HW112530   2.416   2.059   0.253
 3877SOL    HW212531   2.389   2.213   0.297
 3878SOL     OW12532   3.616   3.085   1.588
 3878SOL    HW112533   3.707   3.046   1.575
 3878SOL    HW212534   3.624   3.181   1.612
 3879SOL     OW12535   2.926   3.209   1.340
 3879SOL    HW112536   2.846   3.186   1.395
 3879SOL    HW212537   3.009   3.183   1.389
 3880SOL     OW12538   3.454   3.491   1.625
 3880SOL    HW112539   3.481   3.525   1.535
 3880SOL    HW212540   3.533   3.453   1.671
 3881SOL     OW12541   2.777   1.951   1.402
 3881SOL    HW112542   2.802   1.931   1.307
 3881SOL    HW212543   2.849   2.007   1.444
 3882SOL     OW12544   2.842   2.978   1.719
 3882SOL    HW112545   2.743   2.984   1.729
 3882SOL    HW212546   2.865   2.898   1.663
 3883SOL     OW12547   2.567   2.912   0.368
 3883SOL    HW112548   2.553   2.919   0.467
 3883SOL    HW212549   2.651   2.861   0.350
 3884SOL     OW12550   2.272   2.675   1.251
 3884SOL    HW112551   2.358   2.687   1.301
 3884SOL    HW212552   2.230   2.588   1.278
 3885SOL     OW12553   3.136   2.248   1.262
 3885SOL    HW112554   3.157   2.322   1.326
 3885SOL    HW212555   3.047   2.265   1.219
 3886SOL     OW12556   1.926   3.426   1.331
 3886SOL    HW112557   1.880   3.508   1.297
 3886SOL    HW212558   2.024   3.445   1.340
 3887SOL     OW12559   2.229   2.962   0.501
 3887SOL    HW112560   2.222   3.045   0.445
 3887SOL    HW212561   2.233   2.882   0.441
 3888SOL     OW12562   2.428   2.399   0.865
 3888SOL    HW112563   2.440   2.465   0.791
 3888SOL    HW212564   2.474   2.433   0.948
 3889SOL     OW12565   3.114   3.210   0.388
 3889SOL    HW112566   3.164   3.287   0.428
 3889SOL    HW212567   3.019   3.212   0.420
 3890SOL     OW12568   3.444   2.501   0.472
 3890SOL    HW112569   3.413   2.562   0.545
 3890SOL    HW212570   3.494   2.553   0.403
 3891SOL     OW12571   2.216   3.372   1.329
 3891SOL    HW112572   2.195   3.328   1.242
 3891SOL    HW212573   2.313   3.398   1.332
 3892SOL     OW12574   2.264   2.613   1.598
 3892SOL    HW112575   2.332   2.668   1.551
 3892SOL    HW212576   2.304   2.525   1.625
 3893SOL     OW12577   3.449   2.641   1.670
 3893SOL    HW112578   3.357   2.679   1.665
 3893SOL    HW212579   3.509   2.688   1.605
 3894SOL     OW12580   2.875   1.967   1.770
 3894SOL    HW112581   2.881   2.052   1.718
 3894SOL    HW212582   2.907   1.891   1.713
 3895SOL     OW12583   2.366   1.912   1.740
 3895SOL    HW112584   2.324   1.855   1.670
 3895SOL    HW212585   2.300   1.981   1.772
 3896SOL     OW12586   2.435   2.732   1.029
 3896SOL    HW112587   2.479   2.821   1.020
 3896SOL    HW212588   2.372   2.732   1.106
 3897SOL     OW12589   3.222   2.724   1.045
 3897SOL    HW112590   3.147   2.724   0.979
 3897SOL    HW212591   3.259   2.632   1.054
 3898SOL     OW12592   3.071   2.387   0.275
 3898SOL    HW112593   3.084   2.303   0.329
 3898SOL    HW212594   3.042   2.461   0.335
 3899SOL     OW12595   2.169   2.075   1.231
 3899SOL    HW112596   2.146   2.112   1.321
 3899SOL    HW212597   2.139   1.980   1.225
 3900SOL     OW12598   1.899   3.172   1.282
 3900SOL    HW112599   1.952   3.123   1.350
 3900SOL    HW212600   1.921   3.270   1.287
 3901SOL     OW12601   2.594   2.496   1.064
 3901SOL    HW112602   2.653   2.470   0.988
 3901SOL    HW212603   2.566   2.592   1.053
 3902SOL     OW12604   3.590   2.797   1.854
 3902SOL    HW112605   3.544   2.790   1.765
 3902SOL    HW212606   3.528   2.841   1.920
 3903SOL     OW12607   2.169   1.925   0.618
 3903SOL    HW112608   2.158   2.019   0.651
 3903SOL    HW212609   2.164   1.862   0.695
 3904SOL     OW12610   3.484   2.229   0.374
 3904SOL    HW112611   3.486   2.153   0.438
 3904SOL    HW212612   3.436   2.306   0.414
 3905SOL     OW12613   2.885   2.628   0.966
 3905SOL    HW112614   2.900   2.649   1.062
 3905SOL    HW212615   2.855   2.533   0.957
 3906SOL     OW12616   2.842   3.435   1.700
 3906SOL    HW112617   2.822   3.479   1.612
 3906SOL    HW212618   2.881   3.344   1.684
 3907SOL     OW12619   3.721   3.380   1.605
 3907SOL    HW112620   3.735   3.407   1.510
 3907SOL    HW212621   3.804   3.402   1.658
 3908SOL     OW12622   2.212   2.760   1.804
 3908SOL    HW112623   2.288   2.804   1.852
 3908SOL    HW212624   2.247   2.713   1.722
 3909SOL     OW12625   3.402   2.136   0.125
 3909SOL    HW112626   3.341   2.061   0.148
 3909SOL    HW212627   3.424   2.188   0.208
 3910SOL     OW12628   3.165   2.700   0.042
 3910SOL    HW112629   3.199   2.607   0.057
 3910SOL    HW212630   3.183   2.727  -0.053
 3911SOL     OW12631   2.181   2.672   0.949
 3911SOL    HW112632   2.274   2.708   0.954
 3911SOL    HW212633   2.175   2.587   1.001
 3912SOL     OW12634   2.201   2.371   1.006
 3912SOL    HW112635   2.149   2.288   0.989
 3912SOL    HW212636   2.278   2.376   0.942
 3913SOL     OW12637   3.000   2.242   1.678
 3913SOL    HW112638   2.955   2.305   1.742
 3913SOL    HW212639   3.093   2.273   1.661
 3914SOL     OW12640   3.022   2.069   1.477
 3914SOL    HW112641   3.022   2.133   1.554
 3914SOL    HW212642   3.050   2.117   1.394
 3915SOL     OW12643   1.950   3.663   0.927
 3915SOL    HW112644   1.908   3.577   0.900
 3915SOL    HW212645   2.044   3.666   0.893
 3916SOL     OW12646   2.366   3.430   0.910
 3916SOL    HW112647   2.432   3.504   0.919
 3916SOL    HW212648   2.410   3.351   0.868
 3917SOL     OW12649   2.864   2.658   1.238
 3917SOL    HW112650   2.905   2.626   1.324
 3917SOL    HW212651   2.768   2.631   1.235
 3918SOL     OW12652   1.902   2.406   1.114
 3918SOL    HW112653   1.987   2.373   1.073
 3918SOL    HW212654   1.915   2.421   1.212
 3919SOL     OW12655   2.051   2.382   1.722
 3919SOL    HW112656   2.110   2.342   1.652
 3919SOL    HW212657   1.993   2.453   1.681
 3920SOL     OW12658   3.231   2.812   1.660
 3920SOL    HW112659   3.270   2.901   1.680
 3920SOL    HW212660   3.241   2.792   1.563
 3921SOL     OW12661   2.677   2.434   0.325
 3921SOL    HW112662   2.684   2.345   0.279
 3921SOL    HW212663   2.583   2.468   0.317
 3922SOL     OW12664   3.519   2.466   1.206
 3922SOL    HW112665   3.481   2.397   1.268
 3922SOL    HW212666   3.601   2.430   1.162
 3923SOL     OW12667   2.533   2.326   1.269
 3923SOL    HW112668   2.499   2.237   1.239
 3923SOL    HW212669   2.559   2.380   1.189
 3924SOL     OW12670   2.792   3.540   1.465
 3924SOL    HW112671   2.768   3.522   1.370
 3924SOL    HW212672   2.822   3.634   1.475
 3925SOL     OW12673   2.335   2.362   0.191
 3925SOL    HW112674   2.396   2.442   0.195
 3925SOL    HW212675   2.240   2.393   0.198
 3926SOL     OW12676   2.021   2.999   1.466
 3926SOL    HW112677   2.043   2.938   1.542
 3926SOL    HW212678   2.031   2.950   1.380
 3927SOL     OW12679   3.209   2.921   1.234
 3927SOL    HW112680   3.233   2.858   1.160
 3927SOL    HW212681   3.119   2.961   1.216
 3928SOL     OW12682   3.164   2.717   0.309
 3928SOL    HW112683   3.078   2.686   0.351
 3928SOL    HW212684   3.160   2.703   0.210
 3929SOL     OW12685   3.114   3.593   1.128
 3929SOL    HW112686   3.198   3.598   1.074
 3929SOL    HW212687   3.091   3.497   1.146
 3930SOL     OW12688   1.945   3.120   1.022
 3930SOL    HW112689   1.940   3.119   1.122
 3930SOL    HW212690   1.862   3.079   0.984
 3931SOL     OW12691   2.550   3.524   1.716
 3931SOL    HW112692   2.494   3.605   1.725
 3931SOL    HW212693   2.602   3.528   1.630
 3932SOL     OW12694   2.765   1.948   0.133
 3932SOL    HW112695   2.816   1.949   0.047
 3932SOL    HW212696   2.821   1.906   0.204
 3933SOL     OW12697   3.588   1.997   0.523
 3933SOL    HW112698   3.661   1.980   0.456
 3933SOL    HW212699   3.557   1.910   0.561
 3934SOL     OW12700   3.250   3.435   0.477
 3934SOL    HW112701   3.317   3.447   0.403
 3934SOL    HW212702   3.210   3.524   0.500
 3935SOL     OW12703   1.992   3.656   1.851
 3935SOL    HW112704   1.951   3.582   1.904
 3935SOL    HW212705   2.056   3.707   1.909
 3936SOL     OW12706   3.142   2.789   0.672
 3936SOL    HW112707   3.202   2.708   0.674
 3936SOL    HW212708   3.182   2.858   0.612
 3937SOL     OW12709   2.692   3.135   1.422
 3937SOL    HW112710   2.687   3.168   1.517
 3937SOL    HW212711   2.606   3.154   1.376
 3938SOL     OW12712   2.534   3.478   0.154
 3938SOL    HW112713   2.543   3.488   0.055
 3938SOL    HW212714   2.494   3.389   0.175
 3939SOL     OW12715   3.512   3.582   1.394
 3939SOL    HW112716   3.565   3.592   1.310
 3939SOL    HW212717   3.485   3.672   1.428
 3940SOL     OW12718   3.703   2.037   0.963
 3940SOL    HW112719   3.742   1.952   0.927
 3940SOL    HW212720   3.605   2.039   0.944
 3941SOL     OW12721   2.125   2.188   0.720
 3941SOL    HW112722   2.046   2.239   0.686
 3941SOL    HW212723   2.116   2.173   0.818
 3942SOL     OW12724   3.056   3.474   0.031
 3942SOL    HW112725   3.062   3.381   0.068
 3942SOL    HW212726   2.997   3.474  -0.049
 3943SOL     OW12727   2.684   2.864   1.372
 3943SOL    HW112728   2.724   2.863   1.280
 3943SOL    HW212729   2.694   2.956   1.412
 3944SOL     OW12730   2.778   2.772   0.291
 3944SOL    HW112731   2.841   2.810   0.223
 3944SOL    HW212732   2.818   2.689   0.330
 3945SOL     OW12733   3.366   3.469   0.044
 3945SOL    HW112734   3.274   3.506   0.051
 3945SOL    HW212735   3.404   3.489  -0.046
 3946SOL     OW12736   2.234   3.150   1.490
 3946SOL    HW112737   2.221   3.243   1.456
 3946SOL    HW212738   2.150   3.098   1.477
 3947SOL     OW12739   2.901   2.960   0.696
 3947SOL    HW112740   2.831   2.913   0.750
 3947SOL    HW212741   2.960   2.892   0.653
 3948SOL     OW12742   2.876   2.098   0.971
 3948SOL    HW112743   2.868   2.062   0.878
 3948SOL    HW212744   2.874   2.022   1.036
 3949SOL     OW12745   2.452   3.349   0.491
 3949SOL    HW112746   2.494   3.291   0.421
 3949SOL    HW212747   2.408   3.428   0.447
 3950SOL     OW12748   3.571   2.247   1.381
 3950SOL    HW112749   3.644   2.316   1.385
 3950SOL    HW212750   3.599   2.172   1.322
 3951SOL     OW12751   2.117   3.210   0.290
 3951SOL    HW112752   2.021   3.211   0.263
 3951SOL    HW212753   2.129   3.263   0.374
 3952SOL     OW12754   1.967   2.875   1.726
 3952SOL    HW112755   1.890   2.842   1.780
 3952SOL    HW212756   2.052   2.845   1.768
 3953SOL     OW12757   2.534   2.065   1.489
 3953SOL    HW112758   2.624   2.049   1.449
 3953SOL    HW212759   2.542   2.070   1.588
 3954SOL     OW12760   1.937   2.207   0.033
 3954SOL    HW112761   1.845   2.179   0.004
 3954SOL    HW212762   1.968   2.284  -0.023
 3955SOL     OW12763   3.302   2.718   1.398
 3955SOL    HW112764   3.245   2.770   1.335
 3955SOL    HW212765   3.398   2.730   1.374
 3956SOL     OW12766   1.934   2.028   0.318
 3956SOL    HW112767   1.917   2.111   0.264
 3956SOL    HW212768   2.024   1.991   0.296
 3957SOL     OW12769   3.045   3.197   0.119
 3957SOL    HW112770   2.946   3.186   0.121
 3957SOL    HW212771   3.079   3.212   0.212
 3958SOL     OW12772   2.475   2.704   1.431
 3958SOL    HW112773   2.531   2.785   1.414
 3958SOL    HW212774   2.534   2.624   1.434
 3959SOL     OW12775   2.578   2.427   1.708
 3959SOL    HW112776   2.597   2.492   1.782
 3959SOL    HW212777   2.638   2.347   1.717
 3960SOL     OW12778   3.312   3.082   1.633
 3960SOL    HW112779   3.303   3.072   1.732
 3960SOL    HW212780   3.408   3.075   1.607
 3961SOL     OW12781   2.252   3.603   1.560
 3961SOL    HW112782   2.161   3.644   1.558
 3961SOL    HW212783   2.245   3.509   1.592
 3962SOL     OW12784   3.536   2.745   1.254
 3962SOL    HW112785   3.509   2.656   1.217
 3962SOL    HW212786   3.537   2.813   1.181
 3963SOL     OW12787   3.087   2.187   0.449
 3963SOL    HW112788   3.152   2.113   0.438
 3963SOL    HW212789   3.107   2.237   0.533
 3964SOL     OW12790   2.456   2.607   0.652
 3964SOL    HW112791   2.506   2.692   0.633
 3964SOL    HW212792   2.368   2.609   0.604
 3965SOL     OW12793   3.639   2.204   1.642
 3965SOL    HW112794   3.622   2.235   1.548
 3965SOL    HW212795   3.555   2.167   1.680
 3966SOL     OW12796   3.592   2.796   1.517
 3966SOL    HW112797   3.630   2.887   1.532
 3966SOL    HW212798   3.584   2.779   1.418
 3967SOL     OW12799   2.721   3.236   0.016
 3967SOL    HW112800   2.675   3.251   0.104
 3967SOL    HW212801   2.765   3.321  -0.014
 3968SOL     OW12802   2.523   3.652   0.953
 3968SOL    HW112803   2.477   3.740   0.940
 3968SOL    HW212804   2.622   3.664   0.946
 3969SOL     OW12805   2.721   2.818   0.861
 3969SOL    HW112806   2.775   2.749   0.909
 3969SOL    HW212807   2.689   2.887   0.927
 3970SOL     OW12808   2.945   2.846   0.087
 3970SOL    HW112809   2.922   2.899   0.005
 3970SOL    HW212810   3.026   2.790   0.068
 3971SOL     OW12811   2.083   3.176   1.844
 3971SOL    HW112812   2.018   3.103   1.823
 3971SOL    HW212813   2.087   3.190   1.942
 3972SOL     OW12814   1.941   3.102   0.653
 3972SOL    HW112815   1.940   3.055   0.741
 3972SOL    HW212816   2.023   3.074   0.602
 3973SOL     OW12817   2.534   3.253   1.624
 3973SOL    HW112818   2.456   3.203   1.662
 3973SOL    HW212819   2.531   3.348   1.655
 3974SOL     OW12820   3.686   2.054   1.227
 3974SOL    HW112821   3.682   1.964   1.271
 3974SOL    HW212822   3.689   2.043   1.128
 3975SOL     OW12823   2.290   2.286   0.520
 3975SOL    HW112824   2.320   2.214   0.458
 3975SOL    HW212825   2.251   2.246   0.603
 3976SOL     OW12826   2.179   2.409   1.280
 3976SOL    HW112827   2.217   2.350   1.352
 3976SOL    HW212828   2.219   2.383   1.192
 3977SOL     OW12829   3.286   2.076   1.112
 3977SOL    HW112830   3.338   2.011   1.167
 3977SOL    HW212831   3.237   2.139   1.173
 3978SOL     OW12832   2.863   1.896   1.154
 3978SOL    HW112833   2.800   1.824   1.123
 3978SOL    HW212834   2.956   1.860   1.154
 3979SOL     OW12835   2.632   3.192   0.301
 3979SOL    HW112836   2.586   3.105   0.318
 3979SOL    HW212837   2.723   3.189   0.342
 3980SOL     OW12838   2.480   3.429   1.284
 3980SOL    HW112839   2.475   3.511   1.341
 3980SOL    HW212840   2.569   3.426   1.239
 3981SOL     OW12841   3.214   1.914   0.168
 3981SOL    HW112842   3.249   1.873   0.084
 3981SOL    HW212843   3.124   1.876   0.188
 3982SOL     OW12844   3.162   2.315   0.691
 3982SOL    HW112845   3.103   2.395   0.695
 3982SOL    HW212846   3.177   2.280   0.784
 3983SOL     OW12847   3.455   2.083   0.882
 3983SOL    HW112848   3.371   2.082   0.936
 3983SOL    HW212849   3.457   2.166   0.826
 3984SOL     OW12850   1.901   2.939   0.300
 3984SOL    HW112851   2.000   2.928   0.291
 3984SOL    HW212852   1.861   2.853   0.332
 3985SOL     OW12853   2.737   3.508   0.337
 3985SOL    HW112854   2.660   3.473   0.283
 3985SOL    HW212855   2.705   3.579   0.399
 3986SOL     OW12856   2.092   2.490   1.975
 3986SOL    HW112857   1.999   2.488   2.012
 3986SOL    HW212858   2.093   2.451   1.883
 3987SOL     OW12859   2.087   2.137   2.858
 3987SOL    HW112860   2.122   2.120   2.950
 3987SOL    HW212861   1.999   2.092   2.846
 3988SOL     OW12862   1.881   2.230   2.509
 3988SOL    HW112863   1.799   2.273   2.548
 3988SOL    HW212864   1.853   2.157   2.446
 3989SOL     OW12865   3.417   3.373   2.565
 3989SOL    HW112866   3.360   3.357   2.646
 3989SOL    HW212867   3.358   3.383   2.485
 3990SOL     OW12868   2.197   3.297   2.923
 3990SOL    HW112869   2.119   3.266   2.870
 3990SOL    HW212870   2.255   3.355   2.866
 3991SOL     OW12871   3.322   3.367   3.201
 3991SOL    HW112872   3.346   3.461   3.227
 3991SOL    HW212873   3.306   3.313   3.283
 3992SOL     OW12874   2.300   2.254   3.361
 3992SOL    HW112875   2.382   2.198   3.370
 3992SOL    HW212876   2.219   2.196   3.365
 3993SOL     OW12877   2.093   3.575   2.345
 3993SOL    HW112878   2.127   3.652   2.399
 3993SOL    HW212879   2.137   3.575   2.255
 3994SOL     OW12880   2.989   3.203   3.552
 3994SOL    HW112881   3.036   3.203   3.640
 3994SOL    HW212882   2.941   3.116   3.541
 3995SOL     OW12883   2.092   3.296   2.400
 3995SOL    HW112884   2.066   3.392   2.400
 3995SOL    HW212885   2.021   3.242   2.445
 3996SOL     OW12886   2.102   2.953   2.748
 3996SOL    HW112887   2.116   2.869   2.800
 3996SOL    HW212888   2.047   3.017   2.803
 3997SOL     OW12889   3.456   1.976   3.342
 3997SOL    HW112890   3.438   2.043   3.270
 3997SOL    HW212891   3.453   2.022   3.431
 3998SOL     OW12892   1.984   2.505   2.425
 3998SOL    HW112893   1.939   2.417   2.442
 3998SOL    HW212894   1.983   2.559   2.509
 3999SOL     OW12895   3.704   3.629   2.221
 3999SOL    HW112896   3.758   3.600   2.301
 3999SOL    HW212897   3.734   3.719   2.192
 4000SOL     OW12898   1.889   3.458   1.979
 4000SOL    HW112899   1.870   3.362   2.000
 4000SOL    HW212900   1.856   3.516   2.054
 4001SOL     OW12901   3.551   2.784   2.474
 4001SOL    HW112902   3.646   2.755   2.482
 4001SOL    HW212903   3.543   2.849   2.399
 4002SOL     OW12904   3.503   2.970   2.294
 4002SOL    HW112905   3.589   2.972   2.242
 4002SOL    HW212906   3.517   3.017   2.382
 4003SOL     OW12907   1.975   2.599   3.459
 4003SOL    HW112908   2.063   2.586   3.504
 4003SOL    HW212909   1.962   2.696   3.437
 4004SOL     OW12910   3.155   3.090   3.285
 4004SOL    HW112911   3.192   3.017   3.227
 4004SOL    HW212912   3.207   3.095   3.370
 4005SOL     OW12913   2.671   1.866   2.364
 4005SOL    HW112914   2.711   1.957   2.355
 4005SOL    HW212915   2.571   1.874   2.370
 4006SOL     OW12916   2.059   2.838   3.126
 4006SOL    HW112917   2.148   2.793   3.112
 4006SOL    HW212918   1.986   2.773   3.107
 4007SOL     OW12919   3.387   2.861   2.052
 4007SOL    HW112920   3.324   2.785   2.065
 4007SOL    HW212921   3.435   2.879   2.138
 4008SOL     OW12922   3.049   3.654   3.478
 4008SOL    HW112923   3.073   3.714   3.402
 4008SOL    HW212924   3.056   3.559   3.448
 4009SOL     OW12925   2.179   2.113   3.663
 4009SOL    HW112926   2.250   2.184   3.669
 4009SOL    HW212927   2.091   2.152   3.691
 4010SOL     OW12928   3.328   3.279   2.815
 4010SOL    HW112929   3.269   3.285   2.895
 4010SOL    HW212930   3.313   3.191   2.769
 4011SOL     OW12931   3.529   3.576   2.434
 4011SOL    HW112932   3.488   3.553   2.346
 4011SOL    HW212933   3.511   3.502   2.499
 4012SOL     OW12934   2.460   2.591   2.132
 4012SOL    HW112935   2.484   2.660   2.064
 4012SOL    HW212936   2.382   2.624   2.186
 4013SOL     OW12937   3.143   2.207   2.806
 4013SOL    HW112938   3.057   2.157   2.793
 4013SOL    HW212939   3.205   2.153   2.862
 4014SOL     OW12940   3.438   3.524   2.169
 4014SOL    HW112941   3.527   3.570   2.172
 4014SOL    HW212942   3.417   3.500   2.074
 4015SOL     OW12943   2.669   2.467   3.327
 4015SOL    HW112944   2.622   2.464   3.416
 4015SOL    HW212945   2.618   2.412   3.261
 4016SOL     OW12946   2.853   2.272   3.104
 4016SOL    HW112947   2.776   2.306   3.158
 4016SOL    HW212948   2.819   2.221   3.025
 4017SOL     OW12949   1.938   2.673   2.651
 4017SOL    HW112950   2.037   2.661   2.660
 4017SOL    HW212951   1.914   2.768   2.672
 4018SOL     OW12952   1.992   3.683   3.433
 4018SOL    HW112953   1.982   3.668   3.532
 4018SOL    HW212954   1.906   3.719   3.397
 4019SOL     OW12955   3.224   3.006   2.407
 4019SOL    HW112956   3.307   2.977   2.359
 4019SOL    HW212957   3.175   3.073   2.351
 4020SOL     OW12958   2.412   2.058   2.747
 4020SOL    HW112959   2.407   2.053   2.847
 4020SOL    HW212960   2.414   2.154   2.718
 4021SOL     OW12961   2.870   3.318   2.339
 4021SOL    HW112962   2.824   3.390   2.287
 4021SOL    HW212963   2.866   3.338   2.437
 4022SOL     OW12964   2.213   3.663   2.715
 4022SOL    HW112965   2.263   3.577   2.721
 4022SOL    HW212966   2.278   3.740   2.712
 4023SOL     OW12967   3.657   2.928   2.735
 4023SOL    HW112968   3.595   2.913   2.659
 4023SOL    HW212969   3.605   2.939   2.820
 4024SOL     OW12970   3.089   3.412   3.368
 4024SOL    HW112971   3.095   3.335   3.432
 4024SOL    HW212972   3.037   3.386   3.288
 4025SOL     OW12973   2.183   2.805   2.104
 4025SOL    HW112974   2.265   2.844   2.062
 4025SOL    HW212975   2.156   2.723   2.055
 4026SOL     OW12976   2.323   3.128   3.589
 4026SOL    HW112977   2.273   3.129   3.503
 4026SOL    HW212978   2.260   3.110   3.665
 4027SOL     OW12979   2.973   3.638   2.099
 4027SOL    HW112980   2.913   3.576   2.149
 4027SOL    HW212981   3.004   3.594   2.014
 4028SOL     OW12982   2.064   2.147   3.360
 4028SOL    HW112983   1.984   2.207   3.347
 4028SOL    HW212984   2.054   2.098   3.446
 4029SOL     OW12985   3.494   3.239   1.943
 4029SOL    HW112986   3.462   3.333   1.933
 4029SOL    HW212987   3.418   3.176   1.931
 4030SOL     OW12988   3.262   1.969   2.288
 4030SOL    HW112989   3.238   1.932   2.198
 4030SOL    HW212990   3.361   1.985   2.292
 4031SOL     OW12991   2.111   3.647   3.103
 4031SOL    HW112992   2.168   3.582   3.153
 4031SOL    HW212993   2.095   3.614   3.010
 4032SOL     OW12994   2.802   3.560   2.766
 4032SOL    HW112995   2.882   3.503   2.787
 4032SOL    HW212996   2.753   3.520   2.689
 4033SOL     OW12997   2.244   2.562   2.342
 4033SOL    HW112998   2.289   2.472   2.339
 4033SOL    HW212999   2.150   2.551   2.375
 4034SOL     OW13000   3.409   2.084   3.591
 4034SOL    HW113001   3.404   2.121   3.683
 4034SOL    HW213002   3.337   2.015   3.579
 4035SOL     OW13003   2.476   1.984   1.979
 4035SOL    HW113004   2.574   1.962   1.986
 4035SOL    HW213005   2.445   1.967   1.886
 4036SOL     OW13006   2.643   2.126   3.611
 4036SOL    HW113007   2.710   2.065   3.654
 4036SOL    HW213008   2.570   2.145   3.676
 4037SOL     OW13009   2.750   3.376   3.057
 4037SOL    HW113010   2.727   3.351   2.963
 4037SOL    HW213011   2.811   3.307   3.096
 4038SOL     OW13012   2.784   2.365   2.761
 4038SOL    HW113013   2.759   2.356   2.665
 4038SOL    HW213014   2.832   2.283   2.792
 4039SOL     OW13015   2.401   1.926   2.374
 4039SOL    HW113016   2.320   1.927   2.432
 4039SOL    HW213017   2.404   2.009   2.319
 4040SOL     OW13018   3.296   3.050   1.903
 4040SOL    HW113019   3.328   2.974   1.960
 4040SOL    HW213020   3.204   3.077   1.933
 4041SOL     OW13021   2.159   1.897   2.033
 4041SOL    HW113022   2.208   1.981   2.012
 4041SOL    HW213023   2.221   1.832   2.078
 4042SOL     OW13024   2.797   2.098   2.342
 4042SOL    HW113025   2.749   2.139   2.264
 4042SOL    HW213026   2.896   2.096   2.323
 4043SOL     OW13027   3.089   3.432   2.655
 4043SOL    HW113028   3.110   3.506   2.590
 4043SOL    HW213029   3.157   3.432   2.728
 4044SOL     OW13030   2.321   3.014   2.603
 4044SOL    HW113031   2.250   2.987   2.668
 4044SOL    HW213032   2.295   2.986   2.510
 4045SOL     OW13033   3.133   3.659   2.453
 4045SOL    HW113034   3.177   3.723   2.389
 4045SOL    HW213035   3.083   3.711   2.523
 4046SOL     OW13036   1.940   2.418   3.248
 4046SOL    HW113037   2.032   2.417   3.207
 4046SOL    HW213038   1.934   2.492   3.315
 4047SOL     OW13039   2.423   2.084   3.009
 4047SOL    HW113040   2.461   2.000   3.046
 4047SOL    HW213041   2.335   2.103   3.053
 4048SOL     OW13042   2.728   2.316   2.504
 4048SOL    HW113043   2.696   2.388   2.442
 4048SOL    HW213044   2.752   2.235   2.451
 4049SOL     OW13045   2.879   1.901   2.615
 4049SOL    HW113046   2.807   1.906   2.546
 4049SOL    HW213047   2.855   1.832   2.684
 4050SOL     OW13048   3.291   3.035   2.729
 4050SOL    HW113049   3.236   2.951   2.722
 4050SOL    HW213050   3.317   3.064   2.637
 4051SOL     OW13051   3.526   3.142   2.519
 4051SOL    HW113052   3.625   3.150   2.533
 4051SOL    HW213053   3.481   3.226   2.550
 4052SOL     OW13054   2.389   2.118   2.190
 4052SOL    HW113055   2.416   2.059   2.115
 4052SOL    HW213056   2.389   2.213   2.159
 4053SOL     OW13057   3.616   3.085   3.450
 4053SOL    HW113058   3.707   3.046   3.437
 4053SOL    HW213059   3.624   3.181   3.474
 4054SOL     OW13060   2.926   3.209   3.202
 4054SOL    HW113061   2.846   3.186   3.257
 4054SOL    HW213062   3.009   3.183   3.251
 4055SOL     OW13063   3.454   3.491   3.487
 4055SOL    HW113064   3.481   3.525   3.397
 4055SOL    HW213065   3.533   3.453   3.533
 4056SOL     OW13066   2.973   3.057   2.962
 4056SOL    HW113067   2.933   3.101   3.043
 4056SOL    HW213068   2.932   3.094   2.879
 4057SOL     OW13069   3.500   2.961   2.941
 4057SOL    HW113070   3.505   3.042   3.000
 4057SOL    HW213071   3.414   2.963   2.890
 4058SOL     OW13072   2.777   1.951   3.264
 4058SOL    HW113073   2.802   1.931   3.169
 4058SOL    HW213074   2.849   2.007   3.306
 4059SOL     OW13075   2.272   2.675   3.113
 4059SOL    HW113076   2.358   2.687   3.163
 4059SOL    HW213077   2.230   2.588   3.140
 4060SOL     OW13078   3.136   2.248   3.124
 4060SOL    HW113079   3.157   2.322   3.188
 4060SOL    HW213080   3.047   2.265   3.081
 4061SOL     OW13081   1.926   3.426   3.193
 4061SOL    HW113082   1.880   3.508   3.159
 4061SOL    HW213083   2.024   3.445   3.202
 4062SOL     OW13084   2.229   2.962   2.363
 4062SOL    HW113085   2.222   3.045   2.307
 4062SOL    HW213086   2.233   2.882   2.303
 4063SOL     OW13087   2.428   2.399   2.727
 4063SOL    HW113088   2.440   2.465   2.653
 4063SOL    HW213089   2.474   2.433   2.810
 4064SOL     OW13090   3.114   3.210   2.250
 4064SOL    HW113091   3.164   3.287   2.290
 4064SOL    HW213092   3.019   3.212   2.282
 4065SOL     OW13093   3.134   3.307   3.004
 4065SOL    HW113094   3.181   3.320   3.091
 4065SOL    HW213095   3.068   3.233   3.013
 4066SOL     OW13096   2.264   2.613   3.460
 4066SOL    HW113097   2.332   2.668   3.413
 4066SOL    HW213098   2.304   2.525   3.487
 4067SOL     OW13099   3.449   2.641   3.532
 4067SOL    HW113100   3.357   2.679   3.527
 4067SOL    HW213101   3.509   2.688   3.467
 4068SOL     OW13102   2.875   1.967   3.632
 4068SOL    HW113103   2.881   2.052   3.580
 4068SOL    HW213104   2.907   1.891   3.575
 4069SOL     OW13105   2.366   1.912   3.602
 4069SOL    HW113106   2.324   1.855   3.532
 4069SOL    HW213107   2.300   1.981   3.634
 4070SOL     OW13108   2.435   2.732   2.891
 4070SOL    HW113109   2.479   2.821   2.882
 4070SOL    HW213110   2.372   2.732   2.968
 4071SOL     OW13111   2.169   2.075   3.093
 4071SOL    HW113112   2.146   2.112   3.183
 4071SOL    HW213113   2.139   1.980   3.087
 4072SOL     OW13114   1.899   3.172   3.144
 4072SOL    HW113115   1.952   3.123   3.212
 4072SOL    HW213116   1.921   3.270   3.149
 4073SOL     OW13117   2.594   2.496   2.926
 4073SOL    HW113118   2.653   2.470   2.850
 4073SOL    HW213119   2.566   2.592   2.915
 4074SOL     OW13120   3.590   2.797   3.716
 4074SOL    HW113121   3.544   2.790   3.627
 4074SOL    HW213122   3.528   2.841   3.782
 4075SOL     OW13123   2.169   1.925   2.480
 4075SOL    HW113124   2.158   2.019   2.513
 4075SOL    HW213125   2.164   1.862   2.557
 4076SOL     OW13126   2.842   3.435   3.562
 4076SOL    HW113127   2.822   3.479   3.474
 4076SOL    HW213128   2.881   3.344   3.546
 4077SOL     OW13129   3.721   3.380   3.467
 4077SOL    HW113130   3.735   3.407   3.372
 4077SOL    HW213131   3.804   3.402   3.520
 4078SOL     OW13132   2.212   2.760   3.666
 4078SOL    HW113133   2.288   2.804   3.714
 4078SOL    HW213134   2.247   2.713   3.584
 4079SOL     OW13135   3.402   2.136   1.987
 4079SOL    HW113136   3.341   2.061   2.010
 4079SOL    HW213137   3.424   2.188   2.070
 4080SOL     OW13138   3.165   2.700   1.904
 4080SOL    HW113139   3.199   2.607   1.919
 4080SOL    HW213140   3.183   2.727   1.809
 4081SOL     OW13141   2.930   3.195   2.711
 4081SOL    HW113142   2.937   3.111   2.656
 4081SOL    HW213143   2.992   3.264   2.675
 4082SOL     OW13144   2.181   2.672   2.811
 4082SOL    HW113145   2.274   2.708   2.816
 4082SOL    HW213146   2.175   2.587   2.863
 4083SOL     OW13147   2.201   2.371   2.868
 4083SOL    HW113148   2.149   2.288   2.851
 4083SOL    HW213149   2.278   2.376   2.804
 4084SOL     OW13150   3.000   2.242   3.540
 4084SOL    HW113151   2.955   2.305   3.604
 4084SOL    HW213152   3.093   2.273   3.523
 4085SOL     OW13153   3.022   2.069   3.339
 4085SOL    HW113154   3.022   2.133   3.416
 4085SOL    HW213155   3.050   2.117   3.256
 4086SOL     OW13156   1.870   3.188   2.062
 4086SOL    HW113157   1.777   3.209   2.031
 4086SOL    HW213158   1.880   3.089   2.075
 4087SOL     OW13159   1.950   3.663   2.789
 4087SOL    HW113160   1.908   3.577   2.762
 4087SOL    HW213161   2.044   3.666   2.755
 4088SOL     OW13162   1.902   2.406   2.976
 4088SOL    HW113163   1.987   2.373   2.935
 4088SOL    HW213164   1.915   2.421   3.074
 4089SOL     OW13165   2.051   2.382   3.584
 4089SOL    HW113166   2.110   2.342   3.514
 4089SOL    HW213167   1.993   2.453   3.543
 4090SOL     OW13168   3.231   2.812   3.522
 4090SOL    HW113169   3.270   2.901   3.542
 4090SOL    HW213170   3.241   2.792   3.425
 4091SOL     OW13171   2.677   2.434   2.187
 4091SOL    HW113172   2.684   2.345   2.141
 4091SOL    HW213173   2.583   2.468   2.179
 4092SOL     OW13174   2.114   3.426   3.606
 4092SOL    HW113175   2.084   3.483   3.682
 4092SOL    HW213176   2.107   3.329   3.632
 4093SOL     OW13177   2.533   2.326   3.131
 4093SOL    HW113178   2.499   2.237   3.101
 4093SOL    HW213179   2.559   2.380   3.051
 4094SOL     OW13180   2.792   3.540   3.327
 4094SOL    HW113181   2.768   3.522   3.232
 4094SOL    HW213182   2.822   3.634   3.337
 4095SOL     OW13183   2.335   2.362   2.053
 4095SOL    HW113184   2.396   2.442   2.057
 4095SOL    HW213185   2.240   2.393   2.060
 4096SOL     OW13186   2.021   2.999   3.328
 4096SOL    HW113187   2.043   2.938   3.404
 4096SOL    HW213188   2.031   2.950   3.242
 4097SOL     OW13189   3.209   2.921   3.096
 4097SOL    HW113190   3.233   2.858   3.022
 4097SOL    HW213191   3.119   2.961   3.078
 4098SOL     OW13192   3.621   3.609   3.016
 4098SOL    HW113193   3.682   3.639   2.943
 4098SOL    HW213194   3.583   3.520   2.994
 4099SOL     OW13195   3.114   3.593   2.990
 4099SOL    HW113196   3.198   3.598   2.936
 4099SOL    HW213197   3.091   3.497   3.008
 4100SOL     OW13198   1.945   3.120   2.884
 4100SOL    HW113199   1.940   3.119   2.984
 4100SOL    HW213200   1.862   3.079   2.846
 4101SOL     OW13201   3.588   1.997   2.385
 4101SOL    HW113202   3.661   1.980   2.318
 4101SOL    HW213203   3.557   1.910   2.423
 4102SOL     OW13204   3.250   3.435   2.339
 4102SOL    HW113205   3.317   3.447   2.265
 4102SOL    HW213206   3.210   3.524   2.362
 4103SOL     OW13207   1.992   3.656   3.713
 4103SOL    HW113208   1.951   3.582   3.766
 4103SOL    HW213209   2.056   3.707   3.771
 4104SOL     OW13210   3.142   2.789   2.534
 4104SOL    HW113211   3.202   2.708   2.536
 4104SOL    HW213212   3.182   2.858   2.474
 4105SOL     OW13213   3.512   3.582   3.256
 4105SOL    HW113214   3.565   3.592   3.172
 4105SOL    HW213215   3.485   3.672   3.290
 4106SOL     OW13216   3.703   2.037   2.825
 4106SOL    HW113217   3.742   1.952   2.789
 4106SOL    HW213218   3.605   2.039   2.806
 4107SOL     OW13219   2.125   2.188   2.582
 4107SOL    HW113220   2.046   2.239   2.548
 4107SOL    HW213221   2.116   2.173   2.680
 4108SOL     OW13222   3.056   3.474   1.893
 4108SOL    HW113223   3.062   3.381   1.930
 4108SOL    HW213224   2.997   3.474   1.813
 4109SOL     OW13225   3.366   3.469   1.906
 4109SOL    HW113226   3.274   3.506   1.913
 4109SOL    HW213227   3.404   3.489   1.816
 4110SOL     OW13228   2.234   3.150   3.352
 4110SOL    HW113229   2.221   3.243   3.318
 4110SOL    HW213230   2.150   3.098   3.339
 4111SOL     OW13231   3.476   3.154   3.151
 4111SOL    HW113232   3.536   3.157   3.231
 4111SOL    HW213233   3.401   3.218   3.164
 4112SOL     OW13234   2.901   2.960   2.558
 4112SOL    HW113235   2.831   2.913   2.612
 4112SOL    HW213236   2.960   2.892   2.515
 4113SOL     OW13237   2.876   2.098   2.833
 4113SOL    HW113238   2.868   2.062   2.740
 4113SOL    HW213239   2.874   2.022   2.898
 4114SOL     OW13240   2.117   3.210   2.152
 4114SOL    HW113241   2.021   3.211   2.125
 4114SOL    HW213242   2.129   3.263   2.236
 4115SOL     OW13243   1.967   2.875   3.588
 4115SOL    HW113244   1.890   2.842   3.642
 4115SOL    HW213245   2.052   2.845   3.630
 4116SOL     OW13246   2.534   2.065   3.351
 4116SOL    HW113247   2.624   2.049   3.311
 4116SOL    HW213248   2.542   2.070   3.450
 4117SOL     OW13249   1.937   2.207   1.895
 4117SOL    HW113250   1.845   2.179   1.866
 4117SOL    HW213251   1.968   2.284   1.839
 4118SOL     OW13252   3.302   2.718   3.260
 4118SOL    HW113253   3.245   2.770   3.197
 4118SOL    HW213254   3.398   2.730   3.236
 4119SOL     OW13255   1.934   2.028   2.180
 4119SOL    HW113256   1.917   2.111   2.126
 4119SOL    HW213257   2.024   1.991   2.158
 4120SOL     OW13258   3.045   3.197   1.981
 4120SOL    HW113259   2.946   3.186   1.983
 4120SOL    HW213260   3.079   3.212   2.074
 4121SOL     OW13261   2.475   2.704   3.293
 4121SOL    HW113262   2.531   2.785   3.276
 4121SOL    HW213263   2.534   2.624   3.296
 4122SOL     OW13264   3.355   3.629   2.821
 4122SOL    HW113265   3.388   3.693   2.752
 4122SOL    HW213266   3.421   3.623   2.896
 4123SOL     OW13267   2.578   2.427   3.570
 4123SOL    HW113268   2.597   2.492   3.644
 4123SOL    HW213269   2.638   2.347   3.579
 4124SOL     OW13270   3.312   3.082   3.495
 4124SOL    HW113271   3.303   3.072   3.594
 4124SOL    HW213272   3.408   3.075   3.469
 4125SOL     OW13273   2.252   3.603   3.422
 4125SOL    HW113274   2.161   3.644   3.420
 4125SOL    HW213275   2.245   3.509   3.454
 4126SOL     OW13276   3.536   2.745   3.116
 4126SOL    HW113277   3.509   2.656   3.079
 4126SOL    HW213278   3.537   2.813   3.043
 4127SOL     OW13279   3.087   2.187   2.311
 4127SOL    HW113280   3.152   2.113   2.300
 4127SOL    HW213281   3.107   2.237   2.395
 4128SOL     OW13282   2.456   2.607   2.514
 4128SOL    HW113283   2.506   2.692   2.495
 4128SOL    HW213284   2.368   2.609   2.466
 4129SOL     OW13285   3.639   2.204   3.504
 4129SOL    HW113286   3.622   2.235   3.410
 4129SOL    HW213287   3.555   2.167   3.542
 4130SOL     OW13288   3.592   2.796   3.379
 4130SOL    HW113289   3.630   2.887   3.394
 4130SOL    HW213290   3.584   2.779   3.280
 4131SOL     OW13291   2.721   3.236   1.878
 4131SOL    HW113292   2.675   3.251   1.966
 4131SOL    HW213293   2.765   3.321   1.848
 4132SOL     OW13294   2.945   2.846   1.949
 4132SOL    HW113295   2.922   2.899   1.867
 4132SOL    HW213296   3.026   2.790   1.930
 4133SOL     OW13297   3.723   3.431   2.713
 4133SOL    HW113298   3.652   3.419   2.643
 4133SOL    HW213299   3.724   3.352   2.773
 4134SOL     OW13300   2.083   3.176   3.706
 4134SOL    HW113301   2.018   3.103   3.685
 4134SOL    HW213302   2.087   3.190   3.804
 4135SOL     OW13303   1.941   3.102   2.515
 4135SOL    HW113304   1.940   3.055   2.603
 4135SOL    HW213305   2.023   3.074   2.464
 4136SOL     OW13306   3.686   2.054   3.089
 4136SOL    HW113307   3.682   1.964   3.133
 4136SOL    HW213308   3.689   2.043   2.990
 4137SOL     OW13309   2.290   2.286   2.382
 4137SOL    HW113310   2.320   2.214   2.320
 4137SOL    HW213311   2.251   2.246   2.465
 4138SOL     OW13312   3.567   3.349   2.966
 4138SOL    HW113313   3.474   3.324   2.939
 4138SOL    HW213314   3.593   3.299   3.048
 4139SOL     OW13315   2.179   2.409   3.142
 4139SOL    HW113316   2.217   2.350   3.214
 4139SOL    HW213317   2.219   2.383   3.054
 4140SOL     OW13318   2.674   3.448   2.549
 4140SOL    HW113319   2.706   3.458   2.455
 4140SOL    HW213320   2.595   3.386   2.551
 4141SOL     OW13321   3.286   2.076   2.974
 4141SOL    HW113322   3.338   2.011   3.029
 4141SOL    HW213323   3.237   2.139   3.035
 4142SOL     OW13324   2.863   1.896   3.016
 4142SOL    HW113325   2.800   1.824   2.985
 4142SOL    HW213326   2.956   1.860   3.016
 4143SOL     OW13327   3.214   1.914   2.030
 4143SOL    HW113328   3.249   1.873   1.946
 4143SOL    HW213329   3.124   1.876   2.050
 4144SOL     OW13330   3.455   2.083   2.744
 4144SOL    HW113331   3.371   2.082   2.798
 4144SOL    HW213332   3.457   2.166   2.688
 4145SOL     OW13333   1.901   2.939   2.162
 4145SOL    HW113334   2.000   2.928   2.153
 4145SOL    HW213335   1.861   2.853   2.194
 4146SOL     OW13336   2.737   3.508   2.199
 4146SOL    HW113337   2.660   3.473   2.145
 4146SOL    HW213338   2.705   3.579   2.261
 4147SOL     OW13339   2.092   2.490   3.837
 4147SOL    HW113340   1.999   2.488   3.874
 4147SOL    HW213341   2.093   2.451   3.745
 4148SOL     OW13342   2.087   2.137   4.720
 4148SOL    HW113343   2.122   2.120   4.812
 4148SOL    HW213344   1.999   2.092   4.708
 4149SOL     OW13345   1.881   2.230   4.371
 4149SOL    HW113346   1.799   2.273   4.410
 4149SOL    HW213347   1.853   2.157   4.308
 4150SOL     OW13348   3.417   3.373   4.427
 4150SOL    HW113349   3.360   3.357   4.508
 4150SOL    HW213350   3.358   3.383   4.347
 4151SOL     OW13351   2.712   2.660   5.547
 4151SOL    HW113352   2.708   2.736   5.612
 4151SOL    HW213353   2.734   2.696   5.456
 4152SOL     OW13354   2.548   3.023   5.527
 4152SOL    HW113355   2.608   3.102   5.541
 4152SOL    HW213356   2.462   3.054   5.486
 4153SOL     OW13357   2.197   3.297   4.785
 4153SOL    HW113358   2.119   3.266   4.732
 4153SOL    HW213359   2.255   3.355   4.728
 4154SOL     OW13360   3.322   3.367   5.063
 4154SOL    HW113361   3.346   3.461   5.089
 4154SOL    HW213362   3.306   3.313   5.145
 4155SOL     OW13363   2.300   2.254   5.223
 4155SOL    HW113364   2.382   2.198   5.232
 4155SOL    HW213365   2.219   2.196   5.227
 4156SOL     OW13366   2.093   3.575   4.207
 4156SOL    HW113367   2.127   3.652   4.261
 4156SOL    HW213368   2.137   3.575   4.117
 4157SOL     OW13369   2.989   3.203   5.414
 4157SOL    HW113370   3.036   3.203   5.502
 4157SOL    HW213371   2.941   3.116   5.403
 4158SOL     OW13372   2.092   3.296   4.262
 4158SOL    HW113373   2.066   3.392   4.262
 4158SOL    HW213374   2.021   3.242   4.307
 4159SOL     OW13375   2.102   2.953   4.610
 4159SOL    HW113376   2.116   2.869   4.662
 4159SOL    HW213377   2.047   3.017   4.665
 4160SOL     OW13378   2.468   2.826   3.847
 4160SOL    HW113379   2.475   2.910   3.793
 4160SOL    HW213380   2.514   2.839   3.935
 4161SOL     OW13381   3.456   1.976   5.204
 4161SOL    HW113382   3.438   2.043   5.132
 4161SOL    HW213383   3.453   2.022   5.293
 4162SOL     OW13384   1.984   2.505   4.287
 4162SOL    HW113385   1.939   2.417   4.304
 4162SOL    HW213386   1.983   2.559   4.371
 4163SOL     OW13387   3.704   3.629   4.083
 4163SOL    HW113388   3.758   3.600   4.163
 4163SOL    HW213389   3.734   3.719   4.054
 4164SOL     OW13390   1.889   3.458   3.841
 4164SOL    HW113391   1.870   3.362   3.862
 4164SOL    HW213392   1.856   3.516   3.916
 4165SOL     OW13393   3.551   2.784   4.336
 4165SOL    HW113394   3.646   2.755   4.344
 4165SOL    HW213395   3.543   2.849   4.261
 4166SOL     OW13396   3.503   2.970   4.156
 4166SOL    HW113397   3.589   2.972   4.104
 4166SOL    HW213398   3.517   3.017   4.244
 4167SOL     OW13399   1.975   2.599   5.321
 4167SOL    HW113400   2.063   2.586   5.366
 4167SOL    HW213401   1.962   2.696   5.299
 4168SOL     OW13402   3.155   3.090   5.147
 4168SOL    HW113403   3.192   3.017   5.089
 4168SOL    HW213404   3.207   3.095   5.232
 4169SOL     OW13405   2.671   1.866   4.226
 4169SOL    HW113406   2.711   1.957   4.217
 4169SOL    HW213407   2.571   1.874   4.232
 4170SOL     OW13408   2.059   2.838   4.988
 4170SOL    HW113409   2.148   2.793   4.974
 4170SOL    HW213410   1.986   2.773   4.969
 4171SOL     OW13411   3.387   2.861   3.914
 4171SOL    HW113412   3.324   2.785   3.927
 4171SOL    HW213413   3.435   2.879   4.000
 4172SOL     OW13414   3.049   3.654   5.340
 4172SOL    HW113415   3.073   3.714   5.264
 4172SOL    HW213416   3.056   3.559   5.310
 4173SOL     OW13417   2.179   2.113   5.525
 4173SOL    HW113418   2.250   2.184   5.531
 4173SOL    HW213419   2.091   2.152   5.553
 4174SOL     OW13420   3.328   3.279   4.677
 4174SOL    HW113421   3.269   3.285   4.757
 4174SOL    HW213422   3.313   3.191   4.631
 4175SOL     OW13423   3.529   3.576   4.296
 4175SOL    HW113424   3.488   3.553   4.208
 4175SOL    HW213425   3.511   3.502   4.361
 4176SOL     OW13426   2.460   2.591   3.994
 4176SOL    HW113427   2.484   2.660   3.926
 4176SOL    HW213428   2.382   2.624   4.048
 4177SOL     OW13429   3.143   2.207   4.668
 4177SOL    HW113430   3.057   2.157   4.655
 4177SOL    HW213431   3.205   2.153   4.724
 4178SOL     OW13432   3.438   3.524   4.031
 4178SOL    HW113433   3.527   3.570   4.034
 4178SOL    HW213434   3.417   3.500   3.936
 4179SOL     OW13435   2.669   2.467   5.189
 4179SOL    HW113436   2.622   2.464   5.278
 4179SOL    HW213437   2.618   2.412   5.123
 4180SOL     OW13438   2.835   2.752   5.296
 4180SOL    HW113439   2.881   2.668   5.267
 4180SOL    HW213440   2.779   2.786   5.221
 4181SOL     OW13441   2.853   2.272   4.966
 4181SOL    HW113442   2.776   2.306   5.020
 4181SOL    HW213443   2.819   2.221   4.887
 4182SOL     OW13444   1.938   2.673   4.513
 4182SOL    HW113445   2.037   2.661   4.522
 4182SOL    HW213446   1.914   2.768   4.534
 4183SOL     OW13447   1.992   3.683   5.295
 4183SOL    HW113448   1.982   3.668   5.394
 4183SOL    HW213449   1.906   3.719   5.259
 4184SOL     OW13450   2.727   2.210   3.919
 4184SOL    HW113451   2.786   2.273   3.870
 4184SOL    HW213452   2.746   2.116   3.890
 4185SOL     OW13453   3.581   2.447   5.555
 4185SOL    HW113454   3.555   2.536   5.519
 4185SOL    HW213455   3.579   2.379   5.482
 4186SOL     OW13456   3.224   3.006   4.269
 4186SOL    HW113457   3.307   2.977   4.221
 4186SOL    HW213458   3.175   3.073   4.213
 4187SOL     OW13459   2.412   2.058   4.609
 4187SOL    HW113460   2.407   2.053   4.709
 4187SOL    HW213461   2.414   2.154   4.580
 4188SOL     OW13462   2.870   3.318   4.201
 4188SOL    HW113463   2.824   3.390   4.149
 4188SOL    HW213464   2.866   3.338   4.299
 4189SOL     OW13465   2.213   3.663   4.577
 4189SOL    HW113466   2.263   3.577   4.583
 4189SOL    HW213467   2.278   3.740   4.574
 4190SOL     OW13468   3.657   2.928   4.597
 4190SOL    HW113469   3.595   2.913   4.521
 4190SOL    HW213470   3.605   2.939   4.682
 4191SOL     OW13471   3.089   3.412   5.230
 4191SOL    HW113472   3.095   3.335   5.294
 4191SOL    HW213473   3.037   3.386   5.150
 4192SOL     OW13474   2.183   2.805   3.966
 4192SOL    HW113475   2.265   2.844   3.924
 4192SOL    HW213476   2.156   2.723   3.917
 4193SOL     OW13477   2.323   3.128   5.451
 4193SOL    HW113478   2.273   3.129   5.365
 4193SOL    HW213479   2.260   3.110   5.527
 4194SOL     OW13480   2.973   3.638   3.961
 4194SOL    HW113481   2.913   3.576   4.011
 4194SOL    HW213482   3.004   3.594   3.876
 4195SOL     OW13483   2.064   2.147   5.222
 4195SOL    HW113484   1.984   2.207   5.209
 4195SOL    HW213485   2.054   2.098   5.308
 4196SOL     OW13486   3.494   3.239   3.805
 4196SOL    HW113487   3.462   3.333   3.795
 4196SOL    HW213488   3.418   3.176   3.793
 4197SOL     OW13489   3.262   1.969   4.150
 4197SOL    HW113490   3.238   1.932   4.060
 4197SOL    HW213491   3.361   1.985   4.154
 4198SOL     OW13492   2.111   3.647   4.965
 4198SOL    HW113493   2.168   3.582   5.015
 4198SOL    HW213494   2.095   3.614   4.872
 4199SOL     OW13495   2.802   3.560   4.628
 4199SOL    HW113496   2.882   3.503   4.649
 4199SOL    HW213497   2.753   3.520   4.551
 4200SOL     OW13498   2.244   2.562   4.204
 4200SOL    HW113499   2.289   2.472   4.201
 4200SOL    HW213500   2.150   2.551   4.237
 4201SOL     OW13501   3.409   2.084   5.453
 4201SOL    HW113502   3.404   2.121   5.545
 4201SOL    HW213503   3.337   2.015   5.441
 4202SOL     OW13504   2.476   1.984   3.841
 4202SOL    HW113505   2.574   1.962   3.848
 4202SOL    HW213506   2.445   1.967   3.748
 4203SOL     OW13507   2.643   2.126   5.473
 4203SOL    HW113508   2.710   2.065   5.516
 4203SOL    HW213509   2.570   2.145   5.538
 4204SOL     OW13510   2.750   3.376   4.919
 4204SOL    HW113511   2.727   3.351   4.825
 4204SOL    HW213512   2.811   3.307   4.958
 4205SOL     OW13513   2.784   2.365   4.623
 4205SOL    HW113514   2.759   2.356   4.527
 4205SOL    HW213515   2.832   2.283   4.654
 4206SOL     OW13516   2.401   1.926   4.236
 4206SOL    HW113517   2.320   1.927   4.294
 4206SOL    HW213518   2.404   2.009   4.181
 4207SOL     OW13519   3.296   3.050   3.765
 4207SOL    HW113520   3.328   2.974   3.822
 4207SOL    HW213521   3.204   3.077   3.795
 4208SOL     OW13522   2.159   1.897   3.895
 4208SOL    HW113523   2.208   1.981   3.874
 4208SOL    HW213524   2.221   1.832   3.940
 4209SOL     OW13525   2.797   2.098   4.204
 4209SOL    HW113526   2.749   2.139   4.126
 4209SOL    HW213527   2.896   2.096   4.185
 4210SOL     OW13528   3.089   3.432   4.517
 4210SOL    HW113529   3.110   3.506   4.452
 4210SOL    HW213530   3.157   3.432   4.590
 4211SOL     OW13531   2.321   3.014   4.465
 4211SOL    HW113532   2.250   2.987   4.530
 4211SOL    HW213533   2.295   2.986   4.372
 4212SOL     OW13534   3.133   3.659   4.315
 4212SOL    HW113535   3.177   3.723   4.251
 4212SOL    HW213536   3.083   3.711   4.385
 4213SOL     OW13537   1.940   2.418   5.110
 4213SOL    HW113538   2.032   2.417   5.069
 4213SOL    HW213539   1.934   2.492   5.177
 4214SOL     OW13540   2.423   2.084   4.871
 4214SOL    HW113541   2.461   2.000   4.908
 4214SOL    HW213542   2.335   2.103   4.915
 4215SOL     OW13543   2.728   2.316   4.366
 4215SOL    HW113544   2.696   2.388   4.304
 4215SOL    HW213545   2.752   2.235   4.313
 4216SOL     OW13546   2.879   1.901   4.477
 4216SOL    HW113547   2.807   1.906   4.408
 4216SOL    HW213548   2.855   1.832   4.546
 4217SOL     OW13549   3.291   3.035   4.591
 4217SOL    HW113550   3.236   2.951   4.584
 4217SOL    HW213551   3.317   3.064   4.499
 4218SOL     OW13552   3.526   3.142   4.381
 4218SOL    HW113553   3.625   3.150   4.395
 4218SOL    HW213554   3.481   3.226   4.412
 4219SOL     OW13555   2.389   2.118   4.052
 4219SOL    HW113556   2.416   2.059   3.977
 4219SOL    HW213557   2.389   2.213   4.021
 4220SOL     OW13558   3.616   3.085   5.312
 4220SOL    HW113559   3.707   3.046   5.299
 4220SOL    HW213560   3.624   3.181   5.336
 4221SOL     OW13561   2.926   3.209   5.064
 4221SOL    HW113562   2.846   3.186   5.119
 4221SOL    HW213563   3.009   3.183   5.113
 4222SOL     OW13564   3.454   3.491   5.349
 4222SOL    HW113565   3.481   3.525   5.259
 4222SOL    HW213566   3.533   3.453   5.395
 4223SOL     OW13567   2.973   3.057   4.824
 4223SOL    HW113568   2.933   3.101   4.905
 4223SOL    HW213569   2.932   3.094   4.741
 4224SOL     OW13570   3.500   2.961   4.803
 4224SOL    HW113571   3.505   3.042   4.862
 4224SOL    HW213572   3.414   2.963   4.752
 4225SOL     OW13573   2.777   1.951   5.126
 4225SOL    HW113574   2.802   1.931   5.031
 4225SOL    HW213575   2.849   2.007   5.168
 4226SOL     OW13576   2.842   2.978   5.443
 4226SOL    HW113577   2.743   2.984   5.453
 4226SOL    HW213578   2.865   2.898   5.387
 4227SOL     OW13579   2.272   2.675   4.975
 4227SOL    HW113580   2.358   2.687   5.025
 4227SOL    HW213581   2.230   2.588   5.002
 4228SOL     OW13582   1.926   3.426   5.055
 4228SOL    HW113583   1.880   3.508   5.021
 4228SOL    HW213584   2.024   3.445   5.064
 4229SOL     OW13585   2.229   2.962   4.225
 4229SOL    HW113586   2.222   3.045   4.169
 4229SOL    HW213587   2.233   2.882   4.165
 4230SOL     OW13588   2.428   2.399   4.589
 4230SOL    HW113589   2.440   2.465   4.515
 4230SOL    HW213590   2.474   2.433   4.672
 4231SOL     OW13591   3.114   3.210   4.112
 4231SOL    HW113592   3.164   3.287   4.152
 4231SOL    HW213593   3.019   3.212   4.144
 4232SOL     OW13594   3.134   3.307   4.866
 4232SOL    HW113595   3.181   3.320   4.953
 4232SOL    HW213596   3.068   3.233   4.875
 4233SOL     OW13597   2.216   3.372   5.053
 4233SOL    HW113598   2.195   3.328   4.966
 4233SOL    HW213599   2.313   3.398   5.056
 4234SOL     OW13600   2.264   2.613   5.322
 4234SOL    HW113601   2.332   2.668   5.275
 4234SOL    HW213602   2.304   2.525   5.349
 4235SOL     OW13603   3.449   2.641   5.394
 4235SOL    HW113604   3.357   2.679   5.389
 4235SOL    HW213605   3.509   2.688   5.329
 4236SOL     OW13606   2.875   1.967   5.494
 4236SOL    HW113607   2.881   2.052   5.442
 4236SOL    HW213608   2.907   1.891   5.437
 4237SOL     OW13609   2.366   1.912   5.464
 4237SOL    HW113610   2.324   1.855   5.394
 4237SOL    HW213611   2.300   1.981   5.496
 4238SOL     OW13612   2.435   2.732   4.753
 4238SOL    HW113613   2.479   2.821   4.744
 4238SOL    HW213614   2.372   2.732   4.830
 4239SOL     OW13615   2.169   2.075   4.955
 4239SOL    HW113616   2.146   2.112   5.045
 4239SOL    HW213617   2.139   1.980   4.949
 4240SOL     OW13618   1.899   3.172   5.006
 4240SOL    HW113619   1.952   3.123   5.074
 4240SOL    HW213620   1.921   3.270   5.011
 4241SOL     OW13621   2.594   2.496   4.788
 4241SOL    HW113622   2.653   2.470   4.712
 4241SOL    HW213623   2.566   2.592   4.777
 4242SOL     OW13624   3.590   2.797   5.578
 4242SOL    HW113625   3.544   2.790   5.489
 4242SOL    HW213626   3.528   2.841   5.644
 4243SOL     OW13627   2.169   1.925   4.342
 4243SOL    HW113628   2.158   2.019   4.375
 4243SOL    HW213629   2.164   1.862   4.419
 4244SOL     OW13630   3.484   2.229   4.098
 4244SOL    HW113631   3.486   2.153   4.162
 4244SOL    HW213632   3.436   2.306   4.138
 4245SOL     OW13633   2.842   3.435   5.424
 4245SOL    HW113634   2.822   3.479   5.336
 4245SOL    HW213635   2.881   3.344   5.408
 4246SOL     OW13636   3.721   3.380   5.329
 4246SOL    HW113637   3.735   3.407   5.234
 4246SOL    HW213638   3.804   3.402   5.382
 4247SOL     OW13639   2.212   2.760   5.528
 4247SOL    HW113640   2.288   2.804   5.576
 4247SOL    HW213641   2.247   2.713   5.446
 4248SOL     OW13642   3.402   2.136   3.849
 4248SOL    HW113643   3.341   2.061   3.872
 4248SOL    HW213644   3.424   2.188   3.932
 4249SOL     OW13645   2.930   3.195   4.573
 4249SOL    HW113646   2.937   3.111   4.518
 4249SOL    HW213647   2.992   3.264   4.537
 4250SOL     OW13648   2.181   2.672   4.673
 4250SOL    HW113649   2.274   2.708   4.678
 4250SOL    HW213650   2.175   2.587   4.725
 4251SOL     OW13651   2.201   2.371   4.730
 4251SOL    HW113652   2.149   2.288   4.713
 4251SOL    HW213653   2.278   2.376   4.666
 4252SOL     OW13654   3.000   2.242   5.402
 4252SOL    HW113655   2.955   2.305   5.466
 4252SOL    HW213656   3.093   2.273   5.385
 4253SOL     OW13657   3.022   2.069   5.201
 4253SOL    HW113658   3.022   2.133   5.278
 4253SOL    HW213659   3.050   2.117   5.118
 4254SOL     OW13660   1.870   3.188   3.924
 4254SOL    HW113661   1.777   3.209   3.893
 4254SOL    HW213662   1.880   3.089   3.937
 4255SOL     OW13663   1.950   3.663   4.651
 4255SOL    HW113664   1.908   3.577   4.624
 4255SOL    HW213665   2.044   3.666   4.617
 4256SOL     OW13666   1.902   2.406   4.838
 4256SOL    HW113667   1.987   2.373   4.797
 4256SOL    HW213668   1.915   2.421   4.936
 4257SOL     OW13669   2.051   2.382   5.446
 4257SOL    HW113670   2.110   2.342   5.376
 4257SOL    HW213671   1.993   2.453   5.405
 4258SOL     OW13672   3.231   2.812   5.384
 4258SOL    HW113673   3.270   2.901   5.404
 4258SOL    HW213674   3.241   2.792   5.287
 4259SOL     OW13675   2.677   2.434   4.049
 4259SOL    HW113676   2.684   2.345   4.003
 4259SOL    HW213677   2.583   2.468   4.041
 4260SOL     OW13678   2.114   3.426   5.468
 4260SOL    HW113679   2.084   3.483   5.544
 4260SOL    HW213680   2.107   3.329   5.494
 4261SOL     OW13681   2.533   2.326   4.993
 4261SOL    HW113682   2.499   2.237   4.963
 4261SOL    HW213683   2.559   2.380   4.913
 4262SOL     OW13684   2.792   3.540   5.189
 4262SOL    HW113685   2.768   3.522   5.094
 4262SOL    HW213686   2.822   3.634   5.199
 4263SOL     OW13687   2.335   2.362   3.915
 4263SOL    HW113688   2.396   2.442   3.919
 4263SOL    HW213689   2.240   2.393   3.922
 4264SOL     OW13690   2.021   2.999   5.190
 4264SOL    HW113691   2.043   2.938   5.266
 4264SOL    HW213692   2.031   2.950   5.104
 4265SOL     OW13693   3.209   2.921   4.958
 4265SOL    HW113694   3.233   2.858   4.884
 4265SOL    HW213695   3.119   2.961   4.940
 4266SOL     OW13696   3.621   3.609   4.878
 4266SOL    HW113697   3.682   3.639   4.805
 4266SOL    HW213698   3.583   3.520   4.856
 4267SOL     OW13699   3.114   3.593   4.852
 4267SOL    HW113700   3.198   3.598   4.798
 4267SOL    HW213701   3.091   3.497   4.870
 4268SOL     OW13702   1.945   3.120   4.746
 4268SOL    HW113703   1.940   3.119   4.846
 4268SOL    HW213704   1.862   3.079   4.708
 4269SOL     OW13705   2.550   3.524   5.440
 4269SOL    HW113706   2.494   3.605   5.449
 4269SOL    HW213707   2.602   3.528   5.354
 4270SOL     OW13708   3.588   1.997   4.247
 4270SOL    HW113709   3.661   1.980   4.180
 4270SOL    HW213710   3.557   1.910   4.285
 4271SOL     OW13711   3.250   3.435   4.201
 4271SOL    HW113712   3.317   3.447   4.127
 4271SOL    HW213713   3.210   3.524   4.224
 4272SOL     OW13714   1.992   3.656   5.575
 4272SOL    HW113715   1.951   3.582   5.628
 4272SOL    HW213716   2.056   3.707   5.633
 4273SOL     OW13717   3.142   2.789   4.396
 4273SOL    HW113718   3.202   2.708   4.398
 4273SOL    HW213719   3.182   2.858   4.336
 4274SOL     OW13720   3.512   3.582   5.118
 4274SOL    HW113721   3.565   3.592   5.034
 4274SOL    HW213722   3.485   3.672   5.152
 4275SOL     OW13723   3.703   2.037   4.687
 4275SOL    HW113724   3.742   1.952   4.651
 4275SOL    HW213725   3.605   2.039   4.668
 4276SOL     OW13726   2.125   2.188   4.444
 4276SOL    HW113727   2.046   2.239   4.410
 4276SOL    HW213728   2.116   2.173   4.542
 4277SOL     OW13729   3.056   3.474   3.755
 4277SOL    HW113730   3.062   3.381   3.792
 4277SOL    HW213731   2.997   3.474   3.675
 4278SOL     OW13732   3.366   3.469   3.768
 4278SOL    HW113733   3.274   3.506   3.775
 4278SOL    HW213734   3.404   3.489   3.678
 4279SOL     OW13735   2.234   3.150   5.214
 4279SOL    HW113736   2.221   3.243   5.180
 4279SOL    HW213737   2.150   3.098   5.201
 4280SOL     OW13738   3.476   3.154   5.013
 4280SOL    HW113739   3.536   3.157   5.093
 4280SOL    HW213740   3.401   3.218   5.026
 4281SOL     OW13741   2.876   2.098   4.695
 4281SOL    HW113742   2.868   2.062   4.602
 4281SOL    HW213743   2.874   2.022   4.760
 4282SOL     OW13744   3.571   2.247   5.105
 4282SOL    HW113745   3.644   2.316   5.109
 4282SOL    HW213746   3.599   2.172   5.046
 4283SOL     OW13747   2.117   3.210   4.014
 4283SOL    HW113748   2.021   3.211   3.987
 4283SOL    HW213749   2.129   3.263   4.098
 4284SOL     OW13750   1.967   2.875   5.450
 4284SOL    HW113751   1.890   2.842   5.504
 4284SOL    HW213752   2.052   2.845   5.492
 4285SOL     OW13753   2.534   2.065   5.213
 4285SOL    HW113754   2.624   2.049   5.173
 4285SOL    HW213755   2.542   2.070   5.312
 4286SOL     OW13756   1.937   2.207   3.757
 4286SOL    HW113757   1.845   2.179   3.728
 4286SOL    HW213758   1.968   2.284   3.701
 4287SOL     OW13759   3.302   2.718   5.122
 4287SOL    HW113760   3.245   2.770   5.059
 4287SOL    HW213761   3.398   2.730   5.098
 4288SOL     OW13762   1.934   2.028   4.042
 4288SOL    HW113763   1.917   2.111   3.988
 4288SOL    HW213764   2.024   1.991   4.020
 4289SOL     OW13765   3.045   3.197   3.843
 4289SOL    HW113766   2.946   3.186   3.845
 4289SOL    HW213767   3.079   3.212   3.936
 4290SOL     OW13768   2.475   2.704   5.155
 4290SOL    HW113769   2.531   2.785   5.138
 4290SOL    HW213770   2.534   2.624   5.158
 4291SOL     OW13771   3.355   3.629   4.683
 4291SOL    HW113772   3.388   3.693   4.614
 4291SOL    HW213773   3.421   3.623   4.758
 4292SOL     OW13774   2.578   2.427   5.432
 4292SOL    HW113775   2.597   2.492   5.506
 4292SOL    HW213776   2.638   2.347   5.441
 4293SOL     OW13777   3.312   3.082   5.357
 4293SOL    HW113778   3.303   3.072   5.456
 4293SOL    HW213779   3.408   3.075   5.331
 4294SOL     OW13780   2.252   3.603   5.284
 4294SOL    HW113781   2.161   3.644   5.282
 4294SOL    HW213782   2.245   3.509   5.316
 4295SOL     OW13783   3.536   2.745   4.978
 4295SOL    HW113784   3.509   2.656   4.941
 4295SOL    HW213785   3.537   2.813   4.905
 4296SOL     OW13786   3.087   2.187   4.173
 4296SOL    HW113787   3.152   2.113   4.162
 4296SOL    HW213788   3.107   2.237   4.257
 4297SOL     OW13789   2.456   2.607   4.376
 4297SOL    HW113790   2.506   2.692   4.357
 4297SOL    HW213791   2.368   2.609   4.328
 4298SOL     OW13792   3.639   2.204   5.366
 4298SOL    HW113793   3.622   2.235   5.272
 4298SOL    HW213794   3.555   2.167   5.404
 4299SOL     OW13795   3.592   2.796   5.241
 4299SOL    HW113796   3.630   2.887   5.256
 4299SOL    HW213797   3.584   2.779   5.142
 4300SOL     OW13798   2.721   3.236   3.740
 4300SOL    HW113799   2.675   3.251   3.828
 4300SOL    HW213800   2.765   3.321   3.710
 4301SOL     OW13801   2.945   2.846   3.811
 4301SOL    HW113802   2.922   2.899   3.729
 4301SOL    HW213803   3.026   2.790   3.792
 4302SOL     OW13804   3.723   3.431   4.575
 4302SOL    HW113805   3.652   3.419   4.505
 4302SOL    HW213806   3.724   3.352   4.635
 4303SOL     OW13807   2.083   3.176   5.568
 4303SOL    HW113808   2.018   3.103   5.547
 4303SOL    HW213809   2.087   3.190   5.666
 4304SOL     OW13810   1.941   3.102   4.377
 4304SOL    HW113811   1.940   3.055   4.465
 4304SOL    HW213812   2.023   3.074   4.326
 4305SOL     OW13813   2.534   3.253   5.348
 4305SOL    HW113814   2.456   3.203   5.386
 4305SOL    HW213815   2.531   3.348   5.379
 4306SOL     OW13816   3.686   2.054   4.951
 4306SOL    HW113817   3.682   1.964   4.995
 4306SOL    HW213818   3.689   2.043   4.852
 4307SOL     OW13819   2.290   2.286   4.244
 4307SOL    HW113820   2.320   2.214   4.182
 4307SOL    HW213821   2.251   2.246   4.327
 4308SOL     OW13822   3.567   3.349   4.828
 4308SOL    HW113823   3.474   3.324   4.801
 4308SOL    HW213824   3.593   3.299   4.910
 4309SOL     OW13825   2.179   2.409   5.004
 4309SOL    HW113826   2.217   2.350   5.076
 4309SOL    HW213827   2.219   2.383   4.916
 4310SOL     OW13828   3.286   2.076   4.836
 4310SOL    HW113829   3.338   2.011   4.891
 4310SOL    HW213830   3.237   2.139   4.897
 4311SOL     OW13831   2.863   1.896   4.878
 4311SOL    HW113832   2.800   1.824   4.847
 4311SOL    HW213833   2.956   1.860   4.878
 4312SOL     OW13834   3.214   1.914   3.892
 4312SOL    HW113835   3.249   1.873   3.808
 4312SOL    HW213836   3.124   1.876   3.912
 4313SOL     OW13837   3.162   2.315   4.415
 4313SOL    HW113838   3.103   2.395   4.419
 4313SOL    HW213839   3.177   2.280   4.508
 4314SOL     OW13840   3.455   2.083   4.606
 4314SOL    HW113841   3.371   2.082   4.660
 4314SOL    HW213842   3.457   2.166   4.550
 4315SOL     OW13843   1.901   2.939   4.024
 4315SOL    HW113844   2.000   2.928   4.015
 4315SOL    HW213845   1.861   2.853   4.056
 4316SOL     OW13846   2.737   3.508   4.061
 4316SOL    HW113847   2.660   3.473   4.007
 4316SOL    HW213848   2.705   3.579   4.123
 4317SOL     OW13849   2.092   2.490   5.699
 4317SOL    HW113850   1.999   2.488   5.736
 4317SOL    HW213851   2.093   2.451   5.607
 4318SOL     OW13852   2.087   2.137   6.582
 4318SOL    HW113853   2.122   2.120   6.674
 4318SOL    HW213854   1.999   2.092   6.570
 4319SOL     OW13855   1.881   2.230   6.233
 4319SOL    HW113856   1.799   2.273   6.272
 4319SOL    HW213857   1.853   2.157   6.170
 4320SOL     OW13858   2.431   3.137   6.751
 4320SOL    HW113859   2.338   3.130   6.714
 4320SOL    HW213860   2.442   3.226   6.795
 4321SOL     OW13861   3.417   3.373   6.289
 4321SOL    HW113862   3.360   3.357   6.370
 4321SOL    HW213863   3.358   3.383   6.209
 4322SOL     OW13864   2.997   2.565   6.303
 4322SOL    HW113865   3.054   2.643   6.278
 4322SOL    HW213866   2.937   2.591   6.379
 4323SOL     OW13867   3.617   2.469   5.817
 4323SOL    HW113868   3.605   2.456   5.718
 4323SOL    HW213869   3.587   2.388   5.866
 4324SOL     OW13870   2.630   3.006   6.609
 4324SOL    HW113871   2.552   3.023   6.669
 4324SOL    HW213872   2.664   3.093   6.573
 4325SOL     OW13873   2.547   2.874   6.251
 4325SOL    HW113874   2.616   2.858   6.321
 4325SOL    HW213875   2.474   2.931   6.289
 4326SOL     OW13876   2.197   3.297   6.647
 4326SOL    HW113877   2.119   3.266   6.594
 4326SOL    HW213878   2.255   3.355   6.590
 4327SOL     OW13879   3.465   2.309   6.323
 4327SOL    HW113880   3.391   2.355   6.273
 4327SOL    HW213881   3.516   2.377   6.376
 4328SOL     OW13882   2.093   3.575   6.069
 4328SOL    HW113883   2.127   3.652   6.123
 4328SOL    HW213884   2.137   3.575   5.979
 4329SOL     OW13885   2.092   3.296   6.124
 4329SOL    HW113886   2.066   3.392   6.124
 4329SOL    HW213887   2.021   3.242   6.169
 4330SOL     OW13888   2.102   2.953   6.472
 4330SOL    HW113889   2.116   2.869   6.524
 4330SOL    HW213890   2.047   3.017   6.527
 4331SOL     OW13891   2.482   3.648   7.025
 4331SOL    HW113892   2.390   3.631   7.060
 4331SOL    HW213893   2.510   3.740   7.051
 4332SOL     OW13894   2.468   2.826   5.709
 4332SOL    HW113895   2.475   2.910   5.655
 4332SOL    HW213896   2.514   2.839   5.797
 4333SOL     OW13897   1.984   2.505   6.149
 4333SOL    HW113898   1.939   2.417   6.166
 4333SOL    HW213899   1.983   2.559   6.233
 4334SOL     OW13900   3.704   3.629   5.945
 4334SOL    HW113901   3.758   3.600   6.025
 4334SOL    HW213902   3.734   3.719   5.916
 4335SOL     OW13903   1.889   3.458   5.703
 4335SOL    HW113904   1.870   3.362   5.724
 4335SOL    HW213905   1.856   3.516   5.778
 4336SOL     OW13906   3.551   2.784   6.198
 4336SOL    HW113907   3.646   2.755   6.206
 4336SOL    HW213908   3.543   2.849   6.123
 4337SOL     OW13909   3.503   2.970   6.018
 4337SOL    HW113910   3.589   2.972   5.966
 4337SOL    HW213911   3.517   3.017   6.106
 4338SOL     OW13912   2.475   3.227   6.312
 4338SOL    HW113913   2.426   3.140   6.321
 4338SOL    HW213914   2.452   3.270   6.225
 4339SOL     OW13915   2.671   1.866   6.088
 4339SOL    HW113916   2.711   1.957   6.079
 4339SOL    HW213917   2.571   1.874   6.094
 4340SOL     OW13918   2.059   2.838   6.850
 4340SOL    HW113919   2.148   2.793   6.836
 4340SOL    HW213920   1.986   2.773   6.831
 4341SOL     OW13921   3.387   2.861   5.776
 4341SOL    HW113922   3.324   2.785   5.789
 4341SOL    HW213923   3.435   2.879   5.862
 4342SOL     OW13924   3.328   3.279   6.539
 4342SOL    HW113925   3.269   3.285   6.619
 4342SOL    HW213926   3.313   3.191   6.493
 4343SOL     OW13927   3.529   3.576   6.158
 4343SOL    HW113928   3.488   3.553   6.070
 4343SOL    HW213929   3.511   3.502   6.223
 4344SOL     OW13930   2.460   2.591   5.856
 4344SOL    HW113931   2.484   2.660   5.788
 4344SOL    HW213932   2.382   2.624   5.910
 4345SOL     OW13933   3.143   2.207   6.530
 4345SOL    HW113934   3.057   2.157   6.517
 4345SOL    HW213935   3.205   2.153   6.586
 4346SOL     OW13936   3.438   3.524   5.893
 4346SOL    HW113937   3.527   3.570   5.896
 4346SOL    HW213938   3.417   3.500   5.798
 4347SOL     OW13939   2.669   2.467   7.051
 4347SOL    HW113940   2.622   2.464   7.140
 4347SOL    HW213941   2.618   2.412   6.985
 4348SOL     OW13942   2.853   2.272   6.828
 4348SOL    HW113943   2.776   2.306   6.882
 4348SOL    HW213944   2.819   2.221   6.749
 4349SOL     OW13945   2.903   2.563   6.015
 4349SOL    HW113946   2.929   2.559   6.111
 4349SOL    HW213947   2.818   2.512   6.001
 4350SOL     OW13948   1.938   2.673   6.375
 4350SOL    HW113949   2.037   2.661   6.384
 4350SOL    HW213950   1.914   2.768   6.396
 4351SOL     OW13951   1.992   3.683   7.157
 4351SOL    HW113952   1.982   3.668   7.256
 4351SOL    HW213953   1.906   3.719   7.121
 4352SOL     OW13954   2.727   2.210   5.781
 4352SOL    HW113955   2.786   2.273   5.732
 4352SOL    HW213956   2.746   2.116   5.752
 4353SOL     OW13957   3.224   3.006   6.131
 4353SOL    HW113958   3.307   2.977   6.083
 4353SOL    HW213959   3.175   3.073   6.075
 4354SOL     OW13960   2.412   2.058   6.471
 4354SOL    HW113961   2.407   2.053   6.571
 4354SOL    HW213962   2.414   2.154   6.442
 4355SOL     OW13963   2.870   3.318   6.063
 4355SOL    HW113964   2.824   3.390   6.011
 4355SOL    HW213965   2.866   3.338   6.161
 4356SOL     OW13966   2.213   3.663   6.439
 4356SOL    HW113967   2.263   3.577   6.445
 4356SOL    HW213968   2.278   3.740   6.436
 4357SOL     OW13969   3.657   2.928   6.459
 4357SOL    HW113970   3.595   2.913   6.383
 4357SOL    HW213971   3.605   2.939   6.544
 4358SOL     OW13972   2.183   2.805   5.828
 4358SOL    HW113973   2.265   2.844   5.786
 4358SOL    HW213974   2.156   2.723   5.779
 4359SOL     OW13975   3.320   2.597   6.314
 4359SOL    HW113976   3.315   2.532   6.389
 4359SOL    HW213977   3.400   2.656   6.327
 4360SOL     OW13978   2.973   3.638   5.823
 4360SOL    HW113979   2.913   3.576   5.873
 4360SOL    HW213980   3.004   3.594   5.738
 4361SOL     OW13981   3.494   3.239   5.667
 4361SOL    HW113982   3.462   3.333   5.657
 4361SOL    HW213983   3.418   3.176   5.655
 4362SOL     OW13984   2.326   3.605   5.909
 4362SOL    HW113985   2.359   3.644   5.995
 4362SOL    HW213986   2.402   3.598   5.844
 4363SOL     OW13987   3.262   1.969   6.012
 4363SOL    HW113988   3.238   1.932   5.922
 4363SOL    HW213989   3.361   1.985   6.016
 4364SOL     OW13990   2.111   3.647   6.827
 4364SOL    HW113991   2.168   3.582   6.877
 4364SOL    HW213992   2.095   3.614   6.734
 4365SOL     OW13993   2.802   3.560   6.490
 4365SOL    HW113994   2.882   3.503   6.511
 4365SOL    HW213995   2.753   3.520   6.413
 4366SOL     OW13996   2.244   2.562   6.066
 4366SOL    HW113997   2.289   2.472   6.063
 4366SOL    HW213998   2.150   2.551   6.099
 4367SOL     OW13999   2.476   1.984   5.703
 4367SOL    HW114000   2.574   1.962   5.710
 4367SOL    HW214001   2.445   1.967   5.610
 4368SOL     OW14002   2.750   3.376   6.781
 4368SOL    HW114003   2.727   3.351   6.687
 4368SOL    HW214004   2.811   3.307   6.820
 4369SOL     OW14005   2.665   3.264   6.510
 4369SOL    HW114006   2.755   3.278   6.468
 4369SOL    HW214007   2.594   3.266   6.439
 4370SOL     OW14008   2.784   2.365   6.485
 4370SOL    HW114009   2.759   2.356   6.389
 4370SOL    HW214010   2.832   2.283   6.516
 4371SOL     OW14011   2.401   1.926   6.098
 4371SOL    HW114012   2.320   1.927   6.156
 4371SOL    HW214013   2.404   2.009   6.043
 4372SOL     OW14014   3.296   3.050   5.627
 4372SOL    HW114015   3.328   2.974   5.684
 4372SOL    HW214016   3.204   3.077   5.657
 4373SOL     OW14017   2.159   1.897   5.757
 4373SOL    HW114018   2.208   1.981   5.736
 4373SOL    HW214019   2.221   1.832   5.802
 4374SOL     OW14020   2.797   2.098   6.066
 4374SOL    HW114021   2.749   2.139   5.988
 4374SOL    HW214022   2.896   2.096   6.047
 4375SOL     OW14023   3.089   3.432   6.379
 4375SOL    HW114024   3.110   3.506   6.314
 4375SOL    HW214025   3.157   3.432   6.452
 4376SOL     OW14026   2.321   3.014   6.327
 4376SOL    HW114027   2.250   2.987   6.392
 4376SOL    HW214028   2.295   2.986   6.234
 4377SOL     OW14029   3.133   3.659   6.177
 4377SOL    HW114030   3.177   3.723   6.113
 4377SOL    HW214031   3.083   3.711   6.247
 4378SOL     OW14032   2.894   2.411   5.602
 4378SOL    HW114033   2.853   2.493   5.563
 4378SOL    HW214034   2.958   2.437   5.675
 4379SOL     OW14035   2.423   2.084   6.733
 4379SOL    HW114036   2.461   2.000   6.770
 4379SOL    HW214037   2.335   2.103   6.777
 4380SOL     OW14038   2.728   2.316   6.228
 4380SOL    HW114039   2.696   2.388   6.166
 4380SOL    HW214040   2.752   2.235   6.175
 4381SOL     OW14041   2.879   1.901   6.339
 4381SOL    HW114042   2.807   1.906   6.270
 4381SOL    HW214043   2.855   1.832   6.408
 4382SOL     OW14044   3.291   3.035   6.453
 4382SOL    HW114045   3.236   2.951   6.446
 4382SOL    HW214046   3.317   3.064   6.361
 4383SOL     OW14047   3.328   2.452   6.578
 4383SOL    HW114048   3.298   2.357   6.585
 4383SOL    HW214049   3.401   2.468   6.644
 4384SOL     OW14050   3.719   2.695   5.963
 4384SOL    HW114051   3.761   2.631   6.027
 4384SOL    HW214052   3.681   2.644   5.885
 4385SOL     OW14053   2.350   3.247   5.760
 4385SOL    HW114054   2.263   3.232   5.807
 4385SOL    HW214055   2.333   3.273   5.665
 4386SOL     OW14056   3.526   3.142   6.243
 4386SOL    HW114057   3.625   3.150   6.257
 4386SOL    HW214058   3.481   3.226   6.274
 4387SOL     OW14059   3.252   2.437   5.664
 4387SOL    HW114060   3.198   2.416   5.745
 4387SOL    HW214061   3.343   2.396   5.673
 4388SOL     OW14062   2.389   2.118   5.914
 4388SOL    HW114063   2.416   2.059   5.839
 4388SOL    HW214064   2.389   2.213   5.883
 4389SOL     OW14065   3.616   3.085   7.174
 4389SOL    HW114066   3.707   3.046   7.161
 4389SOL    HW214067   3.624   3.181   7.198
 4390SOL     OW14068   2.973   3.057   6.686
 4390SOL    HW114069   2.933   3.101   6.767
 4390SOL    HW214070   2.932   3.094   6.603
 4391SOL     OW14071   3.500   2.961   6.665
 4391SOL    HW114072   3.505   3.042   6.724
 4391SOL    HW214073   3.414   2.963   6.614
 4392SOL     OW14074   2.567   2.912   5.954
 4392SOL    HW114075   2.553   2.919   6.053
 4392SOL    HW214076   2.651   2.861   5.936
 4393SOL     OW14077   2.272   2.675   6.837
 4393SOL    HW114078   2.358   2.687   6.887
 4393SOL    HW214079   2.230   2.588   6.864
 4394SOL     OW14080   3.136   2.248   6.848
 4394SOL    HW114081   3.157   2.322   6.912
 4394SOL    HW214082   3.047   2.265   6.805
 4395SOL     OW14083   1.926   3.426   6.917
 4395SOL    HW114084   1.880   3.508   6.883
 4395SOL    HW214085   2.024   3.445   6.926
 4396SOL     OW14086   2.229   2.962   6.087
 4396SOL    HW114087   2.222   3.045   6.031
 4396SOL    HW214088   2.233   2.882   6.027
 4397SOL     OW14089   2.428   2.399   6.451
 4397SOL    HW114090   2.440   2.465   6.377
 4397SOL    HW214091   2.474   2.433   6.534
 4398SOL     OW14092   3.114   3.210   5.974
 4398SOL    HW114093   3.164   3.287   6.014
 4398SOL    HW214094   3.019   3.212   6.006
 4399SOL     OW14095   3.134   3.307   6.728
 4399SOL    HW114096   3.181   3.320   6.815
 4399SOL    HW214097   3.068   3.233   6.737
 4400SOL     OW14098   3.444   2.501   6.058
 4400SOL    HW114099   3.413   2.562   6.131
 4400SOL    HW214100   3.494   2.553   5.989
 4401SOL     OW14101   2.216   3.372   6.915
 4401SOL    HW114102   2.195   3.328   6.828
 4401SOL    HW214103   2.313   3.398   6.918
 4402SOL     OW14104   2.435   2.732   6.615
 4402SOL    HW114105   2.479   2.821   6.606
 4402SOL    HW214106   2.372   2.732   6.692
 4403SOL     OW14107   3.222   2.724   6.631
 4403SOL    HW114108   3.147   2.724   6.565
 4403SOL    HW214109   3.259   2.632   6.640
 4404SOL     OW14110   3.071   2.387   5.861
 4404SOL    HW114111   3.084   2.303   5.915
 4404SOL    HW214112   3.042   2.461   5.921
 4405SOL     OW14113   2.169   2.075   6.817
 4405SOL    HW114114   2.146   2.112   6.907
 4405SOL    HW214115   2.139   1.980   6.811
 4406SOL     OW14116   1.899   3.172   6.868
 4406SOL    HW114117   1.952   3.123   6.936
 4406SOL    HW214118   1.921   3.270   6.873
 4407SOL     OW14119   2.594   2.496   6.650
 4407SOL    HW114120   2.653   2.470   6.574
 4407SOL    HW214121   2.566   2.592   6.639
 4408SOL     OW14122   2.169   1.925   6.204
 4408SOL    HW114123   2.158   2.019   6.237
 4408SOL    HW214124   2.164   1.862   6.281
 4409SOL     OW14125   3.484   2.229   5.960
 4409SOL    HW114126   3.486   2.153   6.024
 4409SOL    HW214127   3.436   2.306   6.000
 4410SOL     OW14128   2.885   2.628   6.552
 4410SOL    HW114129   2.900   2.649   6.648
 4410SOL    HW214130   2.855   2.533   6.543
 4411SOL     OW14131   3.402   2.136   5.711
 4411SOL    HW114132   3.341   2.061   5.734
 4411SOL    HW214133   3.424   2.188   5.794
 4412SOL     OW14134   3.165   2.700   5.628
 4412SOL    HW114135   3.199   2.607   5.643
 4412SOL    HW214136   3.183   2.727   5.533
 4413SOL     OW14137   2.930   3.195   6.435
 4413SOL    HW114138   2.937   3.111   6.380
 4413SOL    HW214139   2.992   3.264   6.399
 4414SOL     OW14140   2.181   2.672   6.535
 4414SOL    HW114141   2.274   2.708   6.540
 4414SOL    HW214142   2.175   2.587   6.587
 4415SOL     OW14143   2.201   2.371   6.592
 4415SOL    HW114144   2.149   2.288   6.575
 4415SOL    HW214145   2.278   2.376   6.528
 4416SOL     OW14146   3.022   2.069   7.063
 4416SOL    HW114147   3.022   2.133   7.140
 4416SOL    HW214148   3.050   2.117   6.980
 4417SOL     OW14149   1.870   3.188   5.786
 4417SOL    HW114150   1.777   3.209   5.755
 4417SOL    HW214151   1.880   3.089   5.799
 4418SOL     OW14152   1.950   3.663   6.513
 4418SOL    HW114153   1.908   3.577   6.486
 4418SOL    HW214154   2.044   3.666   6.479
 4419SOL     OW14155   2.366   3.430   6.496
 4419SOL    HW114156   2.432   3.504   6.505
 4419SOL    HW214157   2.410   3.351   6.454
 4420SOL     OW14158   2.864   2.658   6.824
 4420SOL    HW114159   2.905   2.626   6.910
 4420SOL    HW214160   2.768   2.631   6.821
 4421SOL     OW14161   1.902   2.406   6.700
 4421SOL    HW114162   1.987   2.373   6.659
 4421SOL    HW214163   1.915   2.421   6.798
 4422SOL     OW14164   2.677   2.434   5.911
 4422SOL    HW114165   2.684   2.345   5.865
 4422SOL    HW214166   2.583   2.468   5.903
 4423SOL     OW14167   3.519   2.466   6.792
 4423SOL    HW114168   3.481   2.397   6.854
 4423SOL    HW214169   3.601   2.430   6.748
 4424SOL     OW14170   2.533   2.326   6.855
 4424SOL    HW114171   2.499   2.237   6.825
 4424SOL    HW214172   2.559   2.380   6.775
 4425SOL     OW14173   2.792   3.540   7.051
 4425SOL    HW114174   2.768   3.522   6.956
 4425SOL    HW214175   2.822   3.634   7.061
 4426SOL     OW14176   2.335   2.362   5.777
 4426SOL    HW114177   2.396   2.442   5.781
 4426SOL    HW214178   2.240   2.393   5.784
 4427SOL     OW14179   2.021   2.999   7.052
 4427SOL    HW114180   2.043   2.938   7.128
 4427SOL    HW214181   2.031   2.950   6.966
 4428SOL     OW14182   3.209   2.921   6.820
 4428SOL    HW114183   3.233   2.858   6.746
 4428SOL    HW214184   3.119   2.961   6.802
 4429SOL     OW14185   3.164   2.717   5.895
 4429SOL    HW114186   3.078   2.686   5.937
 4429SOL    HW214187   3.160   2.703   5.796
 4430SOL     OW14188   3.621   3.609   6.740
 4430SOL    HW114189   3.682   3.639   6.667
 4430SOL    HW214190   3.583   3.520   6.718
 4431SOL     OW14191   3.114   3.593   6.714
 4431SOL    HW114192   3.198   3.598   6.660
 4431SOL    HW214193   3.091   3.497   6.732
 4432SOL     OW14194   1.945   3.120   6.608
 4432SOL    HW114195   1.940   3.119   6.708
 4432SOL    HW214196   1.862   3.079   6.570
 4433SOL     OW14197   3.588   1.997   6.109
 4433SOL    HW114198   3.661   1.980   6.042
 4433SOL    HW214199   3.557   1.910   6.147
 4434SOL     OW14200   3.250   3.435   6.063
 4434SOL    HW114201   3.317   3.447   5.989
 4434SOL    HW214202   3.210   3.524   6.086
 4435SOL     OW14203   3.142   2.789   6.258
 4435SOL    HW114204   3.202   2.708   6.260
 4435SOL    HW214205   3.182   2.858   6.198
 4436SOL     OW14206   2.534   3.478   5.740
 4436SOL    HW114207   2.543   3.488   5.641
 4436SOL    HW214208   2.494   3.389   5.761
 4437SOL     OW14209   3.703   2.037   6.549
 4437SOL    HW114210   3.742   1.952   6.513
 4437SOL    HW214211   3.605   2.039   6.530
 4438SOL     OW14212   2.125   2.188   6.306
 4438SOL    HW114213   2.046   2.239   6.272
 4438SOL    HW214214   2.116   2.173   6.404
 4439SOL     OW14215   3.056   3.474   5.617
 4439SOL    HW114216   3.062   3.381   5.654
 4439SOL    HW214217   2.997   3.474   5.537
 4440SOL     OW14218   2.684   2.864   6.958
 4440SOL    HW114219   2.724   2.863   6.866
 4440SOL    HW214220   2.694   2.956   6.998
 4441SOL     OW14221   2.778   2.772   5.877
 4441SOL    HW114222   2.841   2.810   5.809
 4441SOL    HW214223   2.818   2.689   5.916
 4442SOL     OW14224   3.366   3.469   5.630
 4442SOL    HW114225   3.274   3.506   5.637
 4442SOL    HW214226   3.404   3.489   5.540
 4443SOL     OW14227   3.476   3.154   6.875
 4443SOL    HW114228   3.536   3.157   6.955
 4443SOL    HW214229   3.401   3.218   6.888
 4444SOL     OW14230   2.901   2.960   6.282
 4444SOL    HW114231   2.831   2.913   6.336
 4444SOL    HW214232   2.960   2.892   6.239
 4445SOL     OW14233   2.876   2.098   6.557
 4445SOL    HW114234   2.868   2.062   6.464
 4445SOL    HW214235   2.874   2.022   6.622
 4446SOL     OW14236   2.452   3.349   6.077
 4446SOL    HW114237   2.494   3.291   6.007
 4446SOL    HW214238   2.408   3.428   6.033
 4447SOL     OW14239   3.571   2.247   6.967
 4447SOL    HW114240   3.644   2.316   6.971
 4447SOL    HW214241   3.599   2.172   6.908
 4448SOL     OW14242   2.117   3.210   5.876
 4448SOL    HW114243   2.021   3.211   5.849
 4448SOL    HW214244   2.129   3.263   5.960
 4449SOL     OW14245   2.534   2.065   7.075
 4449SOL    HW114246   2.624   2.049   7.035
 4449SOL    HW214247   2.542   2.070   7.174
 4450SOL     OW14248   1.937   2.207   5.619
 4450SOL    HW114249   1.845   2.179   5.590
 4450SOL    HW214250   1.968   2.284   5.563
 4451SOL     OW14251   1.934   2.028   5.904
 4451SOL    HW114252   1.917   2.111   5.850
 4451SOL    HW214253   2.024   1.991   5.882
 4452SOL     OW14254   3.045   3.197   5.705
 4452SOL    HW114255   2.946   3.186   5.707
 4452SOL    HW214256   3.079   3.212   5.798
 4453SOL     OW14257   3.355   3.629   6.545
 4453SOL    HW114258   3.388   3.693   6.476
 4453SOL    HW214259   3.421   3.623   6.620
 4454SOL     OW14260   3.312   3.082   7.219
 4454SOL    HW114261   3.303   3.072   7.318
 4454SOL    HW214262   3.408   3.075   7.193
 4455SOL     OW14263   2.252   3.603   7.146
 4455SOL    HW114264   2.161   3.644   7.144
 4455SOL    HW214265   2.245   3.509   7.178
 4456SOL     OW14266   3.536   2.745   6.840
 4456SOL    HW114267   3.509   2.656   6.803
 4456SOL    HW214268   3.537   2.813   6.767
 4457SOL     OW14269   3.087   2.187   6.035
 4457SOL    HW114270   3.152   2.113   6.024
 4457SOL    HW214271   3.107   2.237   6.119
 4458SOL     OW14272   2.456   2.607   6.238
 4458SOL    HW114273   2.506   2.692   6.219
 4458SOL    HW214274   2.368   2.609   6.190
 4459SOL     OW14275   3.592   2.796   7.103
 4459SOL    HW114276   3.630   2.887   7.118
 4459SOL    HW214277   3.584   2.779   7.004
 4460SOL     OW14278   2.721   3.236   5.602
 4460SOL    HW114279   2.675   3.251   5.690
 4460SOL    HW214280   2.765   3.321   5.572
 4461SOL     OW14281   2.523   3.652   6.539
 4461SOL    HW114282   2.477   3.740   6.526
 4461SOL    HW214283   2.622   3.664   6.532
 4462SOL     OW14284   2.721   2.818   6.447
 4462SOL    HW114285   2.775   2.749   6.495
 4462SOL    HW214286   2.689   2.887   6.513
 4463SOL     OW14287   2.945   2.846   5.673
 4463SOL    HW114288   2.922   2.899   5.591
 4463SOL    HW214289   3.026   2.790   5.654
 4464SOL     OW14290   3.723   3.431   6.437
 4464SOL    HW114291   3.652   3.419   6.367
 4464SOL    HW214292   3.724   3.352   6.497
 4465SOL     OW14293   1.941   3.102   6.239
 4465SOL    HW114294   1.940   3.055   6.327
 4465SOL    HW214295   2.023   3.074   6.188
 4466SOL     OW14296   3.686   2.054   6.813
 4466SOL    HW114297   3.682   1.964   6.857
 4466SOL    HW214298   3.689   2.043   6.714
 4467SOL     OW14299   2.290   2.286   6.106
 4467SOL    HW114300   2.320   2.214   6.044
 4467SOL    HW214301   2.251   2.246   6.189
 4468SOL     OW14302   3.567   3.349   6.690
 4468SOL    HW114303   3.474   3.324   6.663
 4468SOL    HW214304   3.593   3.299   6.772
 4469SOL     OW14305   2.179   2.409   6.866
 4469SOL    HW114306   2.217   2.350   6.938
 4469SOL    HW214307   2.219   2.383   6.778
 4470SOL     OW14308   2.674   3.448   6.273
 4470SOL    HW114309   2.706   3.458   6.179
 4470SOL    HW214310   2.595   3.386   6.275
 4471SOL     OW14311   3.286   2.076   6.698
 4471SOL    HW114312   3.338   2.011   6.753
 4471SOL    HW214313   3.237   2.139   6.759
 4472SOL     OW14314   2.863   1.896   6.740
 4472SOL    HW114315   2.800   1.824   6.709
 4472SOL    HW214316   2.956   1.860   6.740
 4473SOL     OW14317   2.632   3.192   5.887
 4473SOL    HW114318   2.586   3.105   5.904
 4473SOL    HW214319   2.723   3.189   5.928
 4474SOL     OW14320   2.480   3.429   6.870
 4474SOL    HW114321   2.475   3.511   6.927
 4474SOL    HW214322   2.569   3.426   6.825
 4475SOL     OW14323   3.214   1.914   5.754
 4475SOL    HW114324   3.249   1.873   5.670
 4475SOL    HW214325   3.124   1.876   5.774
 4476SOL     OW14326   3.162   2.315   6.277
 4476SOL    HW114327   3.103   2.395   6.281
 4476SOL    HW214328   3.177   2.280   6.370
 4477SOL     OW14329   3.455   2.083   6.468
 4477SOL    HW114330   3.371   2.082   6.522
 4477SOL    HW214331   3.457   2.166   6.412
 4478SOL     OW14332   1.901   2.939   5.886
 4478SOL    HW114333   2.000   2.928   5.877
 4478SOL    HW214334   1.861   2.853   5.918
 4479SOL     OW14335   2.737   3.508   5.923
 4479SOL    HW114336   2.660   3.473   5.869
 4479SOL    HW214337   2.705   3.579   5.985
 4480SOL     OW14338   2.092   4.352   0.113
 4480SOL    HW114339   1.999   4.350   0.150
 4480SOL    HW214340   2.093   4.313   0.021
 4481SOL     OW14341   2.087   3.999   0.996
 4481SOL    HW114342   2.122   3.982   1.088
 4481SOL    HW214343   1.999   3.954   0.984
 4482SOL     OW14344   1.881   4.092   0.647
 4482SOL    HW114345   1.799   4.135   0.686
 4482SOL    HW214346   1.853   4.019   0.584
 4483SOL     OW14347   2.431   4.999   1.165
 4483SOL    HW114348   2.338   4.992   1.128
 4483SOL    HW214349   2.442   5.088   1.209
 4484SOL     OW14350   3.417   5.235   0.703
 4484SOL    HW114351   3.360   5.219   0.784
 4484SOL    HW214352   3.358   5.245   0.623
 4485SOL     OW14353   2.997   4.427   0.717
 4485SOL    HW114354   3.054   4.505   0.692
 4485SOL    HW214355   2.937   4.453   0.793
 4486SOL     OW14356   3.617   4.331   0.231
 4486SOL    HW114357   3.605   4.318   0.132
 4486SOL    HW214358   3.587   4.250   0.280
 4487SOL     OW14359   2.630   4.868   1.023
 4487SOL    HW114360   2.552   4.885   1.083
 4487SOL    HW214361   2.664   4.955   0.987
 4488SOL     OW14362   2.547   4.736   0.665
 4488SOL    HW114363   2.616   4.720   0.735
 4488SOL    HW214364   2.474   4.793   0.703
 4489SOL     OW14365   2.548   4.885   1.803
 4489SOL    HW114366   2.608   4.964   1.817
 4489SOL    HW214367   2.462   4.916   1.762
 4490SOL     OW14368   2.197   5.159   1.061
 4490SOL    HW114369   2.119   5.128   1.008
 4490SOL    HW214370   2.255   5.217   1.004
 4491SOL     OW14371   3.322   5.229   1.339
 4491SOL    HW114372   3.346   5.323   1.365
 4491SOL    HW214373   3.306   5.175   1.421
 4492SOL     OW14374   2.300   4.116   1.499
 4492SOL    HW114375   2.382   4.060   1.508
 4492SOL    HW214376   2.219   4.058   1.503
 4493SOL     OW14377   3.465   4.171   0.737
 4493SOL    HW114378   3.391   4.217   0.687
 4493SOL    HW214379   3.516   4.239   0.790
 4494SOL     OW14380   2.093   5.437   0.483
 4494SOL    HW114381   2.127   5.514   0.537
 4494SOL    HW214382   2.137   5.437   0.393
 4495SOL     OW14383   2.989   5.065   1.690
 4495SOL    HW114384   3.036   5.065   1.778
 4495SOL    HW214385   2.941   4.978   1.679
 4496SOL     OW14386   2.092   5.158   0.538
 4496SOL    HW114387   2.066   5.254   0.538
 4496SOL    HW214388   2.021   5.104   0.583
 4497SOL     OW14389   2.102   4.815   0.886
 4497SOL    HW114390   2.116   4.731   0.938
 4497SOL    HW214391   2.047   4.879   0.941
 4498SOL     OW14392   2.482   5.510   1.439
 4498SOL    HW114393   2.390   5.493   1.474
 4498SOL    HW214394   2.510   5.602   1.465
 4499SOL     OW14395   2.468   4.688   0.123
 4499SOL    HW114396   2.475   4.772   0.069
 4499SOL    HW214397   2.514   4.701   0.211
 4500SOL     OW14398   3.456   3.838   1.480
 4500SOL    HW114399   3.438   3.905   1.408
 4500SOL    HW214400   3.453   3.884   1.569
 4501SOL     OW14401   1.984   4.367   0.563
 4501SOL    HW114402   1.939   4.279   0.580
 4501SOL    HW214403   1.983   4.421   0.647
 4502SOL     OW14404   3.704   5.491   0.359
 4502SOL    HW114405   3.758   5.462   0.439
 4502SOL    HW214406   3.734   5.581   0.330
 4503SOL     OW14407   3.551   4.646   0.612
 4503SOL    HW114408   3.646   4.617   0.620
 4503SOL    HW214409   3.543   4.711   0.537
 4504SOL     OW14410   3.503   4.832   0.432
 4504SOL    HW114411   3.589   4.834   0.380
 4504SOL    HW214412   3.517   4.879   0.520
 4505SOL     OW14413   1.975   4.461   1.597
 4505SOL    HW114414   2.063   4.448   1.642
 4505SOL    HW214415   1.962   4.558   1.575
 4506SOL     OW14416   2.475   5.089   0.726
 4506SOL    HW114417   2.426   5.002   0.735
 4506SOL    HW214418   2.452   5.132   0.639
 4507SOL     OW14419   3.155   4.952   1.423
 4507SOL    HW114420   3.192   4.879   1.365
 4507SOL    HW214421   3.207   4.957   1.508
 4508SOL     OW14422   2.671   3.728   0.502
 4508SOL    HW114423   2.711   3.819   0.493
 4508SOL    HW214424   2.571   3.736   0.508
 4509SOL     OW14425   2.059   4.700   1.264
 4509SOL    HW114426   2.148   4.655   1.250
 4509SOL    HW214427   1.986   4.635   1.245
 4510SOL     OW14428   3.387   4.723   0.190
 4510SOL    HW114429   3.324   4.647   0.203
 4510SOL    HW214430   3.435   4.741   0.276
 4511SOL     OW14431   3.049   5.516   1.616
 4511SOL    HW114432   3.073   5.576   1.540
 4511SOL    HW214433   3.056   5.421   1.586
 4512SOL     OW14434   2.179   3.975   1.801
 4512SOL    HW114435   2.250   4.046   1.807
 4512SOL    HW214436   2.091   4.014   1.829
 4513SOL     OW14437   3.328   5.141   0.953
 4513SOL    HW114438   3.269   5.147   1.033
 4513SOL    HW214439   3.313   5.053   0.907
 4514SOL     OW14440   3.529   5.438   0.572
 4514SOL    HW114441   3.488   5.415   0.484
 4514SOL    HW214442   3.511   5.364   0.637
 4515SOL     OW14443   2.460   4.453   0.270
 4515SOL    HW114444   2.484   4.522   0.202
 4515SOL    HW214445   2.382   4.486   0.324
 4516SOL     OW14446   3.143   4.069   0.944
 4516SOL    HW114447   3.057   4.019   0.931
 4516SOL    HW214448   3.205   4.015   1.000
 4517SOL     OW14449   3.438   5.386   0.307
 4517SOL    HW114450   3.527   5.432   0.310
 4517SOL    HW214451   3.417   5.362   0.212
 4518SOL     OW14452   2.669   4.329   1.465
 4518SOL    HW114453   2.622   4.326   1.554
 4518SOL    HW214454   2.618   4.274   1.399
 4519SOL     OW14455   3.256   4.193   1.674
 4519SOL    HW114456   3.236   4.236   1.762
 4519SOL    HW214457   3.334   4.131   1.683
 4520SOL     OW14458   2.835   4.614   1.572
 4520SOL    HW114459   2.881   4.530   1.543
 4520SOL    HW214460   2.779   4.648   1.497
 4521SOL     OW14461   2.853   4.134   1.242
 4521SOL    HW114462   2.776   4.168   1.296
 4521SOL    HW214463   2.819   4.083   1.163
 4522SOL     OW14464   2.903   4.425   0.429
 4522SOL    HW114465   2.929   4.421   0.525
 4522SOL    HW214466   2.818   4.374   0.415
 4523SOL     OW14467   1.938   4.535   0.789
 4523SOL    HW114468   2.037   4.523   0.798
 4523SOL    HW214469   1.914   4.630   0.810
 4524SOL     OW14470   1.992   5.545   1.571
 4524SOL    HW114471   1.982   5.530   1.670
 4524SOL    HW214472   1.906   5.581   1.535
 4525SOL     OW14473   2.727   4.072   0.195
 4525SOL    HW114474   2.786   4.135   0.146
 4525SOL    HW214475   2.746   3.978   0.166
 4526SOL     OW14476   3.581   4.309   1.831
 4526SOL    HW114477   3.555   4.398   1.795
 4526SOL    HW214478   3.579   4.241   1.758
 4527SOL     OW14479   3.224   4.868   0.545
 4527SOL    HW114480   3.307   4.839   0.497
 4527SOL    HW214481   3.175   4.935   0.489
 4528SOL     OW14482   2.412   3.920   0.885
 4528SOL    HW114483   2.407   3.915   0.985
 4528SOL    HW214484   2.414   4.016   0.856
 4529SOL     OW14485   2.870   5.180   0.477
 4529SOL    HW114486   2.824   5.252   0.425
 4529SOL    HW214487   2.866   5.200   0.575
 4530SOL     OW14488   2.213   5.525   0.853
 4530SOL    HW114489   2.263   5.439   0.859
 4530SOL    HW214490   2.278   5.602   0.850
 4531SOL     OW14491   3.657   4.790   0.873
 4531SOL    HW114492   3.595   4.775   0.797
 4531SOL    HW214493   3.605   4.801   0.958
 4532SOL     OW14494   3.089   5.274   1.506
 4532SOL    HW114495   3.095   5.197   1.570
 4532SOL    HW214496   3.037   5.248   1.426
 4533SOL     OW14497   2.183   4.667   0.242
 4533SOL    HW114498   2.265   4.706   0.200
 4533SOL    HW214499   2.156   4.585   0.193
 4534SOL     OW14500   3.320   4.459   0.728
 4534SOL    HW114501   3.315   4.394   0.803
 4534SOL    HW214502   3.400   4.518   0.741
 4535SOL     OW14503   2.323   4.990   1.727
 4535SOL    HW114504   2.273   4.991   1.641
 4535SOL    HW214505   2.260   4.972   1.803
 4536SOL     OW14506   2.973   5.500   0.237
 4536SOL    HW114507   2.913   5.438   0.287
 4536SOL    HW214508   3.004   5.456   0.152
 4537SOL     OW14509   2.064   4.009   1.498
 4537SOL    HW114510   1.984   4.069   1.485
 4537SOL    HW214511   2.054   3.960   1.584
 4538SOL     OW14512   3.494   5.101   0.081
 4538SOL    HW114513   3.462   5.195   0.071
 4538SOL    HW214514   3.418   5.038   0.069
 4539SOL     OW14515   2.326   5.467   0.323
 4539SOL    HW114516   2.359   5.506   0.409
 4539SOL    HW214517   2.402   5.460   0.258
 4540SOL     OW14518   2.111   5.509   1.241
 4540SOL    HW114519   2.168   5.444   1.291
 4540SOL    HW214520   2.095   5.476   1.148
 4541SOL     OW14521   2.802   5.422   0.904
 4541SOL    HW114522   2.882   5.365   0.925
 4541SOL    HW214523   2.753   5.382   0.827
 4542SOL     OW14524   2.244   4.424   0.480
 4542SOL    HW114525   2.289   4.334   0.477
 4542SOL    HW214526   2.150   4.413   0.513
 4543SOL     OW14527   3.409   3.946   1.729
 4543SOL    HW114528   3.404   3.983   1.821
 4543SOL    HW214529   3.337   3.877   1.717
 4544SOL     OW14530   2.750   5.238   1.195
 4544SOL    HW114531   2.727   5.213   1.101
 4544SOL    HW214532   2.811   5.169   1.234
 4545SOL     OW14533   3.213   4.314   1.433
 4545SOL    HW114534   3.241   4.271   1.518
 4545SOL    HW214535   3.238   4.410   1.434
 4546SOL     OW14536   2.665   5.126   0.924
 4546SOL    HW114537   2.755   5.140   0.882
 4546SOL    HW214538   2.594   5.128   0.853
 4547SOL     OW14539   2.784   4.227   0.899
 4547SOL    HW114540   2.759   4.218   0.803
 4547SOL    HW214541   2.832   4.145   0.930
 4548SOL     OW14542   2.401   3.788   0.512
 4548SOL    HW114543   2.320   3.789   0.570
 4548SOL    HW214544   2.404   3.871   0.457
 4549SOL     OW14545   3.296   4.912   0.041
 4549SOL    HW114546   3.328   4.836   0.098
 4549SOL    HW214547   3.204   4.939   0.071
 4550SOL     OW14548   2.797   3.960   0.480
 4550SOL    HW114549   2.749   4.001   0.402
 4550SOL    HW214550   2.896   3.958   0.461
 4551SOL     OW14551   2.938   4.407   1.464
 4551SOL    HW114552   2.858   4.346   1.467
 4551SOL    HW214553   3.019   4.354   1.440
 4552SOL     OW14554   3.089   5.294   0.793
 4552SOL    HW114555   3.110   5.368   0.728
 4552SOL    HW214556   3.157   5.294   0.866
 4553SOL     OW14557   2.321   4.876   0.741
 4553SOL    HW114558   2.250   4.849   0.806
 4553SOL    HW214559   2.295   4.848   0.648
 4554SOL     OW14560   3.133   5.521   0.591
 4554SOL    HW114561   3.177   5.585   0.527
 4554SOL    HW214562   3.083   5.573   0.661
 4555SOL     OW14563   2.894   4.273   0.016
 4555SOL    HW114564   2.853   4.355  -0.023
 4555SOL    HW214565   2.958   4.299   0.089
 4556SOL     OW14566   1.940   4.280   1.386
 4556SOL    HW114567   2.032   4.279   1.345
 4556SOL    HW214568   1.934   4.354   1.453
 4557SOL     OW14569   2.423   3.946   1.147
 4557SOL    HW114570   2.461   3.862   1.184
 4557SOL    HW214571   2.335   3.965   1.191
 4558SOL     OW14572   2.728   4.178   0.642
 4558SOL    HW114573   2.696   4.250   0.580
 4558SOL    HW214574   2.752   4.097   0.589
 4559SOL     OW14575   2.879   3.763   0.753
 4559SOL    HW114576   2.807   3.768   0.684
 4559SOL    HW214577   2.855   3.694   0.822
 4560SOL     OW14578   3.291   4.897   0.867
 4560SOL    HW114579   3.236   4.813   0.860
 4560SOL    HW214580   3.317   4.926   0.775
 4561SOL     OW14581   3.328   4.314   0.992
 4561SOL    HW114582   3.298   4.219   0.999
 4561SOL    HW214583   3.401   4.330   1.058
 4562SOL     OW14584   3.719   4.557   0.377
 4562SOL    HW114585   3.761   4.493   0.441
 4562SOL    HW214586   3.681   4.506   0.299
 4563SOL     OW14587   2.350   5.109   0.174
 4563SOL    HW114588   2.263   5.094   0.221
 4563SOL    HW214589   2.333   5.135   0.079
 4564SOL     OW14590   3.526   5.004   0.657
 4564SOL    HW114591   3.625   5.012   0.671
 4564SOL    HW214592   3.481   5.088   0.688
 4565SOL     OW14593   3.252   4.299   0.078
 4565SOL    HW114594   3.198   4.278   0.159
 4565SOL    HW214595   3.343   4.258   0.087
 4566SOL     OW14596   2.389   3.980   0.328
 4566SOL    HW114597   2.416   3.921   0.253
 4566SOL    HW214598   2.389   4.075   0.297
 4567SOL     OW14599   3.616   4.947   1.588
 4567SOL    HW114600   3.707   4.908   1.575
 4567SOL    HW214601   3.624   5.043   1.612
 4568SOL     OW14602   2.926   5.071   1.340
 4568SOL    HW114603   2.846   5.048   1.395
 4568SOL    HW214604   3.009   5.045   1.389
 4569SOL     OW14605   3.454   5.353   1.625
 4569SOL    HW114606   3.481   5.387   1.535
 4569SOL    HW214607   3.533   5.315   1.671
 4570SOL     OW14608   2.973   4.919   1.100
 4570SOL    HW114609   2.933   4.963   1.181
 4570SOL    HW214610   2.932   4.956   1.017
 4571SOL     OW14611   3.500   4.823   1.079
 4571SOL    HW114612   3.505   4.904   1.138
 4571SOL    HW214613   3.414   4.825   1.028
 4572SOL     OW14614   2.777   3.813   1.402
 4572SOL    HW114615   2.802   3.793   1.307
 4572SOL    HW214616   2.849   3.869   1.444
 4573SOL     OW14617   2.842   4.840   1.719
 4573SOL    HW114618   2.743   4.846   1.729
 4573SOL    HW214619   2.865   4.760   1.663
 4574SOL     OW14620   2.567   4.774   0.368
 4574SOL    HW114621   2.553   4.781   0.467
 4574SOL    HW214622   2.651   4.723   0.350
 4575SOL     OW14623   2.272   4.537   1.251
 4575SOL    HW114624   2.358   4.549   1.301
 4575SOL    HW214625   2.230   4.450   1.278
 4576SOL     OW14626   3.136   4.110   1.262
 4576SOL    HW114627   3.157   4.184   1.326
 4576SOL    HW214628   3.047   4.127   1.219
 4577SOL     OW14629   1.926   5.288   1.331
 4577SOL    HW114630   1.880   5.370   1.297
 4577SOL    HW214631   2.024   5.307   1.340
 4578SOL     OW14632   2.229   4.824   0.501
 4578SOL    HW114633   2.222   4.907   0.445
 4578SOL    HW214634   2.233   4.744   0.441
 4579SOL     OW14635   2.428   4.261   0.865
 4579SOL    HW114636   2.440   4.327   0.791
 4579SOL    HW214637   2.474   4.295   0.948
 4580SOL     OW14638   3.114   5.072   0.388
 4580SOL    HW114639   3.164   5.149   0.428
 4580SOL    HW214640   3.019   5.074   0.420
 4581SOL     OW14641   3.134   5.169   1.142
 4581SOL    HW114642   3.181   5.182   1.229
 4581SOL    HW214643   3.068   5.095   1.151
 4582SOL     OW14644   3.444   4.363   0.472
 4582SOL    HW114645   3.413   4.424   0.545
 4582SOL    HW214646   3.494   4.415   0.403
 4583SOL     OW14647   2.216   5.234   1.329
 4583SOL    HW114648   2.195   5.190   1.242
 4583SOL    HW214649   2.313   5.260   1.332
 4584SOL     OW14650   2.264   4.475   1.598
 4584SOL    HW114651   2.332   4.530   1.551
 4584SOL    HW214652   2.304   4.387   1.625
 4585SOL     OW14653   3.449   4.503   1.670
 4585SOL    HW114654   3.357   4.541   1.665
 4585SOL    HW214655   3.509   4.550   1.605
 4586SOL     OW14656   2.875   3.829   1.770
 4586SOL    HW114657   2.881   3.914   1.718
 4586SOL    HW214658   2.907   3.753   1.713
 4587SOL     OW14659   2.366   3.774   1.740
 4587SOL    HW114660   2.324   3.717   1.670
 4587SOL    HW214661   2.300   3.843   1.772
 4588SOL     OW14662   2.435   4.594   1.029
 4588SOL    HW114663   2.479   4.683   1.020
 4588SOL    HW214664   2.372   4.594   1.106
 4589SOL     OW14665   3.222   4.586   1.045
 4589SOL    HW114666   3.147   4.586   0.979
 4589SOL    HW214667   3.259   4.494   1.054
 4590SOL     OW14668   3.071   4.249   0.275
 4590SOL    HW114669   3.084   4.165   0.329
 4590SOL    HW214670   3.042   4.323   0.335
 4591SOL     OW14671   2.169   3.937   1.231
 4591SOL    HW114672   2.146   3.974   1.321
 4591SOL    HW214673   2.139   3.842   1.225
 4592SOL     OW14674   1.899   5.034   1.282
 4592SOL    HW114675   1.952   4.985   1.350
 4592SOL    HW214676   1.921   5.132   1.287
 4593SOL     OW14677   2.594   4.358   1.064
 4593SOL    HW114678   2.653   4.332   0.988
 4593SOL    HW214679   2.566   4.454   1.053
 4594SOL     OW14680   2.169   3.787   0.618
 4594SOL    HW114681   2.158   3.881   0.651
 4594SOL    HW214682   2.164   3.724   0.695
 4595SOL     OW14683   3.484   4.091   0.374
 4595SOL    HW114684   3.486   4.015   0.438
 4595SOL    HW214685   3.436   4.168   0.414
 4596SOL     OW14686   2.885   4.490   0.966
 4596SOL    HW114687   2.900   4.511   1.062
 4596SOL    HW214688   2.855   4.395   0.957
 4597SOL     OW14689   2.842   5.297   1.700
 4597SOL    HW114690   2.822   5.341   1.612
 4597SOL    HW214691   2.881   5.206   1.684
 4598SOL     OW14692   3.721   5.242   1.605
 4598SOL    HW114693   3.735   5.269   1.510
 4598SOL    HW214694   3.804   5.264   1.658
 4599SOL     OW14695   2.212   4.622   1.804
 4599SOL    HW114696   2.288   4.666   1.852
 4599SOL    HW214697   2.247   4.575   1.722
 4600SOL     OW14698   3.402   3.998   0.125
 4600SOL    HW114699   3.341   3.923   0.148
 4600SOL    HW214700   3.424   4.050   0.208
 4601SOL     OW14701   3.165   4.562   0.042
 4601SOL    HW114702   3.199   4.469   0.057
 4601SOL    HW214703   3.183   4.589  -0.053
 4602SOL     OW14704   2.930   5.057   0.849
 4602SOL    HW114705   2.937   4.973   0.794
 4602SOL    HW214706   2.992   5.126   0.813
 4603SOL     OW14707   2.181   4.534   0.949
 4603SOL    HW114708   2.274   4.570   0.954
 4603SOL    HW214709   2.175   4.449   1.001
 4604SOL     OW14710   2.201   4.233   1.006
 4604SOL    HW114711   2.149   4.150   0.989
 4604SOL    HW214712   2.278   4.238   0.942
 4605SOL     OW14713   3.000   4.104   1.678
 4605SOL    HW114714   2.955   4.167   1.742
 4605SOL    HW214715   3.093   4.135   1.661
 4606SOL     OW14716   3.022   3.931   1.477
 4606SOL    HW114717   3.022   3.995   1.554
 4606SOL    HW214718   3.050   3.979   1.394
 4607SOL     OW14719   1.950   5.525   0.927
 4607SOL    HW114720   1.908   5.439   0.900
 4607SOL    HW214721   2.044   5.528   0.893
 4608SOL     OW14722   2.366   5.292   0.910
 4608SOL    HW114723   2.432   5.366   0.919
 4608SOL    HW214724   2.410   5.213   0.868
 4609SOL     OW14725   2.864   4.520   1.238
 4609SOL    HW114726   2.905   4.488   1.324
 4609SOL    HW214727   2.768   4.493   1.235
 4610SOL     OW14728   1.902   4.268   1.114
 4610SOL    HW114729   1.987   4.235   1.073
 4610SOL    HW214730   1.915   4.283   1.212
 4611SOL     OW14731   2.051   4.244   1.722
 4611SOL    HW114732   2.110   4.204   1.652
 4611SOL    HW214733   1.993   4.315   1.681
 4612SOL     OW14734   3.231   4.674   1.660
 4612SOL    HW114735   3.270   4.763   1.680
 4612SOL    HW214736   3.241   4.654   1.563
 4613SOL     OW14737   2.677   4.296   0.325
 4613SOL    HW114738   2.684   4.207   0.279
 4613SOL    HW214739   2.583   4.330   0.317
 4614SOL     OW14740   3.519   4.328   1.206
 4614SOL    HW114741   3.481   4.259   1.268
 4614SOL    HW214742   3.601   4.292   1.162
 4615SOL     OW14743   2.114   5.288   1.744
 4615SOL    HW114744   2.084   5.345   1.820
 4615SOL    HW214745   2.107   5.191   1.770
 4616SOL     OW14746   2.533   4.188   1.269
 4616SOL    HW114747   2.499   4.099   1.239
 4616SOL    HW214748   2.559   4.242   1.189
 4617SOL     OW14749   2.792   5.402   1.465
 4617SOL    HW114750   2.768   5.384   1.370
 4617SOL    HW214751   2.822   5.496   1.475
 4618SOL     OW14752   2.335   4.224   0.191
 4618SOL    HW114753   2.396   4.304   0.195
 4618SOL    HW214754   2.240   4.255   0.198
 4619SOL     OW14755   2.021   4.861   1.466
 4619SOL    HW114756   2.043   4.800   1.542
 4619SOL    HW214757   2.031   4.812   1.380
 4620SOL     OW14758   3.209   4.783   1.234
 4620SOL    HW114759   3.233   4.720   1.160
 4620SOL    HW214760   3.119   4.823   1.216
 4621SOL     OW14761   3.164   4.579   0.309
 4621SOL    HW114762   3.078   4.548   0.351
 4621SOL    HW214763   3.160   4.565   0.210
 4622SOL     OW14764   3.621   5.471   1.154
 4622SOL    HW114765   3.682   5.501   1.081
 4622SOL    HW214766   3.583   5.382   1.132
 4623SOL     OW14767   3.114   5.455   1.128
 4623SOL    HW114768   3.198   5.460   1.074
 4623SOL    HW214769   3.091   5.359   1.146
 4624SOL     OW14770   1.945   4.982   1.022
 4624SOL    HW114771   1.940   4.981   1.122
 4624SOL    HW214772   1.862   4.941   0.984
 4625SOL     OW14773   2.550   5.386   1.716
 4625SOL    HW114774   2.494   5.467   1.725
 4625SOL    HW214775   2.602   5.390   1.630
 4626SOL     OW14776   2.765   3.810   0.133
 4626SOL    HW114777   2.816   3.811   0.047
 4626SOL    HW214778   2.821   3.768   0.204
 4627SOL     OW14779   3.588   3.859   0.523
 4627SOL    HW114780   3.661   3.842   0.456
 4627SOL    HW214781   3.557   3.772   0.561
 4628SOL     OW14782   3.250   5.297   0.477
 4628SOL    HW114783   3.317   5.309   0.403
 4628SOL    HW214784   3.210   5.386   0.500
 4629SOL     OW14785   1.992   5.518   1.851
 4629SOL    HW114786   1.951   5.444   1.904
 4629SOL    HW214787   2.056   5.569   1.909
 4630SOL     OW14788   3.142   4.651   0.672
 4630SOL    HW114789   3.202   4.570   0.674
 4630SOL    HW214790   3.182   4.720   0.612
 4631SOL     OW14791   2.692   4.997   1.422
 4631SOL    HW114792   2.687   5.030   1.517
 4631SOL    HW214793   2.606   5.016   1.376
 4632SOL     OW14794   2.534   5.340   0.154
 4632SOL    HW114795   2.543   5.350   0.055
 4632SOL    HW214796   2.494   5.251   0.175
 4633SOL     OW14797   3.512   5.444   1.394
 4633SOL    HW114798   3.565   5.454   1.310
 4633SOL    HW214799   3.485   5.534   1.428
 4634SOL     OW14800   2.125   4.050   0.720
 4634SOL    HW114801   2.046   4.101   0.686
 4634SOL    HW214802   2.116   4.035   0.818
 4635SOL     OW14803   3.056   5.336   0.031
 4635SOL    HW114804   3.062   5.243   0.068
 4635SOL    HW214805   2.997   5.336  -0.049
 4636SOL     OW14806   2.684   4.726   1.372
 4636SOL    HW114807   2.724   4.725   1.280
 4636SOL    HW214808   2.694   4.818   1.412
 4637SOL     OW14809   2.778   4.634   0.291
 4637SOL    HW114810   2.841   4.672   0.223
 4637SOL    HW214811   2.818   4.551   0.330
 4638SOL     OW14812   3.366   5.331   0.044
 4638SOL    HW114813   3.274   5.368   0.051
 4638SOL    HW214814   3.404   5.351  -0.046
 4639SOL     OW14815   2.234   5.012   1.490
 4639SOL    HW114816   2.221   5.105   1.456
 4639SOL    HW214817   2.150   4.960   1.477
 4640SOL     OW14818   3.476   5.016   1.289
 4640SOL    HW114819   3.536   5.019   1.369
 4640SOL    HW214820   3.401   5.080   1.302
 4641SOL     OW14821   2.901   4.822   0.696
 4641SOL    HW114822   2.831   4.775   0.750
 4641SOL    HW214823   2.960   4.754   0.653
 4642SOL     OW14824   2.876   3.960   0.971
 4642SOL    HW114825   2.868   3.924   0.878
 4642SOL    HW214826   2.874   3.884   1.036
 4643SOL     OW14827   2.452   5.211   0.491
 4643SOL    HW114828   2.494   5.153   0.421
 4643SOL    HW214829   2.408   5.290   0.447
 4644SOL     OW14830   2.117   5.072   0.290
 4644SOL    HW114831   2.021   5.073   0.263
 4644SOL    HW214832   2.129   5.125   0.374
 4645SOL     OW14833   1.967   4.737   1.726
 4645SOL    HW114834   1.890   4.704   1.780
 4645SOL    HW214835   2.052   4.707   1.768
 4646SOL     OW14836   2.534   3.927   1.489
 4646SOL    HW114837   2.624   3.911   1.449
 4646SOL    HW214838   2.542   3.932   1.588
 4647SOL     OW14839   1.937   4.069   0.033
 4647SOL    HW114840   1.845   4.041   0.004
 4647SOL    HW214841   1.968   4.146  -0.023
 4648SOL     OW14842   3.302   4.580   1.398
 4648SOL    HW114843   3.245   4.632   1.335
 4648SOL    HW214844   3.398   4.592   1.374
 4649SOL     OW14845   1.934   3.890   0.318
 4649SOL    HW114846   1.917   3.973   0.264
 4649SOL    HW214847   2.024   3.853   0.296
 4650SOL     OW14848   3.045   5.059   0.119
 4650SOL    HW114849   2.946   5.048   0.121
 4650SOL    HW214850   3.079   5.074   0.212
 4651SOL     OW14851   2.475   4.566   1.431
 4651SOL    HW114852   2.531   4.647   1.414
 4651SOL    HW214853   2.534   4.486   1.434
 4652SOL     OW14854   3.355   5.491   0.959
 4652SOL    HW114855   3.388   5.555   0.890
 4652SOL    HW214856   3.421   5.485   1.034
 4653SOL     OW14857   2.578   4.289   1.708
 4653SOL    HW114858   2.597   4.354   1.782
 4653SOL    HW214859   2.638   4.209   1.717
 4654SOL     OW14860   3.312   4.944   1.633
 4654SOL    HW114861   3.303   4.934   1.732
 4654SOL    HW214862   3.408   4.937   1.607
 4655SOL     OW14863   2.252   5.465   1.560
 4655SOL    HW114864   2.161   5.506   1.558
 4655SOL    HW214865   2.245   5.371   1.592
 4656SOL     OW14866   3.536   4.607   1.254
 4656SOL    HW114867   3.509   4.518   1.217
 4656SOL    HW214868   3.537   4.675   1.181
 4657SOL     OW14869   3.087   4.049   0.449
 4657SOL    HW114870   3.152   3.975   0.438
 4657SOL    HW214871   3.107   4.099   0.533
 4658SOL     OW14872   2.456   4.469   0.652
 4658SOL    HW114873   2.506   4.554   0.633
 4658SOL    HW214874   2.368   4.471   0.604
 4659SOL     OW14875   3.639   4.066   1.642
 4659SOL    HW114876   3.622   4.097   1.548
 4659SOL    HW214877   3.555   4.029   1.680
 4660SOL     OW14878   3.592   4.658   1.517
 4660SOL    HW114879   3.630   4.749   1.532
 4660SOL    HW214880   3.584   4.641   1.418
 4661SOL     OW14881   2.721   5.098   0.016
 4661SOL    HW114882   2.675   5.113   0.104
 4661SOL    HW214883   2.765   5.183  -0.014
 4662SOL     OW14884   2.523   5.514   0.953
 4662SOL    HW114885   2.477   5.602   0.940
 4662SOL    HW214886   2.622   5.526   0.946
 4663SOL     OW14887   2.721   4.680   0.861
 4663SOL    HW114888   2.775   4.611   0.909
 4663SOL    HW214889   2.689   4.749   0.927
 4664SOL     OW14890   2.945   4.708   0.087
 4664SOL    HW114891   2.922   4.761   0.005
 4664SOL    HW214892   3.026   4.652   0.068
 4665SOL     OW14893   3.723   5.293   0.851
 4665SOL    HW114894   3.652   5.281   0.781
 4665SOL    HW214895   3.724   5.214   0.911
 4666SOL     OW14896   2.083   5.038   1.844
 4666SOL    HW114897   2.018   4.965   1.823
 4666SOL    HW214898   2.087   5.052   1.942
 4667SOL     OW14899   1.941   4.964   0.653
 4667SOL    HW114900   1.940   4.917   0.741
 4667SOL    HW214901   2.023   4.936   0.602
 4668SOL     OW14902   2.534   5.115   1.624
 4668SOL    HW114903   2.456   5.065   1.662
 4668SOL    HW214904   2.531   5.210   1.655
 4669SOL     OW14905   2.290   4.148   0.520
 4669SOL    HW114906   2.320   4.076   0.458
 4669SOL    HW214907   2.251   4.108   0.603
 4670SOL     OW14908   3.567   5.211   1.104
 4670SOL    HW114909   3.474   5.186   1.077
 4670SOL    HW214910   3.593   5.161   1.186
 4671SOL     OW14911   2.179   4.271   1.280
 4671SOL    HW114912   2.217   4.212   1.352
 4671SOL    HW214913   2.219   4.245   1.192
 4672SOL     OW14914   2.674   5.310   0.687
 4672SOL    HW114915   2.706   5.320   0.593
 4672SOL    HW214916   2.595   5.248   0.689
 4673SOL     OW14917   3.286   3.938   1.112
 4673SOL    HW114918   3.338   3.873   1.167
 4673SOL    HW214919   3.237   4.001   1.173
 4674SOL     OW14920   2.863   3.758   1.154
 4674SOL    HW114921   2.800   3.686   1.123
 4674SOL    HW214922   2.956   3.722   1.154
 4675SOL     OW14923   2.632   5.054   0.301
 4675SOL    HW114924   2.586   4.967   0.318
 4675SOL    HW214925   2.723   5.051   0.342
 4676SOL     OW14926   2.480   5.291   1.284
 4676SOL    HW114927   2.475   5.373   1.341
 4676SOL    HW214928   2.569   5.288   1.239
 4677SOL     OW14929   3.214   3.776   0.168
 4677SOL    HW114930   3.249   3.735   0.084
 4677SOL    HW214931   3.124   3.738   0.188
 4678SOL     OW14932   3.162   4.177   0.691
 4678SOL    HW114933   3.103   4.257   0.695
 4678SOL    HW214934   3.177   4.142   0.784
 4679SOL     OW14935   3.455   3.945   0.882
 4679SOL    HW114936   3.371   3.944   0.936
 4679SOL    HW214937   3.457   4.028   0.826
 4680SOL     OW14938   1.901   4.801   0.300
 4680SOL    HW114939   2.000   4.790   0.291
 4680SOL    HW214940   1.861   4.715   0.332
 4681SOL     OW14941   2.737   5.370   0.337
 4681SOL    HW114942   2.660   5.335   0.283
 4681SOL    HW214943   2.705   5.441   0.399
 4682SOL     OW14944   2.092   4.352   1.975
 4682SOL    HW114945   1.999   4.350   2.012
 4682SOL    HW214946   2.093   4.313   1.883
 4683SOL     OW14947   2.087   3.999   2.858
 4683SOL    HW114948   2.122   3.982   2.950
 4683SOL    HW214949   1.999   3.954   2.846
 4684SOL     OW14950   1.881   4.092   2.509
 4684SOL    HW114951   1.799   4.135   2.548
 4684SOL    HW214952   1.853   4.019   2.446
 4685SOL     OW14953   2.431   4.999   3.027
 4685SOL    HW114954   2.338   4.992   2.990
 4685SOL    HW214955   2.442   5.088   3.071
 4686SOL     OW14956   3.417   5.235   2.565
 4686SOL    HW114957   3.360   5.219   2.646
 4686SOL    HW214958   3.358   5.245   2.485
 4687SOL     OW14959   3.617   4.331   2.093
 4687SOL    HW114960   3.605   4.318   1.994
 4687SOL    HW214961   3.587   4.250   2.142
 4688SOL     OW14962   2.630   4.868   2.885
 4688SOL    HW114963   2.552   4.885   2.945
 4688SOL    HW214964   2.664   4.955   2.849
 4689SOL     OW14965   2.712   4.522   3.685
 4689SOL    HW114966   2.708   4.598   3.750
 4689SOL    HW214967   2.734   4.558   3.594
 4690SOL     OW14968   2.547   4.736   2.527
 4690SOL    HW114969   2.616   4.720   2.597
 4690SOL    HW214970   2.474   4.793   2.565
 4691SOL     OW14971   2.548   4.885   3.665
 4691SOL    HW114972   2.608   4.964   3.679
 4691SOL    HW214973   2.462   4.916   3.624
 4692SOL     OW14974   2.197   5.159   2.923
 4692SOL    HW114975   2.119   5.128   2.870
 4692SOL    HW214976   2.255   5.217   2.866
 4693SOL     OW14977   3.322   5.229   3.201
 4693SOL    HW114978   3.346   5.323   3.227
 4693SOL    HW214979   3.306   5.175   3.283
 4694SOL     OW14980   2.300   4.116   3.361
 4694SOL    HW114981   2.382   4.060   3.370
 4694SOL    HW214982   2.219   4.058   3.365
 4695SOL     OW14983   3.465   4.171   2.599
 4695SOL    HW114984   3.391   4.217   2.549
 4695SOL    HW214985   3.516   4.239   2.652
 4696SOL     OW14986   2.093   5.437   2.345
 4696SOL    HW114987   2.127   5.514   2.399
 4696SOL    HW214988   2.137   5.437   2.255
 4697SOL     OW14989   2.989   5.065   3.552
 4697SOL    HW114990   3.036   5.065   3.640
 4697SOL    HW214991   2.941   4.978   3.541
 4698SOL     OW14992   2.092   5.158   2.400
 4698SOL    HW114993   2.066   5.254   2.400
 4698SOL    HW214994   2.021   5.104   2.445
 4699SOL     OW14995   2.102   4.815   2.748
 4699SOL    HW114996   2.116   4.731   2.800
 4699SOL    HW214997   2.047   4.879   2.803
 4700SOL     OW14998   2.482   5.510   3.301
 4700SOL    HW114999   2.390   5.493   3.336
 4700SOL    HW215000   2.510   5.602   3.327
 4701SOL     OW15001   2.468   4.688   1.985
 4701SOL    HW115002   2.475   4.772   1.931
 4701SOL    HW215003   2.514   4.701   2.073
 4702SOL     OW15004   3.456   3.838   3.342
 4702SOL    HW115005   3.438   3.905   3.270
 4702SOL    HW215006   3.453   3.884   3.431
 4703SOL     OW15007   1.984   4.367   2.425
 4703SOL    HW115008   1.939   4.279   2.442
 4703SOL    HW215009   1.983   4.421   2.509
 4704SOL     OW15010   3.704   5.491   2.221
 4704SOL    HW115011   3.758   5.462   2.301
 4704SOL    HW215012   3.734   5.581   2.192
 4705SOL     OW15013   1.889   5.320   1.979
 4705SOL    HW115014   1.870   5.224   2.000
 4705SOL    HW215015   1.856   5.378   2.054
 4706SOL     OW15016   3.503   4.832   2.294
 4706SOL    HW115017   3.589   4.834   2.242
 4706SOL    HW215018   3.517   4.879   2.382
 4707SOL     OW15019   1.975   4.461   3.459
 4707SOL    HW115020   2.063   4.448   3.504
 4707SOL    HW215021   1.962   4.558   3.437
 4708SOL     OW15022   2.475   5.089   2.588
 4708SOL    HW115023   2.426   5.002   2.597
 4708SOL    HW215024   2.452   5.132   2.501
 4709SOL     OW15025   3.155   4.952   3.285
 4709SOL    HW115026   3.192   4.879   3.227
 4709SOL    HW215027   3.207   4.957   3.370
 4710SOL     OW15028   2.059   4.700   3.126
 4710SOL    HW115029   2.148   4.655   3.112
 4710SOL    HW215030   1.986   4.635   3.107
 4711SOL     OW15031   3.049   5.516   3.478
 4711SOL    HW115032   3.073   5.576   3.402
 4711SOL    HW215033   3.056   5.421   3.448
 4712SOL     OW15034   2.179   3.975   3.663
 4712SOL    HW115035   2.250   4.046   3.669
 4712SOL    HW215036   2.091   4.014   3.691
 4713SOL     OW15037   3.328   5.141   2.815
 4713SOL    HW115038   3.269   5.147   2.895
 4713SOL    HW215039   3.313   5.053   2.769
 4714SOL     OW15040   3.529   5.438   2.434
 4714SOL    HW115041   3.488   5.415   2.346
 4714SOL    HW215042   3.511   5.364   2.499
 4715SOL     OW15043   2.460   4.453   2.132
 4715SOL    HW115044   2.484   4.522   2.064
 4715SOL    HW215045   2.382   4.486   2.186
 4716SOL     OW15046   3.143   4.069   2.806
 4716SOL    HW115047   3.057   4.019   2.793
 4716SOL    HW215048   3.205   4.015   2.862
 4717SOL     OW15049   3.438   5.386   2.169
 4717SOL    HW115050   3.527   5.432   2.172
 4717SOL    HW215051   3.417   5.362   2.074
 4718SOL     OW15052   3.256   4.193   3.536
 4718SOL    HW115053   3.236   4.236   3.624
 4718SOL    HW215054   3.334   4.131   3.545
 4719SOL     OW15055   1.938   4.535   2.651
 4719SOL    HW115056   2.037   4.523   2.660
 4719SOL    HW215057   1.914   4.630   2.672
 4720SOL     OW15058   1.992   5.545   3.433
 4720SOL    HW115059   1.982   5.530   3.532
 4720SOL    HW215060   1.906   5.581   3.397
 4721SOL     OW15061   3.224   4.868   2.407
 4721SOL    HW115062   3.307   4.839   2.359
 4721SOL    HW215063   3.175   4.935   2.351
 4722SOL     OW15064   2.870   5.180   2.339
 4722SOL    HW115065   2.824   5.252   2.287
 4722SOL    HW215066   2.866   5.200   2.437
 4723SOL     OW15067   2.213   5.525   2.715
 4723SOL    HW115068   2.263   5.439   2.721
 4723SOL    HW215069   2.278   5.602   2.712
 4724SOL     OW15070   3.657   4.790   2.735
 4724SOL    HW115071   3.595   4.775   2.659
 4724SOL    HW215072   3.605   4.801   2.820
 4725SOL     OW15073   3.089   5.274   3.368
 4725SOL    HW115074   3.095   5.197   3.432
 4725SOL    HW215075   3.037   5.248   3.288
 4726SOL     OW15076   2.183   4.667   2.104
 4726SOL    HW115077   2.265   4.706   2.062
 4726SOL    HW215078   2.156   4.585   2.055
 4727SOL     OW15079   2.323   4.990   3.589
 4727SOL    HW115080   2.273   4.991   3.503
 4727SOL    HW215081   2.260   4.972   3.665
 4728SOL     OW15082   2.973   5.500   2.099
 4728SOL    HW115083   2.913   5.438   2.149
 4728SOL    HW215084   3.004   5.456   2.014
 4729SOL     OW15085   2.064   4.009   3.360
 4729SOL    HW115086   1.984   4.069   3.347
 4729SOL    HW215087   2.054   3.960   3.446
 4730SOL     OW15088   3.494   5.101   1.943
 4730SOL    HW115089   3.462   5.195   1.933
 4730SOL    HW215090   3.418   5.038   1.931
 4731SOL     OW15091   2.326   5.467   2.185
 4731SOL    HW115092   2.359   5.506   2.271
 4731SOL    HW215093   2.402   5.460   2.120
 4732SOL     OW15094   3.262   3.831   2.288
 4732SOL    HW115095   3.238   3.794   2.198
 4732SOL    HW215096   3.361   3.847   2.292
 4733SOL     OW15097   2.111   5.509   3.103
 4733SOL    HW115098   2.168   5.444   3.153
 4733SOL    HW215099   2.095   5.476   3.010
 4734SOL     OW15100   2.802   5.422   2.766
 4734SOL    HW115101   2.882   5.365   2.787
 4734SOL    HW215102   2.753   5.382   2.689
 4735SOL     OW15103   2.244   4.424   2.342
 4735SOL    HW115104   2.289   4.334   2.339
 4735SOL    HW215105   2.150   4.413   2.375
 4736SOL     OW15106   3.409   3.946   3.591
 4736SOL    HW115107   3.404   3.983   3.683
 4736SOL    HW215108   3.337   3.877   3.579
 4737SOL     OW15109   2.750   5.238   3.057
 4737SOL    HW115110   2.727   5.213   2.963
 4737SOL    HW215111   2.811   5.169   3.096
 4738SOL     OW15112   2.665   5.126   2.786
 4738SOL    HW115113   2.755   5.140   2.744
 4738SOL    HW215114   2.594   5.128   2.715
 4739SOL     OW15115   3.296   4.912   1.903
 4739SOL    HW115116   3.328   4.836   1.960
 4739SOL    HW215117   3.204   4.939   1.933
 4740SOL     OW15118   2.159   3.759   2.033
 4740SOL    HW115119   2.208   3.843   2.012
 4740SOL    HW215120   2.221   3.694   2.078
 4741SOL     OW15121   3.089   5.294   2.655
 4741SOL    HW115122   3.110   5.368   2.590
 4741SOL    HW215123   3.157   5.294   2.728
 4742SOL     OW15124   2.321   4.876   2.603
 4742SOL    HW115125   2.250   4.849   2.668
 4742SOL    HW215126   2.295   4.848   2.510
 4743SOL     OW15127   3.133   5.521   2.453
 4743SOL    HW115128   3.177   5.585   2.389
 4743SOL    HW215129   3.083   5.573   2.523
 4744SOL     OW15130   1.940   4.280   3.248
 4744SOL    HW115131   2.032   4.279   3.207
 4744SOL    HW215132   1.934   4.354   3.315
 4745SOL     OW15133   2.879   3.763   2.615
 4745SOL    HW115134   2.807   3.768   2.546
 4745SOL    HW215135   2.855   3.694   2.684
 4746SOL     OW15136   3.291   4.897   2.729
 4746SOL    HW115137   3.236   4.813   2.722
 4746SOL    HW215138   3.317   4.926   2.637
 4747SOL     OW15139   3.328   4.314   2.854
 4747SOL    HW115140   3.298   4.219   2.861
 4747SOL    HW215141   3.401   4.330   2.920
 4748SOL     OW15142   2.350   5.109   2.036
 4748SOL    HW115143   2.263   5.094   2.083
 4748SOL    HW215144   2.333   5.135   1.941
 4749SOL     OW15145   3.526   5.004   2.519
 4749SOL    HW115146   3.625   5.012   2.533
 4749SOL    HW215147   3.481   5.088   2.550
 4750SOL     OW15148   3.616   4.947   3.450
 4750SOL    HW115149   3.707   4.908   3.437
 4750SOL    HW215150   3.624   5.043   3.474
 4751SOL     OW15151   2.926   5.071   3.202
 4751SOL    HW115152   2.846   5.048   3.257
 4751SOL    HW215153   3.009   5.045   3.251
 4752SOL     OW15154   3.454   5.353   3.487
 4752SOL    HW115155   3.481   5.387   3.397
 4752SOL    HW215156   3.533   5.315   3.533
 4753SOL     OW15157   2.973   4.919   2.962
 4753SOL    HW115158   2.933   4.963   3.043
 4753SOL    HW215159   2.932   4.956   2.879
 4754SOL     OW15160   3.500   4.823   2.941
 4754SOL    HW115161   3.505   4.904   3.000
 4754SOL    HW215162   3.414   4.825   2.890
 4755SOL     OW15163   2.777   3.813   3.264
 4755SOL    HW115164   2.802   3.793   3.169
 4755SOL    HW215165   2.849   3.869   3.306
 4756SOL     OW15166   2.842   4.840   3.581
 4756SOL    HW115167   2.743   4.846   3.591
 4756SOL    HW215168   2.865   4.760   3.525
 4757SOL     OW15169   2.567   4.774   2.230
 4757SOL    HW115170   2.553   4.781   2.329
 4757SOL    HW215171   2.651   4.723   2.212
 4758SOL     OW15172   2.272   4.537   3.113
 4758SOL    HW115173   2.358   4.549   3.163
 4758SOL    HW215174   2.230   4.450   3.140
 4759SOL     OW15175   3.136   4.110   3.124
 4759SOL    HW115176   3.157   4.184   3.188
 4759SOL    HW215177   3.047   4.127   3.081
 4760SOL     OW15178   1.926   5.288   3.193
 4760SOL    HW115179   1.880   5.370   3.159
 4760SOL    HW215180   2.024   5.307   3.202
 4761SOL     OW15181   2.229   4.824   2.363
 4761SOL    HW115182   2.222   4.907   2.307
 4761SOL    HW215183   2.233   4.744   2.303
 4762SOL     OW15184   2.428   4.261   2.727
 4762SOL    HW115185   2.440   4.327   2.653
 4762SOL    HW215186   2.474   4.295   2.810
 4763SOL     OW15187   3.114   5.072   2.250
 4763SOL    HW115188   3.164   5.149   2.290
 4763SOL    HW215189   3.019   5.074   2.282
 4764SOL     OW15190   3.134   5.169   3.004
 4764SOL    HW115191   3.181   5.182   3.091
 4764SOL    HW215192   3.068   5.095   3.013
 4765SOL     OW15193   2.216   5.234   3.191
 4765SOL    HW115194   2.195   5.190   3.104
 4765SOL    HW215195   2.313   5.260   3.194
 4766SOL     OW15196   2.264   4.475   3.460
 4766SOL    HW115197   2.332   4.530   3.413
 4766SOL    HW215198   2.304   4.387   3.487
 4767SOL     OW15199   2.875   3.829   3.632
 4767SOL    HW115200   2.881   3.914   3.580
 4767SOL    HW215201   2.907   3.753   3.575
 4768SOL     OW15202   2.435   4.594   2.891
 4768SOL    HW115203   2.479   4.683   2.882
 4768SOL    HW215204   2.372   4.594   2.968
 4769SOL     OW15205   2.169   3.937   3.093
 4769SOL    HW115206   2.146   3.974   3.183
 4769SOL    HW215207   2.139   3.842   3.087
 4770SOL     OW15208   1.899   5.034   3.144
 4770SOL    HW115209   1.952   4.985   3.212
 4770SOL    HW215210   1.921   5.132   3.149
 4771SOL     OW15211   2.169   3.787   2.480
 4771SOL    HW115212   2.158   3.881   2.513
 4771SOL    HW215213   2.164   3.724   2.557
 4772SOL     OW15214   3.484   4.091   2.236
 4772SOL    HW115215   3.486   4.015   2.300
 4772SOL    HW215216   3.436   4.168   2.276
 4773SOL     OW15217   2.842   5.297   3.562
 4773SOL    HW115218   2.822   5.341   3.474
 4773SOL    HW215219   2.881   5.206   3.546
 4774SOL     OW15220   3.721   5.242   3.467
 4774SOL    HW115221   3.735   5.269   3.372
 4774SOL    HW215222   3.804   5.264   3.520
 4775SOL     OW15223   2.212   4.622   3.666
 4775SOL    HW115224   2.288   4.666   3.714
 4775SOL    HW215225   2.247   4.575   3.584
 4776SOL     OW15226   3.402   3.998   1.987
 4776SOL    HW115227   3.341   3.923   2.010
 4776SOL    HW215228   3.424   4.050   2.070
 4777SOL     OW15229   2.930   5.057   2.711
 4777SOL    HW115230   2.937   4.973   2.656
 4777SOL    HW215231   2.992   5.126   2.675
 4778SOL     OW15232   2.181   4.534   2.811
 4778SOL    HW115233   2.274   4.570   2.816
 4778SOL    HW215234   2.175   4.449   2.863
 4779SOL     OW15235   2.201   4.233   2.868
 4779SOL    HW115236   2.149   4.150   2.851
 4779SOL    HW215237   2.278   4.238   2.804
 4780SOL     OW15238   3.000   4.104   3.540
 4780SOL    HW115239   2.955   4.167   3.604
 4780SOL    HW215240   3.093   4.135   3.523
 4781SOL     OW15241   3.022   3.931   3.339
 4781SOL    HW115242   3.022   3.995   3.416
 4781SOL    HW215243   3.050   3.979   3.256
 4782SOL     OW15244   1.870   5.050   2.062
 4782SOL    HW115245   1.777   5.071   2.031
 4782SOL    HW215246   1.880   4.951   2.075
 4783SOL     OW15247   1.950   5.525   2.789
 4783SOL    HW115248   1.908   5.439   2.762
 4783SOL    HW215249   2.044   5.528   2.755
 4784SOL     OW15250   2.366   5.292   2.772
 4784SOL    HW115251   2.432   5.366   2.781
 4784SOL    HW215252   2.410   5.213   2.730
 4785SOL     OW15253   1.902   4.268   2.976
 4785SOL    HW115254   1.987   4.235   2.935
 4785SOL    HW215255   1.915   4.283   3.074
 4786SOL     OW15256   2.051   4.244   3.584
 4786SOL    HW115257   2.110   4.204   3.514
 4786SOL    HW215258   1.993   4.315   3.543
 4787SOL     OW15259   3.519   4.328   3.068
 4787SOL    HW115260   3.481   4.259   3.130
 4787SOL    HW215261   3.601   4.292   3.024
 4788SOL     OW15262   2.114   5.288   3.606
 4788SOL    HW115263   2.084   5.345   3.682
 4788SOL    HW215264   2.107   5.191   3.632
 4789SOL     OW15265   2.792   5.402   3.327
 4789SOL    HW115266   2.768   5.384   3.232
 4789SOL    HW215267   2.822   5.496   3.337
 4790SOL     OW15268   2.335   4.224   2.053
 4790SOL    HW115269   2.396   4.304   2.057
 4790SOL    HW215270   2.240   4.255   2.060
 4791SOL     OW15271   2.021   4.861   3.328
 4791SOL    HW115272   2.043   4.800   3.404
 4791SOL    HW215273   2.031   4.812   3.242
 4792SOL     OW15274   3.209   4.783   3.096
 4792SOL    HW115275   3.233   4.720   3.022
 4792SOL    HW215276   3.119   4.823   3.078
 4793SOL     OW15277   3.621   5.471   3.016
 4793SOL    HW115278   3.682   5.501   2.943
 4793SOL    HW215279   3.583   5.382   2.994
 4794SOL     OW15280   3.114   5.455   2.990
 4794SOL    HW115281   3.198   5.460   2.936
 4794SOL    HW215282   3.091   5.359   3.008
 4795SOL     OW15283   1.945   4.982   2.884
 4795SOL    HW115284   1.940   4.981   2.984
 4795SOL    HW215285   1.862   4.941   2.846
 4796SOL     OW15286   2.550   5.386   3.578
 4796SOL    HW115287   2.494   5.467   3.587
 4796SOL    HW215288   2.602   5.390   3.492
 4797SOL     OW15289   3.588   3.859   2.385
 4797SOL    HW115290   3.661   3.842   2.318
 4797SOL    HW215291   3.557   3.772   2.423
 4798SOL     OW15292   3.250   5.297   2.339
 4798SOL    HW115293   3.317   5.309   2.265
 4798SOL    HW215294   3.210   5.386   2.362
 4799SOL     OW15295   1.992   5.518   3.713
 4799SOL    HW115296   1.951   5.444   3.766
 4799SOL    HW215297   2.056   5.569   3.771
 4800SOL     OW15298   2.692   4.997   3.284
 4800SOL    HW115299   2.687   5.030   3.379
 4800SOL    HW215300   2.606   5.016   3.238
 4801SOL     OW15301   2.534   5.340   2.016
 4801SOL    HW115302   2.543   5.350   1.917
 4801SOL    HW215303   2.494   5.251   2.037
 4802SOL     OW15304   3.512   5.444   3.256
 4802SOL    HW115305   3.565   5.454   3.172
 4802SOL    HW215306   3.485   5.534   3.290
 4803SOL     OW15307   3.703   3.899   2.825
 4803SOL    HW115308   3.742   3.814   2.789
 4803SOL    HW215309   3.605   3.901   2.806
 4804SOL     OW15310   2.125   4.050   2.582
 4804SOL    HW115311   2.046   4.101   2.548
 4804SOL    HW215312   2.116   4.035   2.680
 4805SOL     OW15313   3.056   5.336   1.893
 4805SOL    HW115314   3.062   5.243   1.930
 4805SOL    HW215315   2.997   5.336   1.813
 4806SOL     OW15316   2.684   4.726   3.234
 4806SOL    HW115317   2.724   4.725   3.142
 4806SOL    HW215318   2.694   4.818   3.274
 4807SOL     OW15319   2.778   4.634   2.153
 4807SOL    HW115320   2.841   4.672   2.085
 4807SOL    HW215321   2.818   4.551   2.192
 4808SOL     OW15322   3.366   5.331   1.906
 4808SOL    HW115323   3.274   5.368   1.913
 4808SOL    HW215324   3.404   5.351   1.816
 4809SOL     OW15325   2.234   5.012   3.352
 4809SOL    HW115326   2.221   5.105   3.318
 4809SOL    HW215327   2.150   4.960   3.339
 4810SOL     OW15328   3.476   5.016   3.151
 4810SOL    HW115329   3.536   5.019   3.231
 4810SOL    HW215330   3.401   5.080   3.164
 4811SOL     OW15331   2.901   4.822   2.558
 4811SOL    HW115332   2.831   4.775   2.612
 4811SOL    HW215333   2.960   4.754   2.515
 4812SOL     OW15334   2.876   3.960   2.833
 4812SOL    HW115335   2.868   3.924   2.740
 4812SOL    HW215336   2.874   3.884   2.898
 4813SOL     OW15337   2.452   5.211   2.353
 4813SOL    HW115338   2.494   5.153   2.283
 4813SOL    HW215339   2.408   5.290   2.309
 4814SOL     OW15340   3.571   4.109   3.243
 4814SOL    HW115341   3.644   4.178   3.247
 4814SOL    HW215342   3.599   4.034   3.184
 4815SOL     OW15343   2.117   5.072   2.152
 4815SOL    HW115344   2.021   5.073   2.125
 4815SOL    HW215345   2.129   5.125   2.236
 4816SOL     OW15346   1.967   4.737   3.588
 4816SOL    HW115347   1.890   4.704   3.642
 4816SOL    HW215348   2.052   4.707   3.630
 4817SOL     OW15349   1.937   4.069   1.895
 4817SOL    HW115350   1.845   4.041   1.866
 4817SOL    HW215351   1.968   4.146   1.839
 4818SOL     OW15352   1.934   3.890   2.180
 4818SOL    HW115353   1.917   3.973   2.126
 4818SOL    HW215354   2.024   3.853   2.158
 4819SOL     OW15355   3.045   5.059   1.981
 4819SOL    HW115356   2.946   5.048   1.983
 4819SOL    HW215357   3.079   5.074   2.074
 4820SOL     OW15358   2.475   4.566   3.293
 4820SOL    HW115359   2.531   4.647   3.276
 4820SOL    HW215360   2.534   4.486   3.296
 4821SOL     OW15361   3.355   5.491   2.821
 4821SOL    HW115362   3.388   5.555   2.752
 4821SOL    HW215363   3.421   5.485   2.896
 4822SOL     OW15364   3.312   4.944   3.495
 4822SOL    HW115365   3.303   4.934   3.594
 4822SOL    HW215366   3.408   4.937   3.469
 4823SOL     OW15367   2.252   5.465   3.422
 4823SOL    HW115368   2.161   5.506   3.420
 4823SOL    HW215369   2.245   5.371   3.454
 4824SOL     OW15370   3.087   4.049   2.311
 4824SOL    HW115371   3.152   3.975   2.300
 4824SOL    HW215372   3.107   4.099   2.395
 4825SOL     OW15373   2.456   4.469   2.514
 4825SOL    HW115374   2.506   4.554   2.495
 4825SOL    HW215375   2.368   4.471   2.466
 4826SOL     OW15376   3.639   4.066   3.504
 4826SOL    HW115377   3.622   4.097   3.410
 4826SOL    HW215378   3.555   4.029   3.542
 4827SOL     OW15379   2.721   5.098   1.878
 4827SOL    HW115380   2.675   5.113   1.966
 4827SOL    HW215381   2.765   5.183   1.848
 4828SOL     OW15382   2.523   5.514   2.815
 4828SOL    HW115383   2.477   5.602   2.802
 4828SOL    HW215384   2.622   5.526   2.808
 4829SOL     OW15385   2.721   4.680   2.723
 4829SOL    HW115386   2.775   4.611   2.771
 4829SOL    HW215387   2.689   4.749   2.789
 4830SOL     OW15388   2.945   4.708   1.949
 4830SOL    HW115389   2.922   4.761   1.867
 4830SOL    HW215390   3.026   4.652   1.930
 4831SOL     OW15391   3.723   5.293   2.713
 4831SOL    HW115392   3.652   5.281   2.643
 4831SOL    HW215393   3.724   5.214   2.773
 4832SOL     OW15394   2.083   5.038   3.706
 4832SOL    HW115395   2.018   4.965   3.685
 4832SOL    HW215396   2.087   5.052   3.804
 4833SOL     OW15397   1.941   4.964   2.515
 4833SOL    HW115398   1.940   4.917   2.603
 4833SOL    HW215399   2.023   4.936   2.464
 4834SOL     OW15400   2.534   5.115   3.486
 4834SOL    HW115401   2.456   5.065   3.524
 4834SOL    HW215402   2.531   5.210   3.517
 4835SOL     OW15403   3.686   3.916   3.089
 4835SOL    HW115404   3.682   3.826   3.133
 4835SOL    HW215405   3.689   3.905   2.990
 4836SOL     OW15406   2.290   4.148   2.382
 4836SOL    HW115407   2.320   4.076   2.320
 4836SOL    HW215408   2.251   4.108   2.465
 4837SOL     OW15409   3.567   5.211   2.966
 4837SOL    HW115410   3.474   5.186   2.939
 4837SOL    HW215411   3.593   5.161   3.048
 4838SOL     OW15412   2.179   4.271   3.142
 4838SOL    HW115413   2.217   4.212   3.214
 4838SOL    HW215414   2.219   4.245   3.054
 4839SOL     OW15415   2.674   5.310   2.549
 4839SOL    HW115416   2.706   5.320   2.455
 4839SOL    HW215417   2.595   5.248   2.551
 4840SOL     OW15418   3.286   3.938   2.974
 4840SOL    HW115419   3.338   3.873   3.029
 4840SOL    HW215420   3.237   4.001   3.035
 4841SOL     OW15421   2.863   3.758   3.016
 4841SOL    HW115422   2.800   3.686   2.985
 4841SOL    HW215423   2.956   3.722   3.016
 4842SOL     OW15424   2.632   5.054   2.163
 4842SOL    HW115425   2.586   4.967   2.180
 4842SOL    HW215426   2.723   5.051   2.204
 4843SOL     OW15427   2.480   5.291   3.146
 4843SOL    HW115428   2.475   5.373   3.203
 4843SOL    HW215429   2.569   5.288   3.101
 4844SOL     OW15430   3.214   3.776   2.030
 4844SOL    HW115431   3.249   3.735   1.946
 4844SOL    HW215432   3.124   3.738   2.050
 4845SOL     OW15433   3.162   4.177   2.553
 4845SOL    HW115434   3.103   4.257   2.557
 4845SOL    HW215435   3.177   4.142   2.646
 4846SOL     OW15436   3.455   3.945   2.744
 4846SOL    HW115437   3.371   3.944   2.798
 4846SOL    HW215438   3.457   4.028   2.688
 4847SOL     OW15439   1.901   4.801   2.162
 4847SOL    HW115440   2.000   4.790   2.153
 4847SOL    HW215441   1.861   4.715   2.194
 4848SOL     OW15442   2.737   5.370   2.199
 4848SOL    HW115443   2.660   5.335   2.145
 4848SOL    HW215444   2.705   5.441   2.261
 4849SOL     OW15445   2.092   4.352   3.837
 4849SOL    HW115446   1.999   4.350   3.874
 4849SOL    HW215447   2.093   4.313   3.745
 4850SOL     OW15448   2.087   3.999   4.720
 4850SOL    HW115449   2.122   3.982   4.812
 4850SOL    HW215450   1.999   3.954   4.708
 4851SOL     OW15451   1.881   4.092   4.371
 4851SOL    HW115452   1.799   4.135   4.410
 4851SOL    HW215453   1.853   4.019   4.308
 4852SOL     OW15454   2.431   4.999   4.889
 4852SOL    HW115455   2.338   4.992   4.852
 4852SOL    HW215456   2.442   5.088   4.933
 4853SOL     OW15457   3.417   5.235   4.427
 4853SOL    HW115458   3.360   5.219   4.508
 4853SOL    HW215459   3.358   5.245   4.347
 4854SOL     OW15460   3.617   4.331   3.955
 4854SOL    HW115461   3.605   4.318   3.856
 4854SOL    HW215462   3.587   4.250   4.004
 4855SOL     OW15463   2.630   4.868   4.747
 4855SOL    HW115464   2.552   4.885   4.807
 4855SOL    HW215465   2.664   4.955   4.711
 4856SOL     OW15466   2.712   4.522   5.547
 4856SOL    HW115467   2.708   4.598   5.612
 4856SOL    HW215468   2.734   4.558   5.456
 4857SOL     OW15469   2.547   4.736   4.389
 4857SOL    HW115470   2.616   4.720   4.459
 4857SOL    HW215471   2.474   4.793   4.427
 4858SOL     OW15472   2.548   4.885   5.527
 4858SOL    HW115473   2.608   4.964   5.541
 4858SOL    HW215474   2.462   4.916   5.486
 4859SOL     OW15475   2.197   5.159   4.785
 4859SOL    HW115476   2.119   5.128   4.732
 4859SOL    HW215477   2.255   5.217   4.728
 4860SOL     OW15478   3.322   5.229   5.063
 4860SOL    HW115479   3.346   5.323   5.089
 4860SOL    HW215480   3.306   5.175   5.145
 4861SOL     OW15481   3.465   4.171   4.461
 4861SOL    HW115482   3.391   4.217   4.411
 4861SOL    HW215483   3.516   4.239   4.514
 4862SOL     OW15484   2.093   5.437   4.207
 4862SOL    HW115485   2.127   5.514   4.261
 4862SOL    HW215486   2.137   5.437   4.117
 4863SOL     OW15487   2.989   5.065   5.414
 4863SOL    HW115488   3.036   5.065   5.502
 4863SOL    HW215489   2.941   4.978   5.403
 4864SOL     OW15490   2.092   5.158   4.262
 4864SOL    HW115491   2.066   5.254   4.262
 4864SOL    HW215492   2.021   5.104   4.307
 4865SOL     OW15493   2.102   4.815   4.610
 4865SOL    HW115494   2.116   4.731   4.662
 4865SOL    HW215495   2.047   4.879   4.665
 4866SOL     OW15496   2.482   5.510   5.163
 4866SOL    HW115497   2.390   5.493   5.198
 4866SOL    HW215498   2.510   5.602   5.189
 4867SOL     OW15499   2.468   4.688   3.847
 4867SOL    HW115500   2.475   4.772   3.793
 4867SOL    HW215501   2.514   4.701   3.935
 4868SOL     OW15502   3.456   3.838   5.204
 4868SOL    HW115503   3.438   3.905   5.132
 4868SOL    HW215504   3.453   3.884   5.293
 4869SOL     OW15505   1.984   4.367   4.287
 4869SOL    HW115506   1.939   4.279   4.304
 4869SOL    HW215507   1.983   4.421   4.371
 4870SOL     OW15508   3.704   5.491   4.083
 4870SOL    HW115509   3.758   5.462   4.163
 4870SOL    HW215510   3.734   5.581   4.054
 4871SOL     OW15511   1.889   5.320   3.841
 4871SOL    HW115512   1.870   5.224   3.862
 4871SOL    HW215513   1.856   5.378   3.916
 4872SOL     OW15514   3.503   4.832   4.156
 4872SOL    HW115515   3.589   4.834   4.104
 4872SOL    HW215516   3.517   4.879   4.244
 4873SOL     OW15517   1.975   4.461   5.321
 4873SOL    HW115518   2.063   4.448   5.366
 4873SOL    HW215519   1.962   4.558   5.299
 4874SOL     OW15520   2.475   5.089   4.450
 4874SOL    HW115521   2.426   5.002   4.459
 4874SOL    HW215522   2.452   5.132   4.363
 4875SOL     OW15523   3.155   4.952   5.147
 4875SOL    HW115524   3.192   4.879   5.089
 4875SOL    HW215525   3.207   4.957   5.232
 4876SOL     OW15526   2.059   4.700   4.988
 4876SOL    HW115527   2.148   4.655   4.974
 4876SOL    HW215528   1.986   4.635   4.969
 4877SOL     OW15529   3.049   5.516   5.340
 4877SOL    HW115530   3.073   5.576   5.264
 4877SOL    HW215531   3.056   5.421   5.310
 4878SOL     OW15532   2.179   3.975   5.525
 4878SOL    HW115533   2.250   4.046   5.531
 4878SOL    HW215534   2.091   4.014   5.553
 4879SOL     OW15535   3.328   5.141   4.677
 4879SOL    HW115536   3.269   5.147   4.757
 4879SOL    HW215537   3.313   5.053   4.631
 4880SOL     OW15538   3.529   5.438   4.296
 4880SOL    HW115539   3.488   5.415   4.208
 4880SOL    HW215540   3.511   5.364   4.361
 4881SOL     OW15541   2.460   4.453   3.994
 4881SOL    HW115542   2.484   4.522   3.926
 4881SOL    HW215543   2.382   4.486   4.048
 4882SOL     OW15544   3.143   4.069   4.668
 4882SOL    HW115545   3.057   4.019   4.655
 4882SOL    HW215546   3.205   4.015   4.724
 4883SOL     OW15547   3.438   5.386   4.031
 4883SOL    HW115548   3.527   5.432   4.034
 4883SOL    HW215549   3.417   5.362   3.936
 4884SOL     OW15550   3.256   4.193   5.398
 4884SOL    HW115551   3.236   4.236   5.486
 4884SOL    HW215552   3.334   4.131   5.407
 4885SOL     OW15553   1.938   4.535   4.513
 4885SOL    HW115554   2.037   4.523   4.522
 4885SOL    HW215555   1.914   4.630   4.534
 4886SOL     OW15556   1.992   5.545   5.295
 4886SOL    HW115557   1.982   5.530   5.394
 4886SOL    HW215558   1.906   5.581   5.259
 4887SOL     OW15559   3.581   4.309   5.555
 4887SOL    HW115560   3.555   4.398   5.519
 4887SOL    HW215561   3.579   4.241   5.482
 4888SOL     OW15562   3.224   4.868   4.269
 4888SOL    HW115563   3.307   4.839   4.221
 4888SOL    HW215564   3.175   4.935   4.213
 4889SOL     OW15565   2.870   5.180   4.201
 4889SOL    HW115566   2.824   5.252   4.149
 4889SOL    HW215567   2.866   5.200   4.299
 4890SOL     OW15568   2.213   5.525   4.577
 4890SOL    HW115569   2.263   5.439   4.583
 4890SOL    HW215570   2.278   5.602   4.574
 4891SOL     OW15571   3.657   4.790   4.597
 4891SOL    HW115572   3.595   4.775   4.521
 4891SOL    HW215573   3.605   4.801   4.682
 4892SOL     OW15574   3.089   5.274   5.230
 4892SOL    HW115575   3.095   5.197   5.294
 4892SOL    HW215576   3.037   5.248   5.150
 4893SOL     OW15577   2.183   4.667   3.966
 4893SOL    HW115578   2.265   4.706   3.924
 4893SOL    HW215579   2.156   4.585   3.917
 4894SOL     OW15580   2.323   4.990   5.451
 4894SOL    HW115581   2.273   4.991   5.365
 4894SOL    HW215582   2.260   4.972   5.527
 4895SOL     OW15583   2.973   5.500   3.961
 4895SOL    HW115584   2.913   5.438   4.011
 4895SOL    HW215585   3.004   5.456   3.876
 4896SOL     OW15586   2.064   4.009   5.222
 4896SOL    HW115587   1.984   4.069   5.209
 4896SOL    HW215588   2.054   3.960   5.308
 4897SOL     OW15589   3.494   5.101   3.805
 4897SOL    HW115590   3.462   5.195   3.795
 4897SOL    HW215591   3.418   5.038   3.793
 4898SOL     OW15592   2.326   5.467   4.047
 4898SOL    HW115593   2.359   5.506   4.133
 4898SOL    HW215594   2.402   5.460   3.982
 4899SOL     OW15595   3.262   3.831   4.150
 4899SOL    HW115596   3.238   3.794   4.060
 4899SOL    HW215597   3.361   3.847   4.154
 4900SOL     OW15598   2.111   5.509   4.965
 4900SOL    HW115599   2.168   5.444   5.015
 4900SOL    HW215600   2.095   5.476   4.872
 4901SOL     OW15601   2.802   5.422   4.628
 4901SOL    HW115602   2.882   5.365   4.649
 4901SOL    HW215603   2.753   5.382   4.551
 4902SOL     OW15604   2.244   4.424   4.204
 4902SOL    HW115605   2.289   4.334   4.201
 4902SOL    HW215606   2.150   4.413   4.237
 4903SOL     OW15607   3.409   3.946   5.453
 4903SOL    HW115608   3.404   3.983   5.545
 4903SOL    HW215609   3.337   3.877   5.441
 4904SOL     OW15610   2.643   3.988   5.473
 4904SOL    HW115611   2.710   3.927   5.516
 4904SOL    HW215612   2.570   4.007   5.538
 4905SOL     OW15613   2.750   5.238   4.919
 4905SOL    HW115614   2.727   5.213   4.825
 4905SOL    HW215615   2.811   5.169   4.958
 4906SOL     OW15616   2.665   5.126   4.648
 4906SOL    HW115617   2.755   5.140   4.606
 4906SOL    HW215618   2.594   5.128   4.577
 4907SOL     OW15619   3.296   4.912   3.765
 4907SOL    HW115620   3.328   4.836   3.822
 4907SOL    HW215621   3.204   4.939   3.795
 4908SOL     OW15622   2.159   3.759   3.895
 4908SOL    HW115623   2.208   3.843   3.874
 4908SOL    HW215624   2.221   3.694   3.940
 4909SOL     OW15625   3.089   5.294   4.517
 4909SOL    HW115626   3.110   5.368   4.452
 4909SOL    HW215627   3.157   5.294   4.590
 4910SOL     OW15628   2.321   4.876   4.465
 4910SOL    HW115629   2.250   4.849   4.530
 4910SOL    HW215630   2.295   4.848   4.372
 4911SOL     OW15631   3.133   5.521   4.315
 4911SOL    HW115632   3.177   5.585   4.251
 4911SOL    HW215633   3.083   5.573   4.385
 4912SOL     OW15634   1.940   4.280   5.110
 4912SOL    HW115635   2.032   4.279   5.069
 4912SOL    HW215636   1.934   4.354   5.177
 4913SOL     OW15637   2.879   3.763   4.477
 4913SOL    HW115638   2.807   3.768   4.408
 4913SOL    HW215639   2.855   3.694   4.546
 4914SOL     OW15640   3.291   4.897   4.591
 4914SOL    HW115641   3.236   4.813   4.584
 4914SOL    HW215642   3.317   4.926   4.499
 4915SOL     OW15643   3.328   4.314   4.716
 4915SOL    HW115644   3.298   4.219   4.723
 4915SOL    HW215645   3.401   4.330   4.782
 4916SOL     OW15646   2.350   5.109   3.898
 4916SOL    HW115647   2.263   5.094   3.945
 4916SOL    HW215648   2.333   5.135   3.803
 4917SOL     OW15649   3.526   5.004   4.381
 4917SOL    HW115650   3.625   5.012   4.395
 4917SOL    HW215651   3.481   5.088   4.412
 4918SOL     OW15652   3.252   4.299   3.802
 4918SOL    HW115653   3.198   4.278   3.883
 4918SOL    HW215654   3.343   4.258   3.811
 4919SOL     OW15655   3.616   4.947   5.312
 4919SOL    HW115656   3.707   4.908   5.299
 4919SOL    HW215657   3.624   5.043   5.336
 4920SOL     OW15658   2.926   5.071   5.064
 4920SOL    HW115659   2.846   5.048   5.119
 4920SOL    HW215660   3.009   5.045   5.113
 4921SOL     OW15661   3.454   5.353   5.349
 4921SOL    HW115662   3.481   5.387   5.259
 4921SOL    HW215663   3.533   5.315   5.395
 4922SOL     OW15664   2.973   4.919   4.824
 4922SOL    HW115665   2.933   4.963   4.905
 4922SOL    HW215666   2.932   4.956   4.741
 4923SOL     OW15667   3.500   4.823   4.803
 4923SOL    HW115668   3.505   4.904   4.862
 4923SOL    HW215669   3.414   4.825   4.752
 4924SOL     OW15670   2.777   3.813   5.126
 4924SOL    HW115671   2.802   3.793   5.031
 4924SOL    HW215672   2.849   3.869   5.168
 4925SOL     OW15673   2.842   4.840   5.443
 4925SOL    HW115674   2.743   4.846   5.453
 4925SOL    HW215675   2.865   4.760   5.387
 4926SOL     OW15676   2.567   4.774   4.092
 4926SOL    HW115677   2.553   4.781   4.191
 4926SOL    HW215678   2.651   4.723   4.074
 4927SOL     OW15679   2.272   4.537   4.975
 4927SOL    HW115680   2.358   4.549   5.025
 4927SOL    HW215681   2.230   4.450   5.002
 4928SOL     OW15682   3.136   4.110   4.986
 4928SOL    HW115683   3.157   4.184   5.050
 4928SOL    HW215684   3.047   4.127   4.943
 4929SOL     OW15685   1.926   5.288   5.055
 4929SOL    HW115686   1.880   5.370   5.021
 4929SOL    HW215687   2.024   5.307   5.064
 4930SOL     OW15688   2.229   4.824   4.225
 4930SOL    HW115689   2.222   4.907   4.169
 4930SOL    HW215690   2.233   4.744   4.165
 4931SOL     OW15691   2.428   4.261   4.589
 4931SOL    HW115692   2.440   4.327   4.515
 4931SOL    HW215693   2.474   4.295   4.672
 4932SOL     OW15694   3.114   5.072   4.112
 4932SOL    HW115695   3.164   5.149   4.152
 4932SOL    HW215696   3.019   5.074   4.144
 4933SOL     OW15697   3.134   5.169   4.866
 4933SOL    HW115698   3.181   5.182   4.953
 4933SOL    HW215699   3.068   5.095   4.875
 4934SOL     OW15700   2.216   5.234   5.053
 4934SOL    HW115701   2.195   5.190   4.966
 4934SOL    HW215702   2.313   5.260   5.056
 4935SOL     OW15703   2.264   4.475   5.322
 4935SOL    HW115704   2.332   4.530   5.275
 4935SOL    HW215705   2.304   4.387   5.349
 4936SOL     OW15706   3.449   4.503   5.394
 4936SOL    HW115707   3.357   4.541   5.389
 4936SOL    HW215708   3.509   4.550   5.329
 4937SOL     OW15709   2.875   3.829   5.494
 4937SOL    HW115710   2.881   3.914   5.442
 4937SOL    HW215711   2.907   3.753   5.437
 4938SOL     OW15712   2.366   3.774   5.464
 4938SOL    HW115713   2.324   3.717   5.394
 4938SOL    HW215714   2.300   3.843   5.496
 4939SOL     OW15715   2.435   4.594   4.753
 4939SOL    HW115716   2.479   4.683   4.744
 4939SOL    HW215717   2.372   4.594   4.830
 4940SOL     OW15718   1.899   5.034   5.006
 4940SOL    HW115719   1.952   4.985   5.074
 4940SOL    HW215720   1.921   5.132   5.011
 4941SOL     OW15721   3.590   4.659   5.578
 4941SOL    HW115722   3.544   4.652   5.489
 4941SOL    HW215723   3.528   4.703   5.644
 4942SOL     OW15724   2.169   3.787   4.342
 4942SOL    HW115725   2.158   3.881   4.375
 4942SOL    HW215726   2.164   3.724   4.419
 4943SOL     OW15727   3.484   4.091   4.098
 4943SOL    HW115728   3.486   4.015   4.162
 4943SOL    HW215729   3.436   4.168   4.138
 4944SOL     OW15730   2.842   5.297   5.424
 4944SOL    HW115731   2.822   5.341   5.336
 4944SOL    HW215732   2.881   5.206   5.408
 4945SOL     OW15733   3.721   5.242   5.329
 4945SOL    HW115734   3.735   5.269   5.234
 4945SOL    HW215735   3.804   5.264   5.382
 4946SOL     OW15736   2.212   4.622   5.528
 4946SOL    HW115737   2.288   4.666   5.576
 4946SOL    HW215738   2.247   4.575   5.446
 4947SOL     OW15739   3.402   3.998   3.849
 4947SOL    HW115740   3.341   3.923   3.872
 4947SOL    HW215741   3.424   4.050   3.932
 4948SOL     OW15742   2.930   5.057   4.573
 4948SOL    HW115743   2.937   4.973   4.518
 4948SOL    HW215744   2.992   5.126   4.537
 4949SOL     OW15745   2.181   4.534   4.673
 4949SOL    HW115746   2.274   4.570   4.678
 4949SOL    HW215747   2.175   4.449   4.725
 4950SOL     OW15748   2.201   4.233   4.730
 4950SOL    HW115749   2.149   4.150   4.713
 4950SOL    HW215750   2.278   4.238   4.666
 4951SOL     OW15751   3.000   4.104   5.402
 4951SOL    HW115752   2.955   4.167   5.466
 4951SOL    HW215753   3.093   4.135   5.385
 4952SOL     OW15754   3.022   3.931   5.201
 4952SOL    HW115755   3.022   3.995   5.278
 4952SOL    HW215756   3.050   3.979   5.118
 4953SOL     OW15757   1.870   5.050   3.924
 4953SOL    HW115758   1.777   5.071   3.893
 4953SOL    HW215759   1.880   4.951   3.937
 4954SOL     OW15760   1.950   5.525   4.651
 4954SOL    HW115761   1.908   5.439   4.624
 4954SOL    HW215762   2.044   5.528   4.617
 4955SOL     OW15763   2.366   5.292   4.634
 4955SOL    HW115764   2.432   5.366   4.643
 4955SOL    HW215765   2.410   5.213   4.592
 4956SOL     OW15766   1.902   4.268   4.838
 4956SOL    HW115767   1.987   4.235   4.797
 4956SOL    HW215768   1.915   4.283   4.936
 4957SOL     OW15769   2.051   4.244   5.446
 4957SOL    HW115770   2.110   4.204   5.376
 4957SOL    HW215771   1.993   4.315   5.405
 4958SOL     OW15772   3.231   4.674   5.384
 4958SOL    HW115773   3.270   4.763   5.404
 4958SOL    HW215774   3.241   4.654   5.287
 4959SOL     OW15775   3.519   4.328   4.930
 4959SOL    HW115776   3.481   4.259   4.992
 4959SOL    HW215777   3.601   4.292   4.886
 4960SOL     OW15778   2.114   5.288   5.468
 4960SOL    HW115779   2.084   5.345   5.544
 4960SOL    HW215780   2.107   5.191   5.494
 4961SOL     OW15781   2.792   5.402   5.189
 4961SOL    HW115782   2.768   5.384   5.094
 4961SOL    HW215783   2.822   5.496   5.199
 4962SOL     OW15784   2.335   4.224   3.915
 4962SOL    HW115785   2.396   4.304   3.919
 4962SOL    HW215786   2.240   4.255   3.922
 4963SOL     OW15787   2.021   4.861   5.190
 4963SOL    HW115788   2.043   4.800   5.266
 4963SOL    HW215789   2.031   4.812   5.104
 4964SOL     OW15790   3.209   4.783   4.958
 4964SOL    HW115791   3.233   4.720   4.884
 4964SOL    HW215792   3.119   4.823   4.940
 4965SOL     OW15793   3.621   5.471   4.878
 4965SOL    HW115794   3.682   5.501   4.805
 4965SOL    HW215795   3.583   5.382   4.856
 4966SOL     OW15796   3.114   5.455   4.852
 4966SOL    HW115797   3.198   5.460   4.798
 4966SOL    HW215798   3.091   5.359   4.870
 4967SOL     OW15799   1.945   4.982   4.746
 4967SOL    HW115800   1.940   4.981   4.846
 4967SOL    HW215801   1.862   4.941   4.708
 4968SOL     OW15802   2.550   5.386   5.440
 4968SOL    HW115803   2.494   5.467   5.449
 4968SOL    HW215804   2.602   5.390   5.354
 4969SOL     OW15805   3.588   3.859   4.247
 4969SOL    HW115806   3.661   3.842   4.180
 4969SOL    HW215807   3.557   3.772   4.285
 4970SOL     OW15808   3.250   5.297   4.201
 4970SOL    HW115809   3.317   5.309   4.127
 4970SOL    HW215810   3.210   5.386   4.224
 4971SOL     OW15811   1.992   5.518   5.575
 4971SOL    HW115812   1.951   5.444   5.628
 4971SOL    HW215813   2.056   5.569   5.633
 4972SOL     OW15814   2.692   4.997   5.146
 4972SOL    HW115815   2.687   5.030   5.241
 4972SOL    HW215816   2.606   5.016   5.100
 4973SOL     OW15817   2.534   5.340   3.878
 4973SOL    HW115818   2.543   5.350   3.779
 4973SOL    HW215819   2.494   5.251   3.899
 4974SOL     OW15820   3.512   5.444   5.118
 4974SOL    HW115821   3.565   5.454   5.034
 4974SOL    HW215822   3.485   5.534   5.152
 4975SOL     OW15823   3.703   3.899   4.687
 4975SOL    HW115824   3.742   3.814   4.651
 4975SOL    HW215825   3.605   3.901   4.668
 4976SOL     OW15826   2.125   4.050   4.444
 4976SOL    HW115827   2.046   4.101   4.410
 4976SOL    HW215828   2.116   4.035   4.542
 4977SOL     OW15829   3.056   5.336   3.755
 4977SOL    HW115830   3.062   5.243   3.792
 4977SOL    HW215831   2.997   5.336   3.675
 4978SOL     OW15832   2.684   4.726   5.096
 4978SOL    HW115833   2.724   4.725   5.004
 4978SOL    HW215834   2.694   4.818   5.136
 4979SOL     OW15835   2.778   4.634   4.015
 4979SOL    HW115836   2.841   4.672   3.947
 4979SOL    HW215837   2.818   4.551   4.054
 4980SOL     OW15838   3.366   5.331   3.768
 4980SOL    HW115839   3.274   5.368   3.775
 4980SOL    HW215840   3.404   5.351   3.678
 4981SOL     OW15841   2.234   5.012   5.214
 4981SOL    HW115842   2.221   5.105   5.180
 4981SOL    HW215843   2.150   4.960   5.201
 4982SOL     OW15844   3.476   5.016   5.013
 4982SOL    HW115845   3.536   5.019   5.093
 4982SOL    HW215846   3.401   5.080   5.026
 4983SOL     OW15847   2.901   4.822   4.420
 4983SOL    HW115848   2.831   4.775   4.474
 4983SOL    HW215849   2.960   4.754   4.377
 4984SOL     OW15850   2.876   3.960   4.695
 4984SOL    HW115851   2.868   3.924   4.602
 4984SOL    HW215852   2.874   3.884   4.760
 4985SOL     OW15853   2.452   5.211   4.215
 4985SOL    HW115854   2.494   5.153   4.145
 4985SOL    HW215855   2.408   5.290   4.171
 4986SOL     OW15856   3.571   4.109   5.105
 4986SOL    HW115857   3.644   4.178   5.109
 4986SOL    HW215858   3.599   4.034   5.046
 4987SOL     OW15859   2.117   5.072   4.014
 4987SOL    HW115860   2.021   5.073   3.987
 4987SOL    HW215861   2.129   5.125   4.098
 4988SOL     OW15862   1.967   4.737   5.450
 4988SOL    HW115863   1.890   4.704   5.504
 4988SOL    HW215864   2.052   4.707   5.492
 4989SOL     OW15865   1.937   4.069   3.757
 4989SOL    HW115866   1.845   4.041   3.728
 4989SOL    HW215867   1.968   4.146   3.701
 4990SOL     OW15868   1.934   3.890   4.042
 4990SOL    HW115869   1.917   3.973   3.988
 4990SOL    HW215870   2.024   3.853   4.020
 4991SOL     OW15871   3.045   5.059   3.843
 4991SOL    HW115872   2.946   5.048   3.845
 4991SOL    HW215873   3.079   5.074   3.936
 4992SOL     OW15874   2.475   4.566   5.155
 4992SOL    HW115875   2.531   4.647   5.138
 4992SOL    HW215876   2.534   4.486   5.158
 4993SOL     OW15877   3.355   5.491   4.683
 4993SOL    HW115878   3.388   5.555   4.614
 4993SOL    HW215879   3.421   5.485   4.758
 4994SOL     OW15880   2.578   4.289   5.432
 4994SOL    HW115881   2.597   4.354   5.506
 4994SOL    HW215882   2.638   4.209   5.441
 4995SOL     OW15883   3.312   4.944   5.357
 4995SOL    HW115884   3.303   4.934   5.456
 4995SOL    HW215885   3.408   4.937   5.331
 4996SOL     OW15886   2.252   5.465   5.284
 4996SOL    HW115887   2.161   5.506   5.282
 4996SOL    HW215888   2.245   5.371   5.316
 4997SOL     OW15889   3.087   4.049   4.173
 4997SOL    HW115890   3.152   3.975   4.162
 4997SOL    HW215891   3.107   4.099   4.257
 4998SOL     OW15892   2.456   4.469   4.376
 4998SOL    HW115893   2.506   4.554   4.357
 4998SOL    HW215894   2.368   4.471   4.328
 4999SOL     OW15895   3.639   4.066   5.366
 4999SOL    HW115896   3.622   4.097   5.272
 4999SOL    HW215897   3.555   4.029   5.404
 5000SOL     OW15898   2.721   5.098   3.740
 5000SOL    HW115899   2.675   5.113   3.828
 5000SOL    HW215900   2.765   5.183   3.710
 5001SOL     OW15901   2.523   5.514   4.677
 5001SOL    HW115902   2.477   5.602   4.664
 5001SOL    HW215903   2.622   5.526   4.670
 5002SOL     OW15904   2.721   4.680   4.585
 5002SOL    HW115905   2.775   4.611   4.633
 5002SOL    HW215906   2.689   4.749   4.651
 5003SOL     OW15907   2.945   4.708   3.811
 5003SOL    HW115908   2.922   4.761   3.729
 5003SOL    HW215909   3.026   4.652   3.792
 5004SOL     OW15910   3.723   5.293   4.575
 5004SOL    HW115911   3.652   5.281   4.505
 5004SOL    HW215912   3.724   5.214   4.635
 5005SOL     OW15913   2.083   5.038   5.568
 5005SOL    HW115914   2.018   4.965   5.547
 5005SOL    HW215915   2.087   5.052   5.666
 5006SOL     OW15916   1.941   4.964   4.377
 5006SOL    HW115917   1.940   4.917   4.465
 5006SOL    HW215918   2.023   4.936   4.326
 5007SOL     OW15919   2.534   5.115   5.348
 5007SOL    HW115920   2.456   5.065   5.386
 5007SOL    HW215921   2.531   5.210   5.379
 5008SOL     OW15922   3.686   3.916   4.951
 5008SOL    HW115923   3.682   3.826   4.995
 5008SOL    HW215924   3.689   3.905   4.852
 5009SOL     OW15925   2.290   4.148   4.244
 5009SOL    HW115926   2.320   4.076   4.182
 5009SOL    HW215927   2.251   4.108   4.327
 5010SOL     OW15928   3.567   5.211   4.828
 5010SOL    HW115929   3.474   5.186   4.801
 5010SOL    HW215930   3.593   5.161   4.910
 5011SOL     OW15931   2.179   4.271   5.004
 5011SOL    HW115932   2.217   4.212   5.076
 5011SOL    HW215933   2.219   4.245   4.916
 5012SOL     OW15934   2.674   5.310   4.411
 5012SOL    HW115935   2.706   5.320   4.317
 5012SOL    HW215936   2.595   5.248   4.413
 5013SOL     OW15937   3.286   3.938   4.836
 5013SOL    HW115938   3.338   3.873   4.891
 5013SOL    HW215939   3.237   4.001   4.897
 5014SOL     OW15940   2.863   3.758   4.878
 5014SOL    HW115941   2.800   3.686   4.847
 5014SOL    HW215942   2.956   3.722   4.878
 5015SOL     OW15943   2.632   5.054   4.025
 5015SOL    HW115944   2.586   4.967   4.042
 5015SOL    HW215945   2.723   5.051   4.066
 5016SOL     OW15946   2.480   5.291   5.008
 5016SOL    HW115947   2.475   5.373   5.065
 5016SOL    HW215948   2.569   5.288   4.963
 5017SOL     OW15949   3.214   3.776   3.892
 5017SOL    HW115950   3.249   3.735   3.808
 5017SOL    HW215951   3.124   3.738   3.912
 5018SOL     OW15952   3.162   4.177   4.415
 5018SOL    HW115953   3.103   4.257   4.419
 5018SOL    HW215954   3.177   4.142   4.508
 5019SOL     OW15955   3.455   3.945   4.606
 5019SOL    HW115956   3.371   3.944   4.660
 5019SOL    HW215957   3.457   4.028   4.550
 5020SOL     OW15958   1.901   4.801   4.024
 5020SOL    HW115959   2.000   4.790   4.015
 5020SOL    HW215960   1.861   4.715   4.056
 5021SOL     OW15961   2.737   5.370   4.061
 5021SOL    HW115962   2.660   5.335   4.007
 5021SOL    HW215963   2.705   5.441   4.123
 5022SOL     OW15964   2.092   4.352   5.699
 5022SOL    HW115965   1.999   4.350   5.736
 5022SOL    HW215966   2.093   4.313   5.607
 5023SOL     OW15967   2.087   3.999   6.582
 5023SOL    HW115968   2.122   3.982   6.674
 5023SOL    HW215969   1.999   3.954   6.570
 5024SOL     OW15970   1.881   4.092   6.233
 5024SOL    HW115971   1.799   4.135   6.272
 5024SOL    HW215972   1.853   4.019   6.170
 5025SOL     OW15973   2.431   4.999   6.751
 5025SOL    HW115974   2.338   4.992   6.714
 5025SOL    HW215975   2.442   5.088   6.795
 5026SOL     OW15976   3.417   5.235   6.289
 5026SOL    HW115977   3.360   5.219   6.370
 5026SOL    HW215978   3.358   5.245   6.209
 5027SOL     OW15979   2.997   4.427   6.303
 5027SOL    HW115980   3.054   4.505   6.278
 5027SOL    HW215981   2.937   4.453   6.379
 5028SOL     OW15982   3.617   4.331   5.817
 5028SOL    HW115983   3.605   4.318   5.718
 5028SOL    HW215984   3.587   4.250   5.866
 5029SOL     OW15985   2.630   4.868   6.609
 5029SOL    HW115986   2.552   4.885   6.669
 5029SOL    HW215987   2.664   4.955   6.573
 5030SOL     OW15988   2.547   4.736   6.251
 5030SOL    HW115989   2.616   4.720   6.321
 5030SOL    HW215990   2.474   4.793   6.289
 5031SOL     OW15991   2.197   5.159   6.647
 5031SOL    HW115992   2.119   5.128   6.594
 5031SOL    HW215993   2.255   5.217   6.590
 5032SOL     OW15994   3.465   4.171   6.323
 5032SOL    HW115995   3.391   4.217   6.273
 5032SOL    HW215996   3.516   4.239   6.376
 5033SOL     OW15997   2.093   5.437   6.069
 5033SOL    HW115998   2.127   5.514   6.123
 5033SOL    HW215999   2.137   5.437   5.979
 5034SOL     OW16000   2.092   5.158   6.124
 5034SOL    HW116001   2.066   5.254   6.124
 5034SOL    HW216002   2.021   5.104   6.169
 5035SOL     OW16003   2.102   4.815   6.472
 5035SOL    HW116004   2.116   4.731   6.524
 5035SOL    HW216005   2.047   4.879   6.527
 5036SOL     OW16006   2.482   5.510   7.025
 5036SOL    HW116007   2.390   5.493   7.060
 5036SOL    HW216008   2.510   5.602   7.051
 5037SOL     OW16009   2.468   4.688   5.709
 5037SOL    HW116010   2.475   4.772   5.655
 5037SOL    HW216011   2.514   4.701   5.797
 5038SOL     OW16012   1.984   4.367   6.149
 5038SOL    HW116013   1.939   4.279   6.166
 5038SOL    HW216014   1.983   4.421   6.233
 5039SOL     OW16015   3.704   5.491   5.945
 5039SOL    HW116016   3.758   5.462   6.025
 5039SOL    HW216017   3.734   5.581   5.916
 5040SOL     OW16018   1.889   5.320   5.703
 5040SOL    HW116019   1.870   5.224   5.724
 5040SOL    HW216020   1.856   5.378   5.778
 5041SOL     OW16021   3.551   4.646   6.198
 5041SOL    HW116022   3.646   4.617   6.206
 5041SOL    HW216023   3.543   4.711   6.123
 5042SOL     OW16024   3.503   4.832   6.018
 5042SOL    HW116025   3.589   4.834   5.966
 5042SOL    HW216026   3.517   4.879   6.106
 5043SOL     OW16027   2.475   5.089   6.312
 5043SOL    HW116028   2.426   5.002   6.321
 5043SOL    HW216029   2.452   5.132   6.225
 5044SOL     OW16030   2.671   3.728   6.088
 5044SOL    HW116031   2.711   3.819   6.079
 5044SOL    HW216032   2.571   3.736   6.094
 5045SOL     OW16033   2.059   4.700   6.850
 5045SOL    HW116034   2.148   4.655   6.836
 5045SOL    HW216035   1.986   4.635   6.831
 5046SOL     OW16036   3.387   4.723   5.776
 5046SOL    HW116037   3.324   4.647   5.789
 5046SOL    HW216038   3.435   4.741   5.862
 5047SOL     OW16039   3.328   5.141   6.539
 5047SOL    HW116040   3.269   5.147   6.619
 5047SOL    HW216041   3.313   5.053   6.493
 5048SOL     OW16042   3.529   5.438   6.158
 5048SOL    HW116043   3.488   5.415   6.070
 5048SOL    HW216044   3.511   5.364   6.223
 5049SOL     OW16045   2.460   4.453   5.856
 5049SOL    HW116046   2.484   4.522   5.788
 5049SOL    HW216047   2.382   4.486   5.910
 5050SOL     OW16048   3.143   4.069   6.530
 5050SOL    HW116049   3.057   4.019   6.517
 5050SOL    HW216050   3.205   4.015   6.586
 5051SOL     OW16051   3.438   5.386   5.893
 5051SOL    HW116052   3.527   5.432   5.896
 5051SOL    HW216053   3.417   5.362   5.798
 5052SOL     OW16054   2.669   4.329   7.051
 5052SOL    HW116055   2.622   4.326   7.140
 5052SOL    HW216056   2.618   4.274   6.985
 5053SOL     OW16057   2.853   4.134   6.828
 5053SOL    HW116058   2.776   4.168   6.882
 5053SOL    HW216059   2.819   4.083   6.749
 5054SOL     OW16060   2.903   4.425   6.015
 5054SOL    HW116061   2.929   4.421   6.111
 5054SOL    HW216062   2.818   4.374   6.001
 5055SOL     OW16063   1.938   4.535   6.375
 5055SOL    HW116064   2.037   4.523   6.384
 5055SOL    HW216065   1.914   4.630   6.396
 5056SOL     OW16066   1.992   5.545   7.157
 5056SOL    HW116067   1.982   5.530   7.256
 5056SOL    HW216068   1.906   5.581   7.121
 5057SOL     OW16069   2.727   4.072   5.781
 5057SOL    HW116070   2.786   4.135   5.732
 5057SOL    HW216071   2.746   3.978   5.752
 5058SOL     OW16072   3.224   4.868   6.131
 5058SOL    HW116073   3.307   4.839   6.083
 5058SOL    HW216074   3.175   4.935   6.075
 5059SOL     OW16075   2.412   3.920   6.471
 5059SOL    HW116076   2.407   3.915   6.571
 5059SOL    HW216077   2.414   4.016   6.442
 5060SOL     OW16078   2.870   5.180   6.063
 5060SOL    HW116079   2.824   5.252   6.011
 5060SOL    HW216080   2.866   5.200   6.161
 5061SOL     OW16081   2.213   5.525   6.439
 5061SOL    HW116082   2.263   5.439   6.445
 5061SOL    HW216083   2.278   5.602   6.436
 5062SOL     OW16084   3.657   4.790   6.459
 5062SOL    HW116085   3.595   4.775   6.383
 5062SOL    HW216086   3.605   4.801   6.544
 5063SOL     OW16087   2.183   4.667   5.828
 5063SOL    HW116088   2.265   4.706   5.786
 5063SOL    HW216089   2.156   4.585   5.779
 5064SOL     OW16090   3.320   4.459   6.314
 5064SOL    HW116091   3.315   4.394   6.389
 5064SOL    HW216092   3.400   4.518   6.327
 5065SOL     OW16093   2.973   5.500   5.823
 5065SOL    HW116094   2.913   5.438   5.873
 5065SOL    HW216095   3.004   5.456   5.738
 5066SOL     OW16096   3.494   5.101   5.667
 5066SOL    HW116097   3.462   5.195   5.657
 5066SOL    HW216098   3.418   5.038   5.655
 5067SOL     OW16099   2.326   5.467   5.909
 5067SOL    HW116100   2.359   5.506   5.995
 5067SOL    HW216101   2.402   5.460   5.844
 5068SOL     OW16102   3.262   3.831   6.012
 5068SOL    HW116103   3.238   3.794   5.922
 5068SOL    HW216104   3.361   3.847   6.016
 5069SOL     OW16105   2.111   5.509   6.827
 5069SOL    HW116106   2.168   5.444   6.877
 5069SOL    HW216107   2.095   5.476   6.734
 5070SOL     OW16108   2.802   5.422   6.490
 5070SOL    HW116109   2.882   5.365   6.511
 5070SOL    HW216110   2.753   5.382   6.413
 5071SOL     OW16111   2.244   4.424   6.066
 5071SOL    HW116112   2.289   4.334   6.063
 5071SOL    HW216113   2.150   4.413   6.099
 5072SOL     OW16114   2.476   3.846   5.703
 5072SOL    HW116115   2.574   3.824   5.710
 5072SOL    HW216116   2.445   3.829   5.610
 5073SOL     OW16117   2.750   5.238   6.781
 5073SOL    HW116118   2.727   5.213   6.687
 5073SOL    HW216119   2.811   5.169   6.820
 5074SOL     OW16120   2.665   5.126   6.510
 5074SOL    HW116121   2.755   5.140   6.468
 5074SOL    HW216122   2.594   5.128   6.439
 5075SOL     OW16123   2.784   4.227   6.485
 5075SOL    HW116124   2.759   4.218   6.389
 5075SOL    HW216125   2.832   4.145   6.516
 5076SOL     OW16126   2.401   3.788   6.098
 5076SOL    HW116127   2.320   3.789   6.156
 5076SOL    HW216128   2.404   3.871   6.043
 5077SOL     OW16129   3.296   4.912   5.627
 5077SOL    HW116130   3.328   4.836   5.684
 5077SOL    HW216131   3.204   4.939   5.657
 5078SOL     OW16132   2.159   3.759   5.757
 5078SOL    HW116133   2.208   3.843   5.736
 5078SOL    HW216134   2.221   3.694   5.802
 5079SOL     OW16135   2.797   3.960   6.066
 5079SOL    HW116136   2.749   4.001   5.988
 5079SOL    HW216137   2.896   3.958   6.047
 5080SOL     OW16138   3.089   5.294   6.379
 5080SOL    HW116139   3.110   5.368   6.314
 5080SOL    HW216140   3.157   5.294   6.452
 5081SOL     OW16141   2.321   4.876   6.327
 5081SOL    HW116142   2.250   4.849   6.392
 5081SOL    HW216143   2.295   4.848   6.234
 5082SOL     OW16144   3.133   5.521   6.177
 5082SOL    HW116145   3.177   5.585   6.113
 5082SOL    HW216146   3.083   5.573   6.247
 5083SOL     OW16147   2.894   4.273   5.602
 5083SOL    HW116148   2.853   4.355   5.563
 5083SOL    HW216149   2.958   4.299   5.675
 5084SOL     OW16150   2.423   3.946   6.733
 5084SOL    HW116151   2.461   3.862   6.770
 5084SOL    HW216152   2.335   3.965   6.777
 5085SOL     OW16153   2.728   4.178   6.228
 5085SOL    HW116154   2.696   4.250   6.166
 5085SOL    HW216155   2.752   4.097   6.175
 5086SOL     OW16156   2.879   3.763   6.339
 5086SOL    HW116157   2.807   3.768   6.270
 5086SOL    HW216158   2.855   3.694   6.408
 5087SOL     OW16159   3.291   4.897   6.453
 5087SOL    HW116160   3.236   4.813   6.446
 5087SOL    HW216161   3.317   4.926   6.361
 5088SOL     OW16162   3.328   4.314   6.578
 5088SOL    HW116163   3.298   4.219   6.585
 5088SOL    HW216164   3.401   4.330   6.644
 5089SOL     OW16165   3.719   4.557   5.963
 5089SOL    HW116166   3.761   4.493   6.027
 5089SOL    HW216167   3.681   4.506   5.885
 5090SOL     OW16168   2.350   5.109   5.760
 5090SOL    HW116169   2.263   5.094   5.807
 5090SOL    HW216170   2.333   5.135   5.665
 5091SOL     OW16171   3.526   5.004   6.243
 5091SOL    HW116172   3.625   5.012   6.257
 5091SOL    HW216173   3.481   5.088   6.274
 5092SOL     OW16174   3.252   4.299   5.664
 5092SOL    HW116175   3.198   4.278   5.745
 5092SOL    HW216176   3.343   4.258   5.673
 5093SOL     OW16177   2.389   3.980   5.914
 5093SOL    HW116178   2.416   3.921   5.839
 5093SOL    HW216179   2.389   4.075   5.883
 5094SOL     OW16180   3.616   4.947   7.174
 5094SOL    HW116181   3.707   4.908   7.161
 5094SOL    HW216182   3.624   5.043   7.198
 5095SOL     OW16183   2.973   4.919   6.686
 5095SOL    HW116184   2.933   4.963   6.767
 5095SOL    HW216185   2.932   4.956   6.603
 5096SOL     OW16186   3.500   4.823   6.665
 5096SOL    HW116187   3.505   4.904   6.724
 5096SOL    HW216188   3.414   4.825   6.614
 5097SOL     OW16189   2.567   4.774   5.954
 5097SOL    HW116190   2.553   4.781   6.053
 5097SOL    HW216191   2.651   4.723   5.936
 5098SOL     OW16192   2.272   4.537   6.837
 5098SOL    HW116193   2.358   4.549   6.887
 5098SOL    HW216194   2.230   4.450   6.864
 5099SOL     OW16195   3.136   4.110   6.848
 5099SOL    HW116196   3.157   4.184   6.912
 5099SOL    HW216197   3.047   4.127   6.805
 5100SOL     OW16198   1.926   5.288   6.917
 5100SOL    HW116199   1.880   5.370   6.883
 5100SOL    HW216200   2.024   5.307   6.926
 5101SOL     OW16201   2.229   4.824   6.087
 5101SOL    HW116202   2.222   4.907   6.031
 5101SOL    HW216203   2.233   4.744   6.027
 5102SOL     OW16204   2.428   4.261   6.451
 5102SOL    HW116205   2.440   4.327   6.377
 5102SOL    HW216206   2.474   4.295   6.534
 5103SOL     OW16207   3.114   5.072   5.974
 5103SOL    HW116208   3.164   5.149   6.014
 5103SOL    HW216209   3.019   5.074   6.006
 5104SOL     OW16210   3.134   5.169   6.728
 5104SOL    HW116211   3.181   5.182   6.815
 5104SOL    HW216212   3.068   5.095   6.737
 5105SOL     OW16213   3.444   4.363   6.058
 5105SOL    HW116214   3.413   4.424   6.131
 5105SOL    HW216215   3.494   4.415   5.989
 5106SOL     OW16216   2.216   5.234   6.915
 5106SOL    HW116217   2.195   5.190   6.828
 5106SOL    HW216218   2.313   5.260   6.918
 5107SOL     OW16219   2.435   4.594   6.615
 5107SOL    HW116220   2.479   4.683   6.606
 5107SOL    HW216221   2.372   4.594   6.692
 5108SOL     OW16222   3.222   4.586   6.631
 5108SOL    HW116223   3.147   4.586   6.565
 5108SOL    HW216224   3.259   4.494   6.640
 5109SOL     OW16225   3.071   4.249   5.861
 5109SOL    HW116226   3.084   4.165   5.915
 5109SOL    HW216227   3.042   4.323   5.921
 5110SOL     OW16228   2.169   3.937   6.817
 5110SOL    HW116229   2.146   3.974   6.907
 5110SOL    HW216230   2.139   3.842   6.811
 5111SOL     OW16231   1.899   5.034   6.868
 5111SOL    HW116232   1.952   4.985   6.936
 5111SOL    HW216233   1.921   5.132   6.873
 5112SOL     OW16234   2.594   4.358   6.650
 5112SOL    HW116235   2.653   4.332   6.574
 5112SOL    HW216236   2.566   4.454   6.639
 5113SOL     OW16237   2.169   3.787   6.204
 5113SOL    HW116238   2.158   3.881   6.237
 5113SOL    HW216239   2.164   3.724   6.281
 5114SOL     OW16240   3.484   4.091   5.960
 5114SOL    HW116241   3.486   4.015   6.024
 5114SOL    HW216242   3.436   4.168   6.000
 5115SOL     OW16243   2.885   4.490   6.552
 5115SOL    HW116244   2.900   4.511   6.648
 5115SOL    HW216245   2.855   4.395   6.543
 5116SOL     OW16246   3.402   3.998   5.711
 5116SOL    HW116247   3.341   3.923   5.734
 5116SOL    HW216248   3.424   4.050   5.794
 5117SOL     OW16249   3.165   4.562   5.628
 5117SOL    HW116250   3.199   4.469   5.643
 5117SOL    HW216251   3.183   4.589   5.533
 5118SOL     OW16252   2.930   5.057   6.435
 5118SOL    HW116253   2.937   4.973   6.380
 5118SOL    HW216254   2.992   5.126   6.399
 5119SOL     OW16255   2.181   4.534   6.535
 5119SOL    HW116256   2.274   4.570   6.540
 5119SOL    HW216257   2.175   4.449   6.587
 5120SOL     OW16258   2.201   4.233   6.592
 5120SOL    HW116259   2.149   4.150   6.575
 5120SOL    HW216260   2.278   4.238   6.528
 5121SOL     OW16261   3.022   3.931   7.063
 5121SOL    HW116262   3.022   3.995   7.140
 5121SOL    HW216263   3.050   3.979   6.980
 5122SOL     OW16264   1.870   5.050   5.786
 5122SOL    HW116265   1.777   5.071   5.755
 5122SOL    HW216266   1.880   4.951   5.799
 5123SOL     OW16267   1.950   5.525   6.513
 5123SOL    HW116268   1.908   5.439   6.486
 5123SOL    HW216269   2.044   5.528   6.479
 5124SOL     OW16270   2.366   5.292   6.496
 5124SOL    HW116271   2.432   5.366   6.505
 5124SOL    HW216272   2.410   5.213   6.454
 5125SOL     OW16273   2.864   4.520   6.824
 5125SOL    HW116274   2.905   4.488   6.910
 5125SOL    HW216275   2.768   4.493   6.821
 5126SOL     OW16276   1.902   4.268   6.700
 5126SOL    HW116277   1.987   4.235   6.659
 5126SOL    HW216278   1.915   4.283   6.798
 5127SOL     OW16279   2.677   4.296   5.911
 5127SOL    HW116280   2.684   4.207   5.865
 5127SOL    HW216281   2.583   4.330   5.903
 5128SOL     OW16282   3.519   4.328   6.792
 5128SOL    HW116283   3.481   4.259   6.854
 5128SOL    HW216284   3.601   4.292   6.748
 5129SOL     OW16285   2.533   4.188   6.855
 5129SOL    HW116286   2.499   4.099   6.825
 5129SOL    HW216287   2.559   4.242   6.775
 5130SOL     OW16288   2.792   5.402   7.051
 5130SOL    HW116289   2.768   5.384   6.956
 5130SOL    HW216290   2.822   5.496   7.061
 5131SOL     OW16291   2.335   4.224   5.777
 5131SOL    HW116292   2.396   4.304   5.781
 5131SOL    HW216293   2.240   4.255   5.784
 5132SOL     OW16294   2.021   4.861   7.052
 5132SOL    HW116295   2.043   4.800   7.128
 5132SOL    HW216296   2.031   4.812   6.966
 5133SOL     OW16297   3.209   4.783   6.820
 5133SOL    HW116298   3.233   4.720   6.746
 5133SOL    HW216299   3.119   4.823   6.802
 5134SOL     OW16300   3.164   4.579   5.895
 5134SOL    HW116301   3.078   4.548   5.937
 5134SOL    HW216302   3.160   4.565   5.796
 5135SOL     OW16303   3.621   5.471   6.740
 5135SOL    HW116304   3.682   5.501   6.667
 5135SOL    HW216305   3.583   5.382   6.718
 5136SOL     OW16306   3.114   5.455   6.714
 5136SOL    HW116307   3.198   5.460   6.660
 5136SOL    HW216308   3.091   5.359   6.732
 5137SOL     OW16309   1.945   4.982   6.608
 5137SOL    HW116310   1.940   4.981   6.708
 5137SOL    HW216311   1.862   4.941   6.570
 5138SOL     OW16312   3.588   3.859   6.109
 5138SOL    HW116313   3.661   3.842   6.042
 5138SOL    HW216314   3.557   3.772   6.147
 5139SOL     OW16315   3.250   5.297   6.063
 5139SOL    HW116316   3.317   5.309   5.989
 5139SOL    HW216317   3.210   5.386   6.086
 5140SOL     OW16318   3.142   4.651   6.258
 5140SOL    HW116319   3.202   4.570   6.260
 5140SOL    HW216320   3.182   4.720   6.198
 5141SOL     OW16321   2.534   5.340   5.740
 5141SOL    HW116322   2.543   5.350   5.641
 5141SOL    HW216323   2.494   5.251   5.761
 5142SOL     OW16324   3.703   3.899   6.549
 5142SOL    HW116325   3.742   3.814   6.513
 5142SOL    HW216326   3.605   3.901   6.530
 5143SOL     OW16327   2.125   4.050   6.306
 5143SOL    HW116328   2.046   4.101   6.272
 5143SOL    HW216329   2.116   4.035   6.404
 5144SOL     OW16330   3.056   5.336   5.617
 5144SOL    HW116331   3.062   5.243   5.654
 5144SOL    HW216332   2.997   5.336   5.537
 5145SOL     OW16333   2.684   4.726   6.958
 5145SOL    HW116334   2.724   4.725   6.866
 5145SOL    HW216335   2.694   4.818   6.998
 5146SOL     OW16336   2.778   4.634   5.877
 5146SOL    HW116337   2.841   4.672   5.809
 5146SOL    HW216338   2.818   4.551   5.916
 5147SOL     OW16339   3.366   5.331   5.630
 5147SOL    HW116340   3.274   5.368   5.637
 5147SOL    HW216341   3.404   5.351   5.540
 5148SOL     OW16342   3.476   5.016   6.875
 5148SOL    HW116343   3.536   5.019   6.955
 5148SOL    HW216344   3.401   5.080   6.888
 5149SOL     OW16345   2.901   4.822   6.282
 5149SOL    HW116346   2.831   4.775   6.336
 5149SOL    HW216347   2.960   4.754   6.239
 5150SOL     OW16348   2.876   3.960   6.557
 5150SOL    HW116349   2.868   3.924   6.464
 5150SOL    HW216350   2.874   3.884   6.622
 5151SOL     OW16351   2.452   5.211   6.077
 5151SOL    HW116352   2.494   5.153   6.007
 5151SOL    HW216353   2.408   5.290   6.033
 5152SOL     OW16354   3.571   4.109   6.967
 5152SOL    HW116355   3.644   4.178   6.971
 5152SOL    HW216356   3.599   4.034   6.908
 5153SOL     OW16357   2.117   5.072   5.876
 5153SOL    HW116358   2.021   5.073   5.849
 5153SOL    HW216359   2.129   5.125   5.960
 5154SOL     OW16360   2.534   3.927   7.075
 5154SOL    HW116361   2.624   3.911   7.035
 5154SOL    HW216362   2.542   3.932   7.174
 5155SOL     OW16363   1.937   4.069   5.619
 5155SOL    HW116364   1.845   4.041   5.590
 5155SOL    HW216365   1.968   4.146   5.563
 5156SOL     OW16366   1.934   3.890   5.904
 5156SOL    HW116367   1.917   3.973   5.850
 5156SOL    HW216368   2.024   3.853   5.882
 5157SOL     OW16369   3.045   5.059   5.705
 5157SOL    HW116370   2.946   5.048   5.707
 5157SOL    HW216371   3.079   5.074   5.798
 5158SOL     OW16372   3.355   5.491   6.545
 5158SOL    HW116373   3.388   5.555   6.476
 5158SOL    HW216374   3.421   5.485   6.620
 5159SOL     OW16375   3.312   4.944   7.219
 5159SOL    HW116376   3.303   4.934   7.318
 5159SOL    HW216377   3.408   4.937   7.193
 5160SOL     OW16378   2.252   5.465   7.146
 5160SOL    HW116379   2.161   5.506   7.144
 5160SOL    HW216380   2.245   5.371   7.178
 5161SOL     OW16381   3.536   4.607   6.840
 5161SOL    HW116382   3.509   4.518   6.803
 5161SOL    HW216383   3.537   4.675   6.767
 5162SOL     OW16384   3.087   4.049   6.035
 5162SOL    HW116385   3.152   3.975   6.024
 5162SOL    HW216386   3.107   4.099   6.119
 5163SOL     OW16387   2.456   4.469   6.238
 5163SOL    HW116388   2.506   4.554   6.219
 5163SOL    HW216389   2.368   4.471   6.190
 5164SOL     OW16390   3.592   4.658   7.103
 5164SOL    HW116391   3.630   4.749   7.118
 5164SOL    HW216392   3.584   4.641   7.004
 5165SOL     OW16393   2.721   5.098   5.602
 5165SOL    HW116394   2.675   5.113   5.690
 5165SOL    HW216395   2.765   5.183   5.572
 5166SOL     OW16396   2.523   5.514   6.539
 5166SOL    HW116397   2.477   5.602   6.526
 5166SOL    HW216398   2.622   5.526   6.532
 5167SOL     OW16399   2.721   4.680   6.447
 5167SOL    HW116400   2.775   4.611   6.495
 5167SOL    HW216401   2.689   4.749   6.513
 5168SOL     OW16402   2.945   4.708   5.673
 5168SOL    HW116403   2.922   4.761   5.591
 5168SOL    HW216404   3.026   4.652   5.654
 5169SOL     OW16405   3.723   5.293   6.437
 5169SOL    HW116406   3.652   5.281   6.367
 5169SOL    HW216407   3.724   5.214   6.497
 5170SOL     OW16408   1.941   4.964   6.239
 5170SOL    HW116409   1.940   4.917   6.327
 5170SOL    HW216410   2.023   4.936   6.188
 5171SOL     OW16411   3.686   3.916   6.813
 5171SOL    HW116412   3.682   3.826   6.857
 5171SOL    HW216413   3.689   3.905   6.714
 5172SOL     OW16414   2.290   4.148   6.106
 5172SOL    HW116415   2.320   4.076   6.044
 5172SOL    HW216416   2.251   4.108   6.189
 5173SOL     OW16417   3.567   5.211   6.690
 5173SOL    HW116418   3.474   5.186   6.663
 5173SOL    HW216419   3.593   5.161   6.772
 5174SOL     OW16420   2.179   4.271   6.866
 5174SOL    HW116421   2.217   4.212   6.938
 5174SOL    HW216422   2.219   4.245   6.778
 5175SOL     OW16423   2.674   5.310   6.273
 5175SOL    HW116424   2.706   5.320   6.179
 5175SOL    HW216425   2.595   5.248   6.275
 5176SOL     OW16426   3.286   3.938   6.698
 5176SOL    HW116427   3.338   3.873   6.753
 5176SOL    HW216428   3.237   4.001   6.759
 5177SOL     OW16429   2.863   3.758   6.740
 5177SOL    HW116430   2.800   3.686   6.709
 5177SOL    HW216431   2.956   3.722   6.740
 5178SOL     OW16432   2.632   5.054   5.887
 5178SOL    HW116433   2.586   4.967   5.904
 5178SOL    HW216434   2.723   5.051   5.928
 5179SOL     OW16435   2.480   5.291   6.870
 5179SOL    HW116436   2.475   5.373   6.927
 5179SOL    HW216437   2.569   5.288   6.825
 5180SOL     OW16438   3.214   3.776   5.754
 5180SOL    HW116439   3.249   3.735   5.670
 5180SOL    HW216440   3.124   3.738   5.774
 5181SOL     OW16441   3.162   4.177   6.277
 5181SOL    HW116442   3.103   4.257   6.281
 5181SOL    HW216443   3.177   4.142   6.370
 5182SOL     OW16444   3.455   3.945   6.468
 5182SOL    HW116445   3.371   3.944   6.522
 5182SOL    HW216446   3.457   4.028   6.412
 5183SOL     OW16447   1.901   4.801   5.886
 5183SOL    HW116448   2.000   4.790   5.877
 5183SOL    HW216449   1.861   4.715   5.918
 5184SOL     OW16450   2.737   5.370   5.923
 5184SOL    HW116451   2.660   5.335   5.869
 5184SOL    HW216452   2.705   5.441   5.985
 5185SOL     OW16453   2.092   6.214   0.113
 5185SOL    HW116454   1.999   6.212   0.150
 5185SOL    HW216455   2.093   6.175   0.021
 5186SOL     OW16456   2.087   5.861   0.996
 5186SOL    HW116457   2.122   5.844   1.088
 5186SOL    HW216458   1.999   5.816   0.984
 5187SOL     OW16459   1.881   5.954   0.647
 5187SOL    HW116460   1.799   5.997   0.686
 5187SOL    HW216461   1.853   5.881   0.584
 5188SOL     OW16462   2.431   6.861   1.165
 5188SOL    HW116463   2.338   6.854   1.128
 5188SOL    HW216464   2.442   6.950   1.209
 5189SOL     OW16465   3.417   7.097   0.703
 5189SOL    HW116466   3.360   7.081   0.784
 5189SOL    HW216467   3.358   7.107   0.623
 5190SOL     OW16468   2.997   6.289   0.717
 5190SOL    HW116469   3.054   6.367   0.692
 5190SOL    HW216470   2.937   6.315   0.793
 5191SOL     OW16471   3.617   6.193   0.231
 5191SOL    HW116472   3.605   6.180   0.132
 5191SOL    HW216473   3.587   6.112   0.280
 5192SOL     OW16474   2.630   6.730   1.023
 5192SOL    HW116475   2.552   6.747   1.083
 5192SOL    HW216476   2.664   6.817   0.987
 5193SOL     OW16477   2.712   6.384   1.823
 5193SOL    HW116478   2.708   6.460   1.888
 5193SOL    HW216479   2.734   6.420   1.732
 5194SOL     OW16480   2.547   6.598   0.665
 5194SOL    HW116481   2.616   6.582   0.735
 5194SOL    HW216482   2.474   6.655   0.703
 5195SOL     OW16483   2.548   6.747   1.803
 5195SOL    HW116484   2.608   6.826   1.817
 5195SOL    HW216485   2.462   6.778   1.762
 5196SOL     OW16486   2.197   7.021   1.061
 5196SOL    HW116487   2.119   6.990   1.008
 5196SOL    HW216488   2.255   7.079   1.004
 5197SOL     OW16489   2.300   5.978   1.499
 5197SOL    HW116490   2.382   5.922   1.508
 5197SOL    HW216491   2.219   5.920   1.503
 5198SOL     OW16492   3.465   6.033   0.737
 5198SOL    HW116493   3.391   6.079   0.687
 5198SOL    HW216494   3.516   6.101   0.790
 5199SOL     OW16495   2.102   6.677   0.886
 5199SOL    HW116496   2.116   6.593   0.938
 5199SOL    HW216497   2.047   6.741   0.941
 5200SOL     OW16498   2.468   6.550   0.123
 5200SOL    HW116499   2.475   6.634   0.069
 5200SOL    HW216500   2.514   6.563   0.211
 5201SOL     OW16501   3.456   5.700   1.480
 5201SOL    HW116502   3.438   5.767   1.408
 5201SOL    HW216503   3.453   5.746   1.569
 5202SOL     OW16504   1.984   6.229   0.563
 5202SOL    HW116505   1.939   6.141   0.580
 5202SOL    HW216506   1.983   6.283   0.647
 5203SOL     OW16507   3.551   6.508   0.612
 5203SOL    HW116508   3.646   6.479   0.620
 5203SOL    HW216509   3.543   6.573   0.537
 5204SOL     OW16510   3.503   6.694   0.432
 5204SOL    HW116511   3.589   6.696   0.380
 5204SOL    HW216512   3.517   6.741   0.520
 5205SOL     OW16513   1.975   6.323   1.597
 5205SOL    HW116514   2.063   6.310   1.642
 5205SOL    HW216515   1.962   6.420   1.575
 5206SOL     OW16516   3.155   6.814   1.423
 5206SOL    HW116517   3.192   6.741   1.365
 5206SOL    HW216518   3.207   6.819   1.508
 5207SOL     OW16519   2.671   5.590   0.502
 5207SOL    HW116520   2.711   5.681   0.493
 5207SOL    HW216521   2.571   5.598   0.508
 5208SOL     OW16522   2.059   6.562   1.264
 5208SOL    HW116523   2.148   6.517   1.250
 5208SOL    HW216524   1.986   6.497   1.245
 5209SOL     OW16525   3.387   6.585   0.190
 5209SOL    HW116526   3.324   6.509   0.203
 5209SOL    HW216527   3.435   6.603   0.276
 5210SOL     OW16528   2.179   5.837   1.801
 5210SOL    HW116529   2.250   5.908   1.807
 5210SOL    HW216530   2.091   5.876   1.829
 5211SOL     OW16531   3.328   7.003   0.953
 5211SOL    HW116532   3.269   7.009   1.033
 5211SOL    HW216533   3.313   6.915   0.907
 5212SOL     OW16534   2.460   6.315   0.270
 5212SOL    HW116535   2.484   6.384   0.202
 5212SOL    HW216536   2.382   6.348   0.324
 5213SOL     OW16537   3.143   5.931   0.944
 5213SOL    HW116538   3.057   5.881   0.931
 5213SOL    HW216539   3.205   5.877   1.000
 5214SOL     OW16540   2.669   6.191   1.465
 5214SOL    HW116541   2.622   6.188   1.554
 5214SOL    HW216542   2.618   6.136   1.399
 5215SOL     OW16543   3.256   6.055   1.674
 5215SOL    HW116544   3.236   6.098   1.762
 5215SOL    HW216545   3.334   5.993   1.683
 5216SOL     OW16546   2.835   6.476   1.572
 5216SOL    HW116547   2.881   6.392   1.543
 5216SOL    HW216548   2.779   6.510   1.497
 5217SOL     OW16549   2.853   5.996   1.242
 5217SOL    HW116550   2.776   6.030   1.296
 5217SOL    HW216551   2.819   5.945   1.163
 5218SOL     OW16552   2.903   6.287   0.429
 5218SOL    HW116553   2.929   6.283   0.525
 5218SOL    HW216554   2.818   6.236   0.415
 5219SOL     OW16555   1.938   6.397   0.789
 5219SOL    HW116556   2.037   6.385   0.798
 5219SOL    HW216557   1.914   6.492   0.810
 5220SOL     OW16558   2.727   5.934   0.195
 5220SOL    HW116559   2.786   5.997   0.146
 5220SOL    HW216560   2.746   5.840   0.166
 5221SOL     OW16561   3.581   6.171   1.831
 5221SOL    HW116562   3.555   6.260   1.795
 5221SOL    HW216563   3.579   6.103   1.758
 5222SOL     OW16564   3.224   6.730   0.545
 5222SOL    HW116565   3.307   6.701   0.497
 5222SOL    HW216566   3.175   6.797   0.489
 5223SOL     OW16567   2.412   5.782   0.885
 5223SOL    HW116568   2.407   5.777   0.985
 5223SOL    HW216569   2.414   5.878   0.856
 5224SOL     OW16570   3.657   6.652   0.873
 5224SOL    HW116571   3.595   6.637   0.797
 5224SOL    HW216572   3.605   6.663   0.958
 5225SOL     OW16573   2.183   6.529   0.242
 5225SOL    HW116574   2.265   6.568   0.200
 5225SOL    HW216575   2.156   6.447   0.193
 5226SOL     OW16576   3.320   6.321   0.728
 5226SOL    HW116577   3.315   6.256   0.803
 5226SOL    HW216578   3.400   6.380   0.741
 5227SOL     OW16579   2.064   5.871   1.498
 5227SOL    HW116580   1.984   5.931   1.485
 5227SOL    HW216581   2.054   5.822   1.584
 5228SOL     OW16582   3.494   6.963   0.081
 5228SOL    HW116583   3.462   7.057   0.071
 5228SOL    HW216584   3.418   6.900   0.069
 5229SOL     OW16585   2.244   6.286   0.480
 5229SOL    HW116586   2.289   6.196   0.477
 5229SOL    HW216587   2.150   6.275   0.513
 5230SOL     OW16588   3.409   5.808   1.729
 5230SOL    HW116589   3.404   5.845   1.821
 5230SOL    HW216590   3.337   5.739   1.717
 5231SOL     OW16591   2.643   5.850   1.749
 5231SOL    HW116592   2.710   5.789   1.792
 5231SOL    HW216593   2.570   5.869   1.814
 5232SOL     OW16594   3.213   6.176   1.433
 5232SOL    HW116595   3.241   6.133   1.518
 5232SOL    HW216596   3.238   6.272   1.434
 5233SOL     OW16597   2.784   6.089   0.899
 5233SOL    HW116598   2.759   6.080   0.803
 5233SOL    HW216599   2.832   6.007   0.930
 5234SOL     OW16600   2.401   5.650   0.512
 5234SOL    HW116601   2.320   5.651   0.570
 5234SOL    HW216602   2.404   5.733   0.457
 5235SOL     OW16603   3.296   6.774   0.041
 5235SOL    HW116604   3.328   6.698   0.098
 5235SOL    HW216605   3.204   6.801   0.071
 5236SOL     OW16606   2.797   5.822   0.480
 5236SOL    HW116607   2.749   5.863   0.402
 5236SOL    HW216608   2.896   5.820   0.461
 5237SOL     OW16609   2.938   6.269   1.464
 5237SOL    HW116610   2.858   6.208   1.467
 5237SOL    HW216611   3.019   6.216   1.440
 5238SOL     OW16612   3.089   7.156   0.793
 5238SOL    HW116613   3.110   7.230   0.728
 5238SOL    HW216614   3.157   7.156   0.866
 5239SOL     OW16615   2.321   6.738   0.741
 5239SOL    HW116616   2.250   6.711   0.806
 5239SOL    HW216617   2.295   6.710   0.648
 5240SOL     OW16618   2.894   6.135   0.016
 5240SOL    HW116619   2.853   6.217  -0.023
 5240SOL    HW216620   2.958   6.161   0.089
 5241SOL     OW16621   1.940   6.142   1.386
 5241SOL    HW116622   2.032   6.141   1.345
 5241SOL    HW216623   1.934   6.216   1.453
 5242SOL     OW16624   2.423   5.808   1.147
 5242SOL    HW116625   2.461   5.724   1.184
 5242SOL    HW216626   2.335   5.827   1.191
 5243SOL     OW16627   2.728   6.040   0.642
 5243SOL    HW116628   2.696   6.112   0.580
 5243SOL    HW216629   2.752   5.959   0.589
 5244SOL     OW16630   2.879   5.625   0.753
 5244SOL    HW116631   2.807   5.630   0.684
 5244SOL    HW216632   2.855   5.556   0.822
 5245SOL     OW16633   3.291   6.759   0.867
 5245SOL    HW116634   3.236   6.675   0.860
 5245SOL    HW216635   3.317   6.788   0.775
 5246SOL     OW16636   3.328   6.176   0.992
 5246SOL    HW116637   3.298   6.081   0.999
 5246SOL    HW216638   3.401   6.192   1.058
 5247SOL     OW16639   3.719   6.419   0.377
 5247SOL    HW116640   3.761   6.355   0.441
 5247SOL    HW216641   3.681   6.368   0.299
 5248SOL     OW16642   3.526   6.866   0.657
 5248SOL    HW116643   3.625   6.874   0.671
 5248SOL    HW216644   3.481   6.950   0.688
 5249SOL     OW16645   3.252   6.161   0.078
 5249SOL    HW116646   3.198   6.140   0.159
 5249SOL    HW216647   3.343   6.120   0.087
 5250SOL     OW16648   2.389   5.842   0.328
 5250SOL    HW116649   2.416   5.783   0.253
 5250SOL    HW216650   2.389   5.937   0.297
 5251SOL     OW16651   3.616   6.809   1.588
 5251SOL    HW116652   3.707   6.770   1.575
 5251SOL    HW216653   3.624   6.905   1.612
 5252SOL     OW16654   2.926   6.933   1.340
 5252SOL    HW116655   2.846   6.910   1.395
 5252SOL    HW216656   3.009   6.907   1.389
 5253SOL     OW16657   2.973   6.781   1.100
 5253SOL    HW116658   2.933   6.825   1.181
 5253SOL    HW216659   2.932   6.818   1.017
 5254SOL     OW16660   3.500   6.685   1.079
 5254SOL    HW116661   3.505   6.766   1.138
 5254SOL    HW216662   3.414   6.687   1.028
 5255SOL     OW16663   2.777   5.675   1.402
 5255SOL    HW116664   2.802   5.655   1.307
 5255SOL    HW216665   2.849   5.731   1.444
 5256SOL     OW16666   2.842   6.702   1.719
 5256SOL    HW116667   2.743   6.708   1.729
 5256SOL    HW216668   2.865   6.622   1.663
 5257SOL     OW16669   2.567   6.636   0.368
 5257SOL    HW116670   2.553   6.643   0.467
 5257SOL    HW216671   2.651   6.585   0.350
 5258SOL     OW16672   2.272   6.399   1.251
 5258SOL    HW116673   2.358   6.411   1.301
 5258SOL    HW216674   2.230   6.312   1.278
 5259SOL     OW16675   3.136   5.972   1.262
 5259SOL    HW116676   3.157   6.046   1.326
 5259SOL    HW216677   3.047   5.989   1.219
 5260SOL     OW16678   2.229   6.686   0.501
 5260SOL    HW116679   2.222   6.769   0.445
 5260SOL    HW216680   2.233   6.606   0.441
 5261SOL     OW16681   2.428   6.123   0.865
 5261SOL    HW116682   2.440   6.189   0.791
 5261SOL    HW216683   2.474   6.157   0.948
 5262SOL     OW16684   3.444   6.225   0.472
 5262SOL    HW116685   3.413   6.286   0.545
 5262SOL    HW216686   3.494   6.277   0.403
 5263SOL     OW16687   2.264   6.337   1.598
 5263SOL    HW116688   2.332   6.392   1.551
 5263SOL    HW216689   2.304   6.249   1.625
 5264SOL     OW16690   3.449   6.365   1.670
 5264SOL    HW116691   3.357   6.403   1.665
 5264SOL    HW216692   3.509   6.412   1.605
 5265SOL     OW16693   2.875   5.691   1.770
 5265SOL    HW116694   2.881   5.776   1.718
 5265SOL    HW216695   2.907   5.615   1.713
 5266SOL     OW16696   2.366   5.636   1.740
 5266SOL    HW116697   2.324   5.579   1.670
 5266SOL    HW216698   2.300   5.705   1.772
 5267SOL     OW16699   2.435   6.456   1.029
 5267SOL    HW116700   2.479   6.545   1.020
 5267SOL    HW216701   2.372   6.456   1.106
 5268SOL     OW16702   3.222   6.448   1.045
 5268SOL    HW116703   3.147   6.448   0.979
 5268SOL    HW216704   3.259   6.356   1.054
 5269SOL     OW16705   3.071   6.111   0.275
 5269SOL    HW116706   3.084   6.027   0.329
 5269SOL    HW216707   3.042   6.185   0.335
 5270SOL     OW16708   2.169   5.799   1.231
 5270SOL    HW116709   2.146   5.836   1.321
 5270SOL    HW216710   2.139   5.704   1.225
 5271SOL     OW16711   1.899   6.896   1.282
 5271SOL    HW116712   1.952   6.847   1.350
 5271SOL    HW216713   1.921   6.994   1.287
 5272SOL     OW16714   2.594   6.220   1.064
 5272SOL    HW116715   2.653   6.194   0.988
 5272SOL    HW216716   2.566   6.316   1.053
 5273SOL     OW16717   3.590   6.521   1.854
 5273SOL    HW116718   3.544   6.514   1.765
 5273SOL    HW216719   3.528   6.565   1.920
 5274SOL     OW16720   2.169   5.649   0.618
 5274SOL    HW116721   2.158   5.743   0.651
 5274SOL    HW216722   2.164   5.586   0.695
 5275SOL     OW16723   3.484   5.953   0.374
 5275SOL    HW116724   3.486   5.877   0.438
 5275SOL    HW216725   3.436   6.030   0.414
 5276SOL     OW16726   2.885   6.352   0.966
 5276SOL    HW116727   2.900   6.373   1.062
 5276SOL    HW216728   2.855   6.257   0.957
 5277SOL     OW16729   3.721   7.104   1.605
 5277SOL    HW116730   3.735   7.131   1.510
 5277SOL    HW216731   3.804   7.126   1.658
 5278SOL     OW16732   2.212   6.484   1.804
 5278SOL    HW116733   2.288   6.528   1.852
 5278SOL    HW216734   2.247   6.437   1.722
 5279SOL     OW16735   3.402   5.860   0.125
 5279SOL    HW116736   3.341   5.785   0.148
 5279SOL    HW216737   3.424   5.912   0.208
 5280SOL     OW16738   3.165   6.424   0.042
 5280SOL    HW116739   3.199   6.331   0.057
 5280SOL    HW216740   3.183   6.451  -0.053
 5281SOL     OW16741   2.181   6.396   0.949
 5281SOL    HW116742   2.274   6.432   0.954
 5281SOL    HW216743   2.175   6.311   1.001
 5282SOL     OW16744   2.201   6.095   1.006
 5282SOL    HW116745   2.149   6.012   0.989
 5282SOL    HW216746   2.278   6.100   0.942
 5283SOL     OW16747   3.000   5.966   1.678
 5283SOL    HW116748   2.955   6.029   1.742
 5283SOL    HW216749   3.093   5.997   1.661
 5284SOL     OW16750   3.022   5.793   1.477
 5284SOL    HW116751   3.022   5.857   1.554
 5284SOL    HW216752   3.050   5.841   1.394
 5285SOL     OW16753   2.864   6.382   1.238
 5285SOL    HW116754   2.905   6.350   1.324
 5285SOL    HW216755   2.768   6.355   1.235
 5286SOL     OW16756   1.902   6.130   1.114
 5286SOL    HW116757   1.987   6.097   1.073
 5286SOL    HW216758   1.915   6.145   1.212
 5287SOL     OW16759   2.051   6.106   1.722
 5287SOL    HW116760   2.110   6.066   1.652
 5287SOL    HW216761   1.993   6.177   1.681
 5288SOL     OW16762   3.231   6.536   1.660
 5288SOL    HW116763   3.270   6.625   1.680
 5288SOL    HW216764   3.241   6.516   1.563
 5289SOL     OW16765   2.677   6.158   0.325
 5289SOL    HW116766   2.684   6.069   0.279
 5289SOL    HW216767   2.583   6.192   0.317
 5290SOL     OW16768   3.519   6.190   1.206
 5290SOL    HW116769   3.481   6.121   1.268
 5290SOL    HW216770   3.601   6.154   1.162
 5291SOL     OW16771   2.533   6.050   1.269
 5291SOL    HW116772   2.499   5.961   1.239
 5291SOL    HW216773   2.559   6.104   1.189
 5292SOL     OW16774   2.335   6.086   0.191
 5292SOL    HW116775   2.396   6.166   0.195
 5292SOL    HW216776   2.240   6.117   0.198
 5293SOL     OW16777   2.021   6.723   1.466
 5293SOL    HW116778   2.043   6.662   1.542
 5293SOL    HW216779   2.031   6.674   1.380
 5294SOL     OW16780   3.209   6.645   1.234
 5294SOL    HW116781   3.233   6.582   1.160
 5294SOL    HW216782   3.119   6.685   1.216
 5295SOL     OW16783   3.164   6.441   0.309
 5295SOL    HW116784   3.078   6.410   0.351
 5295SOL    HW216785   3.160   6.427   0.210
 5296SOL     OW16786   1.945   6.844   1.022
 5296SOL    HW116787   1.940   6.843   1.122
 5296SOL    HW216788   1.862   6.803   0.984
 5297SOL     OW16789   2.765   5.672   0.133
 5297SOL    HW116790   2.816   5.673   0.047
 5297SOL    HW216791   2.821   5.630   0.204
 5298SOL     OW16792   3.588   5.721   0.523
 5298SOL    HW116793   3.661   5.704   0.456
 5298SOL    HW216794   3.557   5.634   0.561
 5299SOL     OW16795   3.142   6.513   0.672
 5299SOL    HW116796   3.202   6.432   0.674
 5299SOL    HW216797   3.182   6.582   0.612
 5300SOL     OW16798   2.692   6.859   1.422
 5300SOL    HW116799   2.687   6.892   1.517
 5300SOL    HW216800   2.606   6.878   1.376
 5301SOL     OW16801   3.703   5.761   0.963
 5301SOL    HW116802   3.742   5.676   0.927
 5301SOL    HW216803   3.605   5.763   0.944
 5302SOL     OW16804   2.125   5.912   0.720
 5302SOL    HW116805   2.046   5.963   0.686
 5302SOL    HW216806   2.116   5.897   0.818
 5303SOL     OW16807   2.684   6.588   1.372
 5303SOL    HW116808   2.724   6.587   1.280
 5303SOL    HW216809   2.694   6.680   1.412
 5304SOL     OW16810   2.778   6.496   0.291
 5304SOL    HW116811   2.841   6.534   0.223
 5304SOL    HW216812   2.818   6.413   0.330
 5305SOL     OW16813   2.234   6.874   1.490
 5305SOL    HW116814   2.221   6.967   1.456
 5305SOL    HW216815   2.150   6.822   1.477
 5306SOL     OW16816   3.476   6.878   1.289
 5306SOL    HW116817   3.536   6.881   1.369
 5306SOL    HW216818   3.401   6.942   1.302
 5307SOL     OW16819   2.901   6.684   0.696
 5307SOL    HW116820   2.831   6.637   0.750
 5307SOL    HW216821   2.960   6.616   0.653
 5308SOL     OW16822   2.876   5.822   0.971
 5308SOL    HW116823   2.868   5.786   0.878
 5308SOL    HW216824   2.874   5.746   1.036
 5309SOL     OW16825   3.571   5.971   1.381
 5309SOL    HW116826   3.644   6.040   1.385
 5309SOL    HW216827   3.599   5.896   1.322
 5310SOL     OW16828   1.967   6.599   1.726
 5310SOL    HW116829   1.890   6.566   1.780
 5310SOL    HW216830   2.052   6.569   1.768
 5311SOL     OW16831   2.534   5.789   1.489
 5311SOL    HW116832   2.624   5.773   1.449
 5311SOL    HW216833   2.542   5.794   1.588
 5312SOL     OW16834   1.937   5.931   0.033
 5312SOL    HW116835   1.845   5.903   0.004
 5312SOL    HW216836   1.968   6.008  -0.023
 5313SOL     OW16837   3.302   6.442   1.398
 5313SOL    HW116838   3.245   6.494   1.335
 5313SOL    HW216839   3.398   6.454   1.374
 5314SOL     OW16840   1.934   5.752   0.318
 5314SOL    HW116841   1.917   5.835   0.264
 5314SOL    HW216842   2.024   5.715   0.296
 5315SOL     OW16843   2.475   6.428   1.431
 5315SOL    HW116844   2.531   6.509   1.414
 5315SOL    HW216845   2.534   6.348   1.434
 5316SOL     OW16846   2.578   6.151   1.708
 5316SOL    HW116847   2.597   6.216   1.782
 5316SOL    HW216848   2.638   6.071   1.717
 5317SOL     OW16849   3.312   6.806   1.633
 5317SOL    HW116850   3.303   6.796   1.732
 5317SOL    HW216851   3.408   6.799   1.607
 5318SOL     OW16852   3.536   6.469   1.254
 5318SOL    HW116853   3.509   6.380   1.217
 5318SOL    HW216854   3.537   6.537   1.181
 5319SOL     OW16855   3.087   5.911   0.449
 5319SOL    HW116856   3.152   5.837   0.438
 5319SOL    HW216857   3.107   5.961   0.533
 5320SOL     OW16858   2.456   6.331   0.652
 5320SOL    HW116859   2.506   6.416   0.633
 5320SOL    HW216860   2.368   6.333   0.604
 5321SOL     OW16861   3.639   5.928   1.642
 5321SOL    HW116862   3.622   5.959   1.548
 5321SOL    HW216863   3.555   5.891   1.680
 5322SOL     OW16864   3.592   6.520   1.517
 5322SOL    HW116865   3.630   6.611   1.532
 5322SOL    HW216866   3.584   6.503   1.418
 5323SOL     OW16867   2.721   6.542   0.861
 5323SOL    HW116868   2.775   6.473   0.909
 5323SOL    HW216869   2.689   6.611   0.927
 5324SOL     OW16870   2.945   6.570   0.087
 5324SOL    HW116871   2.922   6.623   0.005
 5324SOL    HW216872   3.026   6.514   0.068
 5325SOL     OW16873   2.083   6.900   1.844
 5325SOL    HW116874   2.018   6.827   1.823
 5325SOL    HW216875   2.087   6.914   1.942
 5326SOL     OW16876   1.941   6.826   0.653
 5326SOL    HW116877   1.940   6.779   0.741
 5326SOL    HW216878   2.023   6.798   0.602
 5327SOL     OW16879   2.534   6.977   1.624
 5327SOL    HW116880   2.456   6.927   1.662
 5327SOL    HW216881   2.531   7.072   1.655
 5328SOL     OW16882   3.686   5.778   1.227
 5328SOL    HW116883   3.682   5.688   1.271
 5328SOL    HW216884   3.689   5.767   1.128
 5329SOL     OW16885   2.290   6.010   0.520
 5329SOL    HW116886   2.320   5.938   0.458
 5329SOL    HW216887   2.251   5.970   0.603
 5330SOL     OW16888   3.567   7.073   1.104
 5330SOL    HW116889   3.474   7.048   1.077
 5330SOL    HW216890   3.593   7.023   1.186
 5331SOL     OW16891   2.179   6.133   1.280
 5331SOL    HW116892   2.217   6.074   1.352
 5331SOL    HW216893   2.219   6.107   1.192
 5332SOL     OW16894   3.286   5.800   1.112
 5332SOL    HW116895   3.338   5.735   1.167
 5332SOL    HW216896   3.237   5.863   1.173
 5333SOL     OW16897   2.863   5.620   1.154
 5333SOL    HW116898   2.800   5.548   1.123
 5333SOL    HW216899   2.956   5.584   1.154
 5334SOL     OW16900   2.632   6.916   0.301
 5334SOL    HW116901   2.586   6.829   0.318
 5334SOL    HW216902   2.723   6.913   0.342
 5335SOL     OW16903   3.214   5.638   0.168
 5335SOL    HW116904   3.249   5.597   0.084
 5335SOL    HW216905   3.124   5.600   0.188
 5336SOL     OW16906   3.162   6.039   0.691
 5336SOL    HW116907   3.103   6.119   0.695
 5336SOL    HW216908   3.177   6.004   0.784
 5337SOL     OW16909   3.455   5.807   0.882
 5337SOL    HW116910   3.371   5.806   0.936
 5337SOL    HW216911   3.457   5.890   0.826
 5338SOL     OW16912   1.901   6.663   0.300
 5338SOL    HW116913   2.000   6.652   0.291
 5338SOL    HW216914   1.861   6.577   0.332
 5339SOL     OW16915   2.092   6.214   1.975
 5339SOL    HW116916   1.999   6.212   2.012
 5339SOL    HW216917   2.093   6.175   1.883
 5340SOL     OW16918   2.087   5.861   2.858
 5340SOL    HW116919   2.122   5.844   2.950
 5340SOL    HW216920   1.999   5.816   2.846
 5341SOL     OW16921   1.881   5.954   2.509
 5341SOL    HW116922   1.799   5.997   2.548
 5341SOL    HW216923   1.853   5.881   2.446
 5342SOL     OW16924   2.431   6.861   3.027
 5342SOL    HW116925   2.338   6.854   2.990
 5342SOL    HW216926   2.442   6.950   3.071
 5343SOL     OW16927   3.417   7.097   2.565
 5343SOL    HW116928   3.360   7.081   2.646
 5343SOL    HW216929   3.358   7.107   2.485
 5344SOL     OW16930   2.997   6.289   2.579
 5344SOL    HW116931   3.054   6.367   2.554
 5344SOL    HW216932   2.937   6.315   2.655
 5345SOL     OW16933   3.617   6.193   2.093
 5345SOL    HW116934   3.605   6.180   1.994
 5345SOL    HW216935   3.587   6.112   2.142
 5346SOL     OW16936   2.630   6.730   2.885
 5346SOL    HW116937   2.552   6.747   2.945
 5346SOL    HW216938   2.664   6.817   2.849
 5347SOL     OW16939   2.712   6.384   3.685
 5347SOL    HW116940   2.708   6.460   3.750
 5347SOL    HW216941   2.734   6.420   3.594
 5348SOL     OW16942   2.547   6.598   2.527
 5348SOL    HW116943   2.616   6.582   2.597
 5348SOL    HW216944   2.474   6.655   2.565
 5349SOL     OW16945   2.548   6.747   3.665
 5349SOL    HW116946   2.608   6.826   3.679
 5349SOL    HW216947   2.462   6.778   3.624
 5350SOL     OW16948   2.197   7.021   2.923
 5350SOL    HW116949   2.119   6.990   2.870
 5350SOL    HW216950   2.255   7.079   2.866
 5351SOL     OW16951   2.300   5.978   3.361
 5351SOL    HW116952   2.382   5.922   3.370
 5351SOL    HW216953   2.219   5.920   3.365
 5352SOL     OW16954   3.465   6.033   2.599
 5352SOL    HW116955   3.391   6.079   2.549
 5352SOL    HW216956   3.516   6.101   2.652
 5353SOL     OW16957   2.102   6.677   2.748
 5353SOL    HW116958   2.116   6.593   2.800
 5353SOL    HW216959   2.047   6.741   2.803
 5354SOL     OW16960   2.468   6.550   1.985
 5354SOL    HW116961   2.475   6.634   1.931
 5354SOL    HW216962   2.514   6.563   2.073
 5355SOL     OW16963   3.456   5.700   3.342
 5355SOL    HW116964   3.438   5.767   3.270
 5355SOL    HW216965   3.453   5.746   3.431
 5356SOL     OW16966   1.984   6.229   2.425
 5356SOL    HW116967   1.939   6.141   2.442
 5356SOL    HW216968   1.983   6.283   2.509
 5357SOL     OW16969   3.551   6.508   2.474
 5357SOL    HW116970   3.646   6.479   2.482
 5357SOL    HW216971   3.543   6.573   2.399
 5358SOL     OW16972   3.503   6.694   2.294
 5358SOL    HW116973   3.589   6.696   2.242
 5358SOL    HW216974   3.517   6.741   2.382
 5359SOL     OW16975   1.975   6.323   3.459
 5359SOL    HW116976   2.063   6.310   3.504
 5359SOL    HW216977   1.962   6.420   3.437
 5360SOL     OW16978   3.155   6.814   3.285
 5360SOL    HW116979   3.192   6.741   3.227
 5360SOL    HW216980   3.207   6.819   3.370
 5361SOL     OW16981   2.671   5.590   2.364
 5361SOL    HW116982   2.711   5.681   2.355
 5361SOL    HW216983   2.571   5.598   2.370
 5362SOL     OW16984   2.059   6.562   3.126
 5362SOL    HW116985   2.148   6.517   3.112
 5362SOL    HW216986   1.986   6.497   3.107
 5363SOL     OW16987   3.387   6.585   2.052
 5363SOL    HW116988   3.324   6.509   2.065
 5363SOL    HW216989   3.435   6.603   2.138
 5364SOL     OW16990   2.179   5.837   3.663
 5364SOL    HW116991   2.250   5.908   3.669
 5364SOL    HW216992   2.091   5.876   3.691
 5365SOL     OW16993   3.328   7.003   2.815
 5365SOL    HW116994   3.269   7.009   2.895
 5365SOL    HW216995   3.313   6.915   2.769
 5366SOL     OW16996   2.460   6.315   2.132
 5366SOL    HW116997   2.484   6.384   2.064
 5366SOL    HW216998   2.382   6.348   2.186
 5367SOL     OW16999   3.143   5.931   2.806
 5367SOL    HW117000   3.057   5.881   2.793
 5367SOL    HW217001   3.205   5.877   2.862
 5368SOL     OW17002   2.669   6.191   3.327
 5368SOL    HW117003   2.622   6.188   3.416
 5368SOL    HW217004   2.618   6.136   3.261
 5369SOL     OW17005   3.256   6.055   3.536
 5369SOL    HW117006   3.236   6.098   3.624
 5369SOL    HW217007   3.334   5.993   3.545
 5370SOL     OW17008   2.835   6.476   3.434
 5370SOL    HW117009   2.881   6.392   3.405
 5370SOL    HW217010   2.779   6.510   3.359
 5371SOL     OW17011   2.853   5.996   3.104
 5371SOL    HW117012   2.776   6.030   3.158
 5371SOL    HW217013   2.819   5.945   3.025
 5372SOL     OW17014   2.903   6.287   2.291
 5372SOL    HW117015   2.929   6.283   2.387
 5372SOL    HW217016   2.818   6.236   2.277
 5373SOL     OW17017   1.938   6.397   2.651
 5373SOL    HW117018   2.037   6.385   2.660
 5373SOL    HW217019   1.914   6.492   2.672
 5374SOL     OW17020   2.727   5.934   2.057
 5374SOL    HW117021   2.786   5.997   2.008
 5374SOL    HW217022   2.746   5.840   2.028
 5375SOL     OW17023   3.581   6.171   3.693
 5375SOL    HW117024   3.555   6.260   3.657
 5375SOL    HW217025   3.579   6.103   3.620
 5376SOL     OW17026   3.224   6.730   2.407
 5376SOL    HW117027   3.307   6.701   2.359
 5376SOL    HW217028   3.175   6.797   2.351
 5377SOL     OW17029   2.412   5.782   2.747
 5377SOL    HW117030   2.407   5.777   2.847
 5377SOL    HW217031   2.414   5.878   2.718
 5378SOL     OW17032   3.657   6.652   2.735
 5378SOL    HW117033   3.595   6.637   2.659
 5378SOL    HW217034   3.605   6.663   2.820
 5379SOL     OW17035   2.183   6.529   2.104
 5379SOL    HW117036   2.265   6.568   2.062
 5379SOL    HW217037   2.156   6.447   2.055
 5380SOL     OW17038   3.320   6.321   2.590
 5380SOL    HW117039   3.315   6.256   2.665
 5380SOL    HW217040   3.400   6.380   2.603
 5381SOL     OW17041   2.064   5.871   3.360
 5381SOL    HW117042   1.984   5.931   3.347
 5381SOL    HW217043   2.054   5.822   3.446
 5382SOL     OW17044   3.494   6.963   1.943
 5382SOL    HW117045   3.462   7.057   1.933
 5382SOL    HW217046   3.418   6.900   1.931
 5383SOL     OW17047   3.262   5.693   2.288
 5383SOL    HW117048   3.238   5.656   2.198
 5383SOL    HW217049   3.361   5.709   2.292
 5384SOL     OW17050   2.244   6.286   2.342
 5384SOL    HW117051   2.289   6.196   2.339
 5384SOL    HW217052   2.150   6.275   2.375
 5385SOL     OW17053   3.409   5.808   3.591
 5385SOL    HW117054   3.404   5.845   3.683
 5385SOL    HW217055   3.337   5.739   3.579
 5386SOL     OW17056   2.476   5.708   1.979
 5386SOL    HW117057   2.574   5.686   1.986
 5386SOL    HW217058   2.445   5.691   1.886
 5387SOL     OW17059   2.643   5.850   3.611
 5387SOL    HW117060   2.710   5.789   3.654
 5387SOL    HW217061   2.570   5.869   3.676
 5388SOL     OW17062   3.213   6.176   3.295
 5388SOL    HW117063   3.241   6.133   3.380
 5388SOL    HW217064   3.238   6.272   3.296
 5389SOL     OW17065   2.784   6.089   2.761
 5389SOL    HW117066   2.759   6.080   2.665
 5389SOL    HW217067   2.832   6.007   2.792
 5390SOL     OW17068   2.401   5.650   2.374
 5390SOL    HW117069   2.320   5.651   2.432
 5390SOL    HW217070   2.404   5.733   2.319
 5391SOL     OW17071   3.296   6.774   1.903
 5391SOL    HW117072   3.328   6.698   1.960
 5391SOL    HW217073   3.204   6.801   1.933
 5392SOL     OW17074   2.159   5.621   2.033
 5392SOL    HW117075   2.208   5.705   2.012
 5392SOL    HW217076   2.221   5.556   2.078
 5393SOL     OW17077   2.797   5.822   2.342
 5393SOL    HW117078   2.749   5.863   2.264
 5393SOL    HW217079   2.896   5.820   2.323
 5394SOL     OW17080   2.938   6.269   3.326
 5394SOL    HW117081   2.858   6.208   3.329
 5394SOL    HW217082   3.019   6.216   3.302
 5395SOL     OW17083   3.089   7.156   2.655
 5395SOL    HW117084   3.110   7.230   2.590
 5395SOL    HW217085   3.157   7.156   2.728
 5396SOL     OW17086   2.321   6.738   2.603
 5396SOL    HW117087   2.250   6.711   2.668
 5396SOL    HW217088   2.295   6.710   2.510
 5397SOL     OW17089   2.894   6.135   1.878
 5397SOL    HW117090   2.853   6.217   1.839
 5397SOL    HW217091   2.958   6.161   1.951
 5398SOL     OW17092   1.940   6.142   3.248
 5398SOL    HW117093   2.032   6.141   3.207
 5398SOL    HW217094   1.934   6.216   3.315
 5399SOL     OW17095   2.423   5.808   3.009
 5399SOL    HW117096   2.461   5.724   3.046
 5399SOL    HW217097   2.335   5.827   3.053
 5400SOL     OW17098   2.728   6.040   2.504
 5400SOL    HW117099   2.696   6.112   2.442
 5400SOL    HW217100   2.752   5.959   2.451
 5401SOL     OW17101   2.879   5.625   2.615
 5401SOL    HW117102   2.807   5.630   2.546
 5401SOL    HW217103   2.855   5.556   2.684
 5402SOL     OW17104   3.291   6.759   2.729
 5402SOL    HW117105   3.236   6.675   2.722
 5402SOL    HW217106   3.317   6.788   2.637
 5403SOL     OW17107   3.328   6.176   2.854
 5403SOL    HW117108   3.298   6.081   2.861
 5403SOL    HW217109   3.401   6.192   2.920
 5404SOL     OW17110   3.719   6.419   2.239
 5404SOL    HW117111   3.761   6.355   2.303
 5404SOL    HW217112   3.681   6.368   2.161
 5405SOL     OW17113   3.526   6.866   2.519
 5405SOL    HW117114   3.625   6.874   2.533
 5405SOL    HW217115   3.481   6.950   2.550
 5406SOL     OW17116   3.252   6.161   1.940
 5406SOL    HW117117   3.198   6.140   2.021
 5406SOL    HW217118   3.343   6.120   1.949
 5407SOL     OW17119   2.389   5.842   2.190
 5407SOL    HW117120   2.416   5.783   2.115
 5407SOL    HW217121   2.389   5.937   2.159
 5408SOL     OW17122   3.616   6.809   3.450
 5408SOL    HW117123   3.707   6.770   3.437
 5408SOL    HW217124   3.624   6.905   3.474
 5409SOL     OW17125   2.926   6.933   3.202
 5409SOL    HW117126   2.846   6.910   3.257
 5409SOL    HW217127   3.009   6.907   3.251
 5410SOL     OW17128   2.973   6.781   2.962
 5410SOL    HW117129   2.933   6.825   3.043
 5410SOL    HW217130   2.932   6.818   2.879
 5411SOL     OW17131   3.500   6.685   2.941
 5411SOL    HW117132   3.505   6.766   3.000
 5411SOL    HW217133   3.414   6.687   2.890
 5412SOL     OW17134   2.777   5.675   3.264
 5412SOL    HW117135   2.802   5.655   3.169
 5412SOL    HW217136   2.849   5.731   3.306
 5413SOL     OW17137   2.842   6.702   3.581
 5413SOL    HW117138   2.743   6.708   3.591
 5413SOL    HW217139   2.865   6.622   3.525
 5414SOL     OW17140   2.567   6.636   2.230
 5414SOL    HW117141   2.553   6.643   2.329
 5414SOL    HW217142   2.651   6.585   2.212
 5415SOL     OW17143   2.272   6.399   3.113
 5415SOL    HW117144   2.358   6.411   3.163
 5415SOL    HW217145   2.230   6.312   3.140
 5416SOL     OW17146   3.136   5.972   3.124
 5416SOL    HW117147   3.157   6.046   3.188
 5416SOL    HW217148   3.047   5.989   3.081
 5417SOL     OW17149   2.229   6.686   2.363
 5417SOL    HW117150   2.222   6.769   2.307
 5417SOL    HW217151   2.233   6.606   2.303
 5418SOL     OW17152   2.428   6.123   2.727
 5418SOL    HW117153   2.440   6.189   2.653
 5418SOL    HW217154   2.474   6.157   2.810
 5419SOL     OW17155   3.444   6.225   2.334
 5419SOL    HW117156   3.413   6.286   2.407
 5419SOL    HW217157   3.494   6.277   2.265
 5420SOL     OW17158   2.264   6.337   3.460
 5420SOL    HW117159   2.332   6.392   3.413
 5420SOL    HW217160   2.304   6.249   3.487
 5421SOL     OW17161   3.449   6.365   3.532
 5421SOL    HW117162   3.357   6.403   3.527
 5421SOL    HW217163   3.509   6.412   3.467
 5422SOL     OW17164   2.875   5.691   3.632
 5422SOL    HW117165   2.881   5.776   3.580
 5422SOL    HW217166   2.907   5.615   3.575
 5423SOL     OW17167   2.366   5.636   3.602
 5423SOL    HW117168   2.324   5.579   3.532
 5423SOL    HW217169   2.300   5.705   3.634
 5424SOL     OW17170   2.435   6.456   2.891
 5424SOL    HW117171   2.479   6.545   2.882
 5424SOL    HW217172   2.372   6.456   2.968
 5425SOL     OW17173   3.222   6.448   2.907
 5425SOL    HW117174   3.147   6.448   2.841
 5425SOL    HW217175   3.259   6.356   2.916
 5426SOL     OW17176   3.071   6.111   2.137
 5426SOL    HW117177   3.084   6.027   2.191
 5426SOL    HW217178   3.042   6.185   2.197
 5427SOL     OW17179   2.169   5.799   3.093
 5427SOL    HW117180   2.146   5.836   3.183
 5427SOL    HW217181   2.139   5.704   3.087
 5428SOL     OW17182   1.899   6.896   3.144
 5428SOL    HW117183   1.952   6.847   3.212
 5428SOL    HW217184   1.921   6.994   3.149
 5429SOL     OW17185   2.594   6.220   2.926
 5429SOL    HW117186   2.653   6.194   2.850
 5429SOL    HW217187   2.566   6.316   2.915
 5430SOL     OW17188   3.590   6.521   3.716
 5430SOL    HW117189   3.544   6.514   3.627
 5430SOL    HW217190   3.528   6.565   3.782
 5431SOL     OW17191   2.169   5.649   2.480
 5431SOL    HW117192   2.158   5.743   2.513
 5431SOL    HW217193   2.164   5.586   2.557
 5432SOL     OW17194   3.484   5.953   2.236
 5432SOL    HW117195   3.486   5.877   2.300
 5432SOL    HW217196   3.436   6.030   2.276
 5433SOL     OW17197   2.885   6.352   2.828
 5433SOL    HW117198   2.900   6.373   2.924
 5433SOL    HW217199   2.855   6.257   2.819
 5434SOL     OW17200   3.721   7.104   3.467
 5434SOL    HW117201   3.735   7.131   3.372
 5434SOL    HW217202   3.804   7.126   3.520
 5435SOL     OW17203   2.212   6.484   3.666
 5435SOL    HW117204   2.288   6.528   3.714
 5435SOL    HW217205   2.247   6.437   3.584
 5436SOL     OW17206   3.402   5.860   1.987
 5436SOL    HW117207   3.341   5.785   2.010
 5436SOL    HW217208   3.424   5.912   2.070
 5437SOL     OW17209   3.165   6.424   1.904
 5437SOL    HW117210   3.199   6.331   1.919
 5437SOL    HW217211   3.183   6.451   1.809
 5438SOL     OW17212   2.181   6.396   2.811
 5438SOL    HW117213   2.274   6.432   2.816
 5438SOL    HW217214   2.175   6.311   2.863
 5439SOL     OW17215   2.201   6.095   2.868
 5439SOL    HW117216   2.149   6.012   2.851
 5439SOL    HW217217   2.278   6.100   2.804
 5440SOL     OW17218   3.000   5.966   3.540
 5440SOL    HW117219   2.955   6.029   3.604
 5440SOL    HW217220   3.093   5.997   3.523
 5441SOL     OW17221   3.022   5.793   3.339
 5441SOL    HW117222   3.022   5.857   3.416
 5441SOL    HW217223   3.050   5.841   3.256
 5442SOL     OW17224   1.870   6.912   2.062
 5442SOL    HW117225   1.777   6.933   2.031
 5442SOL    HW217226   1.880   6.813   2.075
 5443SOL     OW17227   2.864   6.382   3.100
 5443SOL    HW117228   2.905   6.350   3.186
 5443SOL    HW217229   2.768   6.355   3.097
 5444SOL     OW17230   1.902   6.130   2.976
 5444SOL    HW117231   1.987   6.097   2.935
 5444SOL    HW217232   1.915   6.145   3.074
 5445SOL     OW17233   2.051   6.106   3.584
 5445SOL    HW117234   2.110   6.066   3.514
 5445SOL    HW217235   1.993   6.177   3.543
 5446SOL     OW17236   3.231   6.536   3.522
 5446SOL    HW117237   3.270   6.625   3.542
 5446SOL    HW217238   3.241   6.516   3.425
 5447SOL     OW17239   2.677   6.158   2.187
 5447SOL    HW117240   2.684   6.069   2.141
 5447SOL    HW217241   2.583   6.192   2.179
 5448SOL     OW17242   3.519   6.190   3.068
 5448SOL    HW117243   3.481   6.121   3.130
 5448SOL    HW217244   3.601   6.154   3.024
 5449SOL     OW17245   2.533   6.050   3.131
 5449SOL    HW117246   2.499   5.961   3.101
 5449SOL    HW217247   2.559   6.104   3.051
 5450SOL     OW17248   2.335   6.086   2.053
 5450SOL    HW117249   2.396   6.166   2.057
 5450SOL    HW217250   2.240   6.117   2.060
 5451SOL     OW17251   2.021   6.723   3.328
 5451SOL    HW117252   2.043   6.662   3.404
 5451SOL    HW217253   2.031   6.674   3.242
 5452SOL     OW17254   3.209   6.645   3.096
 5452SOL    HW117255   3.233   6.582   3.022
 5452SOL    HW217256   3.119   6.685   3.078
 5453SOL     OW17257   3.164   6.441   2.171
 5453SOL    HW117258   3.078   6.410   2.213
 5453SOL    HW217259   3.160   6.427   2.072
 5454SOL     OW17260   1.945   6.844   2.884
 5454SOL    HW117261   1.940   6.843   2.984
 5454SOL    HW217262   1.862   6.803   2.846
 5455SOL     OW17263   3.588   5.721   2.385
 5455SOL    HW117264   3.661   5.704   2.318
 5455SOL    HW217265   3.557   5.634   2.423
 5456SOL     OW17266   3.142   6.513   2.534
 5456SOL    HW117267   3.202   6.432   2.536
 5456SOL    HW217268   3.182   6.582   2.474
 5457SOL     OW17269   2.692   6.859   3.284
 5457SOL    HW117270   2.687   6.892   3.379
 5457SOL    HW217271   2.606   6.878   3.238
 5458SOL     OW17272   3.703   5.761   2.825
 5458SOL    HW117273   3.742   5.676   2.789
 5458SOL    HW217274   3.605   5.763   2.806
 5459SOL     OW17275   2.125   5.912   2.582
 5459SOL    HW117276   2.046   5.963   2.548
 5459SOL    HW217277   2.116   5.897   2.680
 5460SOL     OW17278   3.056   7.198   1.893
 5460SOL    HW117279   3.062   7.105   1.930
 5460SOL    HW217280   2.997   7.198   1.813
 5461SOL     OW17281   2.684   6.588   3.234
 5461SOL    HW117282   2.724   6.587   3.142
 5461SOL    HW217283   2.694   6.680   3.274
 5462SOL     OW17284   2.778   6.496   2.153
 5462SOL    HW117285   2.841   6.534   2.085
 5462SOL    HW217286   2.818   6.413   2.192
 5463SOL     OW17287   2.234   6.874   3.352
 5463SOL    HW117288   2.221   6.967   3.318
 5463SOL    HW217289   2.150   6.822   3.339
 5464SOL     OW17290   3.476   6.878   3.151
 5464SOL    HW117291   3.536   6.881   3.231
 5464SOL    HW217292   3.401   6.942   3.164
 5465SOL     OW17293   2.901   6.684   2.558
 5465SOL    HW117294   2.831   6.637   2.612
 5465SOL    HW217295   2.960   6.616   2.515
 5466SOL     OW17296   2.876   5.822   2.833
 5466SOL    HW117297   2.868   5.786   2.740
 5466SOL    HW217298   2.874   5.746   2.898
 5467SOL     OW17299   3.571   5.971   3.243
 5467SOL    HW117300   3.644   6.040   3.247
 5467SOL    HW217301   3.599   5.896   3.184
 5468SOL     OW17302   1.967   6.599   3.588
 5468SOL    HW117303   1.890   6.566   3.642
 5468SOL    HW217304   2.052   6.569   3.630
 5469SOL     OW17305   2.534   5.789   3.351
 5469SOL    HW117306   2.624   5.773   3.311
 5469SOL    HW217307   2.542   5.794   3.450
 5470SOL     OW17308   1.937   5.931   1.895
 5470SOL    HW117309   1.845   5.903   1.866
 5470SOL    HW217310   1.968   6.008   1.839
 5471SOL     OW17311   3.302   6.442   3.260
 5471SOL    HW117312   3.245   6.494   3.197
 5471SOL    HW217313   3.398   6.454   3.236
 5472SOL     OW17314   1.934   5.752   2.180
 5472SOL    HW117315   1.917   5.835   2.126
 5472SOL    HW217316   2.024   5.715   2.158
 5473SOL     OW17317   2.475   6.428   3.293
 5473SOL    HW117318   2.531   6.509   3.276
 5473SOL    HW217319   2.534   6.348   3.296
 5474SOL     OW17320   2.578   6.151   3.570
 5474SOL    HW117321   2.597   6.216   3.644
 5474SOL    HW217322   2.638   6.071   3.579
 5475SOL     OW17323   3.312   6.806   3.495
 5475SOL    HW117324   3.303   6.796   3.594
 5475SOL    HW217325   3.408   6.799   3.469
 5476SOL     OW17326   3.536   6.469   3.116
 5476SOL    HW117327   3.509   6.380   3.079
 5476SOL    HW217328   3.537   6.537   3.043
 5477SOL     OW17329   3.087   5.911   2.311
 5477SOL    HW117330   3.152   5.837   2.300
 5477SOL    HW217331   3.107   5.961   2.395
 5478SOL     OW17332   2.456   6.331   2.514
 5478SOL    HW117333   2.506   6.416   2.495
 5478SOL    HW217334   2.368   6.333   2.466
 5479SOL     OW17335   3.639   5.928   3.504
 5479SOL    HW117336   3.622   5.959   3.410
 5479SOL    HW217337   3.555   5.891   3.542
 5480SOL     OW17338   3.592   6.520   3.379
 5480SOL    HW117339   3.630   6.611   3.394
 5480SOL    HW217340   3.584   6.503   3.280
 5481SOL     OW17341   2.721   6.542   2.723
 5481SOL    HW117342   2.775   6.473   2.771
 5481SOL    HW217343   2.689   6.611   2.789
 5482SOL     OW17344   2.945   6.570   1.949
 5482SOL    HW117345   2.922   6.623   1.867
 5482SOL    HW217346   3.026   6.514   1.930
 5483SOL     OW17347   2.083   6.900   3.706
 5483SOL    HW117348   2.018   6.827   3.685
 5483SOL    HW217349   2.087   6.914   3.804
 5484SOL     OW17350   1.941   6.826   2.515
 5484SOL    HW117351   1.940   6.779   2.603
 5484SOL    HW217352   2.023   6.798   2.464
 5485SOL     OW17353   2.534   6.977   3.486
 5485SOL    HW117354   2.456   6.927   3.524
 5485SOL    HW217355   2.531   7.072   3.517
 5486SOL     OW17356   3.686   5.778   3.089
 5486SOL    HW117357   3.682   5.688   3.133
 5486SOL    HW217358   3.689   5.767   2.990
 5487SOL     OW17359   2.290   6.010   2.382
 5487SOL    HW117360   2.320   5.938   2.320
 5487SOL    HW217361   2.251   5.970   2.465
 5488SOL     OW17362   3.567   7.073   2.966
 5488SOL    HW117363   3.474   7.048   2.939
 5488SOL    HW217364   3.593   7.023   3.048
 5489SOL     OW17365   2.179   6.133   3.142
 5489SOL    HW117366   2.217   6.074   3.214
 5489SOL    HW217367   2.219   6.107   3.054
 5490SOL     OW17368   3.286   5.800   2.974
 5490SOL    HW117369   3.338   5.735   3.029
 5490SOL    HW217370   3.237   5.863   3.035
 5491SOL     OW17371   2.863   5.620   3.016
 5491SOL    HW117372   2.800   5.548   2.985
 5491SOL    HW217373   2.956   5.584   3.016
 5492SOL     OW17374   2.632   6.916   2.163
 5492SOL    HW117375   2.586   6.829   2.180
 5492SOL    HW217376   2.723   6.913   2.204
 5493SOL     OW17377   3.214   5.638   2.030
 5493SOL    HW117378   3.249   5.597   1.946
 5493SOL    HW217379   3.124   5.600   2.050
 5494SOL     OW17380   3.162   6.039   2.553
 5494SOL    HW117381   3.103   6.119   2.557
 5494SOL    HW217382   3.177   6.004   2.646
 5495SOL     OW17383   3.455   5.807   2.744
 5495SOL    HW117384   3.371   5.806   2.798
 5495SOL    HW217385   3.457   5.890   2.688
 5496SOL     OW17386   1.901   6.663   2.162
 5496SOL    HW117387   2.000   6.652   2.153
 5496SOL    HW217388   1.861   6.577   2.194
 5497SOL     OW17389   2.092   6.214   3.837
 5497SOL    HW117390   1.999   6.212   3.874
 5497SOL    HW217391   2.093   6.175   3.745
 5498SOL     OW17392   2.087   5.861   4.720
 5498SOL    HW117393   2.122   5.844   4.812
 5498SOL    HW217394   1.999   5.816   4.708
 5499SOL     OW17395   1.881   5.954   4.371
 5499SOL    HW117396   1.799   5.997   4.410
 5499SOL    HW217397   1.853   5.881   4.308
 5500SOL     OW17398   2.431   6.861   4.889
 5500SOL    HW117399   2.338   6.854   4.852
 5500SOL    HW217400   2.442   6.950   4.933
 5501SOL     OW17401   3.417   7.097   4.427
 5501SOL    HW117402   3.360   7.081   4.508
 5501SOL    HW217403   3.358   7.107   4.347
 5502SOL     OW17404   2.997   6.289   4.441
 5502SOL    HW117405   3.054   6.367   4.416
 5502SOL    HW217406   2.937   6.315   4.517
 5503SOL     OW17407   3.617   6.193   3.955
 5503SOL    HW117408   3.605   6.180   3.856
 5503SOL    HW217409   3.587   6.112   4.004
 5504SOL     OW17410   2.630   6.730   4.747
 5504SOL    HW117411   2.552   6.747   4.807
 5504SOL    HW217412   2.664   6.817   4.711
 5505SOL     OW17413   2.712   6.384   5.547
 5505SOL    HW117414   2.708   6.460   5.612
 5505SOL    HW217415   2.734   6.420   5.456
 5506SOL     OW17416   2.547   6.598   4.389
 5506SOL    HW117417   2.616   6.582   4.459
 5506SOL    HW217418   2.474   6.655   4.427
 5507SOL     OW17419   2.548   6.747   5.527
 5507SOL    HW117420   2.608   6.826   5.541
 5507SOL    HW217421   2.462   6.778   5.486
 5508SOL     OW17422   2.197   7.021   4.785
 5508SOL    HW117423   2.119   6.990   4.732
 5508SOL    HW217424   2.255   7.079   4.728
 5509SOL     OW17425   2.300   5.978   5.223
 5509SOL    HW117426   2.382   5.922   5.232
 5509SOL    HW217427   2.219   5.920   5.227
 5510SOL     OW17428   3.465   6.033   4.461
 5510SOL    HW117429   3.391   6.079   4.411
 5510SOL    HW217430   3.516   6.101   4.514
 5511SOL     OW17431   2.102   6.677   4.610
 5511SOL    HW117432   2.116   6.593   4.662
 5511SOL    HW217433   2.047   6.741   4.665
 5512SOL     OW17434   2.468   6.550   3.847
 5512SOL    HW117435   2.475   6.634   3.793
 5512SOL    HW217436   2.514   6.563   3.935
 5513SOL     OW17437   3.456   5.700   5.204
 5513SOL    HW117438   3.438   5.767   5.132
 5513SOL    HW217439   3.453   5.746   5.293
 5514SOL     OW17440   1.984   6.229   4.287
 5514SOL    HW117441   1.939   6.141   4.304
 5514SOL    HW217442   1.983   6.283   4.371
 5515SOL     OW17443   3.551   6.508   4.336
 5515SOL    HW117444   3.646   6.479   4.344
 5515SOL    HW217445   3.543   6.573   4.261
 5516SOL     OW17446   3.503   6.694   4.156
 5516SOL    HW117447   3.589   6.696   4.104
 5516SOL    HW217448   3.517   6.741   4.244
 5517SOL     OW17449   1.975   6.323   5.321
 5517SOL    HW117450   2.063   6.310   5.366
 5517SOL    HW217451   1.962   6.420   5.299
 5518SOL     OW17452   3.155   6.814   5.147
 5518SOL    HW117453   3.192   6.741   5.089
 5518SOL    HW217454   3.207   6.819   5.232
 5519SOL     OW17455   2.671   5.590   4.226
 5519SOL    HW117456   2.711   5.681   4.217
 5519SOL    HW217457   2.571   5.598   4.232
 5520SOL     OW17458   2.059   6.562   4.988
 5520SOL    HW117459   2.148   6.517   4.974
 5520SOL    HW217460   1.986   6.497   4.969
 5521SOL     OW17461   3.387   6.585   3.914
 5521SOL    HW117462   3.324   6.509   3.927
 5521SOL    HW217463   3.435   6.603   4.000
 5522SOL     OW17464   2.179   5.837   5.525
 5522SOL    HW117465   2.250   5.908   5.531
 5522SOL    HW217466   2.091   5.876   5.553
 5523SOL     OW17467   3.328   7.003   4.677
 5523SOL    HW117468   3.269   7.009   4.757
 5523SOL    HW217469   3.313   6.915   4.631
 5524SOL     OW17470   2.460   6.315   3.994
 5524SOL    HW117471   2.484   6.384   3.926
 5524SOL    HW217472   2.382   6.348   4.048
 5525SOL     OW17473   3.143   5.931   4.668
 5525SOL    HW117474   3.057   5.881   4.655
 5525SOL    HW217475   3.205   5.877   4.724
 5526SOL     OW17476   2.669   6.191   5.189
 5526SOL    HW117477   2.622   6.188   5.278
 5526SOL    HW217478   2.618   6.136   5.123
 5527SOL     OW17479   3.256   6.055   5.398
 5527SOL    HW117480   3.236   6.098   5.486
 5527SOL    HW217481   3.334   5.993   5.407
 5528SOL     OW17482   2.835   6.476   5.296
 5528SOL    HW117483   2.881   6.392   5.267
 5528SOL    HW217484   2.779   6.510   5.221
 5529SOL     OW17485   2.853   5.996   4.966
 5529SOL    HW117486   2.776   6.030   5.020
 5529SOL    HW217487   2.819   5.945   4.887
 5530SOL     OW17488   2.903   6.287   4.153
 5530SOL    HW117489   2.929   6.283   4.249
 5530SOL    HW217490   2.818   6.236   4.139
 5531SOL     OW17491   1.938   6.397   4.513
 5531SOL    HW117492   2.037   6.385   4.522
 5531SOL    HW217493   1.914   6.492   4.534
 5532SOL     OW17494   2.727   5.934   3.919
 5532SOL    HW117495   2.786   5.997   3.870
 5532SOL    HW217496   2.746   5.840   3.890
 5533SOL     OW17497   3.581   6.171   5.555
 5533SOL    HW117498   3.555   6.260   5.519
 5533SOL    HW217499   3.579   6.103   5.482
 5534SOL     OW17500   3.224   6.730   4.269
 5534SOL    HW117501   3.307   6.701   4.221
 5534SOL    HW217502   3.175   6.797   4.213
 5535SOL     OW17503   2.412   5.782   4.609
 5535SOL    HW117504   2.407   5.777   4.709
 5535SOL    HW217505   2.414   5.878   4.580
 5536SOL     OW17506   3.657   6.652   4.597
 5536SOL    HW117507   3.595   6.637   4.521
 5536SOL    HW217508   3.605   6.663   4.682
 5537SOL     OW17509   2.183   6.529   3.966
 5537SOL    HW117510   2.265   6.568   3.924
 5537SOL    HW217511   2.156   6.447   3.917
 5538SOL     OW17512   3.320   6.321   4.452
 5538SOL    HW117513   3.315   6.256   4.527
 5538SOL    HW217514   3.400   6.380   4.465
 5539SOL     OW17515   2.064   5.871   5.222
 5539SOL    HW117516   1.984   5.931   5.209
 5539SOL    HW217517   2.054   5.822   5.308
 5540SOL     OW17518   3.494   6.963   3.805
 5540SOL    HW117519   3.462   7.057   3.795
 5540SOL    HW217520   3.418   6.900   3.793
 5541SOL     OW17521   3.262   5.693   4.150
 5541SOL    HW117522   3.238   5.656   4.060
 5541SOL    HW217523   3.361   5.709   4.154
 5542SOL     OW17524   2.244   6.286   4.204
 5542SOL    HW117525   2.289   6.196   4.201
 5542SOL    HW217526   2.150   6.275   4.237
 5543SOL     OW17527   3.409   5.808   5.453
 5543SOL    HW117528   3.404   5.845   5.545
 5543SOL    HW217529   3.337   5.739   5.441
 5544SOL     OW17530   2.476   5.708   3.841
 5544SOL    HW117531   2.574   5.686   3.848
 5544SOL    HW217532   2.445   5.691   3.748
 5545SOL     OW17533   2.643   5.850   5.473
 5545SOL    HW117534   2.710   5.789   5.516
 5545SOL    HW217535   2.570   5.869   5.538
 5546SOL     OW17536   3.213   6.176   5.157
 5546SOL    HW117537   3.241   6.133   5.242
 5546SOL    HW217538   3.238   6.272   5.158
 5547SOL     OW17539   2.784   6.089   4.623
 5547SOL    HW117540   2.759   6.080   4.527
 5547SOL    HW217541   2.832   6.007   4.654
 5548SOL     OW17542   2.401   5.650   4.236
 5548SOL    HW117543   2.320   5.651   4.294
 5548SOL    HW217544   2.404   5.733   4.181
 5549SOL     OW17545   3.296   6.774   3.765
 5549SOL    HW117546   3.328   6.698   3.822
 5549SOL    HW217547   3.204   6.801   3.795
 5550SOL     OW17548   2.159   5.621   3.895
 5550SOL    HW117549   2.208   5.705   3.874
 5550SOL    HW217550   2.221   5.556   3.940
 5551SOL     OW17551   2.797   5.822   4.204
 5551SOL    HW117552   2.749   5.863   4.126
 5551SOL    HW217553   2.896   5.820   4.185
 5552SOL     OW17554   2.938   6.269   5.188
 5552SOL    HW117555   2.858   6.208   5.191
 5552SOL    HW217556   3.019   6.216   5.164
 5553SOL     OW17557   3.089   7.156   4.517
 5553SOL    HW117558   3.110   7.230   4.452
 5553SOL    HW217559   3.157   7.156   4.590
 5554SOL     OW17560   2.321   6.738   4.465
 5554SOL    HW117561   2.250   6.711   4.530
 5554SOL    HW217562   2.295   6.710   4.372
 5555SOL     OW17563   2.894   6.135   3.740
 5555SOL    HW117564   2.853   6.217   3.701
 5555SOL    HW217565   2.958   6.161   3.813
 5556SOL     OW17566   1.940   6.142   5.110
 5556SOL    HW117567   2.032   6.141   5.069
 5556SOL    HW217568   1.934   6.216   5.177
 5557SOL     OW17569   2.423   5.808   4.871
 5557SOL    HW117570   2.461   5.724   4.908
 5557SOL    HW217571   2.335   5.827   4.915
 5558SOL     OW17572   2.728   6.040   4.366
 5558SOL    HW117573   2.696   6.112   4.304
 5558SOL    HW217574   2.752   5.959   4.313
 5559SOL     OW17575   2.879   5.625   4.477
 5559SOL    HW117576   2.807   5.630   4.408
 5559SOL    HW217577   2.855   5.556   4.546
 5560SOL     OW17578   3.291   6.759   4.591
 5560SOL    HW117579   3.236   6.675   4.584
 5560SOL    HW217580   3.317   6.788   4.499
 5561SOL     OW17581   3.328   6.176   4.716
 5561SOL    HW117582   3.298   6.081   4.723
 5561SOL    HW217583   3.401   6.192   4.782
 5562SOL     OW17584   3.719   6.419   4.101
 5562SOL    HW117585   3.761   6.355   4.165
 5562SOL    HW217586   3.681   6.368   4.023
 5563SOL     OW17587   3.526   6.866   4.381
 5563SOL    HW117588   3.625   6.874   4.395
 5563SOL    HW217589   3.481   6.950   4.412
 5564SOL     OW17590   3.252   6.161   3.802
 5564SOL    HW117591   3.198   6.140   3.883
 5564SOL    HW217592   3.343   6.120   3.811
 5565SOL     OW17593   2.389   5.842   4.052
 5565SOL    HW117594   2.416   5.783   3.977
 5565SOL    HW217595   2.389   5.937   4.021
 5566SOL     OW17596   3.616   6.809   5.312
 5566SOL    HW117597   3.707   6.770   5.299
 5566SOL    HW217598   3.624   6.905   5.336
 5567SOL     OW17599   2.926   6.933   5.064
 5567SOL    HW117600   2.846   6.910   5.119
 5567SOL    HW217601   3.009   6.907   5.113
 5568SOL     OW17602   2.973   6.781   4.824
 5568SOL    HW117603   2.933   6.825   4.905
 5568SOL    HW217604   2.932   6.818   4.741
 5569SOL     OW17605   3.500   6.685   4.803
 5569SOL    HW117606   3.505   6.766   4.862
 5569SOL    HW217607   3.414   6.687   4.752
 5570SOL     OW17608   2.777   5.675   5.126
 5570SOL    HW117609   2.802   5.655   5.031
 5570SOL    HW217610   2.849   5.731   5.168
 5571SOL     OW17611   2.842   6.702   5.443
 5571SOL    HW117612   2.743   6.708   5.453
 5571SOL    HW217613   2.865   6.622   5.387
 5572SOL     OW17614   2.567   6.636   4.092
 5572SOL    HW117615   2.553   6.643   4.191
 5572SOL    HW217616   2.651   6.585   4.074
 5573SOL     OW17617   2.272   6.399   4.975
 5573SOL    HW117618   2.358   6.411   5.025
 5573SOL    HW217619   2.230   6.312   5.002
 5574SOL     OW17620   3.136   5.972   4.986
 5574SOL    HW117621   3.157   6.046   5.050
 5574SOL    HW217622   3.047   5.989   4.943
 5575SOL     OW17623   2.229   6.686   4.225
 5575SOL    HW117624   2.222   6.769   4.169
 5575SOL    HW217625   2.233   6.606   4.165
 5576SOL     OW17626   2.428   6.123   4.589
 5576SOL    HW117627   2.440   6.189   4.515
 5576SOL    HW217628   2.474   6.157   4.672
 5577SOL     OW17629   3.444   6.225   4.196
 5577SOL    HW117630   3.413   6.286   4.269
 5577SOL    HW217631   3.494   6.277   4.127
 5578SOL     OW17632   2.264   6.337   5.322
 5578SOL    HW117633   2.332   6.392   5.275
 5578SOL    HW217634   2.304   6.249   5.349
 5579SOL     OW17635   3.449   6.365   5.394
 5579SOL    HW117636   3.357   6.403   5.389
 5579SOL    HW217637   3.509   6.412   5.329
 5580SOL     OW17638   2.875   5.691   5.494
 5580SOL    HW117639   2.881   5.776   5.442
 5580SOL    HW217640   2.907   5.615   5.437
 5581SOL     OW17641   2.366   5.636   5.464
 5581SOL    HW117642   2.324   5.579   5.394
 5581SOL    HW217643   2.300   5.705   5.496
 5582SOL     OW17644   2.435   6.456   4.753
 5582SOL    HW117645   2.479   6.545   4.744
 5582SOL    HW217646   2.372   6.456   4.830
 5583SOL     OW17647   3.222   6.448   4.769
 5583SOL    HW117648   3.147   6.448   4.703
 5583SOL    HW217649   3.259   6.356   4.778
 5584SOL     OW17650   3.071   6.111   3.999
 5584SOL    HW117651   3.084   6.027   4.053
 5584SOL    HW217652   3.042   6.185   4.059
 5585SOL     OW17653   2.169   5.799   4.955
 5585SOL    HW117654   2.146   5.836   5.045
 5585SOL    HW217655   2.139   5.704   4.949
 5586SOL     OW17656   1.899   6.896   5.006
 5586SOL    HW117657   1.952   6.847   5.074
 5586SOL    HW217658   1.921   6.994   5.011
 5587SOL     OW17659   2.594   6.220   4.788
 5587SOL    HW117660   2.653   6.194   4.712
 5587SOL    HW217661   2.566   6.316   4.777
 5588SOL     OW17662   3.590   6.521   5.578
 5588SOL    HW117663   3.544   6.514   5.489
 5588SOL    HW217664   3.528   6.565   5.644
 5589SOL     OW17665   2.169   5.649   4.342
 5589SOL    HW117666   2.158   5.743   4.375
 5589SOL    HW217667   2.164   5.586   4.419
 5590SOL     OW17668   3.484   5.953   4.098
 5590SOL    HW117669   3.486   5.877   4.162
 5590SOL    HW217670   3.436   6.030   4.138
 5591SOL     OW17671   2.885   6.352   4.690
 5591SOL    HW117672   2.900   6.373   4.786
 5591SOL    HW217673   2.855   6.257   4.681
 5592SOL     OW17674   3.721   7.104   5.329
 5592SOL    HW117675   3.735   7.131   5.234
 5592SOL    HW217676   3.804   7.126   5.382
 5593SOL     OW17677   2.212   6.484   5.528
 5593SOL    HW117678   2.288   6.528   5.576
 5593SOL    HW217679   2.247   6.437   5.446
 5594SOL     OW17680   3.402   5.860   3.849
 5594SOL    HW117681   3.341   5.785   3.872
 5594SOL    HW217682   3.424   5.912   3.932
 5595SOL     OW17683   3.165   6.424   3.766
 5595SOL    HW117684   3.199   6.331   3.781
 5595SOL    HW217685   3.183   6.451   3.671
 5596SOL     OW17686   2.181   6.396   4.673
 5596SOL    HW117687   2.274   6.432   4.678
 5596SOL    HW217688   2.175   6.311   4.725
 5597SOL     OW17689   2.201   6.095   4.730
 5597SOL    HW117690   2.149   6.012   4.713
 5597SOL    HW217691   2.278   6.100   4.666
 5598SOL     OW17692   3.000   5.966   5.402
 5598SOL    HW117693   2.955   6.029   5.466
 5598SOL    HW217694   3.093   5.997   5.385
 5599SOL     OW17695   3.022   5.793   5.201
 5599SOL    HW117696   3.022   5.857   5.278
 5599SOL    HW217697   3.050   5.841   5.118
 5600SOL     OW17698   1.870   6.912   3.924
 5600SOL    HW117699   1.777   6.933   3.893
 5600SOL    HW217700   1.880   6.813   3.937
 5601SOL     OW17701   2.864   6.382   4.962
 5601SOL    HW117702   2.905   6.350   5.048
 5601SOL    HW217703   2.768   6.355   4.959
 5602SOL     OW17704   1.902   6.130   4.838
 5602SOL    HW117705   1.987   6.097   4.797
 5602SOL    HW217706   1.915   6.145   4.936
 5603SOL     OW17707   2.051   6.106   5.446
 5603SOL    HW117708   2.110   6.066   5.376
 5603SOL    HW217709   1.993   6.177   5.405
 5604SOL     OW17710   3.231   6.536   5.384
 5604SOL    HW117711   3.270   6.625   5.404
 5604SOL    HW217712   3.241   6.516   5.287
 5605SOL     OW17713   2.677   6.158   4.049
 5605SOL    HW117714   2.684   6.069   4.003
 5605SOL    HW217715   2.583   6.192   4.041
 5606SOL     OW17716   3.519   6.190   4.930
 5606SOL    HW117717   3.481   6.121   4.992
 5606SOL    HW217718   3.601   6.154   4.886
 5607SOL     OW17719   2.533   6.050   4.993
 5607SOL    HW117720   2.499   5.961   4.963
 5607SOL    HW217721   2.559   6.104   4.913
 5608SOL     OW17722   2.335   6.086   3.915
 5608SOL    HW117723   2.396   6.166   3.919
 5608SOL    HW217724   2.240   6.117   3.922
 5609SOL     OW17725   2.021   6.723   5.190
 5609SOL    HW117726   2.043   6.662   5.266
 5609SOL    HW217727   2.031   6.674   5.104
 5610SOL     OW17728   3.209   6.645   4.958
 5610SOL    HW117729   3.233   6.582   4.884
 5610SOL    HW217730   3.119   6.685   4.940
 5611SOL     OW17731   3.164   6.441   4.033
 5611SOL    HW117732   3.078   6.410   4.075
 5611SOL    HW217733   3.160   6.427   3.934
 5612SOL     OW17734   1.945   6.844   4.746
 5612SOL    HW117735   1.940   6.843   4.846
 5612SOL    HW217736   1.862   6.803   4.708
 5613SOL     OW17737   3.588   5.721   4.247
 5613SOL    HW117738   3.661   5.704   4.180
 5613SOL    HW217739   3.557   5.634   4.285
 5614SOL     OW17740   3.142   6.513   4.396
 5614SOL    HW117741   3.202   6.432   4.398
 5614SOL    HW217742   3.182   6.582   4.336
 5615SOL     OW17743   2.692   6.859   5.146
 5615SOL    HW117744   2.687   6.892   5.241
 5615SOL    HW217745   2.606   6.878   5.100
 5616SOL     OW17746   3.703   5.761   4.687
 5616SOL    HW117747   3.742   5.676   4.651
 5616SOL    HW217748   3.605   5.763   4.668
 5617SOL     OW17749   2.125   5.912   4.444
 5617SOL    HW117750   2.046   5.963   4.410
 5617SOL    HW217751   2.116   5.897   4.542
 5618SOL     OW17752   3.056   7.198   3.755
 5618SOL    HW117753   3.062   7.105   3.792
 5618SOL    HW217754   2.997   7.198   3.675
 5619SOL     OW17755   2.684   6.588   5.096
 5619SOL    HW117756   2.724   6.587   5.004
 5619SOL    HW217757   2.694   6.680   5.136
 5620SOL     OW17758   2.778   6.496   4.015
 5620SOL    HW117759   2.841   6.534   3.947
 5620SOL    HW217760   2.818   6.413   4.054
 5621SOL     OW17761   2.234   6.874   5.214
 5621SOL    HW117762   2.221   6.967   5.180
 5621SOL    HW217763   2.150   6.822   5.201
 5622SOL     OW17764   3.476   6.878   5.013
 5622SOL    HW117765   3.536   6.881   5.093
 5622SOL    HW217766   3.401   6.942   5.026
 5623SOL     OW17767   2.901   6.684   4.420
 5623SOL    HW117768   2.831   6.637   4.474
 5623SOL    HW217769   2.960   6.616   4.377
 5624SOL     OW17770   2.876   5.822   4.695
 5624SOL    HW117771   2.868   5.786   4.602
 5624SOL    HW217772   2.874   5.746   4.760
 5625SOL     OW17773   3.571   5.971   5.105
 5625SOL    HW117774   3.644   6.040   5.109
 5625SOL    HW217775   3.599   5.896   5.046
 5626SOL     OW17776   1.967   6.599   5.450
 5626SOL    HW117777   1.890   6.566   5.504
 5626SOL    HW217778   2.052   6.569   5.492
 5627SOL     OW17779   2.534   5.789   5.213
 5627SOL    HW117780   2.624   5.773   5.173
 5627SOL    HW217781   2.542   5.794   5.312
 5628SOL     OW17782   1.937   5.931   3.757
 5628SOL    HW117783   1.845   5.903   3.728
 5628SOL    HW217784   1.968   6.008   3.701
 5629SOL     OW17785   3.302   6.442   5.122
 5629SOL    HW117786   3.245   6.494   5.059
 5629SOL    HW217787   3.398   6.454   5.098
 5630SOL     OW17788   1.934   5.752   4.042
 5630SOL    HW117789   1.917   5.835   3.988
 5630SOL    HW217790   2.024   5.715   4.020
 5631SOL     OW17791   2.475   6.428   5.155
 5631SOL    HW117792   2.531   6.509   5.138
 5631SOL    HW217793   2.534   6.348   5.158
 5632SOL     OW17794   2.578   6.151   5.432
 5632SOL    HW117795   2.597   6.216   5.506
 5632SOL    HW217796   2.638   6.071   5.441
 5633SOL     OW17797   3.312   6.806   5.357
 5633SOL    HW117798   3.303   6.796   5.456
 5633SOL    HW217799   3.408   6.799   5.331
 5634SOL     OW17800   3.536   6.469   4.978
 5634SOL    HW117801   3.509   6.380   4.941
 5634SOL    HW217802   3.537   6.537   4.905
 5635SOL     OW17803   3.087   5.911   4.173
 5635SOL    HW117804   3.152   5.837   4.162
 5635SOL    HW217805   3.107   5.961   4.257
 5636SOL     OW17806   2.456   6.331   4.376
 5636SOL    HW117807   2.506   6.416   4.357
 5636SOL    HW217808   2.368   6.333   4.328
 5637SOL     OW17809   3.639   5.928   5.366
 5637SOL    HW117810   3.622   5.959   5.272
 5637SOL    HW217811   3.555   5.891   5.404
 5638SOL     OW17812   3.592   6.520   5.241
 5638SOL    HW117813   3.630   6.611   5.256
 5638SOL    HW217814   3.584   6.503   5.142
 5639SOL     OW17815   2.721   6.542   4.585
 5639SOL    HW117816   2.775   6.473   4.633
 5639SOL    HW217817   2.689   6.611   4.651
 5640SOL     OW17818   2.945   6.570   3.811
 5640SOL    HW117819   2.922   6.623   3.729
 5640SOL    HW217820   3.026   6.514   3.792
 5641SOL     OW17821   2.083   6.900   5.568
 5641SOL    HW117822   2.018   6.827   5.547
 5641SOL    HW217823   2.087   6.914   5.666
 5642SOL     OW17824   1.941   6.826   4.377
 5642SOL    HW117825   1.940   6.779   4.465
 5642SOL    HW217826   2.023   6.798   4.326
 5643SOL     OW17827   2.534   6.977   5.348
 5643SOL    HW117828   2.456   6.927   5.386
 5643SOL    HW217829   2.531   7.072   5.379
 5644SOL     OW17830   3.686   5.778   4.951
 5644SOL    HW117831   3.682   5.688   4.995
 5644SOL    HW217832   3.689   5.767   4.852
 5645SOL     OW17833   2.290   6.010   4.244
 5645SOL    HW117834   2.320   5.938   4.182
 5645SOL    HW217835   2.251   5.970   4.327
 5646SOL     OW17836   3.567   7.073   4.828
 5646SOL    HW117837   3.474   7.048   4.801
 5646SOL    HW217838   3.593   7.023   4.910
 5647SOL     OW17839   2.179   6.133   5.004
 5647SOL    HW117840   2.217   6.074   5.076
 5647SOL    HW217841   2.219   6.107   4.916
 5648SOL     OW17842   3.286   5.800   4.836
 5648SOL    HW117843   3.338   5.735   4.891
 5648SOL    HW217844   3.237   5.863   4.897
 5649SOL     OW17845   2.863   5.620   4.878
 5649SOL    HW117846   2.800   5.548   4.847
 5649SOL    HW217847   2.956   5.584   4.878
 5650SOL     OW17848   2.632   6.916   4.025
 5650SOL    HW117849   2.586   6.829   4.042
 5650SOL    HW217850   2.723   6.913   4.066
 5651SOL     OW17851   3.214   5.638   3.892
 5651SOL    HW117852   3.249   5.597   3.808
 5651SOL    HW217853   3.124   5.600   3.912
 5652SOL     OW17854   3.162   6.039   4.415
 5652SOL    HW117855   3.103   6.119   4.419
 5652SOL    HW217856   3.177   6.004   4.508
 5653SOL     OW17857   3.455   5.807   4.606
 5653SOL    HW117858   3.371   5.806   4.660
 5653SOL    HW217859   3.457   5.890   4.550
 5654SOL     OW17860   1.901   6.663   4.024
 5654SOL    HW117861   2.000   6.652   4.015
 5654SOL    HW217862   1.861   6.577   4.056
 5655SOL     OW17863   2.092   6.214   5.699
 5655SOL    HW117864   1.999   6.212   5.736
 5655SOL    HW217865   2.093   6.175   5.607
 5656SOL     OW17866   2.087   5.861   6.582
 5656SOL    HW117867   2.122   5.844   6.674
 5656SOL    HW217868   1.999   5.816   6.570
 5657SOL     OW17869   1.881   5.954   6.233
 5657SOL    HW117870   1.799   5.997   6.272
 5657SOL    HW217871   1.853   5.881   6.170
 5658SOL     OW17872   2.431   6.861   6.751
 5658SOL    HW117873   2.338   6.854   6.714
 5658SOL    HW217874   2.442   6.950   6.795
 5659SOL     OW17875   3.417   7.097   6.289
 5659SOL    HW117876   3.360   7.081   6.370
 5659SOL    HW217877   3.358   7.107   6.209
 5660SOL     OW17878   2.997   6.289   6.303
 5660SOL    HW117879   3.054   6.367   6.278
 5660SOL    HW217880   2.937   6.315   6.379
 5661SOL     OW17881   3.617   6.193   5.817
 5661SOL    HW117882   3.605   6.180   5.718
 5661SOL    HW217883   3.587   6.112   5.866
 5662SOL     OW17884   2.630   6.730   6.609
 5662SOL    HW117885   2.552   6.747   6.669
 5662SOL    HW217886   2.664   6.817   6.573
 5663SOL     OW17887   2.547   6.598   6.251
 5663SOL    HW117888   2.616   6.582   6.321
 5663SOL    HW217889   2.474   6.655   6.289
 5664SOL     OW17890   2.197   7.021   6.647
 5664SOL    HW117891   2.119   6.990   6.594
 5664SOL    HW217892   2.255   7.079   6.590
 5665SOL     OW17893   3.465   6.033   6.323
 5665SOL    HW117894   3.391   6.079   6.273
 5665SOL    HW217895   3.516   6.101   6.376
 5666SOL     OW17896   2.102   6.677   6.472
 5666SOL    HW117897   2.116   6.593   6.524
 5666SOL    HW217898   2.047   6.741   6.527
 5667SOL     OW17899   2.468   6.550   5.709
 5667SOL    HW117900   2.475   6.634   5.655
 5667SOL    HW217901   2.514   6.563   5.797
 5668SOL     OW17902   1.984   6.229   6.149
 5668SOL    HW117903   1.939   6.141   6.166
 5668SOL    HW217904   1.983   6.283   6.233
 5669SOL     OW17905   3.551   6.508   6.198
 5669SOL    HW117906   3.646   6.479   6.206
 5669SOL    HW217907   3.543   6.573   6.123
 5670SOL     OW17908   3.503   6.694   6.018
 5670SOL    HW117909   3.589   6.696   5.966
 5670SOL    HW217910   3.517   6.741   6.106
 5671SOL     OW17911   2.671   5.590   6.088
 5671SOL    HW117912   2.711   5.681   6.079
 5671SOL    HW217913   2.571   5.598   6.094
 5672SOL     OW17914   2.059   6.562   6.850
 5672SOL    HW117915   2.148   6.517   6.836
 5672SOL    HW217916   1.986   6.497   6.831
 5673SOL     OW17917   3.387   6.585   5.776
 5673SOL    HW117918   3.324   6.509   5.789
 5673SOL    HW217919   3.435   6.603   5.862
 5674SOL     OW17920   3.328   7.003   6.539
 5674SOL    HW117921   3.269   7.009   6.619
 5674SOL    HW217922   3.313   6.915   6.493
 5675SOL     OW17923   2.460   6.315   5.856
 5675SOL    HW117924   2.484   6.384   5.788
 5675SOL    HW217925   2.382   6.348   5.910
 5676SOL     OW17926   3.143   5.931   6.530
 5676SOL    HW117927   3.057   5.881   6.517
 5676SOL    HW217928   3.205   5.877   6.586
 5677SOL     OW17929   2.669   6.191   7.051
 5677SOL    HW117930   2.622   6.188   7.140
 5677SOL    HW217931   2.618   6.136   6.985
 5678SOL     OW17932   2.853   5.996   6.828
 5678SOL    HW117933   2.776   6.030   6.882
 5678SOL    HW217934   2.819   5.945   6.749
 5679SOL     OW17935   2.903   6.287   6.015
 5679SOL    HW117936   2.929   6.283   6.111
 5679SOL    HW217937   2.818   6.236   6.001
 5680SOL     OW17938   1.938   6.397   6.375
 5680SOL    HW117939   2.037   6.385   6.384
 5680SOL    HW217940   1.914   6.492   6.396
 5681SOL     OW17941   2.727   5.934   5.781
 5681SOL    HW117942   2.786   5.997   5.732
 5681SOL    HW217943   2.746   5.840   5.752
 5682SOL     OW17944   3.224   6.730   6.131
 5682SOL    HW117945   3.307   6.701   6.083
 5682SOL    HW217946   3.175   6.797   6.075
 5683SOL     OW17947   2.412   5.782   6.471
 5683SOL    HW117948   2.407   5.777   6.571
 5683SOL    HW217949   2.414   5.878   6.442
 5684SOL     OW17950   3.657   6.652   6.459
 5684SOL    HW117951   3.595   6.637   6.383
 5684SOL    HW217952   3.605   6.663   6.544
 5685SOL     OW17953   2.183   6.529   5.828
 5685SOL    HW117954   2.265   6.568   5.786
 5685SOL    HW217955   2.156   6.447   5.779
 5686SOL     OW17956   3.320   6.321   6.314
 5686SOL    HW117957   3.315   6.256   6.389
 5686SOL    HW217958   3.400   6.380   6.327
 5687SOL     OW17959   3.494   6.963   5.667
 5687SOL    HW117960   3.462   7.057   5.657
 5687SOL    HW217961   3.418   6.900   5.655
 5688SOL     OW17962   3.262   5.693   6.012
 5688SOL    HW117963   3.238   5.656   5.922
 5688SOL    HW217964   3.361   5.709   6.016
 5689SOL     OW17965   2.244   6.286   6.066
 5689SOL    HW117966   2.289   6.196   6.063
 5689SOL    HW217967   2.150   6.275   6.099
 5690SOL     OW17968   2.476   5.708   5.703
 5690SOL    HW117969   2.574   5.686   5.710
 5690SOL    HW217970   2.445   5.691   5.610
 5691SOL     OW17971   2.784   6.089   6.485
 5691SOL    HW117972   2.759   6.080   6.389
 5691SOL    HW217973   2.832   6.007   6.516
 5692SOL     OW17974   2.401   5.650   6.098
 5692SOL    HW117975   2.320   5.651   6.156
 5692SOL    HW217976   2.404   5.733   6.043
 5693SOL     OW17977   3.296   6.774   5.627
 5693SOL    HW117978   3.328   6.698   5.684
 5693SOL    HW217979   3.204   6.801   5.657
 5694SOL     OW17980   2.159   5.621   5.757
 5694SOL    HW117981   2.208   5.705   5.736
 5694SOL    HW217982   2.221   5.556   5.802
 5695SOL     OW17983   2.797   5.822   6.066
 5695SOL    HW117984   2.749   5.863   5.988
 5695SOL    HW217985   2.896   5.820   6.047
 5696SOL     OW17986   3.089   7.156   6.379
 5696SOL    HW117987   3.110   7.230   6.314
 5696SOL    HW217988   3.157   7.156   6.452
 5697SOL     OW17989   2.321   6.738   6.327
 5697SOL    HW117990   2.250   6.711   6.392
 5697SOL    HW217991   2.295   6.710   6.234
 5698SOL     OW17992   2.894   6.135   5.602
 5698SOL    HW117993   2.853   6.217   5.563
 5698SOL    HW217994   2.958   6.161   5.675
 5699SOL     OW17995   2.423   5.808   6.733
 5699SOL    HW117996   2.461   5.724   6.770
 5699SOL    HW217997   2.335   5.827   6.777
 5700SOL     OW17998   2.728   6.040   6.228
 5700SOL    HW117999   2.696   6.112   6.166
 5700SOL    HW218000   2.752   5.959   6.175
 5701SOL     OW18001   2.879   5.625   6.339
 5701SOL    HW118002   2.807   5.630   6.270
 5701SOL    HW218003   2.855   5.556   6.408
 5702SOL     OW18004   3.291   6.759   6.453
 5702SOL    HW118005   3.236   6.675   6.446
 5702SOL    HW218006   3.317   6.788   6.361
 5703SOL     OW18007   3.328   6.176   6.578
 5703SOL    HW118008   3.298   6.081   6.585
 5703SOL    HW218009   3.401   6.192   6.644
 5704SOL     OW18010   3.719   6.419   5.963
 5704SOL    HW118011   3.761   6.355   6.027
 5704SOL    HW218012   3.681   6.368   5.885
 5705SOL     OW18013   3.526   6.866   6.243
 5705SOL    HW118014   3.625   6.874   6.257
 5705SOL    HW218015   3.481   6.950   6.274
 5706SOL     OW18016   3.252   6.161   5.664
 5706SOL    HW118017   3.198   6.140   5.745
 5706SOL    HW218018   3.343   6.120   5.673
 5707SOL     OW18019   2.389   5.842   5.914
 5707SOL    HW118020   2.416   5.783   5.839
 5707SOL    HW218021   2.389   5.937   5.883
 5708SOL     OW18022   3.616   6.809   7.174
 5708SOL    HW118023   3.707   6.770   7.161
 5708SOL    HW218024   3.624   6.905   7.198
 5709SOL     OW18025   2.926   6.933   6.926
 5709SOL    HW118026   2.846   6.910   6.981
 5709SOL    HW218027   3.009   6.907   6.975
 5710SOL     OW18028   2.973   6.781   6.686
 5710SOL    HW118029   2.933   6.825   6.767
 5710SOL    HW218030   2.932   6.818   6.603
 5711SOL     OW18031   3.500   6.685   6.665
 5711SOL    HW118032   3.505   6.766   6.724
 5711SOL    HW218033   3.414   6.687   6.614
 5712SOL     OW18034   2.567   6.636   5.954
 5712SOL    HW118035   2.553   6.643   6.053
 5712SOL    HW218036   2.651   6.585   5.936
 5713SOL     OW18037   2.272   6.399   6.837
 5713SOL    HW118038   2.358   6.411   6.887
 5713SOL    HW218039   2.230   6.312   6.864
 5714SOL     OW18040   3.136   5.972   6.848
 5714SOL    HW118041   3.157   6.046   6.912
 5714SOL    HW218042   3.047   5.989   6.805
 5715SOL     OW18043   2.229   6.686   6.087
 5715SOL    HW118044   2.222   6.769   6.031
 5715SOL    HW218045   2.233   6.606   6.027
 5716SOL     OW18046   2.428   6.123   6.451
 5716SOL    HW118047   2.440   6.189   6.377
 5716SOL    HW218048   2.474   6.157   6.534
 5717SOL     OW18049   3.444   6.225   6.058
 5717SOL    HW118050   3.413   6.286   6.131
 5717SOL    HW218051   3.494   6.277   5.989
 5718SOL     OW18052   2.435   6.456   6.615
 5718SOL    HW118053   2.479   6.545   6.606
 5718SOL    HW218054   2.372   6.456   6.692
 5719SOL     OW18055   3.222   6.448   6.631
 5719SOL    HW118056   3.147   6.448   6.565
 5719SOL    HW218057   3.259   6.356   6.640
 5720SOL     OW18058   3.071   6.111   5.861
 5720SOL    HW118059   3.084   6.027   5.915
 5720SOL    HW218060   3.042   6.185   5.921
 5721SOL     OW18061   2.169   5.799   6.817
 5721SOL    HW118062   2.146   5.836   6.907
 5721SOL    HW218063   2.139   5.704   6.811
 5722SOL     OW18064   1.899   6.896   6.868
 5722SOL    HW118065   1.952   6.847   6.936
 5722SOL    HW218066   1.921   6.994   6.873
 5723SOL     OW18067   2.594   6.220   6.650
 5723SOL    HW118068   2.653   6.194   6.574
 5723SOL    HW218069   2.566   6.316   6.639
 5724SOL     OW18070   2.169   5.649   6.204
 5724SOL    HW118071   2.158   5.743   6.237
 5724SOL    HW218072   2.164   5.586   6.281
 5725SOL     OW18073   3.484   5.953   5.960
 5725SOL    HW118074   3.486   5.877   6.024
 5725SOL    HW218075   3.436   6.030   6.000
 5726SOL     OW18076   2.885   6.352   6.552
 5726SOL    HW118077   2.900   6.373   6.648
 5726SOL    HW218078   2.855   6.257   6.543
 5727SOL     OW18079   3.402   5.860   5.711
 5727SOL    HW118080   3.341   5.785   5.734
 5727SOL    HW218081   3.424   5.912   5.794
 5728SOL     OW18082   3.165   6.424   5.628
 5728SOL    HW118083   3.199   6.331   5.643
 5728SOL    HW218084   3.183   6.451   5.533
 5729SOL     OW18085   2.181   6.396   6.535
 5729SOL    HW118086   2.274   6.432   6.540
 5729SOL    HW218087   2.175   6.311   6.587
 5730SOL     OW18088   2.201   6.095   6.592
 5730SOL    HW118089   2.149   6.012   6.575
 5730SOL    HW218090   2.278   6.100   6.528
 5731SOL     OW18091   3.022   5.793   7.063
 5731SOL    HW118092   3.022   5.857   7.140
 5731SOL    HW218093   3.050   5.841   6.980
 5732SOL     OW18094   1.870   6.912   5.786
 5732SOL    HW118095   1.777   6.933   5.755
 5732SOL    HW218096   1.880   6.813   5.799
 5733SOL     OW18097   2.864   6.382   6.824
 5733SOL    HW118098   2.905   6.350   6.910
 5733SOL    HW218099   2.768   6.355   6.821
 5734SOL     OW18100   1.902   6.130   6.700
 5734SOL    HW118101   1.987   6.097   6.659
 5734SOL    HW218102   1.915   6.145   6.798
 5735SOL     OW18103   2.677   6.158   5.911
 5735SOL    HW118104   2.684   6.069   5.865
 5735SOL    HW218105   2.583   6.192   5.903
 5736SOL     OW18106   3.519   6.190   6.792
 5736SOL    HW118107   3.481   6.121   6.854
 5736SOL    HW218108   3.601   6.154   6.748
 5737SOL     OW18109   2.533   6.050   6.855
 5737SOL    HW118110   2.499   5.961   6.825
 5737SOL    HW218111   2.559   6.104   6.775
 5738SOL     OW18112   2.335   6.086   5.777
 5738SOL    HW118113   2.396   6.166   5.781
 5738SOL    HW218114   2.240   6.117   5.784
 5739SOL     OW18115   2.021   6.723   7.052
 5739SOL    HW118116   2.043   6.662   7.128
 5739SOL    HW218117   2.031   6.674   6.966
 5740SOL     OW18118   3.209   6.645   6.820
 5740SOL    HW118119   3.233   6.582   6.746
 5740SOL    HW218120   3.119   6.685   6.802
 5741SOL     OW18121   3.164   6.441   5.895
 5741SOL    HW118122   3.078   6.410   5.937
 5741SOL    HW218123   3.160   6.427   5.796
 5742SOL     OW18124   1.945   6.844   6.608
 5742SOL    HW118125   1.940   6.843   6.708
 5742SOL    HW218126   1.862   6.803   6.570
 5743SOL     OW18127   3.588   5.721   6.109
 5743SOL    HW118128   3.661   5.704   6.042
 5743SOL    HW218129   3.557   5.634   6.147
 5744SOL     OW18130   3.142   6.513   6.258
 5744SOL    HW118131   3.202   6.432   6.260
 5744SOL    HW218132   3.182   6.582   6.198
 5745SOL     OW18133   2.692   6.859   7.008
 5745SOL    HW118134   2.687   6.892   7.103
 5745SOL    HW218135   2.606   6.878   6.962
 5746SOL     OW18136   3.703   5.761   6.549
 5746SOL    HW118137   3.742   5.676   6.513
 5746SOL    HW218138   3.605   5.763   6.530
 5747SOL     OW18139   2.125   5.912   6.306
 5747SOL    HW118140   2.046   5.963   6.272
 5747SOL    HW218141   2.116   5.897   6.404
 5748SOL     OW18142   3.056   7.198   5.617
 5748SOL    HW118143   3.062   7.105   5.654
 5748SOL    HW218144   2.997   7.198   5.537
 5749SOL     OW18145   2.684   6.588   6.958
 5749SOL    HW118146   2.724   6.587   6.866
 5749SOL    HW218147   2.694   6.680   6.998
 5750SOL     OW18148   2.778   6.496   5.877
 5750SOL    HW118149   2.841   6.534   5.809
 5750SOL    HW218150   2.818   6.413   5.916
 5751SOL     OW18151   2.234   6.874   7.076
 5751SOL    HW118152   2.221   6.967   7.042
 5751SOL    HW218153   2.150   6.822   7.063
 5752SOL     OW18154   3.476   6.878   6.875
 5752SOL    HW118155   3.536   6.881   6.955
 5752SOL    HW218156   3.401   6.942   6.888
 5753SOL     OW18157   2.901   6.684   6.282
 5753SOL    HW118158   2.831   6.637   6.336
 5753SOL    HW218159   2.960   6.616   6.239
 5754SOL     OW18160   2.876   5.822   6.557
 5754SOL    HW118161   2.868   5.786   6.464
 5754SOL    HW218162   2.874   5.746   6.622
 5755SOL     OW18163   3.571   5.971   6.967
 5755SOL    HW118164   3.644   6.040   6.971
 5755SOL    HW218165   3.599   5.896   6.908
 5756SOL     OW18166   2.534   5.789   7.075
 5756SOL    HW118167   2.624   5.773   7.035
 5756SOL    HW218168   2.542   5.794   7.174
 5757SOL     OW18169   1.937   5.931   5.619
 5757SOL    HW118170   1.845   5.903   5.590
 5757SOL    HW218171   1.968   6.008   5.563
 5758SOL     OW18172   1.934   5.752   5.904
 5758SOL    HW118173   1.917   5.835   5.850
 5758SOL    HW218174   2.024   5.715   5.882
 5759SOL     OW18175   3.312   6.806   7.219
 5759SOL    HW118176   3.303   6.796   7.318
 5759SOL    HW218177   3.408   6.799   7.193
 5760SOL     OW18178   3.536   6.469   6.840
 5760SOL    HW118179   3.509   6.380   6.803
 5760SOL    HW218180   3.537   6.537   6.767
 5761SOL     OW18181   3.087   5.911   6.035
 5761SOL    HW118182   3.152   5.837   6.024
 5761SOL    HW218183   3.107   5.961   6.119
 5762SOL     OW18184   2.456   6.331   6.238
 5762SOL    HW118185   2.506   6.416   6.219
 5762SOL    HW218186   2.368   6.333   6.190
 5763SOL     OW18187   3.592   6.520   7.103
 5763SOL    HW118188   3.630   6.611   7.118
 5763SOL    HW218189   3.584   6.503   7.004
 5764SOL     OW18190   2.721   6.542   6.447
 5764SOL    HW118191   2.775   6.473   6.495
 5764SOL    HW218192   2.689   6.611   6.513
 5765SOL     OW18193   2.945   6.570   5.673
 5765SOL    HW118194   2.922   6.623   5.591
 5765SOL    HW218195   3.026   6.514   5.654
 5766SOL     OW18196   1.941   6.826   6.239
 5766SOL    HW118197   1.940   6.779   6.327
 5766SOL    HW218198   2.023   6.798   6.188
 5767SOL     OW18199   3.686   5.778   6.813
 5767SOL    HW118200   3.682   5.688   6.857
 5767SOL    HW218201   3.689   5.767   6.714
 5768SOL     OW18202   2.290   6.010   6.106
 5768SOL    HW118203   2.320   5.938   6.044
 5768SOL    HW218204   2.251   5.970   6.189
 5769SOL     OW18205   3.567   7.073   6.690
 5769SOL    HW118206   3.474   7.048   6.663
 5769SOL    HW218207   3.593   7.023   6.772
 5770SOL     OW18208   2.179   6.133   6.866
 5770SOL    HW118209   2.217   6.074   6.938
 5770SOL    HW218210   2.219   6.107   6.778
 5771SOL     OW18211   3.286   5.800   6.698
 5771SOL    HW118212   3.338   5.735   6.753
 5771SOL    HW218213   3.237   5.863   6.759
 5772SOL     OW18214   2.863   5.620   6.740
 5772SOL    HW118215   2.800   5.548   6.709
 5772SOL    HW218216   2.956   5.584   6.740
 5773SOL     OW18217   2.632   6.916   5.887
 5773SOL    HW118218   2.586   6.829   5.904
 5773SOL    HW218219   2.723   6.913   5.928
 5774SOL     OW18220   3.214   5.638   5.754
 5774SOL    HW118221   3.249   5.597   5.670
 5774SOL    HW218222   3.124   5.600   5.774
 5775SOL     OW18223   3.162   6.039   6.277
 5775SOL    HW118224   3.103   6.119   6.281
 5775SOL    HW218225   3.177   6.004   6.370
 5776SOL     OW18226   3.455   5.807   6.468
 5776SOL    HW118227   3.371   5.806   6.522
 5776SOL    HW218228   3.457   5.890   6.412
 5777SOL     OW18229   1.901   6.663   5.886
 5777SOL    HW118230   2.000   6.652   5.877
 5777SOL    HW218231   1.861   6.577   5.918
 5778SOL     OW18232   3.954   0.628   0.113
 5778SOL    HW118233   3.861   0.626   0.150
 5778SOL    HW218234   3.955   0.589   0.021
 5779SOL     OW18235   3.949   0.275   0.996
 5779SOL    HW118236   3.984   0.258   1.088
 5779SOL    HW218237   3.861   0.230   0.984
 5780SOL     OW18238   3.743   0.368   0.647
 5780SOL    HW118239   3.661   0.411   0.686
 5780SOL    HW218240   3.715   0.295   0.584
 5781SOL     OW18241   4.293   1.275   1.165
 5781SOL    HW118242   4.200   1.268   1.128
 5781SOL    HW218243   4.304   1.364   1.209
 5782SOL     OW18244   5.279   1.511   0.703
 5782SOL    HW118245   5.222   1.495   0.784
 5782SOL    HW218246   5.220   1.521   0.623
 5783SOL     OW18247   4.859   0.703   0.717
 5783SOL    HW118248   4.916   0.781   0.692
 5783SOL    HW218249   4.799   0.729   0.793
 5784SOL     OW18250   5.479   0.607   0.231
 5784SOL    HW118251   5.467   0.594   0.132
 5784SOL    HW218252   5.449   0.526   0.280
 5785SOL     OW18253   4.492   1.144   1.023
 5785SOL    HW118254   4.414   1.161   1.083
 5785SOL    HW218255   4.526   1.231   0.987
 5786SOL     OW18256   4.574   0.798   1.823
 5786SOL    HW118257   4.570   0.874   1.888
 5786SOL    HW218258   4.596   0.834   1.732
 5787SOL     OW18259   4.409   1.012   0.665
 5787SOL    HW118260   4.478   0.996   0.735
 5787SOL    HW218261   4.336   1.069   0.703
 5788SOL     OW18262   4.410   1.161   1.803
 5788SOL    HW118263   4.470   1.240   1.817
 5788SOL    HW218264   4.324   1.192   1.762
 5789SOL     OW18265   4.059   1.435   1.061
 5789SOL    HW118266   3.981   1.404   1.008
 5789SOL    HW218267   4.117   1.493   1.004
 5790SOL     OW18268   5.184   1.505   1.339
 5790SOL    HW118269   5.208   1.599   1.365
 5790SOL    HW218270   5.168   1.451   1.421
 5791SOL     OW18271   4.162   0.392   1.499
 5791SOL    HW118272   4.244   0.336   1.508
 5791SOL    HW218273   4.081   0.334   1.503
 5792SOL     OW18274   5.327   0.447   0.737
 5792SOL    HW118275   5.253   0.493   0.687
 5792SOL    HW218276   5.378   0.515   0.790
 5793SOL     OW18277   3.955   1.713   0.483
 5793SOL    HW118278   3.989   1.790   0.537
 5793SOL    HW218279   3.999   1.713   0.393
 5794SOL     OW18280   4.851   1.341   1.690
 5794SOL    HW118281   4.898   1.341   1.778
 5794SOL    HW218282   4.803   1.254   1.679
 5795SOL     OW18283   3.954   1.434   0.538
 5795SOL    HW118284   3.928   1.530   0.538
 5795SOL    HW218285   3.883   1.380   0.583
 5796SOL     OW18286   3.964   1.091   0.886
 5796SOL    HW118287   3.978   1.007   0.938
 5796SOL    HW218288   3.909   1.155   0.941
 5797SOL     OW18289   4.344   1.786   1.439
 5797SOL    HW118290   4.252   1.769   1.474
 5797SOL    HW218291   4.372   1.878   1.465
 5798SOL     OW18292   4.330   0.964   0.123
 5798SOL    HW118293   4.337   1.048   0.069
 5798SOL    HW218294   4.376   0.977   0.211
 5799SOL     OW18295   5.318   0.114   1.480
 5799SOL    HW118296   5.300   0.181   1.408
 5799SOL    HW218297   5.315   0.160   1.569
 5800SOL     OW18298   3.846   0.643   0.563
 5800SOL    HW118299   3.801   0.555   0.580
 5800SOL    HW218300   3.845   0.697   0.647
 5801SOL     OW18301   5.566   1.767   0.359
 5801SOL    HW118302   5.620   1.738   0.439
 5801SOL    HW218303   5.596   1.857   0.330
 5802SOL     OW18304   3.751   1.596   0.117
 5802SOL    HW118305   3.732   1.500   0.138
 5802SOL    HW218306   3.718   1.654   0.192
 5803SOL     OW18307   5.413   0.922   0.612
 5803SOL    HW118308   5.508   0.893   0.620
 5803SOL    HW218309   5.405   0.987   0.537
 5804SOL     OW18310   5.365   1.108   0.432
 5804SOL    HW118311   5.451   1.110   0.380
 5804SOL    HW218312   5.379   1.155   0.520
 5805SOL     OW18313   3.837   0.737   1.597
 5805SOL    HW118314   3.925   0.724   1.642
 5805SOL    HW218315   3.824   0.834   1.575
 5806SOL     OW18316   4.337   1.365   0.726
 5806SOL    HW118317   4.288   1.278   0.735
 5806SOL    HW218318   4.314   1.408   0.639
 5807SOL     OW18319   5.017   1.228   1.423
 5807SOL    HW118320   5.054   1.155   1.365
 5807SOL    HW218321   5.069   1.233   1.508
 5808SOL     OW18322   4.533   0.004   0.502
 5808SOL    HW118323   4.573   0.095   0.493
 5808SOL    HW218324   4.433   0.012   0.508
 5809SOL     OW18325   3.921   0.976   1.264
 5809SOL    HW118326   4.010   0.931   1.250
 5809SOL    HW218327   3.848   0.911   1.245
 5810SOL     OW18328   5.249   0.999   0.190
 5810SOL    HW118329   5.186   0.923   0.203
 5810SOL    HW218330   5.297   1.017   0.276
 5811SOL     OW18331   4.911   1.792   1.616
 5811SOL    HW118332   4.935   1.852   1.540
 5811SOL    HW218333   4.918   1.697   1.586
 5812SOL     OW18334   4.041   0.251   1.801
 5812SOL    HW118335   4.112   0.322   1.807
 5812SOL    HW218336   3.953   0.290   1.829
 5813SOL     OW18337   5.190   1.417   0.953
 5813SOL    HW118338   5.131   1.423   1.033
 5813SOL    HW218339   5.175   1.329   0.907
 5814SOL     OW18340   5.391   1.714   0.572
 5814SOL    HW118341   5.350   1.691   0.484
 5814SOL    HW218342   5.373   1.640   0.637
 5815SOL     OW18343   4.322   0.729   0.270
 5815SOL    HW118344   4.346   0.798   0.202
 5815SOL    HW218345   4.244   0.762   0.324
 5816SOL     OW18346   5.005   0.345   0.944
 5816SOL    HW118347   4.919   0.295   0.931
 5816SOL    HW218348   5.067   0.291   1.000
 5817SOL     OW18349   5.300   1.662   0.307
 5817SOL    HW118350   5.389   1.708   0.310
 5817SOL    HW218351   5.279   1.638   0.212
 5818SOL     OW18352   4.531   0.605   1.465
 5818SOL    HW118353   4.484   0.602   1.554
 5818SOL    HW218354   4.480   0.550   1.399
 5819SOL     OW18355   5.118   0.469   1.674
 5819SOL    HW118356   5.098   0.512   1.762
 5819SOL    HW218357   5.196   0.407   1.683
 5820SOL     OW18358   4.697   0.890   1.572
 5820SOL    HW118359   4.743   0.806   1.543
 5820SOL    HW218360   4.641   0.924   1.497
 5821SOL     OW18361   4.715   0.410   1.242
 5821SOL    HW118362   4.638   0.444   1.296
 5821SOL    HW218363   4.681   0.359   1.163
 5822SOL     OW18364   4.765   0.701   0.429
 5822SOL    HW118365   4.791   0.697   0.525
 5822SOL    HW218366   4.680   0.650   0.415
 5823SOL     OW18367   3.800   0.811   0.789
 5823SOL    HW118368   3.899   0.799   0.798
 5823SOL    HW218369   3.776   0.906   0.810
 5824SOL     OW18370   3.854   1.821   1.571
 5824SOL    HW118371   3.844   1.806   1.670
 5824SOL    HW218372   3.768   1.857   1.535
 5825SOL     OW18373   4.589   0.348   0.195
 5825SOL    HW118374   4.648   0.411   0.146
 5825SOL    HW218375   4.608   0.254   0.166
 5826SOL     OW18376   5.443   0.585   1.831
 5826SOL    HW118377   5.417   0.674   1.795
 5826SOL    HW218378   5.441   0.517   1.758
 5827SOL     OW18379   5.086   1.144   0.545
 5827SOL    HW118380   5.169   1.115   0.497
 5827SOL    HW218381   5.037   1.211   0.489
 5828SOL     OW18382   4.274   0.196   0.885
 5828SOL    HW118383   4.269   0.191   0.985
 5828SOL    HW218384   4.276   0.292   0.856
 5829SOL     OW18385   4.732   1.456   0.477
 5829SOL    HW118386   4.686   1.528   0.425
 5829SOL    HW218387   4.728   1.476   0.575
 5830SOL     OW18388   4.075   1.801   0.853
 5830SOL    HW118389   4.125   1.715   0.859
 5830SOL    HW218390   4.140   1.878   0.850
 5831SOL     OW18391   5.519   1.066   0.873
 5831SOL    HW118392   5.457   1.051   0.797
 5831SOL    HW218393   5.467   1.077   0.958
 5832SOL     OW18394   4.951   1.550   1.506
 5832SOL    HW118395   4.957   1.473   1.570
 5832SOL    HW218396   4.899   1.524   1.426
 5833SOL     OW18397   4.045   0.943   0.242
 5833SOL    HW118398   4.127   0.982   0.200
 5833SOL    HW218399   4.018   0.861   0.193
 5834SOL     OW18400   5.182   0.735   0.728
 5834SOL    HW118401   5.177   0.670   0.803
 5834SOL    HW218402   5.262   0.794   0.741
 5835SOL     OW18403   4.185   1.266   1.727
 5835SOL    HW118404   4.135   1.267   1.641
 5835SOL    HW218405   4.122   1.248   1.803
 5836SOL     OW18406   4.835   1.776   0.237
 5836SOL    HW118407   4.775   1.714   0.287
 5836SOL    HW218408   4.866   1.732   0.152
 5837SOL     OW18409   3.926   0.285   1.498
 5837SOL    HW118410   3.846   0.345   1.485
 5837SOL    HW218411   3.916   0.236   1.584
 5838SOL     OW18412   5.356   1.377   0.081
 5838SOL    HW118413   5.324   1.471   0.071
 5838SOL    HW218414   5.280   1.314   0.069
 5839SOL     OW18415   4.188   1.743   0.323
 5839SOL    HW118416   4.221   1.782   0.409
 5839SOL    HW218417   4.264   1.736   0.258
 5840SOL     OW18418   5.124   0.107   0.426
 5840SOL    HW118419   5.100   0.070   0.336
 5840SOL    HW218420   5.223   0.123   0.430
 5841SOL     OW18421   3.973   1.785   1.241
 5841SOL    HW118422   4.030   1.720   1.291
 5841SOL    HW218423   3.957   1.752   1.148
 5842SOL     OW18424   4.664   1.698   0.904
 5842SOL    HW118425   4.744   1.641   0.925
 5842SOL    HW218426   4.615   1.658   0.827
 5843SOL     OW18427   4.106   0.700   0.480
 5843SOL    HW118428   4.151   0.610   0.477
 5843SOL    HW218429   4.012   0.689   0.513
 5844SOL     OW18430   5.271   0.222   1.729
 5844SOL    HW118431   5.266   0.259   1.821
 5844SOL    HW218432   5.199   0.153   1.717
 5845SOL     OW18433   4.338   0.122   0.117
 5845SOL    HW118434   4.436   0.100   0.124
 5845SOL    HW218435   4.307   0.105   0.024
 5846SOL     OW18436   4.505   0.264   1.749
 5846SOL    HW118437   4.572   0.203   1.792
 5846SOL    HW218438   4.432   0.283   1.814
 5847SOL     OW18439   4.612   1.514   1.195
 5847SOL    HW118440   4.589   1.489   1.101
 5847SOL    HW218441   4.673   1.445   1.234
 5848SOL     OW18442   5.075   0.590   1.433
 5848SOL    HW118443   5.103   0.547   1.518
 5848SOL    HW218444   5.100   0.686   1.434
 5849SOL     OW18445   4.527   1.402   0.924
 5849SOL    HW118446   4.617   1.416   0.882
 5849SOL    HW218447   4.456   1.404   0.853
 5850SOL     OW18448   4.646   0.503   0.899
 5850SOL    HW118449   4.621   0.494   0.803
 5850SOL    HW218450   4.694   0.421   0.930
 5851SOL     OW18451   4.263   0.064   0.512
 5851SOL    HW118452   4.182   0.065   0.570
 5851SOL    HW218453   4.266   0.147   0.457
 5852SOL     OW18454   5.158   1.188   0.041
 5852SOL    HW118455   5.190   1.112   0.098
 5852SOL    HW218456   5.066   1.215   0.071
 5853SOL     OW18457   4.021   0.035   0.171
 5853SOL    HW118458   4.070   0.119   0.150
 5853SOL    HW218459   4.083  -0.030   0.216
 5854SOL     OW18460   4.659   0.236   0.480
 5854SOL    HW118461   4.611   0.277   0.402
 5854SOL    HW218462   4.758   0.234   0.461
 5855SOL     OW18463   4.800   0.683   1.464
 5855SOL    HW118464   4.720   0.622   1.467
 5855SOL    HW218465   4.881   0.630   1.440
 5856SOL     OW18466   4.951   1.570   0.793
 5856SOL    HW118467   4.972   1.644   0.728
 5856SOL    HW218468   5.019   1.570   0.866
 5857SOL     OW18469   4.183   1.152   0.741
 5857SOL    HW118470   4.112   1.125   0.806
 5857SOL    HW218471   4.157   1.124   0.648
 5858SOL     OW18472   4.995   1.797   0.591
 5858SOL    HW118473   5.039   1.861   0.527
 5858SOL    HW218474   4.945   1.849   0.661
 5859SOL     OW18475   4.756   0.549   0.016
 5859SOL    HW118476   4.715   0.631  -0.023
 5859SOL    HW218477   4.820   0.575   0.089
 5860SOL     OW18478   3.802   0.556   1.386
 5860SOL    HW118479   3.894   0.555   1.345
 5860SOL    HW218480   3.796   0.630   1.453
 5861SOL     OW18481   4.285   0.222   1.147
 5861SOL    HW118482   4.323   0.138   1.184
 5861SOL    HW218483   4.197   0.241   1.191
 5862SOL     OW18484   4.590   0.454   0.642
 5862SOL    HW118485   4.558   0.526   0.580
 5862SOL    HW218486   4.614   0.373   0.589
 5863SOL     OW18487   4.741   0.039   0.753
 5863SOL    HW118488   4.669   0.044   0.684
 5863SOL    HW218489   4.717  -0.030   0.822
 5864SOL     OW18490   5.153   1.173   0.867
 5864SOL    HW118491   5.098   1.089   0.860
 5864SOL    HW218492   5.179   1.202   0.775
 5865SOL     OW18493   5.190   0.590   0.992
 5865SOL    HW118494   5.160   0.495   0.999
 5865SOL    HW218495   5.263   0.606   1.058
 5866SOL     OW18496   5.581   0.833   0.377
 5866SOL    HW118497   5.623   0.769   0.441
 5866SOL    HW218498   5.543   0.782   0.299
 5867SOL     OW18499   4.212   1.385   0.174
 5867SOL    HW118500   4.125   1.370   0.221
 5867SOL    HW218501   4.195   1.411   0.079
 5868SOL     OW18502   5.388   1.280   0.657
 5868SOL    HW118503   5.487   1.288   0.671
 5868SOL    HW218504   5.343   1.364   0.688
 5869SOL     OW18505   5.114   0.575   0.078
 5869SOL    HW118506   5.060   0.554   0.159
 5869SOL    HW218507   5.205   0.534   0.087
 5870SOL     OW18508   4.251   0.256   0.328
 5870SOL    HW118509   4.278   0.197   0.253
 5870SOL    HW218510   4.251   0.351   0.297
 5871SOL     OW18511   5.478   1.223   1.588
 5871SOL    HW118512   5.569   1.184   1.575
 5871SOL    HW218513   5.486   1.319   1.612
 5872SOL     OW18514   4.788   1.347   1.340
 5872SOL    HW118515   4.708   1.324   1.395
 5872SOL    HW218516   4.871   1.321   1.389
 5873SOL     OW18517   5.316   1.629   1.625
 5873SOL    HW118518   5.343   1.663   1.535
 5873SOL    HW218519   5.395   1.591   1.671
 5874SOL     OW18520   4.835   1.195   1.100
 5874SOL    HW118521   4.795   1.239   1.181
 5874SOL    HW218522   4.794   1.232   1.017
 5875SOL     OW18523   5.362   1.099   1.079
 5875SOL    HW118524   5.367   1.180   1.138
 5875SOL    HW218525   5.276   1.101   1.028
 5876SOL     OW18526   4.639   0.089   1.402
 5876SOL    HW118527   4.664   0.069   1.307
 5876SOL    HW218528   4.711   0.145   1.444
 5877SOL     OW18529   4.704   1.116   1.719
 5877SOL    HW118530   4.605   1.122   1.729
 5877SOL    HW218531   4.727   1.036   1.663
 5878SOL     OW18532   4.429   1.050   0.368
 5878SOL    HW118533   4.415   1.057   0.467
 5878SOL    HW218534   4.513   0.999   0.350
 5879SOL     OW18535   4.134   0.813   1.251
 5879SOL    HW118536   4.220   0.825   1.301
 5879SOL    HW218537   4.092   0.726   1.278
 5880SOL     OW18538   4.998   0.386   1.262
 5880SOL    HW118539   5.019   0.460   1.326
 5880SOL    HW218540   4.909   0.403   1.219
 5881SOL     OW18541   3.788   1.564   1.331
 5881SOL    HW118542   3.742   1.646   1.297
 5881SOL    HW218543   3.886   1.583   1.340
 5882SOL     OW18544   4.091   1.100   0.501
 5882SOL    HW118545   4.084   1.183   0.445
 5882SOL    HW218546   4.095   1.020   0.441
 5883SOL     OW18547   4.290   0.537   0.865
 5883SOL    HW118548   4.302   0.603   0.791
 5883SOL    HW218549   4.336   0.571   0.948
 5884SOL     OW18550   4.976   1.348   0.388
 5884SOL    HW118551   5.026   1.425   0.428
 5884SOL    HW218552   4.881   1.350   0.420
 5885SOL     OW18553   4.996   1.445   1.142
 5885SOL    HW118554   5.043   1.458   1.229
 5885SOL    HW218555   4.930   1.371   1.151
 5886SOL     OW18556   5.306   0.639   0.472
 5886SOL    HW118557   5.275   0.700   0.545
 5886SOL    HW218558   5.356   0.691   0.403
 5887SOL     OW18559   4.078   1.510   1.329
 5887SOL    HW118560   4.057   1.466   1.242
 5887SOL    HW218561   4.175   1.536   1.332
 5888SOL     OW18562   4.126   0.751   1.598
 5888SOL    HW118563   4.194   0.806   1.551
 5888SOL    HW218564   4.166   0.663   1.625
 5889SOL     OW18565   5.311   0.779   1.670
 5889SOL    HW118566   5.219   0.817   1.665
 5889SOL    HW218567   5.371   0.826   1.605
 5890SOL     OW18568   4.737   0.105   1.770
 5890SOL    HW118569   4.743   0.190   1.718
 5890SOL    HW218570   4.769   0.029   1.713
 5891SOL     OW18571   4.228   0.050   1.740
 5891SOL    HW118572   4.186  -0.007   1.670
 5891SOL    HW218573   4.162   0.119   1.772
 5892SOL     OW18574   4.297   0.870   1.029
 5892SOL    HW118575   4.341   0.959   1.020
 5892SOL    HW218576   4.234   0.870   1.106
 5893SOL     OW18577   5.084   0.862   1.045
 5893SOL    HW118578   5.009   0.862   0.979
 5893SOL    HW218579   5.121   0.770   1.054
 5894SOL     OW18580   4.933   0.525   0.275
 5894SOL    HW118581   4.946   0.441   0.329
 5894SOL    HW218582   4.904   0.599   0.335
 5895SOL     OW18583   4.031   0.213   1.231
 5895SOL    HW118584   4.008   0.250   1.321
 5895SOL    HW218585   4.001   0.118   1.225
 5896SOL     OW18586   3.761   1.310   1.282
 5896SOL    HW118587   3.814   1.261   1.350
 5896SOL    HW218588   3.783   1.408   1.287
 5897SOL     OW18589   4.456   0.634   1.064
 5897SOL    HW118590   4.515   0.608   0.988
 5897SOL    HW218591   4.428   0.730   1.053
 5898SOL     OW18592   5.452   0.935   1.854
 5898SOL    HW118593   5.406   0.928   1.765
 5898SOL    HW218594   5.390   0.979   1.920
 5899SOL     OW18595   4.031   0.063   0.618
 5899SOL    HW118596   4.020   0.157   0.651
 5899SOL    HW218597   4.026   0.000   0.695
 5900SOL     OW18598   5.346   0.367   0.374
 5900SOL    HW118599   5.348   0.291   0.438
 5900SOL    HW218600   5.298   0.444   0.414
 5901SOL     OW18601   4.747   0.766   0.966
 5901SOL    HW118602   4.762   0.787   1.062
 5901SOL    HW218603   4.717   0.671   0.957
 5902SOL     OW18604   4.704   1.573   1.700
 5902SOL    HW118605   4.684   1.617   1.612
 5902SOL    HW218606   4.743   1.482   1.684
 5903SOL     OW18607   5.583   1.518   1.605
 5903SOL    HW118608   5.597   1.545   1.510
 5903SOL    HW218609   5.666   1.540   1.658
 5904SOL     OW18610   4.074   0.898   1.804
 5904SOL    HW118611   4.150   0.942   1.852
 5904SOL    HW218612   4.109   0.851   1.722
 5905SOL     OW18613   5.264   0.274   0.125
 5905SOL    HW118614   5.203   0.199   0.148
 5905SOL    HW218615   5.286   0.326   0.208
 5906SOL     OW18616   5.027   0.838   0.042
 5906SOL    HW118617   5.061   0.745   0.057
 5906SOL    HW218618   5.045   0.865  -0.053
 5907SOL     OW18619   4.792   1.333   0.849
 5907SOL    HW118620   4.799   1.249   0.794
 5907SOL    HW218621   4.854   1.402   0.813
 5908SOL     OW18622   4.043   0.810   0.949
 5908SOL    HW118623   4.136   0.846   0.954
 5908SOL    HW218624   4.037   0.725   1.001
 5909SOL     OW18625   4.063   0.509   1.006
 5909SOL    HW118626   4.011   0.426   0.989
 5909SOL    HW218627   4.140   0.514   0.942
 5910SOL     OW18628   4.862   0.380   1.678
 5910SOL    HW118629   4.817   0.443   1.742
 5910SOL    HW218630   4.955   0.411   1.661
 5911SOL     OW18631   4.884   0.207   1.477
 5911SOL    HW118632   4.884   0.271   1.554
 5911SOL    HW218633   4.912   0.255   1.394
 5912SOL     OW18634   3.812   1.801   0.927
 5912SOL    HW118635   3.770   1.715   0.900
 5912SOL    HW218636   3.906   1.804   0.893
 5913SOL     OW18637   4.228   1.568   0.910
 5913SOL    HW118638   4.294   1.642   0.919
 5913SOL    HW218639   4.272   1.489   0.868
 5914SOL     OW18640   4.726   0.796   1.238
 5914SOL    HW118641   4.767   0.764   1.324
 5914SOL    HW218642   4.630   0.769   1.235
 5915SOL     OW18643   3.764   0.544   1.114
 5915SOL    HW118644   3.849   0.511   1.073
 5915SOL    HW218645   3.777   0.559   1.212
 5916SOL     OW18646   3.913   0.520   1.722
 5916SOL    HW118647   3.972   0.480   1.652
 5916SOL    HW218648   3.855   0.591   1.681
 5917SOL     OW18649   5.093   0.950   1.660
 5917SOL    HW118650   5.132   1.039   1.680
 5917SOL    HW218651   5.103   0.930   1.563
 5918SOL     OW18652   4.539   0.572   0.325
 5918SOL    HW118653   4.546   0.483   0.279
 5918SOL    HW218654   4.445   0.606   0.317
 5919SOL     OW18655   5.381   0.604   1.206
 5919SOL    HW118656   5.343   0.535   1.268
 5919SOL    HW218657   5.463   0.568   1.162
 5920SOL     OW18658   3.976   1.564   1.744
 5920SOL    HW118659   3.946   1.621   1.820
 5920SOL    HW218660   3.969   1.467   1.770
 5921SOL     OW18661   4.395   0.464   1.269
 5921SOL    HW118662   4.361   0.375   1.239
 5921SOL    HW218663   4.421   0.518   1.189
 5922SOL     OW18664   4.654   1.678   1.465
 5922SOL    HW118665   4.630   1.660   1.370
 5922SOL    HW218666   4.684   1.772   1.475
 5923SOL     OW18667   4.197   0.500   0.191
 5923SOL    HW118668   4.258   0.580   0.195
 5923SOL    HW218669   4.102   0.531   0.198
 5924SOL     OW18670   3.883   1.137   1.466
 5924SOL    HW118671   3.905   1.076   1.542
 5924SOL    HW218672   3.893   1.088   1.380
 5925SOL     OW18673   5.071   1.059   1.234
 5925SOL    HW118674   5.095   0.996   1.160
 5925SOL    HW218675   4.981   1.099   1.216
 5926SOL     OW18676   5.026   0.855   0.309
 5926SOL    HW118677   4.940   0.824   0.351
 5926SOL    HW218678   5.022   0.841   0.210
 5927SOL     OW18679   5.483   1.747   1.154
 5927SOL    HW118680   5.544   1.777   1.081
 5927SOL    HW218681   5.445   1.658   1.132
 5928SOL     OW18682   4.976   1.731   1.128
 5928SOL    HW118683   5.060   1.736   1.074
 5928SOL    HW218684   4.953   1.635   1.146
 5929SOL     OW18685   3.807   1.258   1.022
 5929SOL    HW118686   3.802   1.257   1.122
 5929SOL    HW218687   3.724   1.217   0.984
 5930SOL     OW18688   4.412   1.662   1.716
 5930SOL    HW118689   4.356   1.743   1.725
 5930SOL    HW218690   4.464   1.666   1.630
 5931SOL     OW18691   4.627   0.086   0.133
 5931SOL    HW118692   4.678   0.087   0.047
 5931SOL    HW218693   4.683   0.044   0.204
 5932SOL     OW18694   5.450   0.135   0.523
 5932SOL    HW118695   5.523   0.118   0.456
 5932SOL    HW218696   5.419   0.048   0.561
 5933SOL     OW18697   5.112   1.573   0.477
 5933SOL    HW118698   5.179   1.585   0.403
 5933SOL    HW218699   5.072   1.662   0.500
 5934SOL     OW18700   3.854   1.794   1.851
 5934SOL    HW118701   3.813   1.720   1.904
 5934SOL    HW218702   3.918   1.845   1.909
 5935SOL     OW18703   5.004   0.927   0.672
 5935SOL    HW118704   5.064   0.846   0.674
 5935SOL    HW218705   5.044   0.996   0.612
 5936SOL     OW18706   4.554   1.273   1.422
 5936SOL    HW118707   4.549   1.306   1.517
 5936SOL    HW218708   4.468   1.292   1.376
 5937SOL     OW18709   4.396   1.616   0.154
 5937SOL    HW118710   4.405   1.626   0.055
 5937SOL    HW218711   4.356   1.527   0.175
 5938SOL     OW18712   5.374   1.720   1.394
 5938SOL    HW118713   5.427   1.730   1.310
 5938SOL    HW218714   5.347   1.810   1.428
 5939SOL     OW18715   5.565   0.175   0.963
 5939SOL    HW118716   5.604   0.090   0.927
 5939SOL    HW218717   5.467   0.177   0.944
 5940SOL     OW18718   3.987   0.326   0.720
 5940SOL    HW118719   3.908   0.377   0.686
 5940SOL    HW218720   3.978   0.311   0.818
 5941SOL     OW18721   4.918   1.612   0.031
 5941SOL    HW118722   4.924   1.519   0.068
 5941SOL    HW218723   4.859   1.612  -0.049
 5942SOL     OW18724   4.546   1.002   1.372
 5942SOL    HW118725   4.586   1.001   1.280
 5942SOL    HW218726   4.556   1.094   1.412
 5943SOL     OW18727   4.640   0.910   0.291
 5943SOL    HW118728   4.703   0.948   0.223
 5943SOL    HW218729   4.680   0.827   0.330
 5944SOL     OW18730   5.228   1.607   0.044
 5944SOL    HW118731   5.136   1.644   0.051
 5944SOL    HW218732   5.266   1.627  -0.046
 5945SOL     OW18733   4.096   1.288   1.490
 5945SOL    HW118734   4.083   1.381   1.456
 5945SOL    HW218735   4.012   1.236   1.477
 5946SOL     OW18736   5.338   1.292   1.289
 5946SOL    HW118737   5.398   1.295   1.369
 5946SOL    HW218738   5.263   1.356   1.302
 5947SOL     OW18739   4.763   1.098   0.696
 5947SOL    HW118740   4.693   1.051   0.750
 5947SOL    HW218741   4.822   1.030   0.653
 5948SOL     OW18742   4.738   0.236   0.971
 5948SOL    HW118743   4.730   0.200   0.878
 5948SOL    HW218744   4.736   0.160   1.036
 5949SOL     OW18745   4.314   1.487   0.491
 5949SOL    HW118746   4.356   1.429   0.421
 5949SOL    HW218747   4.270   1.566   0.447
 5950SOL     OW18748   5.433   0.385   1.381
 5950SOL    HW118749   5.506   0.454   1.385
 5950SOL    HW218750   5.461   0.310   1.322
 5951SOL     OW18751   3.979   1.348   0.290
 5951SOL    HW118752   3.883   1.349   0.263
 5951SOL    HW218753   3.991   1.401   0.374
 5952SOL     OW18754   3.829   1.013   1.726
 5952SOL    HW118755   3.752   0.980   1.780
 5952SOL    HW218756   3.914   0.983   1.768
 5953SOL     OW18757   4.396   0.203   1.489
 5953SOL    HW118758   4.486   0.187   1.449
 5953SOL    HW218759   4.404   0.208   1.588
 5954SOL     OW18760   3.799   0.345   0.033
 5954SOL    HW118761   3.707   0.317   0.004
 5954SOL    HW218762   3.830   0.422  -0.023
 5955SOL     OW18763   5.164   0.856   1.398
 5955SOL    HW118764   5.107   0.908   1.335
 5955SOL    HW218765   5.260   0.868   1.374
 5956SOL     OW18766   3.796   0.166   0.318
 5956SOL    HW118767   3.779   0.249   0.264
 5956SOL    HW218768   3.886   0.129   0.296
 5957SOL     OW18769   4.907   1.335   0.119
 5957SOL    HW118770   4.808   1.324   0.121
 5957SOL    HW218771   4.941   1.350   0.212
 5958SOL     OW18772   4.337   0.842   1.431
 5958SOL    HW118773   4.393   0.923   1.414
 5958SOL    HW218774   4.396   0.762   1.434
 5959SOL     OW18775   5.217   1.767   0.959
 5959SOL    HW118776   5.250   1.831   0.890
 5959SOL    HW218777   5.283   1.761   1.034
 5960SOL     OW18778   4.440   0.565   1.708
 5960SOL    HW118779   4.459   0.630   1.782
 5960SOL    HW218780   4.500   0.485   1.717
 5961SOL     OW18781   5.174   1.220   1.633
 5961SOL    HW118782   5.165   1.210   1.732
 5961SOL    HW218783   5.270   1.213   1.607
 5962SOL     OW18784   4.114   1.741   1.560
 5962SOL    HW118785   4.023   1.782   1.558
 5962SOL    HW218786   4.107   1.647   1.592
 5963SOL     OW18787   5.398   0.883   1.254
 5963SOL    HW118788   5.371   0.794   1.217
 5963SOL    HW218789   5.399   0.951   1.181
 5964SOL     OW18790   4.949   0.325   0.449
 5964SOL    HW118791   5.014   0.251   0.438
 5964SOL    HW218792   4.969   0.375   0.533
 5965SOL     OW18793   4.318   0.745   0.652
 5965SOL    HW118794   4.368   0.830   0.633
 5965SOL    HW218795   4.230   0.747   0.604
 5966SOL     OW18796   5.501   0.342   1.642
 5966SOL    HW118797   5.484   0.373   1.548
 5966SOL    HW218798   5.417   0.305   1.680
 5967SOL     OW18799   5.454   0.934   1.517
 5967SOL    HW118800   5.492   1.025   1.532
 5967SOL    HW218801   5.446   0.917   1.418
 5968SOL     OW18802   4.583   1.374   0.016
 5968SOL    HW118803   4.537   1.389   0.104
 5968SOL    HW218804   4.627   1.459  -0.014
 5969SOL     OW18805   4.385   1.790   0.953
 5969SOL    HW118806   4.339   1.878   0.940
 5969SOL    HW218807   4.484   1.802   0.946
 5970SOL     OW18808   4.583   0.956   0.861
 5970SOL    HW118809   4.637   0.887   0.909
 5970SOL    HW218810   4.551   1.025   0.927
 5971SOL     OW18811   4.807   0.984   0.087
 5971SOL    HW118812   4.784   1.037   0.005
 5971SOL    HW218813   4.888   0.928   0.068
 5972SOL     OW18814   5.585   1.569   0.851
 5972SOL    HW118815   5.514   1.557   0.781
 5972SOL    HW218816   5.586   1.490   0.911
 5973SOL     OW18817   3.945   1.314   1.844
 5973SOL    HW118818   3.880   1.241   1.823
 5973SOL    HW218819   3.949   1.328   1.942
 5974SOL     OW18820   3.803   1.240   0.653
 5974SOL    HW118821   3.802   1.193   0.741
 5974SOL    HW218822   3.885   1.212   0.602
 5975SOL     OW18823   4.396   1.391   1.624
 5975SOL    HW118824   4.318   1.341   1.662
 5975SOL    HW218825   4.393   1.486   1.655
 5976SOL     OW18826   5.548   0.192   1.227
 5976SOL    HW118827   5.544   0.102   1.271
 5976SOL    HW218828   5.551   0.181   1.128
 5977SOL     OW18829   4.152   0.424   0.520
 5977SOL    HW118830   4.182   0.352   0.458
 5977SOL    HW218831   4.113   0.384   0.603
 5978SOL     OW18832   5.429   1.487   1.104
 5978SOL    HW118833   5.336   1.462   1.077
 5978SOL    HW218834   5.455   1.437   1.186
 5979SOL     OW18835   4.041   0.547   1.280
 5979SOL    HW118836   4.079   0.488   1.352
 5979SOL    HW218837   4.081   0.521   1.192
 5980SOL     OW18838   4.536   1.586   0.687
 5980SOL    HW118839   4.568   1.596   0.593
 5980SOL    HW218840   4.457   1.524   0.689
 5981SOL     OW18841   5.148   0.214   1.112
 5981SOL    HW118842   5.200   0.149   1.167
 5981SOL    HW218843   5.099   0.277   1.173
 5982SOL     OW18844   4.725   0.034   1.154
 5982SOL    HW118845   4.662  -0.038   1.123
 5982SOL    HW218846   4.818  -0.002   1.154
 5983SOL     OW18847   4.494   1.330   0.301
 5983SOL    HW118848   4.448   1.243   0.318
 5983SOL    HW218849   4.585   1.327   0.342
 5984SOL     OW18850   4.342   1.567   1.284
 5984SOL    HW118851   4.337   1.649   1.341
 5984SOL    HW218852   4.431   1.564   1.239
 5985SOL     OW18853   5.076   0.052   0.168
 5985SOL    HW118854   5.111   0.011   0.084
 5985SOL    HW218855   4.986   0.014   0.188
 5986SOL     OW18856   5.024   0.453   0.691
 5986SOL    HW118857   4.965   0.533   0.695
 5986SOL    HW218858   5.039   0.418   0.784
 5987SOL     OW18859   5.317   0.221   0.882
 5987SOL    HW118860   5.233   0.220   0.936
 5987SOL    HW218861   5.319   0.304   0.826
 5988SOL     OW18862   3.763   1.077   0.300
 5988SOL    HW118863   3.862   1.066   0.291
 5988SOL    HW218864   3.723   0.991   0.332
 5989SOL     OW18865   4.599   1.646   0.337
 5989SOL    HW118866   4.522   1.611   0.283
 5989SOL    HW218867   4.567   1.717   0.399
 5990SOL     OW18868   3.954   0.628   1.975
 5990SOL    HW118869   3.861   0.626   2.012
 5990SOL    HW218870   3.955   0.589   1.883
 5991SOL     OW18871   3.949   0.275   2.858
 5991SOL    HW118872   3.984   0.258   2.950
 5991SOL    HW218873   3.861   0.230   2.846
 5992SOL     OW18874   3.743   0.368   2.509
 5992SOL    HW118875   3.661   0.411   2.548
 5992SOL    HW218876   3.715   0.295   2.446
 5993SOL     OW18877   4.293   1.275   3.027
 5993SOL    HW118878   4.200   1.268   2.990
 5993SOL    HW218879   4.304   1.364   3.071
 5994SOL     OW18880   5.279   1.511   2.565
 5994SOL    HW118881   5.222   1.495   2.646
 5994SOL    HW218882   5.220   1.521   2.485
 5995SOL     OW18883   4.859   0.703   2.579
 5995SOL    HW118884   4.916   0.781   2.554
 5995SOL    HW218885   4.799   0.729   2.655
 5996SOL     OW18886   5.479   0.607   2.093
 5996SOL    HW118887   5.467   0.594   1.994
 5996SOL    HW218888   5.449   0.526   2.142
 5997SOL     OW18889   4.492   1.144   2.885
 5997SOL    HW118890   4.414   1.161   2.945
 5997SOL    HW218891   4.526   1.231   2.849
 5998SOL     OW18892   4.574   0.798   3.685
 5998SOL    HW118893   4.570   0.874   3.750
 5998SOL    HW218894   4.596   0.834   3.594
 5999SOL     OW18895   4.409   1.012   2.527
 5999SOL    HW118896   4.478   0.996   2.597
 5999SOL    HW218897   4.336   1.069   2.565
 6000SOL     OW18898   4.410   1.161   3.665
 6000SOL    HW118899   4.470   1.240   3.679
 6000SOL    HW218900   4.324   1.192   3.624
 6001SOL     OW18901   4.059   1.435   2.923
 6001SOL    HW118902   3.981   1.404   2.870
 6001SOL    HW218903   4.117   1.493   2.866
 6002SOL     OW18904   5.184   1.505   3.201
 6002SOL    HW118905   5.208   1.599   3.227
 6002SOL    HW218906   5.168   1.451   3.283
 6003SOL     OW18907   4.162   0.392   3.361
 6003SOL    HW118908   4.244   0.336   3.370
 6003SOL    HW218909   4.081   0.334   3.365
 6004SOL     OW18910   5.327   0.447   2.599
 6004SOL    HW118911   5.253   0.493   2.549
 6004SOL    HW218912   5.378   0.515   2.652
 6005SOL     OW18913   3.955   1.713   2.345
 6005SOL    HW118914   3.989   1.790   2.399
 6005SOL    HW218915   3.999   1.713   2.255
 6006SOL     OW18916   4.851   1.341   3.552
 6006SOL    HW118917   4.898   1.341   3.640
 6006SOL    HW218918   4.803   1.254   3.541
 6007SOL     OW18919   3.954   1.434   2.400
 6007SOL    HW118920   3.928   1.530   2.400
 6007SOL    HW218921   3.883   1.380   2.445
 6008SOL     OW18922   3.964   1.091   2.748
 6008SOL    HW118923   3.978   1.007   2.800
 6008SOL    HW218924   3.909   1.155   2.803
 6009SOL     OW18925   4.344   1.786   3.301
 6009SOL    HW118926   4.252   1.769   3.336
 6009SOL    HW218927   4.372   1.878   3.327
 6010SOL     OW18928   4.330   0.964   1.985
 6010SOL    HW118929   4.337   1.048   1.931
 6010SOL    HW218930   4.376   0.977   2.073
 6011SOL     OW18931   5.318   0.114   3.342
 6011SOL    HW118932   5.300   0.181   3.270
 6011SOL    HW218933   5.315   0.160   3.431
 6012SOL     OW18934   3.846   0.643   2.425
 6012SOL    HW118935   3.801   0.555   2.442
 6012SOL    HW218936   3.845   0.697   2.509
 6013SOL     OW18937   5.566   1.767   2.221
 6013SOL    HW118938   5.620   1.738   2.301
 6013SOL    HW218939   5.596   1.857   2.192
 6014SOL     OW18940   3.751   1.596   1.979
 6014SOL    HW118941   3.732   1.500   2.000
 6014SOL    HW218942   3.718   1.654   2.054
 6015SOL     OW18943   5.413   0.922   2.474
 6015SOL    HW118944   5.508   0.893   2.482
 6015SOL    HW218945   5.405   0.987   2.399
 6016SOL     OW18946   5.365   1.108   2.294
 6016SOL    HW118947   5.451   1.110   2.242
 6016SOL    HW218948   5.379   1.155   2.382
 6017SOL     OW18949   3.837   0.737   3.459
 6017SOL    HW118950   3.925   0.724   3.504
 6017SOL    HW218951   3.824   0.834   3.437
 6018SOL     OW18952   4.337   1.365   2.588
 6018SOL    HW118953   4.288   1.278   2.597
 6018SOL    HW218954   4.314   1.408   2.501
 6019SOL     OW18955   5.017   1.228   3.285
 6019SOL    HW118956   5.054   1.155   3.227
 6019SOL    HW218957   5.069   1.233   3.370
 6020SOL     OW18958   4.533   0.004   2.364
 6020SOL    HW118959   4.573   0.095   2.355
 6020SOL    HW218960   4.433   0.012   2.370
 6021SOL     OW18961   3.921   0.976   3.126
 6021SOL    HW118962   4.010   0.931   3.112
 6021SOL    HW218963   3.848   0.911   3.107
 6022SOL     OW18964   5.249   0.999   2.052
 6022SOL    HW118965   5.186   0.923   2.065
 6022SOL    HW218966   5.297   1.017   2.138
 6023SOL     OW18967   4.911   1.792   3.478
 6023SOL    HW118968   4.935   1.852   3.402
 6023SOL    HW218969   4.918   1.697   3.448
 6024SOL     OW18970   4.041   0.251   3.663
 6024SOL    HW118971   4.112   0.322   3.669
 6024SOL    HW218972   3.953   0.290   3.691
 6025SOL     OW18973   5.190   1.417   2.815
 6025SOL    HW118974   5.131   1.423   2.895
 6025SOL    HW218975   5.175   1.329   2.769
 6026SOL     OW18976   5.391   1.714   2.434
 6026SOL    HW118977   5.350   1.691   2.346
 6026SOL    HW218978   5.373   1.640   2.499
 6027SOL     OW18979   4.322   0.729   2.132
 6027SOL    HW118980   4.346   0.798   2.064
 6027SOL    HW218981   4.244   0.762   2.186
 6028SOL     OW18982   5.005   0.345   2.806
 6028SOL    HW118983   4.919   0.295   2.793
 6028SOL    HW218984   5.067   0.291   2.862
 6029SOL     OW18985   5.300   1.662   2.169
 6029SOL    HW118986   5.389   1.708   2.172
 6029SOL    HW218987   5.279   1.638   2.074
 6030SOL     OW18988   4.531   0.605   3.327
 6030SOL    HW118989   4.484   0.602   3.416
 6030SOL    HW218990   4.480   0.550   3.261
 6031SOL     OW18991   5.118   0.469   3.536
 6031SOL    HW118992   5.098   0.512   3.624
 6031SOL    HW218993   5.196   0.407   3.545
 6032SOL     OW18994   4.697   0.890   3.434
 6032SOL    HW118995   4.743   0.806   3.405
 6032SOL    HW218996   4.641   0.924   3.359
 6033SOL     OW18997   4.715   0.410   3.104
 6033SOL    HW118998   4.638   0.444   3.158
 6033SOL    HW218999   4.681   0.359   3.025
 6034SOL     OW19000   4.765   0.701   2.291
 6034SOL    HW119001   4.791   0.697   2.387
 6034SOL    HW219002   4.680   0.650   2.277
 6035SOL     OW19003   3.800   0.811   2.651
 6035SOL    HW119004   3.899   0.799   2.660
 6035SOL    HW219005   3.776   0.906   2.672
 6036SOL     OW19006   3.854   1.821   3.433
 6036SOL    HW119007   3.844   1.806   3.532
 6036SOL    HW219008   3.768   1.857   3.397
 6037SOL     OW19009   4.589   0.348   2.057
 6037SOL    HW119010   4.648   0.411   2.008
 6037SOL    HW219011   4.608   0.254   2.028
 6038SOL     OW19012   5.443   0.585   3.693
 6038SOL    HW119013   5.417   0.674   3.657
 6038SOL    HW219014   5.441   0.517   3.620
 6039SOL     OW19015   5.086   1.144   2.407
 6039SOL    HW119016   5.169   1.115   2.359
 6039SOL    HW219017   5.037   1.211   2.351
 6040SOL     OW19018   4.274   0.196   2.747
 6040SOL    HW119019   4.269   0.191   2.847
 6040SOL    HW219020   4.276   0.292   2.718
 6041SOL     OW19021   4.732   1.456   2.339
 6041SOL    HW119022   4.686   1.528   2.287
 6041SOL    HW219023   4.728   1.476   2.437
 6042SOL     OW19024   4.075   1.801   2.715
 6042SOL    HW119025   4.125   1.715   2.721
 6042SOL    HW219026   4.140   1.878   2.712
 6043SOL     OW19027   5.519   1.066   2.735
 6043SOL    HW119028   5.457   1.051   2.659
 6043SOL    HW219029   5.467   1.077   2.820
 6044SOL     OW19030   4.951   1.550   3.368
 6044SOL    HW119031   4.957   1.473   3.432
 6044SOL    HW219032   4.899   1.524   3.288
 6045SOL     OW19033   4.045   0.943   2.104
 6045SOL    HW119034   4.127   0.982   2.062
 6045SOL    HW219035   4.018   0.861   2.055
 6046SOL     OW19036   5.182   0.735   2.590
 6046SOL    HW119037   5.177   0.670   2.665
 6046SOL    HW219038   5.262   0.794   2.603
 6047SOL     OW19039   4.185   1.266   3.589
 6047SOL    HW119040   4.135   1.267   3.503
 6047SOL    HW219041   4.122   1.248   3.665
 6048SOL     OW19042   4.835   1.776   2.099
 6048SOL    HW119043   4.775   1.714   2.149
 6048SOL    HW219044   4.866   1.732   2.014
 6049SOL     OW19045   3.926   0.285   3.360
 6049SOL    HW119046   3.846   0.345   3.347
 6049SOL    HW219047   3.916   0.236   3.446
 6050SOL     OW19048   5.356   1.377   1.943
 6050SOL    HW119049   5.324   1.471   1.933
 6050SOL    HW219050   5.280   1.314   1.931
 6051SOL     OW19051   4.188   1.743   2.185
 6051SOL    HW119052   4.221   1.782   2.271
 6051SOL    HW219053   4.264   1.736   2.120
 6052SOL     OW19054   5.124   0.107   2.288
 6052SOL    HW119055   5.100   0.070   2.198
 6052SOL    HW219056   5.223   0.123   2.292
 6053SOL     OW19057   3.973   1.785   3.103
 6053SOL    HW119058   4.030   1.720   3.153
 6053SOL    HW219059   3.957   1.752   3.010
 6054SOL     OW19060   4.664   1.698   2.766
 6054SOL    HW119061   4.744   1.641   2.787
 6054SOL    HW219062   4.615   1.658   2.689
 6055SOL     OW19063   4.106   0.700   2.342
 6055SOL    HW119064   4.151   0.610   2.339
 6055SOL    HW219065   4.012   0.689   2.375
 6056SOL     OW19066   5.271   0.222   3.591
 6056SOL    HW119067   5.266   0.259   3.683
 6056SOL    HW219068   5.199   0.153   3.579
 6057SOL     OW19069   4.338   0.122   1.979
 6057SOL    HW119070   4.436   0.100   1.986
 6057SOL    HW219071   4.307   0.105   1.886
 6058SOL     OW19072   4.505   0.264   3.611
 6058SOL    HW119073   4.572   0.203   3.654
 6058SOL    HW219074   4.432   0.283   3.676
 6059SOL     OW19075   4.612   1.514   3.057
 6059SOL    HW119076   4.589   1.489   2.963
 6059SOL    HW219077   4.673   1.445   3.096
 6060SOL     OW19078   5.075   0.590   3.295
 6060SOL    HW119079   5.103   0.547   3.380
 6060SOL    HW219080   5.100   0.686   3.296
 6061SOL     OW19081   4.527   1.402   2.786
 6061SOL    HW119082   4.617   1.416   2.744
 6061SOL    HW219083   4.456   1.404   2.715
 6062SOL     OW19084   4.646   0.503   2.761
 6062SOL    HW119085   4.621   0.494   2.665
 6062SOL    HW219086   4.694   0.421   2.792
 6063SOL     OW19087   4.263   0.064   2.374
 6063SOL    HW119088   4.182   0.065   2.432
 6063SOL    HW219089   4.266   0.147   2.319
 6064SOL     OW19090   5.158   1.188   1.903
 6064SOL    HW119091   5.190   1.112   1.960
 6064SOL    HW219092   5.066   1.215   1.933
 6065SOL     OW19093   4.021   0.035   2.033
 6065SOL    HW119094   4.070   0.119   2.012
 6065SOL    HW219095   4.083  -0.030   2.078
 6066SOL     OW19096   4.659   0.236   2.342
 6066SOL    HW119097   4.611   0.277   2.264
 6066SOL    HW219098   4.758   0.234   2.323
 6067SOL     OW19099   4.800   0.683   3.326
 6067SOL    HW119100   4.720   0.622   3.329
 6067SOL    HW219101   4.881   0.630   3.302
 6068SOL     OW19102   4.951   1.570   2.655
 6068SOL    HW119103   4.972   1.644   2.590
 6068SOL    HW219104   5.019   1.570   2.728
 6069SOL     OW19105   4.183   1.152   2.603
 6069SOL    HW119106   4.112   1.125   2.668
 6069SOL    HW219107   4.157   1.124   2.510
 6070SOL     OW19108   4.995   1.797   2.453
 6070SOL    HW119109   5.039   1.861   2.389
 6070SOL    HW219110   4.945   1.849   2.523
 6071SOL     OW19111   4.756   0.549   1.878
 6071SOL    HW119112   4.715   0.631   1.839
 6071SOL    HW219113   4.820   0.575   1.951
 6072SOL     OW19114   3.802   0.556   3.248
 6072SOL    HW119115   3.894   0.555   3.207
 6072SOL    HW219116   3.796   0.630   3.315
 6073SOL     OW19117   4.285   0.222   3.009
 6073SOL    HW119118   4.323   0.138   3.046
 6073SOL    HW219119   4.197   0.241   3.053
 6074SOL     OW19120   4.590   0.454   2.504
 6074SOL    HW119121   4.558   0.526   2.442
 6074SOL    HW219122   4.614   0.373   2.451
 6075SOL     OW19123   4.741   0.039   2.615
 6075SOL    HW119124   4.669   0.044   2.546
 6075SOL    HW219125   4.717  -0.030   2.684
 6076SOL     OW19126   5.153   1.173   2.729
 6076SOL    HW119127   5.098   1.089   2.722
 6076SOL    HW219128   5.179   1.202   2.637
 6077SOL     OW19129   5.190   0.590   2.854
 6077SOL    HW119130   5.160   0.495   2.861
 6077SOL    HW219131   5.263   0.606   2.920
 6078SOL     OW19132   5.581   0.833   2.239
 6078SOL    HW119133   5.623   0.769   2.303
 6078SOL    HW219134   5.543   0.782   2.161
 6079SOL     OW19135   4.212   1.385   2.036
 6079SOL    HW119136   4.125   1.370   2.083
 6079SOL    HW219137   4.195   1.411   1.941
 6080SOL     OW19138   5.388   1.280   2.519
 6080SOL    HW119139   5.487   1.288   2.533
 6080SOL    HW219140   5.343   1.364   2.550
 6081SOL     OW19141   5.114   0.575   1.940
 6081SOL    HW119142   5.060   0.554   2.021
 6081SOL    HW219143   5.205   0.534   1.949
 6082SOL     OW19144   4.251   0.256   2.190
 6082SOL    HW119145   4.278   0.197   2.115
 6082SOL    HW219146   4.251   0.351   2.159
 6083SOL     OW19147   5.478   1.223   3.450
 6083SOL    HW119148   5.569   1.184   3.437
 6083SOL    HW219149   5.486   1.319   3.474
 6084SOL     OW19150   4.788   1.347   3.202
 6084SOL    HW119151   4.708   1.324   3.257
 6084SOL    HW219152   4.871   1.321   3.251
 6085SOL     OW19153   5.316   1.629   3.487
 6085SOL    HW119154   5.343   1.663   3.397
 6085SOL    HW219155   5.395   1.591   3.533
 6086SOL     OW19156   4.835   1.195   2.962
 6086SOL    HW119157   4.795   1.239   3.043
 6086SOL    HW219158   4.794   1.232   2.879
 6087SOL     OW19159   5.362   1.099   2.941
 6087SOL    HW119160   5.367   1.180   3.000
 6087SOL    HW219161   5.276   1.101   2.890
 6088SOL     OW19162   4.639   0.089   3.264
 6088SOL    HW119163   4.664   0.069   3.169
 6088SOL    HW219164   4.711   0.145   3.306
 6089SOL     OW19165   4.704   1.116   3.581
 6089SOL    HW119166   4.605   1.122   3.591
 6089SOL    HW219167   4.727   1.036   3.525
 6090SOL     OW19168   4.429   1.050   2.230
 6090SOL    HW119169   4.415   1.057   2.329
 6090SOL    HW219170   4.513   0.999   2.212
 6091SOL     OW19171   4.134   0.813   3.113
 6091SOL    HW119172   4.220   0.825   3.163
 6091SOL    HW219173   4.092   0.726   3.140
 6092SOL     OW19174   4.998   0.386   3.124
 6092SOL    HW119175   5.019   0.460   3.188
 6092SOL    HW219176   4.909   0.403   3.081
 6093SOL     OW19177   3.788   1.564   3.193
 6093SOL    HW119178   3.742   1.646   3.159
 6093SOL    HW219179   3.886   1.583   3.202
 6094SOL     OW19180   4.091   1.100   2.363
 6094SOL    HW119181   4.084   1.183   2.307
 6094SOL    HW219182   4.095   1.020   2.303
 6095SOL     OW19183   4.290   0.537   2.727
 6095SOL    HW119184   4.302   0.603   2.653
 6095SOL    HW219185   4.336   0.571   2.810
 6096SOL     OW19186   4.976   1.348   2.250
 6096SOL    HW119187   5.026   1.425   2.290
 6096SOL    HW219188   4.881   1.350   2.282
 6097SOL     OW19189   4.996   1.445   3.004
 6097SOL    HW119190   5.043   1.458   3.091
 6097SOL    HW219191   4.930   1.371   3.013
 6098SOL     OW19192   5.306   0.639   2.334
 6098SOL    HW119193   5.275   0.700   2.407
 6098SOL    HW219194   5.356   0.691   2.265
 6099SOL     OW19195   4.078   1.510   3.191
 6099SOL    HW119196   4.057   1.466   3.104
 6099SOL    HW219197   4.175   1.536   3.194
 6100SOL     OW19198   4.126   0.751   3.460
 6100SOL    HW119199   4.194   0.806   3.413
 6100SOL    HW219200   4.166   0.663   3.487
 6101SOL     OW19201   5.311   0.779   3.532
 6101SOL    HW119202   5.219   0.817   3.527
 6101SOL    HW219203   5.371   0.826   3.467
 6102SOL     OW19204   4.737   0.105   3.632
 6102SOL    HW119205   4.743   0.190   3.580
 6102SOL    HW219206   4.769   0.029   3.575
 6103SOL     OW19207   4.228   0.050   3.602
 6103SOL    HW119208   4.186  -0.007   3.532
 6103SOL    HW219209   4.162   0.119   3.634
 6104SOL     OW19210   4.297   0.870   2.891
 6104SOL    HW119211   4.341   0.959   2.882
 6104SOL    HW219212   4.234   0.870   2.968
 6105SOL     OW19213   5.084   0.862   2.907
 6105SOL    HW119214   5.009   0.862   2.841
 6105SOL    HW219215   5.121   0.770   2.916
 6106SOL     OW19216   4.933   0.525   2.137
 6106SOL    HW119217   4.946   0.441   2.191
 6106SOL    HW219218   4.904   0.599   2.197
 6107SOL     OW19219   4.031   0.213   3.093
 6107SOL    HW119220   4.008   0.250   3.183
 6107SOL    HW219221   4.001   0.118   3.087
 6108SOL     OW19222   3.761   1.310   3.144
 6108SOL    HW119223   3.814   1.261   3.212
 6108SOL    HW219224   3.783   1.408   3.149
 6109SOL     OW19225   4.456   0.634   2.926
 6109SOL    HW119226   4.515   0.608   2.850
 6109SOL    HW219227   4.428   0.730   2.915
 6110SOL     OW19228   5.452   0.935   3.716
 6110SOL    HW119229   5.406   0.928   3.627
 6110SOL    HW219230   5.390   0.979   3.782
 6111SOL     OW19231   4.031   0.063   2.480
 6111SOL    HW119232   4.020   0.157   2.513
 6111SOL    HW219233   4.026   0.000   2.557
 6112SOL     OW19234   5.346   0.367   2.236
 6112SOL    HW119235   5.348   0.291   2.300
 6112SOL    HW219236   5.298   0.444   2.276
 6113SOL     OW19237   4.747   0.766   2.828
 6113SOL    HW119238   4.762   0.787   2.924
 6113SOL    HW219239   4.717   0.671   2.819
 6114SOL     OW19240   4.704   1.573   3.562
 6114SOL    HW119241   4.684   1.617   3.474
 6114SOL    HW219242   4.743   1.482   3.546
 6115SOL     OW19243   5.583   1.518   3.467
 6115SOL    HW119244   5.597   1.545   3.372
 6115SOL    HW219245   5.666   1.540   3.520
 6116SOL     OW19246   4.074   0.898   3.666
 6116SOL    HW119247   4.150   0.942   3.714
 6116SOL    HW219248   4.109   0.851   3.584
 6117SOL     OW19249   5.264   0.274   1.987
 6117SOL    HW119250   5.203   0.199   2.010
 6117SOL    HW219251   5.286   0.326   2.070
 6118SOL     OW19252   5.027   0.838   1.904
 6118SOL    HW119253   5.061   0.745   1.919
 6118SOL    HW219254   5.045   0.865   1.809
 6119SOL     OW19255   4.792   1.333   2.711
 6119SOL    HW119256   4.799   1.249   2.656
 6119SOL    HW219257   4.854   1.402   2.675
 6120SOL     OW19258   4.043   0.810   2.811
 6120SOL    HW119259   4.136   0.846   2.816
 6120SOL    HW219260   4.037   0.725   2.863
 6121SOL     OW19261   4.063   0.509   2.868
 6121SOL    HW119262   4.011   0.426   2.851
 6121SOL    HW219263   4.140   0.514   2.804
 6122SOL     OW19264   4.862   0.380   3.540
 6122SOL    HW119265   4.817   0.443   3.604
 6122SOL    HW219266   4.955   0.411   3.523
 6123SOL     OW19267   4.884   0.207   3.339
 6123SOL    HW119268   4.884   0.271   3.416
 6123SOL    HW219269   4.912   0.255   3.256
 6124SOL     OW19270   3.732   1.326   2.062
 6124SOL    HW119271   3.639   1.347   2.031
 6124SOL    HW219272   3.742   1.227   2.075
 6125SOL     OW19273   3.812   1.801   2.789
 6125SOL    HW119274   3.770   1.715   2.762
 6125SOL    HW219275   3.906   1.804   2.755
 6126SOL     OW19276   4.228   1.568   2.772
 6126SOL    HW119277   4.294   1.642   2.781
 6126SOL    HW219278   4.272   1.489   2.730
 6127SOL     OW19279   4.726   0.796   3.100
 6127SOL    HW119280   4.767   0.764   3.186
 6127SOL    HW219281   4.630   0.769   3.097
 6128SOL     OW19282   3.764   0.544   2.976
 6128SOL    HW119283   3.849   0.511   2.935
 6128SOL    HW219284   3.777   0.559   3.074
 6129SOL     OW19285   3.913   0.520   3.584
 6129SOL    HW119286   3.972   0.480   3.514
 6129SOL    HW219287   3.855   0.591   3.543
 6130SOL     OW19288   5.093   0.950   3.522
 6130SOL    HW119289   5.132   1.039   3.542
 6130SOL    HW219290   5.103   0.930   3.425
 6131SOL     OW19291   4.539   0.572   2.187
 6131SOL    HW119292   4.546   0.483   2.141
 6131SOL    HW219293   4.445   0.606   2.179
 6132SOL     OW19294   5.381   0.604   3.068
 6132SOL    HW119295   5.343   0.535   3.130
 6132SOL    HW219296   5.463   0.568   3.024
 6133SOL     OW19297   3.976   1.564   3.606
 6133SOL    HW119298   3.946   1.621   3.682
 6133SOL    HW219299   3.969   1.467   3.632
 6134SOL     OW19300   4.395   0.464   3.131
 6134SOL    HW119301   4.361   0.375   3.101
 6134SOL    HW219302   4.421   0.518   3.051
 6135SOL     OW19303   4.654   1.678   3.327
 6135SOL    HW119304   4.630   1.660   3.232
 6135SOL    HW219305   4.684   1.772   3.337
 6136SOL     OW19306   4.197   0.500   2.053
 6136SOL    HW119307   4.258   0.580   2.057
 6136SOL    HW219308   4.102   0.531   2.060
 6137SOL     OW19309   3.883   1.137   3.328
 6137SOL    HW119310   3.905   1.076   3.404
 6137SOL    HW219311   3.893   1.088   3.242
 6138SOL     OW19312   5.071   1.059   3.096
 6138SOL    HW119313   5.095   0.996   3.022
 6138SOL    HW219314   4.981   1.099   3.078
 6139SOL     OW19315   5.026   0.855   2.171
 6139SOL    HW119316   4.940   0.824   2.213
 6139SOL    HW219317   5.022   0.841   2.072
 6140SOL     OW19318   5.483   1.747   3.016
 6140SOL    HW119319   5.544   1.777   2.943
 6140SOL    HW219320   5.445   1.658   2.994
 6141SOL     OW19321   4.976   1.731   2.990
 6141SOL    HW119322   5.060   1.736   2.936
 6141SOL    HW219323   4.953   1.635   3.008
 6142SOL     OW19324   3.807   1.258   2.884
 6142SOL    HW119325   3.802   1.257   2.984
 6142SOL    HW219326   3.724   1.217   2.846
 6143SOL     OW19327   4.412   1.662   3.578
 6143SOL    HW119328   4.356   1.743   3.587
 6143SOL    HW219329   4.464   1.666   3.492
 6144SOL     OW19330   5.450   0.135   2.385
 6144SOL    HW119331   5.523   0.118   2.318
 6144SOL    HW219332   5.419   0.048   2.423
 6145SOL     OW19333   5.112   1.573   2.339
 6145SOL    HW119334   5.179   1.585   2.265
 6145SOL    HW219335   5.072   1.662   2.362
 6146SOL     OW19336   3.854   1.794   3.713
 6146SOL    HW119337   3.813   1.720   3.766
 6146SOL    HW219338   3.918   1.845   3.771
 6147SOL     OW19339   5.004   0.927   2.534
 6147SOL    HW119340   5.064   0.846   2.536
 6147SOL    HW219341   5.044   0.996   2.474
 6148SOL     OW19342   4.554   1.273   3.284
 6148SOL    HW119343   4.549   1.306   3.379
 6148SOL    HW219344   4.468   1.292   3.238
 6149SOL     OW19345   4.396   1.616   2.016
 6149SOL    HW119346   4.405   1.626   1.917
 6149SOL    HW219347   4.356   1.527   2.037
 6150SOL     OW19348   5.374   1.720   3.256
 6150SOL    HW119349   5.427   1.730   3.172
 6150SOL    HW219350   5.347   1.810   3.290
 6151SOL     OW19351   5.565   0.175   2.825
 6151SOL    HW119352   5.604   0.090   2.789
 6151SOL    HW219353   5.467   0.177   2.806
 6152SOL     OW19354   3.987   0.326   2.582
 6152SOL    HW119355   3.908   0.377   2.548
 6152SOL    HW219356   3.978   0.311   2.680
 6153SOL     OW19357   4.918   1.612   1.893
 6153SOL    HW119358   4.924   1.519   1.930
 6153SOL    HW219359   4.859   1.612   1.813
 6154SOL     OW19360   4.546   1.002   3.234
 6154SOL    HW119361   4.586   1.001   3.142
 6154SOL    HW219362   4.556   1.094   3.274
 6155SOL     OW19363   4.640   0.910   2.153
 6155SOL    HW119364   4.703   0.948   2.085
 6155SOL    HW219365   4.680   0.827   2.192
 6156SOL     OW19366   5.228   1.607   1.906
 6156SOL    HW119367   5.136   1.644   1.913
 6156SOL    HW219368   5.266   1.627   1.816
 6157SOL     OW19369   4.096   1.288   3.352
 6157SOL    HW119370   4.083   1.381   3.318
 6157SOL    HW219371   4.012   1.236   3.339
 6158SOL     OW19372   5.338   1.292   3.151
 6158SOL    HW119373   5.398   1.295   3.231
 6158SOL    HW219374   5.263   1.356   3.164
 6159SOL     OW19375   4.763   1.098   2.558
 6159SOL    HW119376   4.693   1.051   2.612
 6159SOL    HW219377   4.822   1.030   2.515
 6160SOL     OW19378   4.738   0.236   2.833
 6160SOL    HW119379   4.730   0.200   2.740
 6160SOL    HW219380   4.736   0.160   2.898
 6161SOL     OW19381   4.314   1.487   2.353
 6161SOL    HW119382   4.356   1.429   2.283
 6161SOL    HW219383   4.270   1.566   2.309
 6162SOL     OW19384   5.433   0.385   3.243
 6162SOL    HW119385   5.506   0.454   3.247
 6162SOL    HW219386   5.461   0.310   3.184
 6163SOL     OW19387   3.979   1.348   2.152
 6163SOL    HW119388   3.883   1.349   2.125
 6163SOL    HW219389   3.991   1.401   2.236
 6164SOL     OW19390   3.829   1.013   3.588
 6164SOL    HW119391   3.752   0.980   3.642
 6164SOL    HW219392   3.914   0.983   3.630
 6165SOL     OW19393   4.396   0.203   3.351
 6165SOL    HW119394   4.486   0.187   3.311
 6165SOL    HW219395   4.404   0.208   3.450
 6166SOL     OW19396   3.799   0.345   1.895
 6166SOL    HW119397   3.707   0.317   1.866
 6166SOL    HW219398   3.830   0.422   1.839
 6167SOL     OW19399   5.164   0.856   3.260
 6167SOL    HW119400   5.107   0.908   3.197
 6167SOL    HW219401   5.260   0.868   3.236
 6168SOL     OW19402   3.796   0.166   2.180
 6168SOL    HW119403   3.779   0.249   2.126
 6168SOL    HW219404   3.886   0.129   2.158
 6169SOL     OW19405   4.907   1.335   1.981
 6169SOL    HW119406   4.808   1.324   1.983
 6169SOL    HW219407   4.941   1.350   2.074
 6170SOL     OW19408   4.337   0.842   3.293
 6170SOL    HW119409   4.393   0.923   3.276
 6170SOL    HW219410   4.396   0.762   3.296
 6171SOL     OW19411   5.217   1.767   2.821
 6171SOL    HW119412   5.250   1.831   2.752
 6171SOL    HW219413   5.283   1.761   2.896
 6172SOL     OW19414   4.440   0.565   3.570
 6172SOL    HW119415   4.459   0.630   3.644
 6172SOL    HW219416   4.500   0.485   3.579
 6173SOL     OW19417   5.174   1.220   3.495
 6173SOL    HW119418   5.165   1.210   3.594
 6173SOL    HW219419   5.270   1.213   3.469
 6174SOL     OW19420   4.114   1.741   3.422
 6174SOL    HW119421   4.023   1.782   3.420
 6174SOL    HW219422   4.107   1.647   3.454
 6175SOL     OW19423   5.398   0.883   3.116
 6175SOL    HW119424   5.371   0.794   3.079
 6175SOL    HW219425   5.399   0.951   3.043
 6176SOL     OW19426   4.949   0.325   2.311
 6176SOL    HW119427   5.014   0.251   2.300
 6176SOL    HW219428   4.969   0.375   2.395
 6177SOL     OW19429   4.318   0.745   2.514
 6177SOL    HW119430   4.368   0.830   2.495
 6177SOL    HW219431   4.230   0.747   2.466
 6178SOL     OW19432   5.501   0.342   3.504
 6178SOL    HW119433   5.484   0.373   3.410
 6178SOL    HW219434   5.417   0.305   3.542
 6179SOL     OW19435   5.454   0.934   3.379
 6179SOL    HW119436   5.492   1.025   3.394
 6179SOL    HW219437   5.446   0.917   3.280
 6180SOL     OW19438   4.583   1.374   1.878
 6180SOL    HW119439   4.537   1.389   1.966
 6180SOL    HW219440   4.627   1.459   1.848
 6181SOL     OW19441   4.385   1.790   2.815
 6181SOL    HW119442   4.339   1.878   2.802
 6181SOL    HW219443   4.484   1.802   2.808
 6182SOL     OW19444   4.583   0.956   2.723
 6182SOL    HW119445   4.637   0.887   2.771
 6182SOL    HW219446   4.551   1.025   2.789
 6183SOL     OW19447   4.807   0.984   1.949
 6183SOL    HW119448   4.784   1.037   1.867
 6183SOL    HW219449   4.888   0.928   1.930
 6184SOL     OW19450   5.585   1.569   2.713
 6184SOL    HW119451   5.514   1.557   2.643
 6184SOL    HW219452   5.586   1.490   2.773
 6185SOL     OW19453   3.945   1.314   3.706
 6185SOL    HW119454   3.880   1.241   3.685
 6185SOL    HW219455   3.949   1.328   3.804
 6186SOL     OW19456   3.803   1.240   2.515
 6186SOL    HW119457   3.802   1.193   2.603
 6186SOL    HW219458   3.885   1.212   2.464
 6187SOL     OW19459   4.396   1.391   3.486
 6187SOL    HW119460   4.318   1.341   3.524
 6187SOL    HW219461   4.393   1.486   3.517
 6188SOL     OW19462   5.548   0.192   3.089
 6188SOL    HW119463   5.544   0.102   3.133
 6188SOL    HW219464   5.551   0.181   2.990
 6189SOL     OW19465   4.152   0.424   2.382
 6189SOL    HW119466   4.182   0.352   2.320
 6189SOL    HW219467   4.113   0.384   2.465
 6190SOL     OW19468   5.429   1.487   2.966
 6190SOL    HW119469   5.336   1.462   2.939
 6190SOL    HW219470   5.455   1.437   3.048
 6191SOL     OW19471   4.041   0.547   3.142
 6191SOL    HW119472   4.079   0.488   3.214
 6191SOL    HW219473   4.081   0.521   3.054
 6192SOL     OW19474   4.536   1.586   2.549
 6192SOL    HW119475   4.568   1.596   2.455
 6192SOL    HW219476   4.457   1.524   2.551
 6193SOL     OW19477   5.148   0.214   2.974
 6193SOL    HW119478   5.200   0.149   3.029
 6193SOL    HW219479   5.099   0.277   3.035
 6194SOL     OW19480   4.725   0.034   3.016
 6194SOL    HW119481   4.662  -0.038   2.985
 6194SOL    HW219482   4.818  -0.002   3.016
 6195SOL     OW19483   4.494   1.330   2.163
 6195SOL    HW119484   4.448   1.243   2.180
 6195SOL    HW219485   4.585   1.327   2.204
 6196SOL     OW19486   4.342   1.567   3.146
 6196SOL    HW119487   4.337   1.649   3.203
 6196SOL    HW219488   4.431   1.564   3.101
 6197SOL     OW19489   5.076   0.052   2.030
 6197SOL    HW119490   5.111   0.011   1.946
 6197SOL    HW219491   4.986   0.014   2.050
 6198SOL     OW19492   5.024   0.453   2.553
 6198SOL    HW119493   4.965   0.533   2.557
 6198SOL    HW219494   5.039   0.418   2.646
 6199SOL     OW19495   5.317   0.221   2.744
 6199SOL    HW119496   5.233   0.220   2.798
 6199SOL    HW219497   5.319   0.304   2.688
 6200SOL     OW19498   3.763   1.077   2.162
 6200SOL    HW119499   3.862   1.066   2.153
 6200SOL    HW219500   3.723   0.991   2.194
 6201SOL     OW19501   4.599   1.646   2.199
 6201SOL    HW119502   4.522   1.611   2.145
 6201SOL    HW219503   4.567   1.717   2.261
 6202SOL     OW19504   3.954   0.628   3.837
 6202SOL    HW119505   3.861   0.626   3.874
 6202SOL    HW219506   3.955   0.589   3.745
 6203SOL     OW19507   3.949   0.275   4.720
 6203SOL    HW119508   3.984   0.258   4.812
 6203SOL    HW219509   3.861   0.230   4.708
 6204SOL     OW19510   3.743   0.368   4.371
 6204SOL    HW119511   3.661   0.411   4.410
 6204SOL    HW219512   3.715   0.295   4.308
 6205SOL     OW19513   4.293   1.275   4.889
 6205SOL    HW119514   4.200   1.268   4.852
 6205SOL    HW219515   4.304   1.364   4.933
 6206SOL     OW19516   5.279   1.511   4.427
 6206SOL    HW119517   5.222   1.495   4.508
 6206SOL    HW219518   5.220   1.521   4.347
 6207SOL     OW19519   4.859   0.703   4.441
 6207SOL    HW119520   4.916   0.781   4.416
 6207SOL    HW219521   4.799   0.729   4.517
 6208SOL     OW19522   5.479   0.607   3.955
 6208SOL    HW119523   5.467   0.594   3.856
 6208SOL    HW219524   5.449   0.526   4.004
 6209SOL     OW19525   4.492   1.144   4.747
 6209SOL    HW119526   4.414   1.161   4.807
 6209SOL    HW219527   4.526   1.231   4.711
 6210SOL     OW19528   4.574   0.798   5.547
 6210SOL    HW119529   4.570   0.874   5.612
 6210SOL    HW219530   4.596   0.834   5.456
 6211SOL     OW19531   4.409   1.012   4.389
 6211SOL    HW119532   4.478   0.996   4.459
 6211SOL    HW219533   4.336   1.069   4.427
 6212SOL     OW19534   4.410   1.161   5.527
 6212SOL    HW119535   4.470   1.240   5.541
 6212SOL    HW219536   4.324   1.192   5.486
 6213SOL     OW19537   4.059   1.435   4.785
 6213SOL    HW119538   3.981   1.404   4.732
 6213SOL    HW219539   4.117   1.493   4.728
 6214SOL     OW19540   5.184   1.505   5.063
 6214SOL    HW119541   5.208   1.599   5.089
 6214SOL    HW219542   5.168   1.451   5.145
 6215SOL     OW19543   4.162   0.392   5.223
 6215SOL    HW119544   4.244   0.336   5.232
 6215SOL    HW219545   4.081   0.334   5.227
 6216SOL     OW19546   5.327   0.447   4.461
 6216SOL    HW119547   5.253   0.493   4.411
 6216SOL    HW219548   5.378   0.515   4.514
 6217SOL     OW19549   3.955   1.713   4.207
 6217SOL    HW119550   3.989   1.790   4.261
 6217SOL    HW219551   3.999   1.713   4.117
 6218SOL     OW19552   4.851   1.341   5.414
 6218SOL    HW119553   4.898   1.341   5.502
 6218SOL    HW219554   4.803   1.254   5.403
 6219SOL     OW19555   3.954   1.434   4.262
 6219SOL    HW119556   3.928   1.530   4.262
 6219SOL    HW219557   3.883   1.380   4.307
 6220SOL     OW19558   3.964   1.091   4.610
 6220SOL    HW119559   3.978   1.007   4.662
 6220SOL    HW219560   3.909   1.155   4.665
 6221SOL     OW19561   4.344   1.786   5.163
 6221SOL    HW119562   4.252   1.769   5.198
 6221SOL    HW219563   4.372   1.878   5.189
 6222SOL     OW19564   4.330   0.964   3.847
 6222SOL    HW119565   4.337   1.048   3.793
 6222SOL    HW219566   4.376   0.977   3.935
 6223SOL     OW19567   5.318   0.114   5.204
 6223SOL    HW119568   5.300   0.181   5.132
 6223SOL    HW219569   5.315   0.160   5.293
 6224SOL     OW19570   3.846   0.643   4.287
 6224SOL    HW119571   3.801   0.555   4.304
 6224SOL    HW219572   3.845   0.697   4.371
 6225SOL     OW19573   5.566   1.767   4.083
 6225SOL    HW119574   5.620   1.738   4.163
 6225SOL    HW219575   5.596   1.857   4.054
 6226SOL     OW19576   3.751   1.596   3.841
 6226SOL    HW119577   3.732   1.500   3.862
 6226SOL    HW219578   3.718   1.654   3.916
 6227SOL     OW19579   5.413   0.922   4.336
 6227SOL    HW119580   5.508   0.893   4.344
 6227SOL    HW219581   5.405   0.987   4.261
 6228SOL     OW19582   5.365   1.108   4.156
 6228SOL    HW119583   5.451   1.110   4.104
 6228SOL    HW219584   5.379   1.155   4.244
 6229SOL     OW19585   3.837   0.737   5.321
 6229SOL    HW119586   3.925   0.724   5.366
 6229SOL    HW219587   3.824   0.834   5.299
 6230SOL     OW19588   4.337   1.365   4.450
 6230SOL    HW119589   4.288   1.278   4.459
 6230SOL    HW219590   4.314   1.408   4.363
 6231SOL     OW19591   5.017   1.228   5.147
 6231SOL    HW119592   5.054   1.155   5.089
 6231SOL    HW219593   5.069   1.233   5.232
 6232SOL     OW19594   4.533   0.004   4.226
 6232SOL    HW119595   4.573   0.095   4.217
 6232SOL    HW219596   4.433   0.012   4.232
 6233SOL     OW19597   3.921   0.976   4.988
 6233SOL    HW119598   4.010   0.931   4.974
 6233SOL    HW219599   3.848   0.911   4.969
 6234SOL     OW19600   5.249   0.999   3.914
 6234SOL    HW119601   5.186   0.923   3.927
 6234SOL    HW219602   5.297   1.017   4.000
 6235SOL     OW19603   4.911   1.792   5.340
 6235SOL    HW119604   4.935   1.852   5.264
 6235SOL    HW219605   4.918   1.697   5.310
 6236SOL     OW19606   4.041   0.251   5.525
 6236SOL    HW119607   4.112   0.322   5.531
 6236SOL    HW219608   3.953   0.290   5.553
 6237SOL     OW19609   5.190   1.417   4.677
 6237SOL    HW119610   5.131   1.423   4.757
 6237SOL    HW219611   5.175   1.329   4.631
 6238SOL     OW19612   5.391   1.714   4.296
 6238SOL    HW119613   5.350   1.691   4.208
 6238SOL    HW219614   5.373   1.640   4.361
 6239SOL     OW19615   4.322   0.729   3.994
 6239SOL    HW119616   4.346   0.798   3.926
 6239SOL    HW219617   4.244   0.762   4.048
 6240SOL     OW19618   5.005   0.345   4.668
 6240SOL    HW119619   4.919   0.295   4.655
 6240SOL    HW219620   5.067   0.291   4.724
 6241SOL     OW19621   5.300   1.662   4.031
 6241SOL    HW119622   5.389   1.708   4.034
 6241SOL    HW219623   5.279   1.638   3.936
 6242SOL     OW19624   4.531   0.605   5.189
 6242SOL    HW119625   4.484   0.602   5.278
 6242SOL    HW219626   4.480   0.550   5.123
 6243SOL     OW19627   5.118   0.469   5.398
 6243SOL    HW119628   5.098   0.512   5.486
 6243SOL    HW219629   5.196   0.407   5.407
 6244SOL     OW19630   4.697   0.890   5.296
 6244SOL    HW119631   4.743   0.806   5.267
 6244SOL    HW219632   4.641   0.924   5.221
 6245SOL     OW19633   4.715   0.410   4.966
 6245SOL    HW119634   4.638   0.444   5.020
 6245SOL    HW219635   4.681   0.359   4.887
 6246SOL     OW19636   4.765   0.701   4.153
 6246SOL    HW119637   4.791   0.697   4.249
 6246SOL    HW219638   4.680   0.650   4.139
 6247SOL     OW19639   3.800   0.811   4.513
 6247SOL    HW119640   3.899   0.799   4.522
 6247SOL    HW219641   3.776   0.906   4.534
 6248SOL     OW19642   3.854   1.821   5.295
 6248SOL    HW119643   3.844   1.806   5.394
 6248SOL    HW219644   3.768   1.857   5.259
 6249SOL     OW19645   4.589   0.348   3.919
 6249SOL    HW119646   4.648   0.411   3.870
 6249SOL    HW219647   4.608   0.254   3.890
 6250SOL     OW19648   5.443   0.585   5.555
 6250SOL    HW119649   5.417   0.674   5.519
 6250SOL    HW219650   5.441   0.517   5.482
 6251SOL     OW19651   5.086   1.144   4.269
 6251SOL    HW119652   5.169   1.115   4.221
 6251SOL    HW219653   5.037   1.211   4.213
 6252SOL     OW19654   4.274   0.196   4.609
 6252SOL    HW119655   4.269   0.191   4.709
 6252SOL    HW219656   4.276   0.292   4.580
 6253SOL     OW19657   4.732   1.456   4.201
 6253SOL    HW119658   4.686   1.528   4.149
 6253SOL    HW219659   4.728   1.476   4.299
 6254SOL     OW19660   4.075   1.801   4.577
 6254SOL    HW119661   4.125   1.715   4.583
 6254SOL    HW219662   4.140   1.878   4.574
 6255SOL     OW19663   5.519   1.066   4.597
 6255SOL    HW119664   5.457   1.051   4.521
 6255SOL    HW219665   5.467   1.077   4.682
 6256SOL     OW19666   4.951   1.550   5.230
 6256SOL    HW119667   4.957   1.473   5.294
 6256SOL    HW219668   4.899   1.524   5.150
 6257SOL     OW19669   4.045   0.943   3.966
 6257SOL    HW119670   4.127   0.982   3.924
 6257SOL    HW219671   4.018   0.861   3.917
 6258SOL     OW19672   5.182   0.735   4.452
 6258SOL    HW119673   5.177   0.670   4.527
 6258SOL    HW219674   5.262   0.794   4.465
 6259SOL     OW19675   4.185   1.266   5.451
 6259SOL    HW119676   4.135   1.267   5.365
 6259SOL    HW219677   4.122   1.248   5.527
 6260SOL     OW19678   4.835   1.776   3.961
 6260SOL    HW119679   4.775   1.714   4.011
 6260SOL    HW219680   4.866   1.732   3.876
 6261SOL     OW19681   3.926   0.285   5.222
 6261SOL    HW119682   3.846   0.345   5.209
 6261SOL    HW219683   3.916   0.236   5.308
 6262SOL     OW19684   5.356   1.377   3.805
 6262SOL    HW119685   5.324   1.471   3.795
 6262SOL    HW219686   5.280   1.314   3.793
 6263SOL     OW19687   4.188   1.743   4.047
 6263SOL    HW119688   4.221   1.782   4.133
 6263SOL    HW219689   4.264   1.736   3.982
 6264SOL     OW19690   5.124   0.107   4.150
 6264SOL    HW119691   5.100   0.070   4.060
 6264SOL    HW219692   5.223   0.123   4.154
 6265SOL     OW19693   3.973   1.785   4.965
 6265SOL    HW119694   4.030   1.720   5.015
 6265SOL    HW219695   3.957   1.752   4.872
 6266SOL     OW19696   4.664   1.698   4.628
 6266SOL    HW119697   4.744   1.641   4.649
 6266SOL    HW219698   4.615   1.658   4.551
 6267SOL     OW19699   4.106   0.700   4.204
 6267SOL    HW119700   4.151   0.610   4.201
 6267SOL    HW219701   4.012   0.689   4.237
 6268SOL     OW19702   5.271   0.222   5.453
 6268SOL    HW119703   5.266   0.259   5.545
 6268SOL    HW219704   5.199   0.153   5.441
 6269SOL     OW19705   4.338   0.122   3.841
 6269SOL    HW119706   4.436   0.100   3.848
 6269SOL    HW219707   4.307   0.105   3.748
 6270SOL     OW19708   4.505   0.264   5.473
 6270SOL    HW119709   4.572   0.203   5.516
 6270SOL    HW219710   4.432   0.283   5.538
 6271SOL     OW19711   4.612   1.514   4.919
 6271SOL    HW119712   4.589   1.489   4.825
 6271SOL    HW219713   4.673   1.445   4.958
 6272SOL     OW19714   5.075   0.590   5.157
 6272SOL    HW119715   5.103   0.547   5.242
 6272SOL    HW219716   5.100   0.686   5.158
 6273SOL     OW19717   4.527   1.402   4.648
 6273SOL    HW119718   4.617   1.416   4.606
 6273SOL    HW219719   4.456   1.404   4.577
 6274SOL     OW19720   4.646   0.503   4.623
 6274SOL    HW119721   4.621   0.494   4.527
 6274SOL    HW219722   4.694   0.421   4.654
 6275SOL     OW19723   4.263   0.064   4.236
 6275SOL    HW119724   4.182   0.065   4.294
 6275SOL    HW219725   4.266   0.147   4.181
 6276SOL     OW19726   5.158   1.188   3.765
 6276SOL    HW119727   5.190   1.112   3.822
 6276SOL    HW219728   5.066   1.215   3.795
 6277SOL     OW19729   4.021   0.035   3.895
 6277SOL    HW119730   4.070   0.119   3.874
 6277SOL    HW219731   4.083  -0.030   3.940
 6278SOL     OW19732   4.659   0.236   4.204
 6278SOL    HW119733   4.611   0.277   4.126
 6278SOL    HW219734   4.758   0.234   4.185
 6279SOL     OW19735   4.800   0.683   5.188
 6279SOL    HW119736   4.720   0.622   5.191
 6279SOL    HW219737   4.881   0.630   5.164
 6280SOL     OW19738   4.951   1.570   4.517
 6280SOL    HW119739   4.972   1.644   4.452
 6280SOL    HW219740   5.019   1.570   4.590
 6281SOL     OW19741   4.183   1.152   4.465
 6281SOL    HW119742   4.112   1.125   4.530
 6281SOL    HW219743   4.157   1.124   4.372
 6282SOL     OW19744   4.995   1.797   4.315
 6282SOL    HW119745   5.039   1.861   4.251
 6282SOL    HW219746   4.945   1.849   4.385
 6283SOL     OW19747   4.756   0.549   3.740
 6283SOL    HW119748   4.715   0.631   3.701
 6283SOL    HW219749   4.820   0.575   3.813
 6284SOL     OW19750   3.802   0.556   5.110
 6284SOL    HW119751   3.894   0.555   5.069
 6284SOL    HW219752   3.796   0.630   5.177
 6285SOL     OW19753   4.285   0.222   4.871
 6285SOL    HW119754   4.323   0.138   4.908
 6285SOL    HW219755   4.197   0.241   4.915
 6286SOL     OW19756   4.590   0.454   4.366
 6286SOL    HW119757   4.558   0.526   4.304
 6286SOL    HW219758   4.614   0.373   4.313
 6287SOL     OW19759   4.741   0.039   4.477
 6287SOL    HW119760   4.669   0.044   4.408
 6287SOL    HW219761   4.717  -0.030   4.546
 6288SOL     OW19762   5.153   1.173   4.591
 6288SOL    HW119763   5.098   1.089   4.584
 6288SOL    HW219764   5.179   1.202   4.499
 6289SOL     OW19765   5.190   0.590   4.716
 6289SOL    HW119766   5.160   0.495   4.723
 6289SOL    HW219767   5.263   0.606   4.782
 6290SOL     OW19768   5.581   0.833   4.101
 6290SOL    HW119769   5.623   0.769   4.165
 6290SOL    HW219770   5.543   0.782   4.023
 6291SOL     OW19771   4.212   1.385   3.898
 6291SOL    HW119772   4.125   1.370   3.945
 6291SOL    HW219773   4.195   1.411   3.803
 6292SOL     OW19774   5.388   1.280   4.381
 6292SOL    HW119775   5.487   1.288   4.395
 6292SOL    HW219776   5.343   1.364   4.412
 6293SOL     OW19777   5.114   0.575   3.802
 6293SOL    HW119778   5.060   0.554   3.883
 6293SOL    HW219779   5.205   0.534   3.811
 6294SOL     OW19780   4.251   0.256   4.052
 6294SOL    HW119781   4.278   0.197   3.977
 6294SOL    HW219782   4.251   0.351   4.021
 6295SOL     OW19783   5.478   1.223   5.312
 6295SOL    HW119784   5.569   1.184   5.299
 6295SOL    HW219785   5.486   1.319   5.336
 6296SOL     OW19786   4.788   1.347   5.064
 6296SOL    HW119787   4.708   1.324   5.119
 6296SOL    HW219788   4.871   1.321   5.113
 6297SOL     OW19789   5.316   1.629   5.349
 6297SOL    HW119790   5.343   1.663   5.259
 6297SOL    HW219791   5.395   1.591   5.395
 6298SOL     OW19792   4.835   1.195   4.824
 6298SOL    HW119793   4.795   1.239   4.905
 6298SOL    HW219794   4.794   1.232   4.741
 6299SOL     OW19795   5.362   1.099   4.803
 6299SOL    HW119796   5.367   1.180   4.862
 6299SOL    HW219797   5.276   1.101   4.752
 6300SOL     OW19798   4.639   0.089   5.126
 6300SOL    HW119799   4.664   0.069   5.031
 6300SOL    HW219800   4.711   0.145   5.168
 6301SOL     OW19801   4.704   1.116   5.443
 6301SOL    HW119802   4.605   1.122   5.453
 6301SOL    HW219803   4.727   1.036   5.387
 6302SOL     OW19804   4.429   1.050   4.092
 6302SOL    HW119805   4.415   1.057   4.191
 6302SOL    HW219806   4.513   0.999   4.074
 6303SOL     OW19807   4.134   0.813   4.975
 6303SOL    HW119808   4.220   0.825   5.025
 6303SOL    HW219809   4.092   0.726   5.002
 6304SOL     OW19810   4.998   0.386   4.986
 6304SOL    HW119811   5.019   0.460   5.050
 6304SOL    HW219812   4.909   0.403   4.943
 6305SOL     OW19813   3.788   1.564   5.055
 6305SOL    HW119814   3.742   1.646   5.021
 6305SOL    HW219815   3.886   1.583   5.064
 6306SOL     OW19816   4.091   1.100   4.225
 6306SOL    HW119817   4.084   1.183   4.169
 6306SOL    HW219818   4.095   1.020   4.165
 6307SOL     OW19819   4.290   0.537   4.589
 6307SOL    HW119820   4.302   0.603   4.515
 6307SOL    HW219821   4.336   0.571   4.672
 6308SOL     OW19822   4.976   1.348   4.112
 6308SOL    HW119823   5.026   1.425   4.152
 6308SOL    HW219824   4.881   1.350   4.144
 6309SOL     OW19825   4.996   1.445   4.866
 6309SOL    HW119826   5.043   1.458   4.953
 6309SOL    HW219827   4.930   1.371   4.875
 6310SOL     OW19828   5.306   0.639   4.196
 6310SOL    HW119829   5.275   0.700   4.269
 6310SOL    HW219830   5.356   0.691   4.127
 6311SOL     OW19831   4.078   1.510   5.053
 6311SOL    HW119832   4.057   1.466   4.966
 6311SOL    HW219833   4.175   1.536   5.056
 6312SOL     OW19834   4.126   0.751   5.322
 6312SOL    HW119835   4.194   0.806   5.275
 6312SOL    HW219836   4.166   0.663   5.349
 6313SOL     OW19837   5.311   0.779   5.394
 6313SOL    HW119838   5.219   0.817   5.389
 6313SOL    HW219839   5.371   0.826   5.329
 6314SOL     OW19840   4.737   0.105   5.494
 6314SOL    HW119841   4.743   0.190   5.442
 6314SOL    HW219842   4.769   0.029   5.437
 6315SOL     OW19843   4.228   0.050   5.464
 6315SOL    HW119844   4.186  -0.007   5.394
 6315SOL    HW219845   4.162   0.119   5.496
 6316SOL     OW19846   4.297   0.870   4.753
 6316SOL    HW119847   4.341   0.959   4.744
 6316SOL    HW219848   4.234   0.870   4.830
 6317SOL     OW19849   5.084   0.862   4.769
 6317SOL    HW119850   5.009   0.862   4.703
 6317SOL    HW219851   5.121   0.770   4.778
 6318SOL     OW19852   4.933   0.525   3.999
 6318SOL    HW119853   4.946   0.441   4.053
 6318SOL    HW219854   4.904   0.599   4.059
 6319SOL     OW19855   4.031   0.213   4.955
 6319SOL    HW119856   4.008   0.250   5.045
 6319SOL    HW219857   4.001   0.118   4.949
 6320SOL     OW19858   3.761   1.310   5.006
 6320SOL    HW119859   3.814   1.261   5.074
 6320SOL    HW219860   3.783   1.408   5.011
 6321SOL     OW19861   4.456   0.634   4.788
 6321SOL    HW119862   4.515   0.608   4.712
 6321SOL    HW219863   4.428   0.730   4.777
 6322SOL     OW19864   5.452   0.935   5.578
 6322SOL    HW119865   5.406   0.928   5.489
 6322SOL    HW219866   5.390   0.979   5.644
 6323SOL     OW19867   4.031   0.063   4.342
 6323SOL    HW119868   4.020   0.157   4.375
 6323SOL    HW219869   4.026   0.000   4.419
 6324SOL     OW19870   5.346   0.367   4.098
 6324SOL    HW119871   5.348   0.291   4.162
 6324SOL    HW219872   5.298   0.444   4.138
 6325SOL     OW19873   4.747   0.766   4.690
 6325SOL    HW119874   4.762   0.787   4.786
 6325SOL    HW219875   4.717   0.671   4.681
 6326SOL     OW19876   4.704   1.573   5.424
 6326SOL    HW119877   4.684   1.617   5.336
 6326SOL    HW219878   4.743   1.482   5.408
 6327SOL     OW19879   5.583   1.518   5.329
 6327SOL    HW119880   5.597   1.545   5.234
 6327SOL    HW219881   5.666   1.540   5.382
 6328SOL     OW19882   4.074   0.898   5.528
 6328SOL    HW119883   4.150   0.942   5.576
 6328SOL    HW219884   4.109   0.851   5.446
 6329SOL     OW19885   5.264   0.274   3.849
 6329SOL    HW119886   5.203   0.199   3.872
 6329SOL    HW219887   5.286   0.326   3.932
 6330SOL     OW19888   5.027   0.838   3.766
 6330SOL    HW119889   5.061   0.745   3.781
 6330SOL    HW219890   5.045   0.865   3.671
 6331SOL     OW19891   4.792   1.333   4.573
 6331SOL    HW119892   4.799   1.249   4.518
 6331SOL    HW219893   4.854   1.402   4.537
 6332SOL     OW19894   4.043   0.810   4.673
 6332SOL    HW119895   4.136   0.846   4.678
 6332SOL    HW219896   4.037   0.725   4.725
 6333SOL     OW19897   4.063   0.509   4.730
 6333SOL    HW119898   4.011   0.426   4.713
 6333SOL    HW219899   4.140   0.514   4.666
 6334SOL     OW19900   4.862   0.380   5.402
 6334SOL    HW119901   4.817   0.443   5.466
 6334SOL    HW219902   4.955   0.411   5.385
 6335SOL     OW19903   4.884   0.207   5.201
 6335SOL    HW119904   4.884   0.271   5.278
 6335SOL    HW219905   4.912   0.255   5.118
 6336SOL     OW19906   3.732   1.326   3.924
 6336SOL    HW119907   3.639   1.347   3.893
 6336SOL    HW219908   3.742   1.227   3.937
 6337SOL     OW19909   3.812   1.801   4.651
 6337SOL    HW119910   3.770   1.715   4.624
 6337SOL    HW219911   3.906   1.804   4.617
 6338SOL     OW19912   4.228   1.568   4.634
 6338SOL    HW119913   4.294   1.642   4.643
 6338SOL    HW219914   4.272   1.489   4.592
 6339SOL     OW19915   4.726   0.796   4.962
 6339SOL    HW119916   4.767   0.764   5.048
 6339SOL    HW219917   4.630   0.769   4.959
 6340SOL     OW19918   3.764   0.544   4.838
 6340SOL    HW119919   3.849   0.511   4.797
 6340SOL    HW219920   3.777   0.559   4.936
 6341SOL     OW19921   3.913   0.520   5.446
 6341SOL    HW119922   3.972   0.480   5.376
 6341SOL    HW219923   3.855   0.591   5.405
 6342SOL     OW19924   5.093   0.950   5.384
 6342SOL    HW119925   5.132   1.039   5.404
 6342SOL    HW219926   5.103   0.930   5.287
 6343SOL     OW19927   4.539   0.572   4.049
 6343SOL    HW119928   4.546   0.483   4.003
 6343SOL    HW219929   4.445   0.606   4.041
 6344SOL     OW19930   5.381   0.604   4.930
 6344SOL    HW119931   5.343   0.535   4.992
 6344SOL    HW219932   5.463   0.568   4.886
 6345SOL     OW19933   3.976   1.564   5.468
 6345SOL    HW119934   3.946   1.621   5.544
 6345SOL    HW219935   3.969   1.467   5.494
 6346SOL     OW19936   4.395   0.464   4.993
 6346SOL    HW119937   4.361   0.375   4.963
 6346SOL    HW219938   4.421   0.518   4.913
 6347SOL     OW19939   4.654   1.678   5.189
 6347SOL    HW119940   4.630   1.660   5.094
 6347SOL    HW219941   4.684   1.772   5.199
 6348SOL     OW19942   4.197   0.500   3.915
 6348SOL    HW119943   4.258   0.580   3.919
 6348SOL    HW219944   4.102   0.531   3.922
 6349SOL     OW19945   3.883   1.137   5.190
 6349SOL    HW119946   3.905   1.076   5.266
 6349SOL    HW219947   3.893   1.088   5.104
 6350SOL     OW19948   5.071   1.059   4.958
 6350SOL    HW119949   5.095   0.996   4.884
 6350SOL    HW219950   4.981   1.099   4.940
 6351SOL     OW19951   5.026   0.855   4.033
 6351SOL    HW119952   4.940   0.824   4.075
 6351SOL    HW219953   5.022   0.841   3.934
 6352SOL     OW19954   5.483   1.747   4.878
 6352SOL    HW119955   5.544   1.777   4.805
 6352SOL    HW219956   5.445   1.658   4.856
 6353SOL     OW19957   4.976   1.731   4.852
 6353SOL    HW119958   5.060   1.736   4.798
 6353SOL    HW219959   4.953   1.635   4.870
 6354SOL     OW19960   3.807   1.258   4.746
 6354SOL    HW119961   3.802   1.257   4.846
 6354SOL    HW219962   3.724   1.217   4.708
 6355SOL     OW19963   4.412   1.662   5.440
 6355SOL    HW119964   4.356   1.743   5.449
 6355SOL    HW219965   4.464   1.666   5.354
 6356SOL     OW19966   5.450   0.135   4.247
 6356SOL    HW119967   5.523   0.118   4.180
 6356SOL    HW219968   5.419   0.048   4.285
 6357SOL     OW19969   5.112   1.573   4.201
 6357SOL    HW119970   5.179   1.585   4.127
 6357SOL    HW219971   5.072   1.662   4.224
 6358SOL     OW19972   3.854   1.794   5.575
 6358SOL    HW119973   3.813   1.720   5.628
 6358SOL    HW219974   3.918   1.845   5.633
 6359SOL     OW19975   5.004   0.927   4.396
 6359SOL    HW119976   5.064   0.846   4.398
 6359SOL    HW219977   5.044   0.996   4.336
 6360SOL     OW19978   4.554   1.273   5.146
 6360SOL    HW119979   4.549   1.306   5.241
 6360SOL    HW219980   4.468   1.292   5.100
 6361SOL     OW19981   4.396   1.616   3.878
 6361SOL    HW119982   4.405   1.626   3.779
 6361SOL    HW219983   4.356   1.527   3.899
 6362SOL     OW19984   5.374   1.720   5.118
 6362SOL    HW119985   5.427   1.730   5.034
 6362SOL    HW219986   5.347   1.810   5.152
 6363SOL     OW19987   5.565   0.175   4.687
 6363SOL    HW119988   5.604   0.090   4.651
 6363SOL    HW219989   5.467   0.177   4.668
 6364SOL     OW19990   3.987   0.326   4.444
 6364SOL    HW119991   3.908   0.377   4.410
 6364SOL    HW219992   3.978   0.311   4.542
 6365SOL     OW19993   4.918   1.612   3.755
 6365SOL    HW119994   4.924   1.519   3.792
 6365SOL    HW219995   4.859   1.612   3.675
 6366SOL     OW19996   4.546   1.002   5.096
 6366SOL    HW119997   4.586   1.001   5.004
 6366SOL    HW219998   4.556   1.094   5.136
 6367SOL     OW19999   4.640   0.910   4.015
 6367SOL    HW120000   4.703   0.948   3.947
 6367SOL    HW220001   4.680   0.827   4.054
 6368SOL     OW20002   5.228   1.607   3.768
 6368SOL    HW120003   5.136   1.644   3.775
 6368SOL    HW220004   5.266   1.627   3.678
 6369SOL     OW20005   4.096   1.288   5.214
 6369SOL    HW120006   4.083   1.381   5.180
 6369SOL    HW220007   4.012   1.236   5.201
 6370SOL     OW20008   5.338   1.292   5.013
 6370SOL    HW120009   5.398   1.295   5.093
 6370SOL    HW220010   5.263   1.356   5.026
 6371SOL     OW20011   4.763   1.098   4.420
 6371SOL    HW120012   4.693   1.051   4.474
 6371SOL    HW220013   4.822   1.030   4.377
 6372SOL     OW20014   4.738   0.236   4.695
 6372SOL    HW120015   4.730   0.200   4.602
 6372SOL    HW220016   4.736   0.160   4.760
 6373SOL     OW20017   4.314   1.487   4.215
 6373SOL    HW120018   4.356   1.429   4.145
 6373SOL    HW220019   4.270   1.566   4.171
 6374SOL     OW20020   5.433   0.385   5.105
 6374SOL    HW120021   5.506   0.454   5.109
 6374SOL    HW220022   5.461   0.310   5.046
 6375SOL     OW20023   3.979   1.348   4.014
 6375SOL    HW120024   3.883   1.349   3.987
 6375SOL    HW220025   3.991   1.401   4.098
 6376SOL     OW20026   3.829   1.013   5.450
 6376SOL    HW120027   3.752   0.980   5.504
 6376SOL    HW220028   3.914   0.983   5.492
 6377SOL     OW20029   4.396   0.203   5.213
 6377SOL    HW120030   4.486   0.187   5.173
 6377SOL    HW220031   4.404   0.208   5.312
 6378SOL     OW20032   3.799   0.345   3.757
 6378SOL    HW120033   3.707   0.317   3.728
 6378SOL    HW220034   3.830   0.422   3.701
 6379SOL     OW20035   5.164   0.856   5.122
 6379SOL    HW120036   5.107   0.908   5.059
 6379SOL    HW220037   5.260   0.868   5.098
 6380SOL     OW20038   3.796   0.166   4.042
 6380SOL    HW120039   3.779   0.249   3.988
 6380SOL    HW220040   3.886   0.129   4.020
 6381SOL     OW20041   4.907   1.335   3.843
 6381SOL    HW120042   4.808   1.324   3.845
 6381SOL    HW220043   4.941   1.350   3.936
 6382SOL     OW20044   4.337   0.842   5.155
 6382SOL    HW120045   4.393   0.923   5.138
 6382SOL    HW220046   4.396   0.762   5.158
 6383SOL     OW20047   5.217   1.767   4.683
 6383SOL    HW120048   5.250   1.831   4.614
 6383SOL    HW220049   5.283   1.761   4.758
 6384SOL     OW20050   4.440   0.565   5.432
 6384SOL    HW120051   4.459   0.630   5.506
 6384SOL    HW220052   4.500   0.485   5.441
 6385SOL     OW20053   5.174   1.220   5.357
 6385SOL    HW120054   5.165   1.210   5.456
 6385SOL    HW220055   5.270   1.213   5.331
 6386SOL     OW20056   4.114   1.741   5.284
 6386SOL    HW120057   4.023   1.782   5.282
 6386SOL    HW220058   4.107   1.647   5.316
 6387SOL     OW20059   5.398   0.883   4.978
 6387SOL    HW120060   5.371   0.794   4.941
 6387SOL    HW220061   5.399   0.951   4.905
 6388SOL     OW20062   4.949   0.325   4.173
 6388SOL    HW120063   5.014   0.251   4.162
 6388SOL    HW220064   4.969   0.375   4.257
 6389SOL     OW20065   4.318   0.745   4.376
 6389SOL    HW120066   4.368   0.830   4.357
 6389SOL    HW220067   4.230   0.747   4.328
 6390SOL     OW20068   5.501   0.342   5.366
 6390SOL    HW120069   5.484   0.373   5.272
 6390SOL    HW220070   5.417   0.305   5.404
 6391SOL     OW20071   5.454   0.934   5.241
 6391SOL    HW120072   5.492   1.025   5.256
 6391SOL    HW220073   5.446   0.917   5.142
 6392SOL     OW20074   4.583   1.374   3.740
 6392SOL    HW120075   4.537   1.389   3.828
 6392SOL    HW220076   4.627   1.459   3.710
 6393SOL     OW20077   4.385   1.790   4.677
 6393SOL    HW120078   4.339   1.878   4.664
 6393SOL    HW220079   4.484   1.802   4.670
 6394SOL     OW20080   4.583   0.956   4.585
 6394SOL    HW120081   4.637   0.887   4.633
 6394SOL    HW220082   4.551   1.025   4.651
 6395SOL     OW20083   4.807   0.984   3.811
 6395SOL    HW120084   4.784   1.037   3.729
 6395SOL    HW220085   4.888   0.928   3.792
 6396SOL     OW20086   5.585   1.569   4.575
 6396SOL    HW120087   5.514   1.557   4.505
 6396SOL    HW220088   5.586   1.490   4.635
 6397SOL     OW20089   3.945   1.314   5.568
 6397SOL    HW120090   3.880   1.241   5.547
 6397SOL    HW220091   3.949   1.328   5.666
 6398SOL     OW20092   3.803   1.240   4.377
 6398SOL    HW120093   3.802   1.193   4.465
 6398SOL    HW220094   3.885   1.212   4.326
 6399SOL     OW20095   4.396   1.391   5.348
 6399SOL    HW120096   4.318   1.341   5.386
 6399SOL    HW220097   4.393   1.486   5.379
 6400SOL     OW20098   5.548   0.192   4.951
 6400SOL    HW120099   5.544   0.102   4.995
 6400SOL    HW220100   5.551   0.181   4.852
 6401SOL     OW20101   4.152   0.424   4.244
 6401SOL    HW120102   4.182   0.352   4.182
 6401SOL    HW220103   4.113   0.384   4.327
 6402SOL     OW20104   5.429   1.487   4.828
 6402SOL    HW120105   5.336   1.462   4.801
 6402SOL    HW220106   5.455   1.437   4.910
 6403SOL     OW20107   4.041   0.547   5.004
 6403SOL    HW120108   4.079   0.488   5.076
 6403SOL    HW220109   4.081   0.521   4.916
 6404SOL     OW20110   4.536   1.586   4.411
 6404SOL    HW120111   4.568   1.596   4.317
 6404SOL    HW220112   4.457   1.524   4.413
 6405SOL     OW20113   5.148   0.214   4.836
 6405SOL    HW120114   5.200   0.149   4.891
 6405SOL    HW220115   5.099   0.277   4.897
 6406SOL     OW20116   4.725   0.034   4.878
 6406SOL    HW120117   4.662  -0.038   4.847
 6406SOL    HW220118   4.818  -0.002   4.878
 6407SOL     OW20119   4.494   1.330   4.025
 6407SOL    HW120120   4.448   1.243   4.042
 6407SOL    HW220121   4.585   1.327   4.066
 6408SOL     OW20122   4.342   1.567   5.008
 6408SOL    HW120123   4.337   1.649   5.065
 6408SOL    HW220124   4.431   1.564   4.963
 6409SOL     OW20125   5.076   0.052   3.892
 6409SOL    HW120126   5.111   0.011   3.808
 6409SOL    HW220127   4.986   0.014   3.912
 6410SOL     OW20128   5.024   0.453   4.415
 6410SOL    HW120129   4.965   0.533   4.419
 6410SOL    HW220130   5.039   0.418   4.508
 6411SOL     OW20131   5.317   0.221   4.606
 6411SOL    HW120132   5.233   0.220   4.660
 6411SOL    HW220133   5.319   0.304   4.550
 6412SOL     OW20134   3.763   1.077   4.024
 6412SOL    HW120135   3.862   1.066   4.015
 6412SOL    HW220136   3.723   0.991   4.056
 6413SOL     OW20137   4.599   1.646   4.061
 6413SOL    HW120138   4.522   1.611   4.007
 6413SOL    HW220139   4.567   1.717   4.123
 6414SOL     OW20140   3.954   0.628   5.699
 6414SOL    HW120141   3.861   0.626   5.736
 6414SOL    HW220142   3.955   0.589   5.607
 6415SOL     OW20143   3.949   0.275   6.582
 6415SOL    HW120144   3.984   0.258   6.674
 6415SOL    HW220145   3.861   0.230   6.570
 6416SOL     OW20146   3.743   0.368   6.233
 6416SOL    HW120147   3.661   0.411   6.272
 6416SOL    HW220148   3.715   0.295   6.170
 6417SOL     OW20149   4.293   1.275   6.751
 6417SOL    HW120150   4.200   1.268   6.714
 6417SOL    HW220151   4.304   1.364   6.795
 6418SOL     OW20152   5.279   1.511   6.289
 6418SOL    HW120153   5.222   1.495   6.370
 6418SOL    HW220154   5.220   1.521   6.209
 6419SOL     OW20155   4.859   0.703   6.303
 6419SOL    HW120156   4.916   0.781   6.278
 6419SOL    HW220157   4.799   0.729   6.379
 6420SOL     OW20158   5.479   0.607   5.817
 6420SOL    HW120159   5.467   0.594   5.718
 6420SOL    HW220160   5.449   0.526   5.866
 6421SOL     OW20161   4.492   1.144   6.609
 6421SOL    HW120162   4.414   1.161   6.669
 6421SOL    HW220163   4.526   1.231   6.573
 6422SOL     OW20164   4.409   1.012   6.251
 6422SOL    HW120165   4.478   0.996   6.321
 6422SOL    HW220166   4.336   1.069   6.289
 6423SOL     OW20167   4.059   1.435   6.647
 6423SOL    HW120168   3.981   1.404   6.594
 6423SOL    HW220169   4.117   1.493   6.590
 6424SOL     OW20170   5.327   0.447   6.323
 6424SOL    HW120171   5.253   0.493   6.273
 6424SOL    HW220172   5.378   0.515   6.376
 6425SOL     OW20173   3.955   1.713   6.069
 6425SOL    HW120174   3.989   1.790   6.123
 6425SOL    HW220175   3.999   1.713   5.979
 6426SOL     OW20176   3.954   1.434   6.124
 6426SOL    HW120177   3.928   1.530   6.124
 6426SOL    HW220178   3.883   1.380   6.169
 6427SOL     OW20179   3.964   1.091   6.472
 6427SOL    HW120180   3.978   1.007   6.524
 6427SOL    HW220181   3.909   1.155   6.527
 6428SOL     OW20182   4.344   1.786   7.025
 6428SOL    HW120183   4.252   1.769   7.060
 6428SOL    HW220184   4.372   1.878   7.051
 6429SOL     OW20185   4.330   0.964   5.709
 6429SOL    HW120186   4.337   1.048   5.655
 6429SOL    HW220187   4.376   0.977   5.797
 6430SOL     OW20188   3.846   0.643   6.149
 6430SOL    HW120189   3.801   0.555   6.166
 6430SOL    HW220190   3.845   0.697   6.233
 6431SOL     OW20191   5.566   1.767   5.945
 6431SOL    HW120192   5.620   1.738   6.025
 6431SOL    HW220193   5.596   1.857   5.916
 6432SOL     OW20194   3.751   1.596   5.703
 6432SOL    HW120195   3.732   1.500   5.724
 6432SOL    HW220196   3.718   1.654   5.778
 6433SOL     OW20197   5.413   0.922   6.198
 6433SOL    HW120198   5.508   0.893   6.206
 6433SOL    HW220199   5.405   0.987   6.123
 6434SOL     OW20200   5.365   1.108   6.018
 6434SOL    HW120201   5.451   1.110   5.966
 6434SOL    HW220202   5.379   1.155   6.106
 6435SOL     OW20203   4.337   1.365   6.312
 6435SOL    HW120204   4.288   1.278   6.321
 6435SOL    HW220205   4.314   1.408   6.225
 6436SOL     OW20206   4.533   0.004   6.088
 6436SOL    HW120207   4.573   0.095   6.079
 6436SOL    HW220208   4.433   0.012   6.094
 6437SOL     OW20209   3.921   0.976   6.850
 6437SOL    HW120210   4.010   0.931   6.836
 6437SOL    HW220211   3.848   0.911   6.831
 6438SOL     OW20212   5.249   0.999   5.776
 6438SOL    HW120213   5.186   0.923   5.789
 6438SOL    HW220214   5.297   1.017   5.862
 6439SOL     OW20215   5.190   1.417   6.539
 6439SOL    HW120216   5.131   1.423   6.619
 6439SOL    HW220217   5.175   1.329   6.493
 6440SOL     OW20218   5.391   1.714   6.158
 6440SOL    HW120219   5.350   1.691   6.070
 6440SOL    HW220220   5.373   1.640   6.223
 6441SOL     OW20221   4.322   0.729   5.856
 6441SOL    HW120222   4.346   0.798   5.788
 6441SOL    HW220223   4.244   0.762   5.910
 6442SOL     OW20224   5.005   0.345   6.530
 6442SOL    HW120225   4.919   0.295   6.517
 6442SOL    HW220226   5.067   0.291   6.586
 6443SOL     OW20227   5.300   1.662   5.893
 6443SOL    HW120228   5.389   1.708   5.896
 6443SOL    HW220229   5.279   1.638   5.798
 6444SOL     OW20230   4.531   0.605   7.051
 6444SOL    HW120231   4.484   0.602   7.140
 6444SOL    HW220232   4.480   0.550   6.985
 6445SOL     OW20233   4.715   0.410   6.828
 6445SOL    HW120234   4.638   0.444   6.882
 6445SOL    HW220235   4.681   0.359   6.749
 6446SOL     OW20236   4.765   0.701   6.015
 6446SOL    HW120237   4.791   0.697   6.111
 6446SOL    HW220238   4.680   0.650   6.001
 6447SOL     OW20239   3.800   0.811   6.375
 6447SOL    HW120240   3.899   0.799   6.384
 6447SOL    HW220241   3.776   0.906   6.396
 6448SOL     OW20242   3.854   1.821   7.157
 6448SOL    HW120243   3.844   1.806   7.256
 6448SOL    HW220244   3.768   1.857   7.121
 6449SOL     OW20245   4.589   0.348   5.781
 6449SOL    HW120246   4.648   0.411   5.732
 6449SOL    HW220247   4.608   0.254   5.752
 6450SOL     OW20248   5.086   1.144   6.131
 6450SOL    HW120249   5.169   1.115   6.083
 6450SOL    HW220250   5.037   1.211   6.075
 6451SOL     OW20251   4.274   0.196   6.471
 6451SOL    HW120252   4.269   0.191   6.571
 6451SOL    HW220253   4.276   0.292   6.442
 6452SOL     OW20254   4.732   1.456   6.063
 6452SOL    HW120255   4.686   1.528   6.011
 6452SOL    HW220256   4.728   1.476   6.161
 6453SOL     OW20257   4.075   1.801   6.439
 6453SOL    HW120258   4.125   1.715   6.445
 6453SOL    HW220259   4.140   1.878   6.436
 6454SOL     OW20260   5.519   1.066   6.459
 6454SOL    HW120261   5.457   1.051   6.383
 6454SOL    HW220262   5.467   1.077   6.544
 6455SOL     OW20263   4.045   0.943   5.828
 6455SOL    HW120264   4.127   0.982   5.786
 6455SOL    HW220265   4.018   0.861   5.779
 6456SOL     OW20266   5.182   0.735   6.314
 6456SOL    HW120267   5.177   0.670   6.389
 6456SOL    HW220268   5.262   0.794   6.327
 6457SOL     OW20269   4.835   1.776   5.823
 6457SOL    HW120270   4.775   1.714   5.873
 6457SOL    HW220271   4.866   1.732   5.738
 6458SOL     OW20272   5.356   1.377   5.667
 6458SOL    HW120273   5.324   1.471   5.657
 6458SOL    HW220274   5.280   1.314   5.655
 6459SOL     OW20275   4.188   1.743   5.909
 6459SOL    HW120276   4.221   1.782   5.995
 6459SOL    HW220277   4.264   1.736   5.844
 6460SOL     OW20278   5.124   0.107   6.012
 6460SOL    HW120279   5.100   0.070   5.922
 6460SOL    HW220280   5.223   0.123   6.016
 6461SOL     OW20281   3.973   1.785   6.827
 6461SOL    HW120282   4.030   1.720   6.877
 6461SOL    HW220283   3.957   1.752   6.734
 6462SOL     OW20284   4.664   1.698   6.490
 6462SOL    HW120285   4.744   1.641   6.511
 6462SOL    HW220286   4.615   1.658   6.413
 6463SOL     OW20287   4.106   0.700   6.066
 6463SOL    HW120288   4.151   0.610   6.063
 6463SOL    HW220289   4.012   0.689   6.099
 6464SOL     OW20290   4.338   0.122   5.703
 6464SOL    HW120291   4.436   0.100   5.710
 6464SOL    HW220292   4.307   0.105   5.610
 6465SOL     OW20293   4.612   1.514   6.781
 6465SOL    HW120294   4.589   1.489   6.687
 6465SOL    HW220295   4.673   1.445   6.820
 6466SOL     OW20296   4.527   1.402   6.510
 6466SOL    HW120297   4.617   1.416   6.468
 6466SOL    HW220298   4.456   1.404   6.439
 6467SOL     OW20299   4.646   0.503   6.485
 6467SOL    HW120300   4.621   0.494   6.389
 6467SOL    HW220301   4.694   0.421   6.516
 6468SOL     OW20302   4.263   0.064   6.098
 6468SOL    HW120303   4.182   0.065   6.156
 6468SOL    HW220304   4.266   0.147   6.043
 6469SOL     OW20305   5.158   1.188   5.627
 6469SOL    HW120306   5.190   1.112   5.684
 6469SOL    HW220307   5.066   1.215   5.657
 6470SOL     OW20308   4.021   0.035   5.757
 6470SOL    HW120309   4.070   0.119   5.736
 6470SOL    HW220310   4.083  -0.030   5.802
 6471SOL     OW20311   4.659   0.236   6.066
 6471SOL    HW120312   4.611   0.277   5.988
 6471SOL    HW220313   4.758   0.234   6.047
 6472SOL     OW20314   4.951   1.570   6.379
 6472SOL    HW120315   4.972   1.644   6.314
 6472SOL    HW220316   5.019   1.570   6.452
 6473SOL     OW20317   4.183   1.152   6.327
 6473SOL    HW120318   4.112   1.125   6.392
 6473SOL    HW220319   4.157   1.124   6.234
 6474SOL     OW20320   4.995   1.797   6.177
 6474SOL    HW120321   5.039   1.861   6.113
 6474SOL    HW220322   4.945   1.849   6.247
 6475SOL     OW20323   4.756   0.549   5.602
 6475SOL    HW120324   4.715   0.631   5.563
 6475SOL    HW220325   4.820   0.575   5.675
 6476SOL     OW20326   4.285   0.222   6.733
 6476SOL    HW120327   4.323   0.138   6.770
 6476SOL    HW220328   4.197   0.241   6.777
 6477SOL     OW20329   4.590   0.454   6.228
 6477SOL    HW120330   4.558   0.526   6.166
 6477SOL    HW220331   4.614   0.373   6.175
 6478SOL     OW20332   4.741   0.039   6.339
 6478SOL    HW120333   4.669   0.044   6.270
 6478SOL    HW220334   4.717  -0.030   6.408
 6479SOL     OW20335   5.153   1.173   6.453
 6479SOL    HW120336   5.098   1.089   6.446
 6479SOL    HW220337   5.179   1.202   6.361
 6480SOL     OW20338   5.190   0.590   6.578
 6480SOL    HW120339   5.160   0.495   6.585
 6480SOL    HW220340   5.263   0.606   6.644
 6481SOL     OW20341   5.581   0.833   5.963
 6481SOL    HW120342   5.623   0.769   6.027
 6481SOL    HW220343   5.543   0.782   5.885
 6482SOL     OW20344   4.212   1.385   5.760
 6482SOL    HW120345   4.125   1.370   5.807
 6482SOL    HW220346   4.195   1.411   5.665
 6483SOL     OW20347   5.388   1.280   6.243
 6483SOL    HW120348   5.487   1.288   6.257
 6483SOL    HW220349   5.343   1.364   6.274
 6484SOL     OW20350   5.114   0.575   5.664
 6484SOL    HW120351   5.060   0.554   5.745
 6484SOL    HW220352   5.205   0.534   5.673
 6485SOL     OW20353   4.251   0.256   5.914
 6485SOL    HW120354   4.278   0.197   5.839
 6485SOL    HW220355   4.251   0.351   5.883
 6486SOL     OW20356   5.478   1.223   7.174
 6486SOL    HW120357   5.569   1.184   7.161
 6486SOL    HW220358   5.486   1.319   7.198
 6487SOL     OW20359   4.835   1.195   6.686
 6487SOL    HW120360   4.795   1.239   6.767
 6487SOL    HW220361   4.794   1.232   6.603
 6488SOL     OW20362   5.362   1.099   6.665
 6488SOL    HW120363   5.367   1.180   6.724
 6488SOL    HW220364   5.276   1.101   6.614
 6489SOL     OW20365   4.429   1.050   5.954
 6489SOL    HW120366   4.415   1.057   6.053
 6489SOL    HW220367   4.513   0.999   5.936
 6490SOL     OW20368   4.134   0.813   6.837
 6490SOL    HW120369   4.220   0.825   6.887
 6490SOL    HW220370   4.092   0.726   6.864
 6491SOL     OW20371   4.998   0.386   6.848
 6491SOL    HW120372   5.019   0.460   6.912
 6491SOL    HW220373   4.909   0.403   6.805
 6492SOL     OW20374   3.788   1.564   6.917
 6492SOL    HW120375   3.742   1.646   6.883
 6492SOL    HW220376   3.886   1.583   6.926
 6493SOL     OW20377   4.091   1.100   6.087
 6493SOL    HW120378   4.084   1.183   6.031
 6493SOL    HW220379   4.095   1.020   6.027
 6494SOL     OW20380   4.290   0.537   6.451
 6494SOL    HW120381   4.302   0.603   6.377
 6494SOL    HW220382   4.336   0.571   6.534
 6495SOL     OW20383   4.976   1.348   5.974
 6495SOL    HW120384   5.026   1.425   6.014
 6495SOL    HW220385   4.881   1.350   6.006
 6496SOL     OW20386   4.996   1.445   6.728
 6496SOL    HW120387   5.043   1.458   6.815
 6496SOL    HW220388   4.930   1.371   6.737
 6497SOL     OW20389   5.306   0.639   6.058
 6497SOL    HW120390   5.275   0.700   6.131
 6497SOL    HW220391   5.356   0.691   5.989
 6498SOL     OW20392   4.078   1.510   6.915
 6498SOL    HW120393   4.057   1.466   6.828
 6498SOL    HW220394   4.175   1.536   6.918
 6499SOL     OW20395   4.297   0.870   6.615
 6499SOL    HW120396   4.341   0.959   6.606
 6499SOL    HW220397   4.234   0.870   6.692
 6500SOL     OW20398   5.084   0.862   6.631
 6500SOL    HW120399   5.009   0.862   6.565
 6500SOL    HW220400   5.121   0.770   6.640
 6501SOL     OW20401   4.933   0.525   5.861
 6501SOL    HW120402   4.946   0.441   5.915
 6501SOL    HW220403   4.904   0.599   5.921
 6502SOL     OW20404   4.031   0.213   6.817
 6502SOL    HW120405   4.008   0.250   6.907
 6502SOL    HW220406   4.001   0.118   6.811
 6503SOL     OW20407   3.761   1.310   6.868
 6503SOL    HW120408   3.814   1.261   6.936
 6503SOL    HW220409   3.783   1.408   6.873
 6504SOL     OW20410   4.456   0.634   6.650
 6504SOL    HW120411   4.515   0.608   6.574
 6504SOL    HW220412   4.428   0.730   6.639
 6505SOL     OW20413   4.031   0.063   6.204
 6505SOL    HW120414   4.020   0.157   6.237
 6505SOL    HW220415   4.026   0.000   6.281
 6506SOL     OW20416   5.346   0.367   5.960
 6506SOL    HW120417   5.348   0.291   6.024
 6506SOL    HW220418   5.298   0.444   6.000
 6507SOL     OW20419   4.747   0.766   6.552
 6507SOL    HW120420   4.762   0.787   6.648
 6507SOL    HW220421   4.717   0.671   6.543
 6508SOL     OW20422   5.264   0.274   5.711
 6508SOL    HW120423   5.203   0.199   5.734
 6508SOL    HW220424   5.286   0.326   5.794
 6509SOL     OW20425   5.027   0.838   5.628
 6509SOL    HW120426   5.061   0.745   5.643
 6509SOL    HW220427   5.045   0.865   5.533
 6510SOL     OW20428   4.792   1.333   6.435
 6510SOL    HW120429   4.799   1.249   6.380
 6510SOL    HW220430   4.854   1.402   6.399
 6511SOL     OW20431   4.043   0.810   6.535
 6511SOL    HW120432   4.136   0.846   6.540
 6511SOL    HW220433   4.037   0.725   6.587
 6512SOL     OW20434   4.063   0.509   6.592
 6512SOL    HW120435   4.011   0.426   6.575
 6512SOL    HW220436   4.140   0.514   6.528
 6513SOL     OW20437   4.884   0.207   7.063
 6513SOL    HW120438   4.884   0.271   7.140
 6513SOL    HW220439   4.912   0.255   6.980
 6514SOL     OW20440   3.732   1.326   5.786
 6514SOL    HW120441   3.639   1.347   5.755
 6514SOL    HW220442   3.742   1.227   5.799
 6515SOL     OW20443   3.812   1.801   6.513
 6515SOL    HW120444   3.770   1.715   6.486
 6515SOL    HW220445   3.906   1.804   6.479
 6516SOL     OW20446   4.228   1.568   6.496
 6516SOL    HW120447   4.294   1.642   6.505
 6516SOL    HW220448   4.272   1.489   6.454
 6517SOL     OW20449   4.726   0.796   6.824
 6517SOL    HW120450   4.767   0.764   6.910
 6517SOL    HW220451   4.630   0.769   6.821
 6518SOL     OW20452   3.764   0.544   6.700
 6518SOL    HW120453   3.849   0.511   6.659
 6518SOL    HW220454   3.777   0.559   6.798
 6519SOL     OW20455   4.539   0.572   5.911
 6519SOL    HW120456   4.546   0.483   5.865
 6519SOL    HW220457   4.445   0.606   5.903
 6520SOL     OW20458   5.381   0.604   6.792
 6520SOL    HW120459   5.343   0.535   6.854
 6520SOL    HW220460   5.463   0.568   6.748
 6521SOL     OW20461   4.395   0.464   6.855
 6521SOL    HW120462   4.361   0.375   6.825
 6521SOL    HW220463   4.421   0.518   6.775
 6522SOL     OW20464   4.654   1.678   7.051
 6522SOL    HW120465   4.630   1.660   6.956
 6522SOL    HW220466   4.684   1.772   7.061
 6523SOL     OW20467   4.197   0.500   5.777
 6523SOL    HW120468   4.258   0.580   5.781
 6523SOL    HW220469   4.102   0.531   5.784
 6524SOL     OW20470   3.883   1.137   7.052
 6524SOL    HW120471   3.905   1.076   7.128
 6524SOL    HW220472   3.893   1.088   6.966
 6525SOL     OW20473   5.071   1.059   6.820
 6525SOL    HW120474   5.095   0.996   6.746
 6525SOL    HW220475   4.981   1.099   6.802
 6526SOL     OW20476   5.026   0.855   5.895
 6526SOL    HW120477   4.940   0.824   5.937
 6526SOL    HW220478   5.022   0.841   5.796
 6527SOL     OW20479   5.483   1.747   6.740
 6527SOL    HW120480   5.544   1.777   6.667
 6527SOL    HW220481   5.445   1.658   6.718
 6528SOL     OW20482   4.976   1.731   6.714
 6528SOL    HW120483   5.060   1.736   6.660
 6528SOL    HW220484   4.953   1.635   6.732
 6529SOL     OW20485   3.807   1.258   6.608
 6529SOL    HW120486   3.802   1.257   6.708
 6529SOL    HW220487   3.724   1.217   6.570
 6530SOL     OW20488   5.450   0.135   6.109
 6530SOL    HW120489   5.523   0.118   6.042
 6530SOL    HW220490   5.419   0.048   6.147
 6531SOL     OW20491   5.112   1.573   6.063
 6531SOL    HW120492   5.179   1.585   5.989
 6531SOL    HW220493   5.072   1.662   6.086
 6532SOL     OW20494   5.004   0.927   6.258
 6532SOL    HW120495   5.064   0.846   6.260
 6532SOL    HW220496   5.044   0.996   6.198
 6533SOL     OW20497   4.396   1.616   5.740
 6533SOL    HW120498   4.405   1.626   5.641
 6533SOL    HW220499   4.356   1.527   5.761
 6534SOL     OW20500   5.565   0.175   6.549
 6534SOL    HW120501   5.604   0.090   6.513
 6534SOL    HW220502   5.467   0.177   6.530
 6535SOL     OW20503   3.987   0.326   6.306
 6535SOL    HW120504   3.908   0.377   6.272
 6535SOL    HW220505   3.978   0.311   6.404
 6536SOL     OW20506   4.918   1.612   5.617
 6536SOL    HW120507   4.924   1.519   5.654
 6536SOL    HW220508   4.859   1.612   5.537
 6537SOL     OW20509   4.546   1.002   6.958
 6537SOL    HW120510   4.586   1.001   6.866
 6537SOL    HW220511   4.556   1.094   6.998
 6538SOL     OW20512   4.640   0.910   5.877
 6538SOL    HW120513   4.703   0.948   5.809
 6538SOL    HW220514   4.680   0.827   5.916
 6539SOL     OW20515   5.228   1.607   5.630
 6539SOL    HW120516   5.136   1.644   5.637
 6539SOL    HW220517   5.266   1.627   5.540
 6540SOL     OW20518   5.338   1.292   6.875
 6540SOL    HW120519   5.398   1.295   6.955
 6540SOL    HW220520   5.263   1.356   6.888
 6541SOL     OW20521   4.763   1.098   6.282
 6541SOL    HW120522   4.693   1.051   6.336
 6541SOL    HW220523   4.822   1.030   6.239
 6542SOL     OW20524   4.738   0.236   6.557
 6542SOL    HW120525   4.730   0.200   6.464
 6542SOL    HW220526   4.736   0.160   6.622
 6543SOL     OW20527   4.314   1.487   6.077
 6543SOL    HW120528   4.356   1.429   6.007
 6543SOL    HW220529   4.270   1.566   6.033
 6544SOL     OW20530   5.433   0.385   6.967
 6544SOL    HW120531   5.506   0.454   6.971
 6544SOL    HW220532   5.461   0.310   6.908
 6545SOL     OW20533   3.979   1.348   5.876
 6545SOL    HW120534   3.883   1.349   5.849
 6545SOL    HW220535   3.991   1.401   5.960
 6546SOL     OW20536   3.799   0.345   5.619
 6546SOL    HW120537   3.707   0.317   5.590
 6546SOL    HW220538   3.830   0.422   5.563
 6547SOL     OW20539   3.796   0.166   5.904
 6547SOL    HW120540   3.779   0.249   5.850
 6547SOL    HW220541   3.886   0.129   5.882
 6548SOL     OW20542   4.907   1.335   5.705
 6548SOL    HW120543   4.808   1.324   5.707
 6548SOL    HW220544   4.941   1.350   5.798
 6549SOL     OW20545   5.217   1.767   6.545
 6549SOL    HW120546   5.250   1.831   6.476
 6549SOL    HW220547   5.283   1.761   6.620
 6550SOL     OW20548   5.174   1.220   7.219
 6550SOL    HW120549   5.165   1.210   7.318
 6550SOL    HW220550   5.270   1.213   7.193
 6551SOL     OW20551   4.114   1.741   7.146
 6551SOL    HW120552   4.023   1.782   7.144
 6551SOL    HW220553   4.107   1.647   7.178
 6552SOL     OW20554   5.398   0.883   6.840
 6552SOL    HW120555   5.371   0.794   6.803
 6552SOL    HW220556   5.399   0.951   6.767
 6553SOL     OW20557   4.949   0.325   6.035
 6553SOL    HW120558   5.014   0.251   6.024
 6553SOL    HW220559   4.969   0.375   6.119
 6554SOL     OW20560   4.318   0.745   6.238
 6554SOL    HW120561   4.368   0.830   6.219
 6554SOL    HW220562   4.230   0.747   6.190
 6555SOL     OW20563   5.454   0.934   7.103
 6555SOL    HW120564   5.492   1.025   7.118
 6555SOL    HW220565   5.446   0.917   7.004
 6556SOL     OW20566   4.583   1.374   5.602
 6556SOL    HW120567   4.537   1.389   5.690
 6556SOL    HW220568   4.627   1.459   5.572
 6557SOL     OW20569   4.385   1.790   6.539
 6557SOL    HW120570   4.339   1.878   6.526
 6557SOL    HW220571   4.484   1.802   6.532
 6558SOL     OW20572   4.583   0.956   6.447
 6558SOL    HW120573   4.637   0.887   6.495
 6558SOL    HW220574   4.551   1.025   6.513
 6559SOL     OW20575   4.807   0.984   5.673
 6559SOL    HW120576   4.784   1.037   5.591
 6559SOL    HW220577   4.888   0.928   5.654
 6560SOL     OW20578   5.585   1.569   6.437
 6560SOL    HW120579   5.514   1.557   6.367
 6560SOL    HW220580   5.586   1.490   6.497
 6561SOL     OW20581   3.803   1.240   6.239
 6561SOL    HW120582   3.802   1.193   6.327
 6561SOL    HW220583   3.885   1.212   6.188
 6562SOL     OW20584   5.548   0.192   6.813
 6562SOL    HW120585   5.544   0.102   6.857
 6562SOL    HW220586   5.551   0.181   6.714
 6563SOL     OW20587   4.152   0.424   6.106
 6563SOL    HW120588   4.182   0.352   6.044
 6563SOL    HW220589   4.113   0.384   6.189
 6564SOL     OW20590   5.429   1.487   6.690
 6564SOL    HW120591   5.336   1.462   6.663
 6564SOL    HW220592   5.455   1.437   6.772
 6565SOL     OW20593   4.041   0.547   6.866
 6565SOL    HW120594   4.079   0.488   6.938
 6565SOL    HW220595   4.081   0.521   6.778
 6566SOL     OW20596   4.536   1.586   6.273
 6566SOL    HW120597   4.568   1.596   6.179
 6566SOL    HW220598   4.457   1.524   6.275
 6567SOL     OW20599   5.148   0.214   6.698
 6567SOL    HW120600   5.200   0.149   6.753
 6567SOL    HW220601   5.099   0.277   6.759
 6568SOL     OW20602   4.725   0.034   6.740
 6568SOL    HW120603   4.662  -0.038   6.709
 6568SOL    HW220604   4.818  -0.002   6.740
 6569SOL     OW20605   4.494   1.330   5.887
 6569SOL    HW120606   4.448   1.243   5.904
 6569SOL    HW220607   4.585   1.327   5.928
 6570SOL     OW20608   4.342   1.567   6.870
 6570SOL    HW120609   4.337   1.649   6.927
 6570SOL    HW220610   4.431   1.564   6.825
 6571SOL     OW20611   5.076   0.052   5.754
 6571SOL    HW120612   5.111   0.011   5.670
 6571SOL    HW220613   4.986   0.014   5.774
 6572SOL     OW20614   5.024   0.453   6.277
 6572SOL    HW120615   4.965   0.533   6.281
 6572SOL    HW220616   5.039   0.418   6.370
 6573SOL     OW20617   5.317   0.221   6.468
 6573SOL    HW120618   5.233   0.220   6.522
 6573SOL    HW220619   5.319   0.304   6.412
 6574SOL     OW20620   3.763   1.077   5.886
 6574SOL    HW120621   3.862   1.066   5.877
 6574SOL    HW220622   3.723   0.991   5.918
 6575SOL     OW20623   4.599   1.646   5.923
 6575SOL    HW120624   4.522   1.611   5.869
 6575SOL    HW220625   4.567   1.717   5.985
 6576SOL     OW20626   3.954   2.490   0.113
 6576SOL    HW120627   3.861   2.488   0.150
 6576SOL    HW220628   3.955   2.451   0.021
 6577SOL     OW20629   3.949   2.137   0.996
 6577SOL    HW120630   3.984   2.120   1.088
 6577SOL    HW220631   3.861   2.092   0.984
 6578SOL     OW20632   3.743   2.230   0.647
 6578SOL    HW120633   3.661   2.273   0.686
 6578SOL    HW220634   3.715   2.157   0.584
 6579SOL     OW20635   5.279   3.373   0.703
 6579SOL    HW120636   5.222   3.357   0.784
 6579SOL    HW220637   5.220   3.383   0.623
 6580SOL     OW20638   4.859   2.565   0.717
 6580SOL    HW120639   4.916   2.643   0.692
 6580SOL    HW220640   4.799   2.591   0.793
 6581SOL     OW20641   5.479   2.469   0.231
 6581SOL    HW120642   5.467   2.456   0.132
 6581SOL    HW220643   5.449   2.388   0.280
 6582SOL     OW20644   4.492   3.006   1.023
 6582SOL    HW120645   4.414   3.023   1.083
 6582SOL    HW220646   4.526   3.093   0.987
 6583SOL     OW20647   4.574   2.660   1.823
 6583SOL    HW120648   4.570   2.736   1.888
 6583SOL    HW220649   4.596   2.696   1.732
 6584SOL     OW20650   4.409   2.874   0.665
 6584SOL    HW120651   4.478   2.858   0.735
 6584SOL    HW220652   4.336   2.931   0.703
 6585SOL     OW20653   5.184   3.367   1.339
 6585SOL    HW120654   5.208   3.461   1.365
 6585SOL    HW220655   5.168   3.313   1.421
 6586SOL     OW20656   4.162   2.254   1.499
 6586SOL    HW120657   4.244   2.198   1.508
 6586SOL    HW220658   4.081   2.196   1.503
 6587SOL     OW20659   5.327   2.309   0.737
 6587SOL    HW120660   5.253   2.355   0.687
 6587SOL    HW220661   5.378   2.377   0.790
 6588SOL     OW20662   3.955   3.575   0.483
 6588SOL    HW120663   3.989   3.652   0.537
 6588SOL    HW220664   3.999   3.575   0.393
 6589SOL     OW20665   4.851   3.203   1.690
 6589SOL    HW120666   4.898   3.203   1.778
 6589SOL    HW220667   4.803   3.116   1.679
 6590SOL     OW20668   3.954   3.296   0.538
 6590SOL    HW120669   3.928   3.392   0.538
 6590SOL    HW220670   3.883   3.242   0.583
 6591SOL     OW20671   3.964   2.953   0.886
 6591SOL    HW120672   3.978   2.869   0.938
 6591SOL    HW220673   3.909   3.017   0.941
 6592SOL     OW20674   4.344   3.648   1.439
 6592SOL    HW120675   4.252   3.631   1.474
 6592SOL    HW220676   4.372   3.740   1.465
 6593SOL     OW20677   4.330   2.826   0.123
 6593SOL    HW120678   4.337   2.910   0.069
 6593SOL    HW220679   4.376   2.839   0.211
 6594SOL     OW20680   5.318   1.976   1.480
 6594SOL    HW120681   5.300   2.043   1.408
 6594SOL    HW220682   5.315   2.022   1.569
 6595SOL     OW20683   3.846   2.505   0.563
 6595SOL    HW120684   3.801   2.417   0.580
 6595SOL    HW220685   3.845   2.559   0.647
 6596SOL     OW20686   5.566   3.629   0.359
 6596SOL    HW120687   5.620   3.600   0.439
 6596SOL    HW220688   5.596   3.719   0.330
 6597SOL     OW20689   3.751   3.458   0.117
 6597SOL    HW120690   3.732   3.362   0.138
 6597SOL    HW220691   3.718   3.516   0.192
 6598SOL     OW20692   5.413   2.784   0.612
 6598SOL    HW120693   5.508   2.755   0.620
 6598SOL    HW220694   5.405   2.849   0.537
 6599SOL     OW20695   5.365   2.970   0.432
 6599SOL    HW120696   5.451   2.972   0.380
 6599SOL    HW220697   5.379   3.017   0.520
 6600SOL     OW20698   3.837   2.599   1.597
 6600SOL    HW120699   3.925   2.586   1.642
 6600SOL    HW220700   3.824   2.696   1.575
 6601SOL     OW20701   4.337   3.227   0.726
 6601SOL    HW120702   4.288   3.140   0.735
 6601SOL    HW220703   4.314   3.270   0.639
 6602SOL     OW20704   5.017   3.090   1.423
 6602SOL    HW120705   5.054   3.017   1.365
 6602SOL    HW220706   5.069   3.095   1.508
 6603SOL     OW20707   4.533   1.866   0.502
 6603SOL    HW120708   4.573   1.957   0.493
 6603SOL    HW220709   4.433   1.874   0.508
 6604SOL     OW20710   3.921   2.838   1.264
 6604SOL    HW120711   4.010   2.793   1.250
 6604SOL    HW220712   3.848   2.773   1.245
 6605SOL     OW20713   5.249   2.861   0.190
 6605SOL    HW120714   5.186   2.785   0.203
 6605SOL    HW220715   5.297   2.879   0.276
 6606SOL     OW20716   4.911   3.654   1.616
 6606SOL    HW120717   4.935   3.714   1.540
 6606SOL    HW220718   4.918   3.559   1.586
 6607SOL     OW20719   4.041   2.113   1.801
 6607SOL    HW120720   4.112   2.184   1.807
 6607SOL    HW220721   3.953   2.152   1.829
 6608SOL     OW20722   5.190   3.279   0.953
 6608SOL    HW120723   5.131   3.285   1.033
 6608SOL    HW220724   5.175   3.191   0.907
 6609SOL     OW20725   5.391   3.576   0.572
 6609SOL    HW120726   5.350   3.553   0.484
 6609SOL    HW220727   5.373   3.502   0.637
 6610SOL     OW20728   4.322   2.591   0.270
 6610SOL    HW120729   4.346   2.660   0.202
 6610SOL    HW220730   4.244   2.624   0.324
 6611SOL     OW20731   5.005   2.207   0.944
 6611SOL    HW120732   4.919   2.157   0.931
 6611SOL    HW220733   5.067   2.153   1.000
 6612SOL     OW20734   5.300   3.524   0.307
 6612SOL    HW120735   5.389   3.570   0.310
 6612SOL    HW220736   5.279   3.500   0.212
 6613SOL     OW20737   4.531   2.467   1.465
 6613SOL    HW120738   4.484   2.464   1.554
 6613SOL    HW220739   4.480   2.412   1.399
 6614SOL     OW20740   5.118   2.331   1.674
 6614SOL    HW120741   5.098   2.374   1.762
 6614SOL    HW220742   5.196   2.269   1.683
 6615SOL     OW20743   4.697   2.752   1.572
 6615SOL    HW120744   4.743   2.668   1.543
 6615SOL    HW220745   4.641   2.786   1.497
 6616SOL     OW20746   4.715   2.272   1.242
 6616SOL    HW120747   4.638   2.306   1.296
 6616SOL    HW220748   4.681   2.221   1.163
 6617SOL     OW20749   4.765   2.563   0.429
 6617SOL    HW120750   4.791   2.559   0.525
 6617SOL    HW220751   4.680   2.512   0.415
 6618SOL     OW20752   3.800   2.673   0.789
 6618SOL    HW120753   3.899   2.661   0.798
 6618SOL    HW220754   3.776   2.768   0.810
 6619SOL     OW20755   3.854   3.683   1.571
 6619SOL    HW120756   3.844   3.668   1.670
 6619SOL    HW220757   3.768   3.719   1.535
 6620SOL     OW20758   4.589   2.210   0.195
 6620SOL    HW120759   4.648   2.273   0.146
 6620SOL    HW220760   4.608   2.116   0.166
 6621SOL     OW20761   5.443   2.447   1.831
 6621SOL    HW120762   5.417   2.536   1.795
 6621SOL    HW220763   5.441   2.379   1.758
 6622SOL     OW20764   5.086   3.006   0.545
 6622SOL    HW120765   5.169   2.977   0.497
 6622SOL    HW220766   5.037   3.073   0.489
 6623SOL     OW20767   4.274   2.058   0.885
 6623SOL    HW120768   4.269   2.053   0.985
 6623SOL    HW220769   4.276   2.154   0.856
 6624SOL     OW20770   4.732   3.318   0.477
 6624SOL    HW120771   4.686   3.390   0.425
 6624SOL    HW220772   4.728   3.338   0.575
 6625SOL     OW20773   4.075   3.663   0.853
 6625SOL    HW120774   4.125   3.577   0.859
 6625SOL    HW220775   4.140   3.740   0.850
 6626SOL     OW20776   5.519   2.928   0.873
 6626SOL    HW120777   5.457   2.913   0.797
 6626SOL    HW220778   5.467   2.939   0.958
 6627SOL     OW20779   4.951   3.412   1.506
 6627SOL    HW120780   4.957   3.335   1.570
 6627SOL    HW220781   4.899   3.386   1.426
 6628SOL     OW20782   4.045   2.805   0.242
 6628SOL    HW120783   4.127   2.844   0.200
 6628SOL    HW220784   4.018   2.723   0.193
 6629SOL     OW20785   5.182   2.597   0.728
 6629SOL    HW120786   5.177   2.532   0.803
 6629SOL    HW220787   5.262   2.656   0.741
 6630SOL     OW20788   4.185   3.128   1.727
 6630SOL    HW120789   4.135   3.129   1.641
 6630SOL    HW220790   4.122   3.110   1.803
 6631SOL     OW20791   4.835   3.638   0.237
 6631SOL    HW120792   4.775   3.576   0.287
 6631SOL    HW220793   4.866   3.594   0.152
 6632SOL     OW20794   3.926   2.147   1.498
 6632SOL    HW120795   3.846   2.207   1.485
 6632SOL    HW220796   3.916   2.098   1.584
 6633SOL     OW20797   5.356   3.239   0.081
 6633SOL    HW120798   5.324   3.333   0.071
 6633SOL    HW220799   5.280   3.176   0.069
 6634SOL     OW20800   4.188   3.605   0.323
 6634SOL    HW120801   4.221   3.644   0.409
 6634SOL    HW220802   4.264   3.598   0.258
 6635SOL     OW20803   3.973   3.647   1.241
 6635SOL    HW120804   4.030   3.582   1.291
 6635SOL    HW220805   3.957   3.614   1.148
 6636SOL     OW20806   4.664   3.560   0.904
 6636SOL    HW120807   4.744   3.503   0.925
 6636SOL    HW220808   4.615   3.520   0.827
 6637SOL     OW20809   4.106   2.562   0.480
 6637SOL    HW120810   4.151   2.472   0.477
 6637SOL    HW220811   4.012   2.551   0.513
 6638SOL     OW20812   5.271   2.084   1.729
 6638SOL    HW120813   5.266   2.121   1.821
 6638SOL    HW220814   5.199   2.015   1.717
 6639SOL     OW20815   4.505   2.126   1.749
 6639SOL    HW120816   4.572   2.065   1.792
 6639SOL    HW220817   4.432   2.145   1.814
 6640SOL     OW20818   4.612   3.376   1.195
 6640SOL    HW120819   4.589   3.351   1.101
 6640SOL    HW220820   4.673   3.307   1.234
 6641SOL     OW20821   5.075   2.452   1.433
 6641SOL    HW120822   5.103   2.409   1.518
 6641SOL    HW220823   5.100   2.548   1.434
 6642SOL     OW20824   4.527   3.264   0.924
 6642SOL    HW120825   4.617   3.278   0.882
 6642SOL    HW220826   4.456   3.266   0.853
 6643SOL     OW20827   4.646   2.365   0.899
 6643SOL    HW120828   4.621   2.356   0.803
 6643SOL    HW220829   4.694   2.283   0.930
 6644SOL     OW20830   4.263   1.926   0.512
 6644SOL    HW120831   4.182   1.927   0.570
 6644SOL    HW220832   4.266   2.009   0.457
 6645SOL     OW20833   5.158   3.050   0.041
 6645SOL    HW120834   5.190   2.974   0.098
 6645SOL    HW220835   5.066   3.077   0.071
 6646SOL     OW20836   4.659   2.098   0.480
 6646SOL    HW120837   4.611   2.139   0.402
 6646SOL    HW220838   4.758   2.096   0.461
 6647SOL     OW20839   4.800   2.545   1.464
 6647SOL    HW120840   4.720   2.484   1.467
 6647SOL    HW220841   4.881   2.492   1.440
 6648SOL     OW20842   4.951   3.432   0.793
 6648SOL    HW120843   4.972   3.506   0.728
 6648SOL    HW220844   5.019   3.432   0.866
 6649SOL     OW20845   4.183   3.014   0.741
 6649SOL    HW120846   4.112   2.987   0.806
 6649SOL    HW220847   4.157   2.986   0.648
 6650SOL     OW20848   4.995   3.659   0.591
 6650SOL    HW120849   5.039   3.723   0.527
 6650SOL    HW220850   4.945   3.711   0.661
 6651SOL     OW20851   4.756   2.411   0.016
 6651SOL    HW120852   4.715   2.493  -0.023
 6651SOL    HW220853   4.820   2.437   0.089
 6652SOL     OW20854   3.802   2.418   1.386
 6652SOL    HW120855   3.894   2.417   1.345
 6652SOL    HW220856   3.796   2.492   1.453
 6653SOL     OW20857   4.285   2.084   1.147
 6653SOL    HW120858   4.323   2.000   1.184
 6653SOL    HW220859   4.197   2.103   1.191
 6654SOL     OW20860   4.590   2.316   0.642
 6654SOL    HW120861   4.558   2.388   0.580
 6654SOL    HW220862   4.614   2.235   0.589
 6655SOL     OW20863   4.741   1.901   0.753
 6655SOL    HW120864   4.669   1.906   0.684
 6655SOL    HW220865   4.717   1.832   0.822
 6656SOL     OW20866   5.153   3.035   0.867
 6656SOL    HW120867   5.098   2.951   0.860
 6656SOL    HW220868   5.179   3.064   0.775
 6657SOL     OW20869   5.190   2.452   0.992
 6657SOL    HW120870   5.160   2.357   0.999
 6657SOL    HW220871   5.263   2.468   1.058
 6658SOL     OW20872   5.581   2.695   0.377
 6658SOL    HW120873   5.623   2.631   0.441
 6658SOL    HW220874   5.543   2.644   0.299
 6659SOL     OW20875   4.212   3.247   0.174
 6659SOL    HW120876   4.125   3.232   0.221
 6659SOL    HW220877   4.195   3.273   0.079
 6660SOL     OW20878   5.388   3.142   0.657
 6660SOL    HW120879   5.487   3.150   0.671
 6660SOL    HW220880   5.343   3.226   0.688
 6661SOL     OW20881   5.114   2.437   0.078
 6661SOL    HW120882   5.060   2.416   0.159
 6661SOL    HW220883   5.205   2.396   0.087
 6662SOL     OW20884   4.251   2.118   0.328
 6662SOL    HW120885   4.278   2.059   0.253
 6662SOL    HW220886   4.251   2.213   0.297
 6663SOL     OW20887   5.478   3.085   1.588
 6663SOL    HW120888   5.569   3.046   1.575
 6663SOL    HW220889   5.486   3.181   1.612
 6664SOL     OW20890   4.788   3.209   1.340
 6664SOL    HW120891   4.708   3.186   1.395
 6664SOL    HW220892   4.871   3.183   1.389
 6665SOL     OW20893   5.316   3.491   1.625
 6665SOL    HW120894   5.343   3.525   1.535
 6665SOL    HW220895   5.395   3.453   1.671
 6666SOL     OW20896   4.835   3.057   1.100
 6666SOL    HW120897   4.795   3.101   1.181
 6666SOL    HW220898   4.794   3.094   1.017
 6667SOL     OW20899   5.362   2.961   1.079
 6667SOL    HW120900   5.367   3.042   1.138
 6667SOL    HW220901   5.276   2.963   1.028
 6668SOL     OW20902   4.639   1.951   1.402
 6668SOL    HW120903   4.664   1.931   1.307
 6668SOL    HW220904   4.711   2.007   1.444
 6669SOL     OW20905   4.429   2.912   0.368
 6669SOL    HW120906   4.415   2.919   0.467
 6669SOL    HW220907   4.513   2.861   0.350
 6670SOL     OW20908   4.134   2.675   1.251
 6670SOL    HW120909   4.220   2.687   1.301
 6670SOL    HW220910   4.092   2.588   1.278
 6671SOL     OW20911   4.998   2.248   1.262
 6671SOL    HW120912   5.019   2.322   1.326
 6671SOL    HW220913   4.909   2.265   1.219
 6672SOL     OW20914   3.788   3.426   1.331
 6672SOL    HW120915   3.742   3.508   1.297
 6672SOL    HW220916   3.886   3.445   1.340
 6673SOL     OW20917   4.091   2.962   0.501
 6673SOL    HW120918   4.084   3.045   0.445
 6673SOL    HW220919   4.095   2.882   0.441
 6674SOL     OW20920   4.290   2.399   0.865
 6674SOL    HW120921   4.302   2.465   0.791
 6674SOL    HW220922   4.336   2.433   0.948
 6675SOL     OW20923   4.976   3.210   0.388
 6675SOL    HW120924   5.026   3.287   0.428
 6675SOL    HW220925   4.881   3.212   0.420
 6676SOL     OW20926   4.996   3.307   1.142
 6676SOL    HW120927   5.043   3.320   1.229
 6676SOL    HW220928   4.930   3.233   1.151
 6677SOL     OW20929   5.306   2.501   0.472
 6677SOL    HW120930   5.275   2.562   0.545
 6677SOL    HW220931   5.356   2.553   0.403
 6678SOL     OW20932   4.126   2.613   1.598
 6678SOL    HW120933   4.194   2.668   1.551
 6678SOL    HW220934   4.166   2.525   1.625
 6679SOL     OW20935   5.311   2.641   1.670
 6679SOL    HW120936   5.219   2.679   1.665
 6679SOL    HW220937   5.371   2.688   1.605
 6680SOL     OW20938   4.737   1.967   1.770
 6680SOL    HW120939   4.743   2.052   1.718
 6680SOL    HW220940   4.769   1.891   1.713
 6681SOL     OW20941   4.228   1.912   1.740
 6681SOL    HW120942   4.186   1.855   1.670
 6681SOL    HW220943   4.162   1.981   1.772
 6682SOL     OW20944   4.297   2.732   1.029
 6682SOL    HW120945   4.341   2.821   1.020
 6682SOL    HW220946   4.234   2.732   1.106
 6683SOL     OW20947   5.084   2.724   1.045
 6683SOL    HW120948   5.009   2.724   0.979
 6683SOL    HW220949   5.121   2.632   1.054
 6684SOL     OW20950   4.933   2.387   0.275
 6684SOL    HW120951   4.946   2.303   0.329
 6684SOL    HW220952   4.904   2.461   0.335
 6685SOL     OW20953   4.031   2.075   1.231
 6685SOL    HW120954   4.008   2.112   1.321
 6685SOL    HW220955   4.001   1.980   1.225
 6686SOL     OW20956   4.456   2.496   1.064
 6686SOL    HW120957   4.515   2.470   0.988
 6686SOL    HW220958   4.428   2.592   1.053
 6687SOL     OW20959   5.452   2.797   1.854
 6687SOL    HW120960   5.406   2.790   1.765
 6687SOL    HW220961   5.390   2.841   1.920
 6688SOL     OW20962   4.031   1.925   0.618
 6688SOL    HW120963   4.020   2.019   0.651
 6688SOL    HW220964   4.026   1.862   0.695
 6689SOL     OW20965   5.346   2.229   0.374
 6689SOL    HW120966   5.348   2.153   0.438
 6689SOL    HW220967   5.298   2.306   0.414
 6690SOL     OW20968   4.747   2.628   0.966
 6690SOL    HW120969   4.762   2.649   1.062
 6690SOL    HW220970   4.717   2.533   0.957
 6691SOL     OW20971   4.704   3.435   1.700
 6691SOL    HW120972   4.684   3.479   1.612
 6691SOL    HW220973   4.743   3.344   1.684
 6692SOL     OW20974   5.583   3.380   1.605
 6692SOL    HW120975   5.597   3.407   1.510
 6692SOL    HW220976   5.666   3.402   1.658
 6693SOL     OW20977   5.264   2.136   0.125
 6693SOL    HW120978   5.203   2.061   0.148
 6693SOL    HW220979   5.286   2.188   0.208
 6694SOL     OW20980   5.027   2.700   0.042
 6694SOL    HW120981   5.061   2.607   0.057
 6694SOL    HW220982   5.045   2.727  -0.053
 6695SOL     OW20983   4.792   3.195   0.849
 6695SOL    HW120984   4.799   3.111   0.794
 6695SOL    HW220985   4.854   3.264   0.813
 6696SOL     OW20986   4.043   2.672   0.949
 6696SOL    HW120987   4.136   2.708   0.954
 6696SOL    HW220988   4.037   2.587   1.001
 6697SOL     OW20989   4.063   2.371   1.006
 6697SOL    HW120990   4.011   2.288   0.989
 6697SOL    HW220991   4.140   2.376   0.942
 6698SOL     OW20992   4.862   2.242   1.678
 6698SOL    HW120993   4.817   2.305   1.742
 6698SOL    HW220994   4.955   2.273   1.661
 6699SOL     OW20995   4.884   2.069   1.477
 6699SOL    HW120996   4.884   2.133   1.554
 6699SOL    HW220997   4.912   2.117   1.394
 6700SOL     OW20998   4.228   3.430   0.910
 6700SOL    HW120999   4.294   3.504   0.919
 6700SOL    HW221000   4.272   3.351   0.868
 6701SOL     OW21001   4.726   2.658   1.238
 6701SOL    HW121002   4.767   2.626   1.324
 6701SOL    HW221003   4.630   2.631   1.235
 6702SOL     OW21004   3.764   2.406   1.114
 6702SOL    HW121005   3.849   2.373   1.073
 6702SOL    HW221006   3.777   2.421   1.212
 6703SOL     OW21007   3.913   2.382   1.722
 6703SOL    HW121008   3.972   2.342   1.652
 6703SOL    HW221009   3.855   2.453   1.681
 6704SOL     OW21010   5.093   2.812   1.660
 6704SOL    HW121011   5.132   2.901   1.680
 6704SOL    HW221012   5.103   2.792   1.563
 6705SOL     OW21013   4.539   2.434   0.325
 6705SOL    HW121014   4.546   2.345   0.279
 6705SOL    HW221015   4.445   2.468   0.317
 6706SOL     OW21016   5.381   2.466   1.206
 6706SOL    HW121017   5.343   2.397   1.268
 6706SOL    HW221018   5.463   2.430   1.162
 6707SOL     OW21019   3.976   3.426   1.744
 6707SOL    HW121020   3.946   3.483   1.820
 6707SOL    HW221021   3.969   3.329   1.770
 6708SOL     OW21022   4.395   2.326   1.269
 6708SOL    HW121023   4.361   2.237   1.239
 6708SOL    HW221024   4.421   2.380   1.189
 6709SOL     OW21025   4.654   3.540   1.465
 6709SOL    HW121026   4.630   3.522   1.370
 6709SOL    HW221027   4.684   3.634   1.475
 6710SOL     OW21028   4.197   2.362   0.191
 6710SOL    HW121029   4.258   2.442   0.195
 6710SOL    HW221030   4.102   2.393   0.198
 6711SOL     OW21031   3.883   2.999   1.466
 6711SOL    HW121032   3.905   2.938   1.542
 6711SOL    HW221033   3.893   2.950   1.380
 6712SOL     OW21034   5.071   2.921   1.234
 6712SOL    HW121035   5.095   2.858   1.160
 6712SOL    HW221036   4.981   2.961   1.216
 6713SOL     OW21037   5.026   2.717   0.309
 6713SOL    HW121038   4.940   2.686   0.351
 6713SOL    HW221039   5.022   2.703   0.210
 6714SOL     OW21040   5.483   3.609   1.154
 6714SOL    HW121041   5.544   3.639   1.081
 6714SOL    HW221042   5.445   3.520   1.132
 6715SOL     OW21043   4.976   3.593   1.128
 6715SOL    HW121044   5.060   3.598   1.074
 6715SOL    HW221045   4.953   3.497   1.146
 6716SOL     OW21046   4.412   3.524   1.716
 6716SOL    HW121047   4.356   3.605   1.725
 6716SOL    HW221048   4.464   3.528   1.630
 6717SOL     OW21049   4.627   1.948   0.133
 6717SOL    HW121050   4.678   1.949   0.047
 6717SOL    HW221051   4.683   1.906   0.204
 6718SOL     OW21052   5.450   1.997   0.523
 6718SOL    HW121053   5.523   1.980   0.456
 6718SOL    HW221054   5.419   1.910   0.561
 6719SOL     OW21055   5.112   3.435   0.477
 6719SOL    HW121056   5.179   3.447   0.403
 6719SOL    HW221057   5.072   3.524   0.500
 6720SOL     OW21058   3.854   3.656   1.851
 6720SOL    HW121059   3.813   3.582   1.904
 6720SOL    HW221060   3.918   3.707   1.909
 6721SOL     OW21061   5.004   2.789   0.672
 6721SOL    HW121062   5.064   2.708   0.674
 6721SOL    HW221063   5.044   2.858   0.612
 6722SOL     OW21064   4.554   3.135   1.422
 6722SOL    HW121065   4.549   3.168   1.517
 6722SOL    HW221066   4.468   3.154   1.376
 6723SOL     OW21067   4.396   3.478   0.154
 6723SOL    HW121068   4.405   3.488   0.055
 6723SOL    HW221069   4.356   3.389   0.175
 6724SOL     OW21070   5.374   3.582   1.394
 6724SOL    HW121071   5.427   3.592   1.310
 6724SOL    HW221072   5.347   3.672   1.428
 6725SOL     OW21073   5.565   2.037   0.963
 6725SOL    HW121074   5.604   1.952   0.927
 6725SOL    HW221075   5.467   2.039   0.944
 6726SOL     OW21076   3.987   2.188   0.720
 6726SOL    HW121077   3.908   2.239   0.686
 6726SOL    HW221078   3.978   2.173   0.818
 6727SOL     OW21079   4.918   3.474   0.031
 6727SOL    HW121080   4.924   3.381   0.068
 6727SOL    HW221081   4.859   3.474  -0.049
 6728SOL     OW21082   4.546   2.864   1.372
 6728SOL    HW121083   4.586   2.863   1.280
 6728SOL    HW221084   4.556   2.956   1.412
 6729SOL     OW21085   4.640   2.772   0.291
 6729SOL    HW121086   4.703   2.810   0.223
 6729SOL    HW221087   4.680   2.689   0.330
 6730SOL     OW21088   5.228   3.469   0.044
 6730SOL    HW121089   5.136   3.506   0.051
 6730SOL    HW221090   5.266   3.489  -0.046
 6731SOL     OW21091   4.096   3.150   1.490
 6731SOL    HW121092   4.083   3.243   1.456
 6731SOL    HW221093   4.012   3.098   1.477
 6732SOL     OW21094   5.338   3.154   1.289
 6732SOL    HW121095   5.398   3.157   1.369
 6732SOL    HW221096   5.263   3.218   1.302
 6733SOL     OW21097   4.763   2.960   0.696
 6733SOL    HW121098   4.693   2.913   0.750
 6733SOL    HW221099   4.822   2.892   0.653
 6734SOL     OW21100   4.738   2.098   0.971
 6734SOL    HW121101   4.730   2.062   0.878
 6734SOL    HW221102   4.736   2.022   1.036
 6735SOL     OW21103   4.314   3.349   0.491
 6735SOL    HW121104   4.356   3.291   0.421
 6735SOL    HW221105   4.270   3.428   0.447
 6736SOL     OW21106   5.433   2.247   1.381
 6736SOL    HW121107   5.506   2.316   1.385
 6736SOL    HW221108   5.461   2.172   1.322
 6737SOL     OW21109   3.979   3.210   0.290
 6737SOL    HW121110   3.883   3.211   0.263
 6737SOL    HW221111   3.991   3.263   0.374
 6738SOL     OW21112   3.829   2.875   1.726
 6738SOL    HW121113   3.752   2.842   1.780
 6738SOL    HW221114   3.914   2.845   1.768
 6739SOL     OW21115   4.396   2.065   1.489
 6739SOL    HW121116   4.486   2.049   1.449
 6739SOL    HW221117   4.404   2.070   1.588
 6740SOL     OW21118   3.799   2.207   0.033
 6740SOL    HW121119   3.707   2.179   0.004
 6740SOL    HW221120   3.830   2.284  -0.023
 6741SOL     OW21121   5.164   2.718   1.398
 6741SOL    HW121122   5.107   2.770   1.335
 6741SOL    HW221123   5.260   2.730   1.374
 6742SOL     OW21124   3.796   2.028   0.318
 6742SOL    HW121125   3.779   2.111   0.264
 6742SOL    HW221126   3.886   1.991   0.296
 6743SOL     OW21127   4.907   3.197   0.119
 6743SOL    HW121128   4.808   3.186   0.121
 6743SOL    HW221129   4.941   3.212   0.212
 6744SOL     OW21130   4.337   2.704   1.431
 6744SOL    HW121131   4.393   2.785   1.414
 6744SOL    HW221132   4.396   2.624   1.434
 6745SOL     OW21133   5.217   3.629   0.959
 6745SOL    HW121134   5.250   3.693   0.890
 6745SOL    HW221135   5.283   3.623   1.034
 6746SOL     OW21136   4.440   2.427   1.708
 6746SOL    HW121137   4.459   2.492   1.782
 6746SOL    HW221138   4.500   2.347   1.717
 6747SOL     OW21139   5.174   3.082   1.633
 6747SOL    HW121140   5.165   3.072   1.732
 6747SOL    HW221141   5.270   3.075   1.607
 6748SOL     OW21142   4.114   3.603   1.560
 6748SOL    HW121143   4.023   3.644   1.558
 6748SOL    HW221144   4.107   3.509   1.592
 6749SOL     OW21145   5.398   2.745   1.254
 6749SOL    HW121146   5.371   2.656   1.217
 6749SOL    HW221147   5.399   2.813   1.181
 6750SOL     OW21148   4.949   2.187   0.449
 6750SOL    HW121149   5.014   2.113   0.438
 6750SOL    HW221150   4.969   2.237   0.533
 6751SOL     OW21151   4.318   2.607   0.652
 6751SOL    HW121152   4.368   2.692   0.633
 6751SOL    HW221153   4.230   2.609   0.604
 6752SOL     OW21154   5.501   2.204   1.642
 6752SOL    HW121155   5.484   2.235   1.548
 6752SOL    HW221156   5.417   2.167   1.680
 6753SOL     OW21157   5.454   2.796   1.517
 6753SOL    HW121158   5.492   2.887   1.532
 6753SOL    HW221159   5.446   2.779   1.418
 6754SOL     OW21160   4.583   3.236   0.016
 6754SOL    HW121161   4.537   3.251   0.104
 6754SOL    HW221162   4.627   3.321  -0.014
 6755SOL     OW21163   4.385   3.652   0.953
 6755SOL    HW121164   4.339   3.740   0.940
 6755SOL    HW221165   4.484   3.664   0.946
 6756SOL     OW21166   4.583   2.818   0.861
 6756SOL    HW121167   4.637   2.749   0.909
 6756SOL    HW221168   4.551   2.887   0.927
 6757SOL     OW21169   4.807   2.846   0.087
 6757SOL    HW121170   4.784   2.899   0.005
 6757SOL    HW221171   4.888   2.790   0.068
 6758SOL     OW21172   5.585   3.431   0.851
 6758SOL    HW121173   5.514   3.419   0.781
 6758SOL    HW221174   5.586   3.352   0.911
 6759SOL     OW21175   3.945   3.176   1.844
 6759SOL    HW121176   3.880   3.103   1.823
 6759SOL    HW221177   3.949   3.190   1.942
 6760SOL     OW21178   3.803   3.102   0.653
 6760SOL    HW121179   3.802   3.055   0.741
 6760SOL    HW221180   3.885   3.074   0.602
 6761SOL     OW21181   4.396   3.253   1.624
 6761SOL    HW121182   4.318   3.203   1.662
 6761SOL    HW221183   4.393   3.348   1.655
 6762SOL     OW21184   5.548   2.054   1.227
 6762SOL    HW121185   5.544   1.964   1.271
 6762SOL    HW221186   5.551   2.043   1.128
 6763SOL     OW21187   4.152   2.286   0.520
 6763SOL    HW121188   4.182   2.214   0.458
 6763SOL    HW221189   4.113   2.246   0.603
 6764SOL     OW21190   5.429   3.349   1.104
 6764SOL    HW121191   5.336   3.324   1.077
 6764SOL    HW221192   5.455   3.299   1.186
 6765SOL     OW21193   4.041   2.409   1.280
 6765SOL    HW121194   4.079   2.350   1.352
 6765SOL    HW221195   4.081   2.383   1.192
 6766SOL     OW21196   4.536   3.448   0.687
 6766SOL    HW121197   4.568   3.458   0.593
 6766SOL    HW221198   4.457   3.386   0.689
 6767SOL     OW21199   5.148   2.076   1.112
 6767SOL    HW121200   5.200   2.011   1.167
 6767SOL    HW221201   5.099   2.139   1.173
 6768SOL     OW21202   4.725   1.896   1.154
 6768SOL    HW121203   4.662   1.824   1.123
 6768SOL    HW221204   4.818   1.860   1.154
 6769SOL     OW21205   4.494   3.192   0.301
 6769SOL    HW121206   4.448   3.105   0.318
 6769SOL    HW221207   4.585   3.189   0.342
 6770SOL     OW21208   4.342   3.429   1.284
 6770SOL    HW121209   4.337   3.511   1.341
 6770SOL    HW221210   4.431   3.426   1.239
 6771SOL     OW21211   5.076   1.914   0.168
 6771SOL    HW121212   5.111   1.873   0.084
 6771SOL    HW221213   4.986   1.876   0.188
 6772SOL     OW21214   5.024   2.315   0.691
 6772SOL    HW121215   4.965   2.395   0.695
 6772SOL    HW221216   5.039   2.280   0.784
 6773SOL     OW21217   5.317   2.083   0.882
 6773SOL    HW121218   5.233   2.082   0.936
 6773SOL    HW221219   5.319   2.166   0.826
 6774SOL     OW21220   3.763   2.939   0.300
 6774SOL    HW121221   3.862   2.928   0.291
 6774SOL    HW221222   3.723   2.853   0.332
 6775SOL     OW21223   4.599   3.508   0.337
 6775SOL    HW121224   4.522   3.473   0.283
 6775SOL    HW221225   4.567   3.579   0.399
 6776SOL     OW21226   3.949   2.137   2.858
 6776SOL    HW121227   3.984   2.120   2.950
 6776SOL    HW221228   3.861   2.092   2.846
 6777SOL     OW21229   3.743   2.230   2.509
 6777SOL    HW121230   3.661   2.273   2.548
 6777SOL    HW221231   3.715   2.157   2.446
 6778SOL     OW21232   4.293   3.137   3.027
 6778SOL    HW121233   4.200   3.130   2.990
 6778SOL    HW221234   4.304   3.226   3.071
 6779SOL     OW21235   5.279   3.373   2.565
 6779SOL    HW121236   5.222   3.357   2.646
 6779SOL    HW221237   5.220   3.383   2.485
 6780SOL     OW21238   4.859   2.565   2.579
 6780SOL    HW121239   4.916   2.643   2.554
 6780SOL    HW221240   4.799   2.591   2.655
 6781SOL     OW21241   5.479   2.469   2.093
 6781SOL    HW121242   5.467   2.456   1.994
 6781SOL    HW221243   5.449   2.388   2.142
 6782SOL     OW21244   4.574   2.660   3.685
 6782SOL    HW121245   4.570   2.736   3.750
 6782SOL    HW221246   4.596   2.696   3.594
 6783SOL     OW21247   4.059   3.297   2.923
 6783SOL    HW121248   3.981   3.266   2.870
 6783SOL    HW221249   4.117   3.355   2.866
 6784SOL     OW21250   5.184   3.367   3.201
 6784SOL    HW121251   5.208   3.461   3.227
 6784SOL    HW221252   5.168   3.313   3.283
 6785SOL     OW21253   4.162   2.254   3.361
 6785SOL    HW121254   4.244   2.198   3.370
 6785SOL    HW221255   4.081   2.196   3.365
 6786SOL     OW21256   5.327   2.309   2.599
 6786SOL    HW121257   5.253   2.355   2.549
 6786SOL    HW221258   5.378   2.377   2.652
 6787SOL     OW21259   3.955   3.575   2.345
 6787SOL    HW121260   3.989   3.652   2.399
 6787SOL    HW221261   3.999   3.575   2.255
 6788SOL     OW21262   4.851   3.203   3.552
 6788SOL    HW121263   4.898   3.203   3.640
 6788SOL    HW221264   4.803   3.116   3.541
 6789SOL     OW21265   3.954   3.296   2.400
 6789SOL    HW121266   3.928   3.392   2.400
 6789SOL    HW221267   3.883   3.242   2.445
 6790SOL     OW21268   3.964   2.953   2.748
 6790SOL    HW121269   3.978   2.869   2.800
 6790SOL    HW221270   3.909   3.017   2.803
 6791SOL     OW21271   5.318   1.976   3.342
 6791SOL    HW121272   5.300   2.043   3.270
 6791SOL    HW221273   5.315   2.022   3.431
 6792SOL     OW21274   5.566   3.629   2.221
 6792SOL    HW121275   5.620   3.600   2.301
 6792SOL    HW221276   5.596   3.719   2.192
 6793SOL     OW21277   3.751   3.458   1.979
 6793SOL    HW121278   3.732   3.362   2.000
 6793SOL    HW221279   3.718   3.516   2.054
 6794SOL     OW21280   5.413   2.784   2.474
 6794SOL    HW121281   5.508   2.755   2.482
 6794SOL    HW221282   5.405   2.849   2.399
 6795SOL     OW21283   5.365   2.970   2.294
 6795SOL    HW121284   5.451   2.972   2.242
 6795SOL    HW221285   5.379   3.017   2.382
 6796SOL     OW21286   4.337   3.227   2.588
 6796SOL    HW121287   4.288   3.140   2.597
 6796SOL    HW221288   4.314   3.270   2.501
 6797SOL     OW21289   5.017   3.090   3.285
 6797SOL    HW121290   5.054   3.017   3.227
 6797SOL    HW221291   5.069   3.095   3.370
 6798SOL     OW21292   4.533   1.866   2.364
 6798SOL    HW121293   4.573   1.957   2.355
 6798SOL    HW221294   4.433   1.874   2.370
 6799SOL     OW21295   3.921   2.838   3.126
 6799SOL    HW121296   4.010   2.793   3.112
 6799SOL    HW221297   3.848   2.773   3.107
 6800SOL     OW21298   5.249   2.861   2.052
 6800SOL    HW121299   5.186   2.785   2.065
 6800SOL    HW221300   5.297   2.879   2.138
 6801SOL     OW21301   4.911   3.654   3.478
 6801SOL    HW121302   4.935   3.714   3.402
 6801SOL    HW221303   4.918   3.559   3.448
 6802SOL     OW21304   4.041   2.113   3.663
 6802SOL    HW121305   4.112   2.184   3.669
 6802SOL    HW221306   3.953   2.152   3.691
 6803SOL     OW21307   5.190   3.279   2.815
 6803SOL    HW121308   5.131   3.285   2.895
 6803SOL    HW221309   5.175   3.191   2.769
 6804SOL     OW21310   5.391   3.576   2.434
 6804SOL    HW121311   5.350   3.553   2.346
 6804SOL    HW221312   5.373   3.502   2.499
 6805SOL     OW21313   5.005   2.207   2.806
 6805SOL    HW121314   4.919   2.157   2.793
 6805SOL    HW221315   5.067   2.153   2.862
 6806SOL     OW21316   5.300   3.524   2.169
 6806SOL    HW121317   5.389   3.570   2.172
 6806SOL    HW221318   5.279   3.500   2.074
 6807SOL     OW21319   4.531   2.467   3.327
 6807SOL    HW121320   4.484   2.464   3.416
 6807SOL    HW221321   4.480   2.412   3.261
 6808SOL     OW21322   5.118   2.331   3.536
 6808SOL    HW121323   5.098   2.374   3.624
 6808SOL    HW221324   5.196   2.269   3.545
 6809SOL     OW21325   4.697   2.752   3.434
 6809SOL    HW121326   4.743   2.668   3.405
 6809SOL    HW221327   4.641   2.786   3.359
 6810SOL     OW21328   4.715   2.272   3.104
 6810SOL    HW121329   4.638   2.306   3.158
 6810SOL    HW221330   4.681   2.221   3.025
 6811SOL     OW21331   4.765   2.563   2.291
 6811SOL    HW121332   4.791   2.559   2.387
 6811SOL    HW221333   4.680   2.512   2.277
 6812SOL     OW21334   3.854   3.683   3.433
 6812SOL    HW121335   3.844   3.668   3.532
 6812SOL    HW221336   3.768   3.719   3.397
 6813SOL     OW21337   4.589   2.210   2.057
 6813SOL    HW121338   4.648   2.273   2.008
 6813SOL    HW221339   4.608   2.116   2.028
 6814SOL     OW21340   5.443   2.447   3.693
 6814SOL    HW121341   5.417   2.536   3.657
 6814SOL    HW221342   5.441   2.379   3.620
 6815SOL     OW21343   5.086   3.006   2.407
 6815SOL    HW121344   5.169   2.977   2.359
 6815SOL    HW221345   5.037   3.073   2.351
 6816SOL     OW21346   4.274   2.058   2.747
 6816SOL    HW121347   4.269   2.053   2.847
 6816SOL    HW221348   4.276   2.154   2.718
 6817SOL     OW21349   4.732   3.318   2.339
 6817SOL    HW121350   4.686   3.390   2.287
 6817SOL    HW221351   4.728   3.338   2.437
 6818SOL     OW21352   4.075   3.663   2.715
 6818SOL    HW121353   4.125   3.577   2.721
 6818SOL    HW221354   4.140   3.740   2.712
 6819SOL     OW21355   5.519   2.928   2.735
 6819SOL    HW121356   5.457   2.913   2.659
 6819SOL    HW221357   5.467   2.939   2.820
 6820SOL     OW21358   4.951   3.412   3.368
 6820SOL    HW121359   4.957   3.335   3.432
 6820SOL    HW221360   4.899   3.386   3.288
 6821SOL     OW21361   5.182   2.597   2.590
 6821SOL    HW121362   5.177   2.532   2.665
 6821SOL    HW221363   5.262   2.656   2.603
 6822SOL     OW21364   4.185   3.128   3.589
 6822SOL    HW121365   4.135   3.129   3.503
 6822SOL    HW221366   4.122   3.110   3.665
 6823SOL     OW21367   4.835   3.638   2.099
 6823SOL    HW121368   4.775   3.576   2.149
 6823SOL    HW221369   4.866   3.594   2.014
 6824SOL     OW21370   3.926   2.147   3.360
 6824SOL    HW121371   3.846   2.207   3.347
 6824SOL    HW221372   3.916   2.098   3.446
 6825SOL     OW21373   5.356   3.239   1.943
 6825SOL    HW121374   5.324   3.333   1.933
 6825SOL    HW221375   5.280   3.176   1.931
 6826SOL     OW21376   4.188   3.605   2.185
 6826SOL    HW121377   4.221   3.644   2.271
 6826SOL    HW221378   4.264   3.598   2.120
 6827SOL     OW21379   5.124   1.969   2.288
 6827SOL    HW121380   5.100   1.932   2.198
 6827SOL    HW221381   5.223   1.985   2.292
 6828SOL     OW21382   3.973   3.647   3.103
 6828SOL    HW121383   4.030   3.582   3.153
 6828SOL    HW221384   3.957   3.614   3.010
 6829SOL     OW21385   5.271   2.084   3.591
 6829SOL    HW121386   5.266   2.121   3.683
 6829SOL    HW221387   5.199   2.015   3.579
 6830SOL     OW21388   4.338   1.984   1.979
 6830SOL    HW121389   4.436   1.962   1.986
 6830SOL    HW221390   4.307   1.967   1.886
 6831SOL     OW21391   4.505   2.126   3.611
 6831SOL    HW121392   4.572   2.065   3.654
 6831SOL    HW221393   4.432   2.145   3.676
 6832SOL     OW21394   5.075   2.452   3.295
 6832SOL    HW121395   5.103   2.409   3.380
 6832SOL    HW221396   5.100   2.548   3.296
 6833SOL     OW21397   4.646   2.365   2.761
 6833SOL    HW121398   4.621   2.356   2.665
 6833SOL    HW221399   4.694   2.283   2.792
 6834SOL     OW21400   4.263   1.926   2.374
 6834SOL    HW121401   4.182   1.927   2.432
 6834SOL    HW221402   4.266   2.009   2.319
 6835SOL     OW21403   5.158   3.050   1.903
 6835SOL    HW121404   5.190   2.974   1.960
 6835SOL    HW221405   5.066   3.077   1.933
 6836SOL     OW21406   4.021   1.897   2.033
 6836SOL    HW121407   4.070   1.981   2.012
 6836SOL    HW221408   4.083   1.832   2.078
 6837SOL     OW21409   4.659   2.098   2.342
 6837SOL    HW121410   4.611   2.139   2.264
 6837SOL    HW221411   4.758   2.096   2.323
 6838SOL     OW21412   4.800   2.545   3.326
 6838SOL    HW121413   4.720   2.484   3.329
 6838SOL    HW221414   4.881   2.492   3.302
 6839SOL     OW21415   4.951   3.432   2.655
 6839SOL    HW121416   4.972   3.506   2.590
 6839SOL    HW221417   5.019   3.432   2.728
 6840SOL     OW21418   4.183   3.014   2.603
 6840SOL    HW121419   4.112   2.987   2.668
 6840SOL    HW221420   4.157   2.986   2.510
 6841SOL     OW21421   4.995   3.659   2.453
 6841SOL    HW121422   5.039   3.723   2.389
 6841SOL    HW221423   4.945   3.711   2.523
 6842SOL     OW21424   4.756   2.411   1.878
 6842SOL    HW121425   4.715   2.493   1.839
 6842SOL    HW221426   4.820   2.437   1.951
 6843SOL     OW21427   4.285   2.084   3.009
 6843SOL    HW121428   4.323   2.000   3.046
 6843SOL    HW221429   4.197   2.103   3.053
 6844SOL     OW21430   4.590   2.316   2.504
 6844SOL    HW121431   4.558   2.388   2.442
 6844SOL    HW221432   4.614   2.235   2.451
 6845SOL     OW21433   4.741   1.901   2.615
 6845SOL    HW121434   4.669   1.906   2.546
 6845SOL    HW221435   4.717   1.832   2.684
 6846SOL     OW21436   5.153   3.035   2.729
 6846SOL    HW121437   5.098   2.951   2.722
 6846SOL    HW221438   5.179   3.064   2.637
 6847SOL     OW21439   5.190   2.452   2.854
 6847SOL    HW121440   5.160   2.357   2.861
 6847SOL    HW221441   5.263   2.468   2.920
 6848SOL     OW21442   5.581   2.695   2.239
 6848SOL    HW121443   5.623   2.631   2.303
 6848SOL    HW221444   5.543   2.644   2.161
 6849SOL     OW21445   4.212   3.247   2.036
 6849SOL    HW121446   4.125   3.232   2.083
 6849SOL    HW221447   4.195   3.273   1.941
 6850SOL     OW21448   5.388   3.142   2.519
 6850SOL    HW121449   5.487   3.150   2.533
 6850SOL    HW221450   5.343   3.226   2.550
 6851SOL     OW21451   5.114   2.437   1.940
 6851SOL    HW121452   5.060   2.416   2.021
 6851SOL    HW221453   5.205   2.396   1.949
 6852SOL     OW21454   4.251   2.118   2.190
 6852SOL    HW121455   4.278   2.059   2.115
 6852SOL    HW221456   4.251   2.213   2.159
 6853SOL     OW21457   5.478   3.085   3.450
 6853SOL    HW121458   5.569   3.046   3.437
 6853SOL    HW221459   5.486   3.181   3.474
 6854SOL     OW21460   4.788   3.209   3.202
 6854SOL    HW121461   4.708   3.186   3.257
 6854SOL    HW221462   4.871   3.183   3.251
 6855SOL     OW21463   5.316   3.491   3.487
 6855SOL    HW121464   5.343   3.525   3.397
 6855SOL    HW221465   5.395   3.453   3.533
 6856SOL     OW21466   4.835   3.057   2.962
 6856SOL    HW121467   4.795   3.101   3.043
 6856SOL    HW221468   4.794   3.094   2.879
 6857SOL     OW21469   5.362   2.961   2.941
 6857SOL    HW121470   5.367   3.042   3.000
 6857SOL    HW221471   5.276   2.963   2.890
 6858SOL     OW21472   4.639   1.951   3.264
 6858SOL    HW121473   4.664   1.931   3.169
 6858SOL    HW221474   4.711   2.007   3.306
 6859SOL     OW21475   4.704   2.978   3.581
 6859SOL    HW121476   4.605   2.984   3.591
 6859SOL    HW221477   4.727   2.898   3.525
 6860SOL     OW21478   4.998   2.248   3.124
 6860SOL    HW121479   5.019   2.322   3.188
 6860SOL    HW221480   4.909   2.265   3.081
 6861SOL     OW21481   3.788   3.426   3.193
 6861SOL    HW121482   3.742   3.508   3.159
 6861SOL    HW221483   3.886   3.445   3.202
 6862SOL     OW21484   4.091   2.962   2.363
 6862SOL    HW121485   4.084   3.045   2.307
 6862SOL    HW221486   4.095   2.882   2.303
 6863SOL     OW21487   4.290   2.399   2.727
 6863SOL    HW121488   4.302   2.465   2.653
 6863SOL    HW221489   4.336   2.433   2.810
 6864SOL     OW21490   4.976   3.210   2.250
 6864SOL    HW121491   5.026   3.287   2.290
 6864SOL    HW221492   4.881   3.212   2.282
 6865SOL     OW21493   4.996   3.307   3.004
 6865SOL    HW121494   5.043   3.320   3.091
 6865SOL    HW221495   4.930   3.233   3.013
 6866SOL     OW21496   5.306   2.501   2.334
 6866SOL    HW121497   5.275   2.562   2.407
 6866SOL    HW221498   5.356   2.553   2.265
 6867SOL     OW21499   4.078   3.372   3.191
 6867SOL    HW121500   4.057   3.328   3.104
 6867SOL    HW221501   4.175   3.398   3.194
 6868SOL     OW21502   5.311   2.641   3.532
 6868SOL    HW121503   5.219   2.679   3.527
 6868SOL    HW221504   5.371   2.688   3.467
 6869SOL     OW21505   4.737   1.967   3.632
 6869SOL    HW121506   4.743   2.052   3.580
 6869SOL    HW221507   4.769   1.891   3.575
 6870SOL     OW21508   4.228   1.912   3.602
 6870SOL    HW121509   4.186   1.855   3.532
 6870SOL    HW221510   4.162   1.981   3.634
 6871SOL     OW21511   5.084   2.724   2.907
 6871SOL    HW121512   5.009   2.724   2.841
 6871SOL    HW221513   5.121   2.632   2.916
 6872SOL     OW21514   4.933   2.387   2.137
 6872SOL    HW121515   4.946   2.303   2.191
 6872SOL    HW221516   4.904   2.461   2.197
 6873SOL     OW21517   4.031   2.075   3.093
 6873SOL    HW121518   4.008   2.112   3.183
 6873SOL    HW221519   4.001   1.980   3.087
 6874SOL     OW21520   3.761   3.172   3.144
 6874SOL    HW121521   3.814   3.123   3.212
 6874SOL    HW221522   3.783   3.270   3.149
 6875SOL     OW21523   4.456   2.496   2.926
 6875SOL    HW121524   4.515   2.470   2.850
 6875SOL    HW221525   4.428   2.592   2.915
 6876SOL     OW21526   5.452   2.797   3.716
 6876SOL    HW121527   5.406   2.790   3.627
 6876SOL    HW221528   5.390   2.841   3.782
 6877SOL     OW21529   4.031   1.925   2.480
 6877SOL    HW121530   4.020   2.019   2.513
 6877SOL    HW221531   4.026   1.862   2.557
 6878SOL     OW21532   5.346   2.229   2.236
 6878SOL    HW121533   5.348   2.153   2.300
 6878SOL    HW221534   5.298   2.306   2.276
 6879SOL     OW21535   4.747   2.628   2.828
 6879SOL    HW121536   4.762   2.649   2.924
 6879SOL    HW221537   4.717   2.533   2.819
 6880SOL     OW21538   5.583   3.380   3.467
 6880SOL    HW121539   5.597   3.407   3.372
 6880SOL    HW221540   5.666   3.402   3.520
 6881SOL     OW21541   5.264   2.136   1.987
 6881SOL    HW121542   5.203   2.061   2.010
 6881SOL    HW221543   5.286   2.188   2.070
 6882SOL     OW21544   5.027   2.700   1.904
 6882SOL    HW121545   5.061   2.607   1.919
 6882SOL    HW221546   5.045   2.727   1.809
 6883SOL     OW21547   4.792   3.195   2.711
 6883SOL    HW121548   4.799   3.111   2.656
 6883SOL    HW221549   4.854   3.264   2.675
 6884SOL     OW21550   4.063   2.371   2.868
 6884SOL    HW121551   4.011   2.288   2.851
 6884SOL    HW221552   4.140   2.376   2.804
 6885SOL     OW21553   4.862   2.242   3.540
 6885SOL    HW121554   4.817   2.305   3.604
 6885SOL    HW221555   4.955   2.273   3.523
 6886SOL     OW21556   4.884   2.069   3.339
 6886SOL    HW121557   4.884   2.133   3.416
 6886SOL    HW221558   4.912   2.117   3.256
 6887SOL     OW21559   3.732   3.188   2.062
 6887SOL    HW121560   3.639   3.209   2.031
 6887SOL    HW221561   3.742   3.089   2.075
 6888SOL     OW21562   3.812   3.663   2.789
 6888SOL    HW121563   3.770   3.577   2.762
 6888SOL    HW221564   3.906   3.666   2.755
 6889SOL     OW21565   4.228   3.430   2.772
 6889SOL    HW121566   4.294   3.504   2.781
 6889SOL    HW221567   4.272   3.351   2.730
 6890SOL     OW21568   4.726   2.658   3.100
 6890SOL    HW121569   4.767   2.626   3.186
 6890SOL    HW221570   4.630   2.631   3.097
 6891SOL     OW21571   5.093   2.812   3.522
 6891SOL    HW121572   5.132   2.901   3.542
 6891SOL    HW221573   5.103   2.792   3.425
 6892SOL     OW21574   4.539   2.434   2.187
 6892SOL    HW121575   4.546   2.345   2.141
 6892SOL    HW221576   4.445   2.468   2.179
 6893SOL     OW21577   5.381   2.466   3.068
 6893SOL    HW121578   5.343   2.397   3.130
 6893SOL    HW221579   5.463   2.430   3.024
 6894SOL     OW21580   3.976   3.426   3.606
 6894SOL    HW121581   3.946   3.483   3.682
 6894SOL    HW221582   3.969   3.329   3.632
 6895SOL     OW21583   4.395   2.326   3.131
 6895SOL    HW121584   4.361   2.237   3.101
 6895SOL    HW221585   4.421   2.380   3.051
 6896SOL     OW21586   4.197   2.362   2.053
 6896SOL    HW121587   4.258   2.442   2.057
 6896SOL    HW221588   4.102   2.393   2.060
 6897SOL     OW21589   3.883   2.999   3.328
 6897SOL    HW121590   3.905   2.938   3.404
 6897SOL    HW221591   3.893   2.950   3.242
 6898SOL     OW21592   5.071   2.921   3.096
 6898SOL    HW121593   5.095   2.858   3.022
 6898SOL    HW221594   4.981   2.961   3.078
 6899SOL     OW21595   5.026   2.717   2.171
 6899SOL    HW121596   4.940   2.686   2.213
 6899SOL    HW221597   5.022   2.703   2.072
 6900SOL     OW21598   5.483   3.609   3.016
 6900SOL    HW121599   5.544   3.639   2.943
 6900SOL    HW221600   5.445   3.520   2.994
 6901SOL     OW21601   4.976   3.593   2.990
 6901SOL    HW121602   5.060   3.598   2.936
 6901SOL    HW221603   4.953   3.497   3.008
 6902SOL     OW21604   3.807   3.120   2.884
 6902SOL    HW121605   3.802   3.119   2.984
 6902SOL    HW221606   3.724   3.079   2.846
 6903SOL     OW21607   5.450   1.997   2.385
 6903SOL    HW121608   5.523   1.980   2.318
 6903SOL    HW221609   5.419   1.910   2.423
 6904SOL     OW21610   5.112   3.435   2.339
 6904SOL    HW121611   5.179   3.447   2.265
 6904SOL    HW221612   5.072   3.524   2.362
 6905SOL     OW21613   3.854   3.656   3.713
 6905SOL    HW121614   3.813   3.582   3.766
 6905SOL    HW221615   3.918   3.707   3.771
 6906SOL     OW21616   5.004   2.789   2.534
 6906SOL    HW121617   5.064   2.708   2.536
 6906SOL    HW221618   5.044   2.858   2.474
 6907SOL     OW21619   5.374   3.582   3.256
 6907SOL    HW121620   5.427   3.592   3.172
 6907SOL    HW221621   5.347   3.672   3.290
 6908SOL     OW21622   5.565   2.037   2.825
 6908SOL    HW121623   5.604   1.952   2.789
 6908SOL    HW221624   5.467   2.039   2.806
 6909SOL     OW21625   3.987   2.188   2.582
 6909SOL    HW121626   3.908   2.239   2.548
 6909SOL    HW221627   3.978   2.173   2.680
 6910SOL     OW21628   4.918   3.474   1.893
 6910SOL    HW121629   4.924   3.381   1.930
 6910SOL    HW221630   4.859   3.474   1.813
 6911SOL     OW21631   4.546   2.864   3.234
 6911SOL    HW121632   4.586   2.863   3.142
 6911SOL    HW221633   4.556   2.956   3.274
 6912SOL     OW21634   4.640   2.772   2.153
 6912SOL    HW121635   4.703   2.810   2.085
 6912SOL    HW221636   4.680   2.689   2.192
 6913SOL     OW21637   5.228   3.469   1.906
 6913SOL    HW121638   5.136   3.506   1.913
 6913SOL    HW221639   5.266   3.489   1.816
 6914SOL     OW21640   4.096   3.150   3.352
 6914SOL    HW121641   4.083   3.243   3.318
 6914SOL    HW221642   4.012   3.098   3.339
 6915SOL     OW21643   5.338   3.154   3.151
 6915SOL    HW121644   5.398   3.157   3.231
 6915SOL    HW221645   5.263   3.218   3.164
 6916SOL     OW21646   4.763   2.960   2.558
 6916SOL    HW121647   4.693   2.913   2.612
 6916SOL    HW221648   4.822   2.892   2.515
 6917SOL     OW21649   4.738   2.098   2.833
 6917SOL    HW121650   4.730   2.062   2.740
 6917SOL    HW221651   4.736   2.022   2.898
 6918SOL     OW21652   4.314   3.349   2.353
 6918SOL    HW121653   4.356   3.291   2.283
 6918SOL    HW221654   4.270   3.428   2.309
 6919SOL     OW21655   5.433   2.247   3.243
 6919SOL    HW121656   5.506   2.316   3.247
 6919SOL    HW221657   5.461   2.172   3.184
 6920SOL     OW21658   3.979   3.210   2.152
 6920SOL    HW121659   3.883   3.211   2.125
 6920SOL    HW221660   3.991   3.263   2.236
 6921SOL     OW21661   3.829   2.875   3.588
 6921SOL    HW121662   3.752   2.842   3.642
 6921SOL    HW221663   3.914   2.845   3.630
 6922SOL     OW21664   4.396   2.065   3.351
 6922SOL    HW121665   4.486   2.049   3.311
 6922SOL    HW221666   4.404   2.070   3.450
 6923SOL     OW21667   5.164   2.718   3.260
 6923SOL    HW121668   5.107   2.770   3.197
 6923SOL    HW221669   5.260   2.730   3.236
 6924SOL     OW21670   3.796   2.028   2.180
 6924SOL    HW121671   3.779   2.111   2.126
 6924SOL    HW221672   3.886   1.991   2.158
 6925SOL     OW21673   4.907   3.197   1.981
 6925SOL    HW121674   4.808   3.186   1.983
 6925SOL    HW221675   4.941   3.212   2.074
 6926SOL     OW21676   5.217   3.629   2.821
 6926SOL    HW121677   5.250   3.693   2.752
 6926SOL    HW221678   5.283   3.623   2.896
 6927SOL     OW21679   4.440   2.427   3.570
 6927SOL    HW121680   4.459   2.492   3.644
 6927SOL    HW221681   4.500   2.347   3.579
 6928SOL     OW21682   5.174   3.082   3.495
 6928SOL    HW121683   5.165   3.072   3.594
 6928SOL    HW221684   5.270   3.075   3.469
 6929SOL     OW21685   4.114   3.603   3.422
 6929SOL    HW121686   4.023   3.644   3.420
 6929SOL    HW221687   4.107   3.509   3.454
 6930SOL     OW21688   5.398   2.745   3.116
 6930SOL    HW121689   5.371   2.656   3.079
 6930SOL    HW221690   5.399   2.813   3.043
 6931SOL     OW21691   4.949   2.187   2.311
 6931SOL    HW121692   5.014   2.113   2.300
 6931SOL    HW221693   4.969   2.237   2.395
 6932SOL     OW21694   5.501   2.204   3.504
 6932SOL    HW121695   5.484   2.235   3.410
 6932SOL    HW221696   5.417   2.167   3.542
 6933SOL     OW21697   5.454   2.796   3.379
 6933SOL    HW121698   5.492   2.887   3.394
 6933SOL    HW221699   5.446   2.779   3.280
 6934SOL     OW21700   4.583   2.818   2.723
 6934SOL    HW121701   4.637   2.749   2.771
 6934SOL    HW221702   4.551   2.887   2.789
 6935SOL     OW21703   5.585   3.431   2.713
 6935SOL    HW121704   5.514   3.419   2.643
 6935SOL    HW221705   5.586   3.352   2.773
 6936SOL     OW21706   3.945   3.176   3.706
 6936SOL    HW121707   3.880   3.103   3.685
 6936SOL    HW221708   3.949   3.190   3.804
 6937SOL     OW21709   3.803   3.102   2.515
 6937SOL    HW121710   3.802   3.055   2.603
 6937SOL    HW221711   3.885   3.074   2.464
 6938SOL     OW21712   5.548   2.054   3.089
 6938SOL    HW121713   5.544   1.964   3.133
 6938SOL    HW221714   5.551   2.043   2.990
 6939SOL     OW21715   4.152   2.286   2.382
 6939SOL    HW121716   4.182   2.214   2.320
 6939SOL    HW221717   4.113   2.246   2.465
 6940SOL     OW21718   5.429   3.349   2.966
 6940SOL    HW121719   5.336   3.324   2.939
 6940SOL    HW221720   5.455   3.299   3.048
 6941SOL     OW21721   4.041   2.409   3.142
 6941SOL    HW121722   4.079   2.350   3.214
 6941SOL    HW221723   4.081   2.383   3.054
 6942SOL     OW21724   5.148   2.076   2.974
 6942SOL    HW121725   5.200   2.011   3.029
 6942SOL    HW221726   5.099   2.139   3.035
 6943SOL     OW21727   4.725   1.896   3.016
 6943SOL    HW121728   4.662   1.824   2.985
 6943SOL    HW221729   4.818   1.860   3.016
 6944SOL     OW21730   5.076   1.914   2.030
 6944SOL    HW121731   5.111   1.873   1.946
 6944SOL    HW221732   4.986   1.876   2.050
 6945SOL     OW21733   5.024   2.315   2.553
 6945SOL    HW121734   4.965   2.395   2.557
 6945SOL    HW221735   5.039   2.280   2.646
 6946SOL     OW21736   5.317   2.083   2.744
 6946SOL    HW121737   5.233   2.082   2.798
 6946SOL    HW221738   5.319   2.166   2.688
 6947SOL     OW21739   3.763   2.939   2.162
 6947SOL    HW121740   3.862   2.928   2.153
 6947SOL    HW221741   3.723   2.853   2.194
 6948SOL     OW21742   3.949   2.137   4.720
 6948SOL    HW121743   3.984   2.120   4.812
 6948SOL    HW221744   3.861   2.092   4.708
 6949SOL     OW21745   3.743   2.230   4.371
 6949SOL    HW121746   3.661   2.273   4.410
 6949SOL    HW221747   3.715   2.157   4.308
 6950SOL     OW21748   5.279   3.373   4.427
 6950SOL    HW121749   5.222   3.357   4.508
 6950SOL    HW221750   5.220   3.383   4.347
 6951SOL     OW21751   4.859   2.565   4.441
 6951SOL    HW121752   4.916   2.643   4.416
 6951SOL    HW221753   4.799   2.591   4.517
 6952SOL     OW21754   5.479   2.469   3.955
 6952SOL    HW121755   5.467   2.456   3.856
 6952SOL    HW221756   5.449   2.388   4.004
 6953SOL     OW21757   4.574   2.660   5.547
 6953SOL    HW121758   4.570   2.736   5.612
 6953SOL    HW221759   4.596   2.696   5.456
 6954SOL     OW21760   4.410   3.023   5.527
 6954SOL    HW121761   4.470   3.102   5.541
 6954SOL    HW221762   4.324   3.054   5.486
 6955SOL     OW21763   4.059   3.297   4.785
 6955SOL    HW121764   3.981   3.266   4.732
 6955SOL    HW221765   4.117   3.355   4.728
 6956SOL     OW21766   5.184   3.367   5.063
 6956SOL    HW121767   5.208   3.461   5.089
 6956SOL    HW221768   5.168   3.313   5.145
 6957SOL     OW21769   4.162   2.254   5.223
 6957SOL    HW121770   4.244   2.198   5.232
 6957SOL    HW221771   4.081   2.196   5.227
 6958SOL     OW21772   5.327   2.309   4.461
 6958SOL    HW121773   5.253   2.355   4.411
 6958SOL    HW221774   5.378   2.377   4.514
 6959SOL     OW21775   3.955   3.575   4.207
 6959SOL    HW121776   3.989   3.652   4.261
 6959SOL    HW221777   3.999   3.575   4.117
 6960SOL     OW21778   4.851   3.203   5.414
 6960SOL    HW121779   4.898   3.203   5.502
 6960SOL    HW221780   4.803   3.116   5.403
 6961SOL     OW21781   3.954   3.296   4.262
 6961SOL    HW121782   3.928   3.392   4.262
 6961SOL    HW221783   3.883   3.242   4.307
 6962SOL     OW21784   3.964   2.953   4.610
 6962SOL    HW121785   3.978   2.869   4.662
 6962SOL    HW221786   3.909   3.017   4.665
 6963SOL     OW21787   4.344   3.648   5.163
 6963SOL    HW121788   4.252   3.631   5.198
 6963SOL    HW221789   4.372   3.740   5.189
 6964SOL     OW21790   5.318   1.976   5.204
 6964SOL    HW121791   5.300   2.043   5.132
 6964SOL    HW221792   5.315   2.022   5.293
 6965SOL     OW21793   5.566   3.629   4.083
 6965SOL    HW121794   5.620   3.600   4.163
 6965SOL    HW221795   5.596   3.719   4.054
 6966SOL     OW21796   3.751   3.458   3.841
 6966SOL    HW121797   3.732   3.362   3.862
 6966SOL    HW221798   3.718   3.516   3.916
 6967SOL     OW21799   5.413   2.784   4.336
 6967SOL    HW121800   5.508   2.755   4.344
 6967SOL    HW221801   5.405   2.849   4.261
 6968SOL     OW21802   5.365   2.970   4.156
 6968SOL    HW121803   5.451   2.972   4.104
 6968SOL    HW221804   5.379   3.017   4.244
 6969SOL     OW21805   3.837   2.599   5.321
 6969SOL    HW121806   3.925   2.586   5.366
 6969SOL    HW221807   3.824   2.696   5.299
 6970SOL     OW21808   5.017   3.090   5.147
 6970SOL    HW121809   5.054   3.017   5.089
 6970SOL    HW221810   5.069   3.095   5.232
 6971SOL     OW21811   4.533   1.866   4.226
 6971SOL    HW121812   4.573   1.957   4.217
 6971SOL    HW221813   4.433   1.874   4.232
 6972SOL     OW21814   3.921   2.838   4.988
 6972SOL    HW121815   4.010   2.793   4.974
 6972SOL    HW221816   3.848   2.773   4.969
 6973SOL     OW21817   5.249   2.861   3.914
 6973SOL    HW121818   5.186   2.785   3.927
 6973SOL    HW221819   5.297   2.879   4.000
 6974SOL     OW21820   4.911   3.654   5.340
 6974SOL    HW121821   4.935   3.714   5.264
 6974SOL    HW221822   4.918   3.559   5.310
 6975SOL     OW21823   4.041   2.113   5.525
 6975SOL    HW121824   4.112   2.184   5.531
 6975SOL    HW221825   3.953   2.152   5.553
 6976SOL     OW21826   5.190   3.279   4.677
 6976SOL    HW121827   5.131   3.285   4.757
 6976SOL    HW221828   5.175   3.191   4.631
 6977SOL     OW21829   5.391   3.576   4.296
 6977SOL    HW121830   5.350   3.553   4.208
 6977SOL    HW221831   5.373   3.502   4.361
 6978SOL     OW21832   5.005   2.207   4.668
 6978SOL    HW121833   4.919   2.157   4.655
 6978SOL    HW221834   5.067   2.153   4.724
 6979SOL     OW21835   5.300   3.524   4.031
 6979SOL    HW121836   5.389   3.570   4.034
 6979SOL    HW221837   5.279   3.500   3.936
 6980SOL     OW21838   4.531   2.467   5.189
 6980SOL    HW121839   4.484   2.464   5.278
 6980SOL    HW221840   4.480   2.412   5.123
 6981SOL     OW21841   5.118   2.331   5.398
 6981SOL    HW121842   5.098   2.374   5.486
 6981SOL    HW221843   5.196   2.269   5.407
 6982SOL     OW21844   4.697   2.752   5.296
 6982SOL    HW121845   4.743   2.668   5.267
 6982SOL    HW221846   4.641   2.786   5.221
 6983SOL     OW21847   4.715   2.272   4.966
 6983SOL    HW121848   4.638   2.306   5.020
 6983SOL    HW221849   4.681   2.221   4.887
 6984SOL     OW21850   4.765   2.563   4.153
 6984SOL    HW121851   4.791   2.559   4.249
 6984SOL    HW221852   4.680   2.512   4.139
 6985SOL     OW21853   3.854   3.683   5.295
 6985SOL    HW121854   3.844   3.668   5.394
 6985SOL    HW221855   3.768   3.719   5.259
 6986SOL     OW21856   4.589   2.210   3.919
 6986SOL    HW121857   4.648   2.273   3.870
 6986SOL    HW221858   4.608   2.116   3.890
 6987SOL     OW21859   5.443   2.447   5.555
 6987SOL    HW121860   5.417   2.536   5.519
 6987SOL    HW221861   5.441   2.379   5.482
 6988SOL     OW21862   5.086   3.006   4.269
 6988SOL    HW121863   5.169   2.977   4.221
 6988SOL    HW221864   5.037   3.073   4.213
 6989SOL     OW21865   4.274   2.058   4.609
 6989SOL    HW121866   4.269   2.053   4.709
 6989SOL    HW221867   4.276   2.154   4.580
 6990SOL     OW21868   4.075   3.663   4.577
 6990SOL    HW121869   4.125   3.577   4.583
 6990SOL    HW221870   4.140   3.740   4.574
 6991SOL     OW21871   5.519   2.928   4.597
 6991SOL    HW121872   5.457   2.913   4.521
 6991SOL    HW221873   5.467   2.939   4.682
 6992SOL     OW21874   4.951   3.412   5.230
 6992SOL    HW121875   4.957   3.335   5.294
 6992SOL    HW221876   4.899   3.386   5.150
 6993SOL     OW21877   5.182   2.597   4.452
 6993SOL    HW121878   5.177   2.532   4.527
 6993SOL    HW221879   5.262   2.656   4.465
 6994SOL     OW21880   4.185   3.128   5.451
 6994SOL    HW121881   4.135   3.129   5.365
 6994SOL    HW221882   4.122   3.110   5.527
 6995SOL     OW21883   4.835   3.638   3.961
 6995SOL    HW121884   4.775   3.576   4.011
 6995SOL    HW221885   4.866   3.594   3.876
 6996SOL     OW21886   3.926   2.147   5.222
 6996SOL    HW121887   3.846   2.207   5.209
 6996SOL    HW221888   3.916   2.098   5.308
 6997SOL     OW21889   5.356   3.239   3.805
 6997SOL    HW121890   5.324   3.333   3.795
 6997SOL    HW221891   5.280   3.176   3.793
 6998SOL     OW21892   4.188   3.605   4.047
 6998SOL    HW121893   4.221   3.644   4.133
 6998SOL    HW221894   4.264   3.598   3.982
 6999SOL     OW21895   5.124   1.969   4.150
 6999SOL    HW121896   5.100   1.932   4.060
 6999SOL    HW221897   5.223   1.985   4.154
 7000SOL     OW21898   3.973   3.647   4.965
 7000SOL    HW121899   4.030   3.582   5.015
 7000SOL    HW221900   3.957   3.614   4.872
 7001SOL     OW21901   5.271   2.084   5.453
 7001SOL    HW121902   5.266   2.121   5.545
 7001SOL    HW221903   5.199   2.015   5.441
 7002SOL     OW21904   4.338   1.984   3.841
 7002SOL    HW121905   4.436   1.962   3.848
 7002SOL    HW221906   4.307   1.967   3.748
 7003SOL     OW21907   4.505   2.126   5.473
 7003SOL    HW121908   4.572   2.065   5.516
 7003SOL    HW221909   4.432   2.145   5.538
 7004SOL     OW21910   5.075   2.452   5.157
 7004SOL    HW121911   5.103   2.409   5.242
 7004SOL    HW221912   5.100   2.548   5.158
 7005SOL     OW21913   4.646   2.365   4.623
 7005SOL    HW121914   4.621   2.356   4.527
 7005SOL    HW221915   4.694   2.283   4.654
 7006SOL     OW21916   4.263   1.926   4.236
 7006SOL    HW121917   4.182   1.927   4.294
 7006SOL    HW221918   4.266   2.009   4.181
 7007SOL     OW21919   5.158   3.050   3.765
 7007SOL    HW121920   5.190   2.974   3.822
 7007SOL    HW221921   5.066   3.077   3.795
 7008SOL     OW21922   4.021   1.897   3.895
 7008SOL    HW121923   4.070   1.981   3.874
 7008SOL    HW221924   4.083   1.832   3.940
 7009SOL     OW21925   4.659   2.098   4.204
 7009SOL    HW121926   4.611   2.139   4.126
 7009SOL    HW221927   4.758   2.096   4.185
 7010SOL     OW21928   4.800   2.545   5.188
 7010SOL    HW121929   4.720   2.484   5.191
 7010SOL    HW221930   4.881   2.492   5.164
 7011SOL     OW21931   4.951   3.432   4.517
 7011SOL    HW121932   4.972   3.506   4.452
 7011SOL    HW221933   5.019   3.432   4.590
 7012SOL     OW21934   4.183   3.014   4.465
 7012SOL    HW121935   4.112   2.987   4.530
 7012SOL    HW221936   4.157   2.986   4.372
 7013SOL     OW21937   4.995   3.659   4.315
 7013SOL    HW121938   5.039   3.723   4.251
 7013SOL    HW221939   4.945   3.711   4.385
 7014SOL     OW21940   4.756   2.411   3.740
 7014SOL    HW121941   4.715   2.493   3.701
 7014SOL    HW221942   4.820   2.437   3.813
 7015SOL     OW21943   4.285   2.084   4.871
 7015SOL    HW121944   4.323   2.000   4.908
 7015SOL    HW221945   4.197   2.103   4.915
 7016SOL     OW21946   4.590   2.316   4.366
 7016SOL    HW121947   4.558   2.388   4.304
 7016SOL    HW221948   4.614   2.235   4.313
 7017SOL     OW21949   4.741   1.901   4.477
 7017SOL    HW121950   4.669   1.906   4.408
 7017SOL    HW221951   4.717   1.832   4.546
 7018SOL     OW21952   5.153   3.035   4.591
 7018SOL    HW121953   5.098   2.951   4.584
 7018SOL    HW221954   5.179   3.064   4.499
 7019SOL     OW21955   5.190   2.452   4.716
 7019SOL    HW121956   5.160   2.357   4.723
 7019SOL    HW221957   5.263   2.468   4.782
 7020SOL     OW21958   5.581   2.695   4.101
 7020SOL    HW121959   5.623   2.631   4.165
 7020SOL    HW221960   5.543   2.644   4.023
 7021SOL     OW21961   4.212   3.247   3.898
 7021SOL    HW121962   4.125   3.232   3.945
 7021SOL    HW221963   4.195   3.273   3.803
 7022SOL     OW21964   5.388   3.142   4.381
 7022SOL    HW121965   5.487   3.150   4.395
 7022SOL    HW221966   5.343   3.226   4.412
 7023SOL     OW21967   5.114   2.437   3.802
 7023SOL    HW121968   5.060   2.416   3.883
 7023SOL    HW221969   5.205   2.396   3.811
 7024SOL     OW21970   4.251   2.118   4.052
 7024SOL    HW121971   4.278   2.059   3.977
 7024SOL    HW221972   4.251   2.213   4.021
 7025SOL     OW21973   5.478   3.085   5.312
 7025SOL    HW121974   5.569   3.046   5.299
 7025SOL    HW221975   5.486   3.181   5.336
 7026SOL     OW21976   4.788   3.209   5.064
 7026SOL    HW121977   4.708   3.186   5.119
 7026SOL    HW221978   4.871   3.183   5.113
 7027SOL     OW21979   5.316   3.491   5.349
 7027SOL    HW121980   5.343   3.525   5.259
 7027SOL    HW221981   5.395   3.453   5.395
 7028SOL     OW21982   4.835   3.057   4.824
 7028SOL    HW121983   4.795   3.101   4.905
 7028SOL    HW221984   4.794   3.094   4.741
 7029SOL     OW21985   5.362   2.961   4.803
 7029SOL    HW121986   5.367   3.042   4.862
 7029SOL    HW221987   5.276   2.963   4.752
 7030SOL     OW21988   4.639   1.951   5.126
 7030SOL    HW121989   4.664   1.931   5.031
 7030SOL    HW221990   4.711   2.007   5.168
 7031SOL     OW21991   4.704   2.978   5.443
 7031SOL    HW121992   4.605   2.984   5.453
 7031SOL    HW221993   4.727   2.898   5.387
 7032SOL     OW21994   4.998   2.248   4.986
 7032SOL    HW121995   5.019   2.322   5.050
 7032SOL    HW221996   4.909   2.265   4.943
 7033SOL     OW21997   3.788   3.426   5.055
 7033SOL    HW121998   3.742   3.508   5.021
 7033SOL    HW221999   3.886   3.445   5.064
 7034SOL     OW22000   4.091   2.962   4.225
 7034SOL    HW122001   4.084   3.045   4.169
 7034SOL    HW222002   4.095   2.882   4.165
 7035SOL     OW22003   4.290   2.399   4.589
 7035SOL    HW122004   4.302   2.465   4.515
 7035SOL    HW222005   4.336   2.433   4.672
 7036SOL     OW22006   4.976   3.210   4.112
 7036SOL    HW122007   5.026   3.287   4.152
 7036SOL    HW222008   4.881   3.212   4.144
 7037SOL     OW22009   4.996   3.307   4.866
 7037SOL    HW122010   5.043   3.320   4.953
 7037SOL    HW222011   4.930   3.233   4.875
 7038SOL     OW22012   5.306   2.501   4.196
 7038SOL    HW122013   5.275   2.562   4.269
 7038SOL    HW222014   5.356   2.553   4.127
 7039SOL     OW22015   4.078   3.372   5.053
 7039SOL    HW122016   4.057   3.328   4.966
 7039SOL    HW222017   4.175   3.398   5.056
 7040SOL     OW22018   5.311   2.641   5.394
 7040SOL    HW122019   5.219   2.679   5.389
 7040SOL    HW222020   5.371   2.688   5.329
 7041SOL     OW22021   4.737   1.967   5.494
 7041SOL    HW122022   4.743   2.052   5.442
 7041SOL    HW222023   4.769   1.891   5.437
 7042SOL     OW22024   4.228   1.912   5.464
 7042SOL    HW122025   4.186   1.855   5.394
 7042SOL    HW222026   4.162   1.981   5.496
 7043SOL     OW22027   5.084   2.724   4.769
 7043SOL    HW122028   5.009   2.724   4.703
 7043SOL    HW222029   5.121   2.632   4.778
 7044SOL     OW22030   4.933   2.387   3.999
 7044SOL    HW122031   4.946   2.303   4.053
 7044SOL    HW222032   4.904   2.461   4.059
 7045SOL     OW22033   4.031   2.075   4.955
 7045SOL    HW122034   4.008   2.112   5.045
 7045SOL    HW222035   4.001   1.980   4.949
 7046SOL     OW22036   3.761   3.172   5.006
 7046SOL    HW122037   3.814   3.123   5.074
 7046SOL    HW222038   3.783   3.270   5.011
 7047SOL     OW22039   4.456   2.496   4.788
 7047SOL    HW122040   4.515   2.470   4.712
 7047SOL    HW222041   4.428   2.592   4.777
 7048SOL     OW22042   5.452   2.797   5.578
 7048SOL    HW122043   5.406   2.790   5.489
 7048SOL    HW222044   5.390   2.841   5.644
 7049SOL     OW22045   4.031   1.925   4.342
 7049SOL    HW122046   4.020   2.019   4.375
 7049SOL    HW222047   4.026   1.862   4.419
 7050SOL     OW22048   5.346   2.229   4.098
 7050SOL    HW122049   5.348   2.153   4.162
 7050SOL    HW222050   5.298   2.306   4.138
 7051SOL     OW22051   4.747   2.628   4.690
 7051SOL    HW122052   4.762   2.649   4.786
 7051SOL    HW222053   4.717   2.533   4.681
 7052SOL     OW22054   5.583   3.380   5.329
 7052SOL    HW122055   5.597   3.407   5.234
 7052SOL    HW222056   5.666   3.402   5.382
 7053SOL     OW22057   4.074   2.760   5.528
 7053SOL    HW122058   4.150   2.804   5.576
 7053SOL    HW222059   4.109   2.713   5.446
 7054SOL     OW22060   5.264   2.136   3.849
 7054SOL    HW122061   5.203   2.061   3.872
 7054SOL    HW222062   5.286   2.188   3.932
 7055SOL     OW22063   5.027   2.700   3.766
 7055SOL    HW122064   5.061   2.607   3.781
 7055SOL    HW222065   5.045   2.727   3.671
 7056SOL     OW22066   4.792   3.195   4.573
 7056SOL    HW122067   4.799   3.111   4.518
 7056SOL    HW222068   4.854   3.264   4.537
 7057SOL     OW22069   4.063   2.371   4.730
 7057SOL    HW122070   4.011   2.288   4.713
 7057SOL    HW222071   4.140   2.376   4.666
 7058SOL     OW22072   4.862   2.242   5.402
 7058SOL    HW122073   4.817   2.305   5.466
 7058SOL    HW222074   4.955   2.273   5.385
 7059SOL     OW22075   4.884   2.069   5.201
 7059SOL    HW122076   4.884   2.133   5.278
 7059SOL    HW222077   4.912   2.117   5.118
 7060SOL     OW22078   3.732   3.188   3.924
 7060SOL    HW122079   3.639   3.209   3.893
 7060SOL    HW222080   3.742   3.089   3.937
 7061SOL     OW22081   3.812   3.663   4.651
 7061SOL    HW122082   3.770   3.577   4.624
 7061SOL    HW222083   3.906   3.666   4.617
 7062SOL     OW22084   4.228   3.430   4.634
 7062SOL    HW122085   4.294   3.504   4.643
 7062SOL    HW222086   4.272   3.351   4.592
 7063SOL     OW22087   4.726   2.658   4.962
 7063SOL    HW122088   4.767   2.626   5.048
 7063SOL    HW222089   4.630   2.631   4.959
 7064SOL     OW22090   3.913   2.382   5.446
 7064SOL    HW122091   3.972   2.342   5.376
 7064SOL    HW222092   3.855   2.453   5.405
 7065SOL     OW22093   5.093   2.812   5.384
 7065SOL    HW122094   5.132   2.901   5.404
 7065SOL    HW222095   5.103   2.792   5.287
 7066SOL     OW22096   4.539   2.434   4.049
 7066SOL    HW122097   4.546   2.345   4.003
 7066SOL    HW222098   4.445   2.468   4.041
 7067SOL     OW22099   5.381   2.466   4.930
 7067SOL    HW122100   5.343   2.397   4.992
 7067SOL    HW222101   5.463   2.430   4.886
 7068SOL     OW22102   3.976   3.426   5.468
 7068SOL    HW122103   3.946   3.483   5.544
 7068SOL    HW222104   3.969   3.329   5.494
 7069SOL     OW22105   4.395   2.326   4.993
 7069SOL    HW122106   4.361   2.237   4.963
 7069SOL    HW222107   4.421   2.380   4.913
 7070SOL     OW22108   4.197   2.362   3.915
 7070SOL    HW122109   4.258   2.442   3.919
 7070SOL    HW222110   4.102   2.393   3.922
 7071SOL     OW22111   3.883   2.999   5.190
 7071SOL    HW122112   3.905   2.938   5.266
 7071SOL    HW222113   3.893   2.950   5.104
 7072SOL     OW22114   5.071   2.921   4.958
 7072SOL    HW122115   5.095   2.858   4.884
 7072SOL    HW222116   4.981   2.961   4.940
 7073SOL     OW22117   5.026   2.717   4.033
 7073SOL    HW122118   4.940   2.686   4.075
 7073SOL    HW222119   5.022   2.703   3.934
 7074SOL     OW22120   5.483   3.609   4.878
 7074SOL    HW122121   5.544   3.639   4.805
 7074SOL    HW222122   5.445   3.520   4.856
 7075SOL     OW22123   4.976   3.593   4.852
 7075SOL    HW122124   5.060   3.598   4.798
 7075SOL    HW222125   4.953   3.497   4.870
 7076SOL     OW22126   3.807   3.120   4.746
 7076SOL    HW122127   3.802   3.119   4.846
 7076SOL    HW222128   3.724   3.079   4.708
 7077SOL     OW22129   4.412   3.524   5.440
 7077SOL    HW122130   4.356   3.605   5.449
 7077SOL    HW222131   4.464   3.528   5.354
 7078SOL     OW22132   5.450   1.997   4.247
 7078SOL    HW122133   5.523   1.980   4.180
 7078SOL    HW222134   5.419   1.910   4.285
 7079SOL     OW22135   5.112   3.435   4.201
 7079SOL    HW122136   5.179   3.447   4.127
 7079SOL    HW222137   5.072   3.524   4.224
 7080SOL     OW22138   3.854   3.656   5.575
 7080SOL    HW122139   3.813   3.582   5.628
 7080SOL    HW222140   3.918   3.707   5.633
 7081SOL     OW22141   5.004   2.789   4.396
 7081SOL    HW122142   5.064   2.708   4.398
 7081SOL    HW222143   5.044   2.858   4.336
 7082SOL     OW22144   5.374   3.582   5.118
 7082SOL    HW122145   5.427   3.592   5.034
 7082SOL    HW222146   5.347   3.672   5.152
 7083SOL     OW22147   5.565   2.037   4.687
 7083SOL    HW122148   5.604   1.952   4.651
 7083SOL    HW222149   5.467   2.039   4.668
 7084SOL     OW22150   3.987   2.188   4.444
 7084SOL    HW122151   3.908   2.239   4.410
 7084SOL    HW222152   3.978   2.173   4.542
 7085SOL     OW22153   4.918   3.474   3.755
 7085SOL    HW122154   4.924   3.381   3.792
 7085SOL    HW222155   4.859   3.474   3.675
 7086SOL     OW22156   4.546   2.864   5.096
 7086SOL    HW122157   4.586   2.863   5.004
 7086SOL    HW222158   4.556   2.956   5.136
 7087SOL     OW22159   4.640   2.772   4.015
 7087SOL    HW122160   4.703   2.810   3.947
 7087SOL    HW222161   4.680   2.689   4.054
 7088SOL     OW22162   5.228   3.469   3.768
 7088SOL    HW122163   5.136   3.506   3.775
 7088SOL    HW222164   5.266   3.489   3.678
 7089SOL     OW22165   4.096   3.150   5.214
 7089SOL    HW122166   4.083   3.243   5.180
 7089SOL    HW222167   4.012   3.098   5.201
 7090SOL     OW22168   5.338   3.154   5.013
 7090SOL    HW122169   5.398   3.157   5.093
 7090SOL    HW222170   5.263   3.218   5.026
 7091SOL     OW22171   4.763   2.960   4.420
 7091SOL    HW122172   4.693   2.913   4.474
 7091SOL    HW222173   4.822   2.892   4.377
 7092SOL     OW22174   4.738   2.098   4.695
 7092SOL    HW122175   4.730   2.062   4.602
 7092SOL    HW222176   4.736   2.022   4.760
 7093SOL     OW22177   4.314   3.349   4.215
 7093SOL    HW122178   4.356   3.291   4.145
 7093SOL    HW222179   4.270   3.428   4.171
 7094SOL     OW22180   5.433   2.247   5.105
 7094SOL    HW122181   5.506   2.316   5.109
 7094SOL    HW222182   5.461   2.172   5.046
 7095SOL     OW22183   3.979   3.210   4.014
 7095SOL    HW122184   3.883   3.211   3.987
 7095SOL    HW222185   3.991   3.263   4.098
 7096SOL     OW22186   3.829   2.875   5.450
 7096SOL    HW122187   3.752   2.842   5.504
 7096SOL    HW222188   3.914   2.845   5.492
 7097SOL     OW22189   4.396   2.065   5.213
 7097SOL    HW122190   4.486   2.049   5.173
 7097SOL    HW222191   4.404   2.070   5.312
 7098SOL     OW22192   3.799   2.207   3.757
 7098SOL    HW122193   3.707   2.179   3.728
 7098SOL    HW222194   3.830   2.284   3.701
 7099SOL     OW22195   5.164   2.718   5.122
 7099SOL    HW122196   5.107   2.770   5.059
 7099SOL    HW222197   5.260   2.730   5.098
 7100SOL     OW22198   3.796   2.028   4.042
 7100SOL    HW122199   3.779   2.111   3.988
 7100SOL    HW222200   3.886   1.991   4.020
 7101SOL     OW22201   4.907   3.197   3.843
 7101SOL    HW122202   4.808   3.186   3.845
 7101SOL    HW222203   4.941   3.212   3.936
 7102SOL     OW22204   4.337   2.704   5.155
 7102SOL    HW122205   4.393   2.785   5.138
 7102SOL    HW222206   4.396   2.624   5.158
 7103SOL     OW22207   5.217   3.629   4.683
 7103SOL    HW122208   5.250   3.693   4.614
 7103SOL    HW222209   5.283   3.623   4.758
 7104SOL     OW22210   4.440   2.427   5.432
 7104SOL    HW122211   4.459   2.492   5.506
 7104SOL    HW222212   4.500   2.347   5.441
 7105SOL     OW22213   5.174   3.082   5.357
 7105SOL    HW122214   5.165   3.072   5.456
 7105SOL    HW222215   5.270   3.075   5.331
 7106SOL     OW22216   4.114   3.603   5.284
 7106SOL    HW122217   4.023   3.644   5.282
 7106SOL    HW222218   4.107   3.509   5.316
 7107SOL     OW22219   5.398   2.745   4.978
 7107SOL    HW122220   5.371   2.656   4.941
 7107SOL    HW222221   5.399   2.813   4.905
 7108SOL     OW22222   4.949   2.187   4.173
 7108SOL    HW122223   5.014   2.113   4.162
 7108SOL    HW222224   4.969   2.237   4.257
 7109SOL     OW22225   5.501   2.204   5.366
 7109SOL    HW122226   5.484   2.235   5.272
 7109SOL    HW222227   5.417   2.167   5.404
 7110SOL     OW22228   5.454   2.796   5.241
 7110SOL    HW122229   5.492   2.887   5.256
 7110SOL    HW222230   5.446   2.779   5.142
 7111SOL     OW22231   4.583   2.818   4.585
 7111SOL    HW122232   4.637   2.749   4.633
 7111SOL    HW222233   4.551   2.887   4.651
 7112SOL     OW22234   4.807   2.846   3.811
 7112SOL    HW122235   4.784   2.899   3.729
 7112SOL    HW222236   4.888   2.790   3.792
 7113SOL     OW22237   5.585   3.431   4.575
 7113SOL    HW122238   5.514   3.419   4.505
 7113SOL    HW222239   5.586   3.352   4.635
 7114SOL     OW22240   3.945   3.176   5.568
 7114SOL    HW122241   3.880   3.103   5.547
 7114SOL    HW222242   3.949   3.190   5.666
 7115SOL     OW22243   3.803   3.102   4.377
 7115SOL    HW122244   3.802   3.055   4.465
 7115SOL    HW222245   3.885   3.074   4.326
 7116SOL     OW22246   4.396   3.253   5.348
 7116SOL    HW122247   4.318   3.203   5.386
 7116SOL    HW222248   4.393   3.348   5.379
 7117SOL     OW22249   5.548   2.054   4.951
 7117SOL    HW122250   5.544   1.964   4.995
 7117SOL    HW222251   5.551   2.043   4.852
 7118SOL     OW22252   4.152   2.286   4.244
 7118SOL    HW122253   4.182   2.214   4.182
 7118SOL    HW222254   4.113   2.246   4.327
 7119SOL     OW22255   5.429   3.349   4.828
 7119SOL    HW122256   5.336   3.324   4.801
 7119SOL    HW222257   5.455   3.299   4.910
 7120SOL     OW22258   5.148   2.076   4.836
 7120SOL    HW122259   5.200   2.011   4.891
 7120SOL    HW222260   5.099   2.139   4.897
 7121SOL     OW22261   4.725   1.896   4.878
 7121SOL    HW122262   4.662   1.824   4.847
 7121SOL    HW222263   4.818   1.860   4.878
 7122SOL     OW22264   5.076   1.914   3.892
 7122SOL    HW122265   5.111   1.873   3.808
 7122SOL    HW222266   4.986   1.876   3.912
 7123SOL     OW22267   5.024   2.315   4.415
 7123SOL    HW122268   4.965   2.395   4.419
 7123SOL    HW222269   5.039   2.280   4.508
 7124SOL     OW22270   5.317   2.083   4.606
 7124SOL    HW122271   5.233   2.082   4.660
 7124SOL    HW222272   5.319   2.166   4.550
 7125SOL     OW22273   3.763   2.939   4.024
 7125SOL    HW122274   3.862   2.928   4.015
 7125SOL    HW222275   3.723   2.853   4.056
 7126SOL     OW22276   3.954   2.490   5.699
 7126SOL    HW122277   3.861   2.488   5.736
 7126SOL    HW222278   3.955   2.451   5.607
 7127SOL     OW22279   3.949   2.137   6.582
 7127SOL    HW122280   3.984   2.120   6.674
 7127SOL    HW222281   3.861   2.092   6.570
 7128SOL     OW22282   3.743   2.230   6.233
 7128SOL    HW122283   3.661   2.273   6.272
 7128SOL    HW222284   3.715   2.157   6.170
 7129SOL     OW22285   4.293   3.137   6.751
 7129SOL    HW122286   4.200   3.130   6.714
 7129SOL    HW222287   4.304   3.226   6.795
 7130SOL     OW22288   5.279   3.373   6.289
 7130SOL    HW122289   5.222   3.357   6.370
 7130SOL    HW222290   5.220   3.383   6.209
 7131SOL     OW22291   4.859   2.565   6.303
 7131SOL    HW122292   4.916   2.643   6.278
 7131SOL    HW222293   4.799   2.591   6.379
 7132SOL     OW22294   5.479   2.469   5.817
 7132SOL    HW122295   5.467   2.456   5.718
 7132SOL    HW222296   5.449   2.388   5.866
 7133SOL     OW22297   4.492   3.006   6.609
 7133SOL    HW122298   4.414   3.023   6.669
 7133SOL    HW222299   4.526   3.093   6.573
 7134SOL     OW22300   4.409   2.874   6.251
 7134SOL    HW122301   4.478   2.858   6.321
 7134SOL    HW222302   4.336   2.931   6.289
 7135SOL     OW22303   4.059   3.297   6.647
 7135SOL    HW122304   3.981   3.266   6.594
 7135SOL    HW222305   4.117   3.355   6.590
 7136SOL     OW22306   5.327   2.309   6.323
 7136SOL    HW122307   5.253   2.355   6.273
 7136SOL    HW222308   5.378   2.377   6.376
 7137SOL     OW22309   3.955   3.575   6.069
 7137SOL    HW122310   3.989   3.652   6.123
 7137SOL    HW222311   3.999   3.575   5.979
 7138SOL     OW22312   3.954   3.296   6.124
 7138SOL    HW122313   3.928   3.392   6.124
 7138SOL    HW222314   3.883   3.242   6.169
 7139SOL     OW22315   3.964   2.953   6.472
 7139SOL    HW122316   3.978   2.869   6.524
 7139SOL    HW222317   3.909   3.017   6.527
 7140SOL     OW22318   4.344   3.648   7.025
 7140SOL    HW122319   4.252   3.631   7.060
 7140SOL    HW222320   4.372   3.740   7.051
 7141SOL     OW22321   4.330   2.826   5.709
 7141SOL    HW122322   4.337   2.910   5.655
 7141SOL    HW222323   4.376   2.839   5.797
 7142SOL     OW22324   3.846   2.505   6.149
 7142SOL    HW122325   3.801   2.417   6.166
 7142SOL    HW222326   3.845   2.559   6.233
 7143SOL     OW22327   5.566   3.629   5.945
 7143SOL    HW122328   5.620   3.600   6.025
 7143SOL    HW222329   5.596   3.719   5.916
 7144SOL     OW22330   3.751   3.458   5.703
 7144SOL    HW122331   3.732   3.362   5.724
 7144SOL    HW222332   3.718   3.516   5.778
 7145SOL     OW22333   5.413   2.784   6.198
 7145SOL    HW122334   5.508   2.755   6.206
 7145SOL    HW222335   5.405   2.849   6.123
 7146SOL     OW22336   5.365   2.970   6.018
 7146SOL    HW122337   5.451   2.972   5.966
 7146SOL    HW222338   5.379   3.017   6.106
 7147SOL     OW22339   4.337   3.227   6.312
 7147SOL    HW122340   4.288   3.140   6.321
 7147SOL    HW222341   4.314   3.270   6.225
 7148SOL     OW22342   4.533   1.866   6.088
 7148SOL    HW122343   4.573   1.957   6.079
 7148SOL    HW222344   4.433   1.874   6.094
 7149SOL     OW22345   3.921   2.838   6.850
 7149SOL    HW122346   4.010   2.793   6.836
 7149SOL    HW222347   3.848   2.773   6.831
 7150SOL     OW22348   5.249   2.861   5.776
 7150SOL    HW122349   5.186   2.785   5.789
 7150SOL    HW222350   5.297   2.879   5.862
 7151SOL     OW22351   5.190   3.279   6.539
 7151SOL    HW122352   5.131   3.285   6.619
 7151SOL    HW222353   5.175   3.191   6.493
 7152SOL     OW22354   5.391   3.576   6.158
 7152SOL    HW122355   5.350   3.553   6.070
 7152SOL    HW222356   5.373   3.502   6.223
 7153SOL     OW22357   4.322   2.591   5.856
 7153SOL    HW122358   4.346   2.660   5.788
 7153SOL    HW222359   4.244   2.624   5.910
 7154SOL     OW22360   5.005   2.207   6.530
 7154SOL    HW122361   4.919   2.157   6.517
 7154SOL    HW222362   5.067   2.153   6.586
 7155SOL     OW22363   5.300   3.524   5.893
 7155SOL    HW122364   5.389   3.570   5.896
 7155SOL    HW222365   5.279   3.500   5.798
 7156SOL     OW22366   4.531   2.467   7.051
 7156SOL    HW122367   4.484   2.464   7.140
 7156SOL    HW222368   4.480   2.412   6.985
 7157SOL     OW22369   4.715   2.272   6.828
 7157SOL    HW122370   4.638   2.306   6.882
 7157SOL    HW222371   4.681   2.221   6.749
 7158SOL     OW22372   4.765   2.563   6.015
 7158SOL    HW122373   4.791   2.559   6.111
 7158SOL    HW222374   4.680   2.512   6.001
 7159SOL     OW22375   3.800   2.673   6.375
 7159SOL    HW122376   3.899   2.661   6.384
 7159SOL    HW222377   3.776   2.768   6.396
 7160SOL     OW22378   3.854   3.683   7.157
 7160SOL    HW122379   3.844   3.668   7.256
 7160SOL    HW222380   3.768   3.719   7.121
 7161SOL     OW22381   4.589   2.210   5.781
 7161SOL    HW122382   4.648   2.273   5.732
 7161SOL    HW222383   4.608   2.116   5.752
 7162SOL     OW22384   5.086   3.006   6.131
 7162SOL    HW122385   5.169   2.977   6.083
 7162SOL    HW222386   5.037   3.073   6.075
 7163SOL     OW22387   4.274   2.058   6.471
 7163SOL    HW122388   4.269   2.053   6.571
 7163SOL    HW222389   4.276   2.154   6.442
 7164SOL     OW22390   4.732   3.318   6.063
 7164SOL    HW122391   4.686   3.390   6.011
 7164SOL    HW222392   4.728   3.338   6.161
 7165SOL     OW22393   4.075   3.663   6.439
 7165SOL    HW122394   4.125   3.577   6.445
 7165SOL    HW222395   4.140   3.740   6.436
 7166SOL     OW22396   5.519   2.928   6.459
 7166SOL    HW122397   5.457   2.913   6.383
 7166SOL    HW222398   5.467   2.939   6.544
 7167SOL     OW22399   4.045   2.805   5.828
 7167SOL    HW122400   4.127   2.844   5.786
 7167SOL    HW222401   4.018   2.723   5.779
 7168SOL     OW22402   5.182   2.597   6.314
 7168SOL    HW122403   5.177   2.532   6.389
 7168SOL    HW222404   5.262   2.656   6.327
 7169SOL     OW22405   4.835   3.638   5.823
 7169SOL    HW122406   4.775   3.576   5.873
 7169SOL    HW222407   4.866   3.594   5.738
 7170SOL     OW22408   5.356   3.239   5.667
 7170SOL    HW122409   5.324   3.333   5.657
 7170SOL    HW222410   5.280   3.176   5.655
 7171SOL     OW22411   4.188   3.605   5.909
 7171SOL    HW122412   4.221   3.644   5.995
 7171SOL    HW222413   4.264   3.598   5.844
 7172SOL     OW22414   5.124   1.969   6.012
 7172SOL    HW122415   5.100   1.932   5.922
 7172SOL    HW222416   5.223   1.985   6.016
 7173SOL     OW22417   3.973   3.647   6.827
 7173SOL    HW122418   4.030   3.582   6.877
 7173SOL    HW222419   3.957   3.614   6.734
 7174SOL     OW22420   4.664   3.560   6.490
 7174SOL    HW122421   4.744   3.503   6.511
 7174SOL    HW222422   4.615   3.520   6.413
 7175SOL     OW22423   4.106   2.562   6.066
 7175SOL    HW122424   4.151   2.472   6.063
 7175SOL    HW222425   4.012   2.551   6.099
 7176SOL     OW22426   4.338   1.984   5.703
 7176SOL    HW122427   4.436   1.962   5.710
 7176SOL    HW222428   4.307   1.967   5.610
 7177SOL     OW22429   4.612   3.376   6.781
 7177SOL    HW122430   4.589   3.351   6.687
 7177SOL    HW222431   4.673   3.307   6.820
 7178SOL     OW22432   4.527   3.264   6.510
 7178SOL    HW122433   4.617   3.278   6.468
 7178SOL    HW222434   4.456   3.266   6.439
 7179SOL     OW22435   4.646   2.365   6.485
 7179SOL    HW122436   4.621   2.356   6.389
 7179SOL    HW222437   4.694   2.283   6.516
 7180SOL     OW22438   4.263   1.926   6.098
 7180SOL    HW122439   4.182   1.927   6.156
 7180SOL    HW222440   4.266   2.009   6.043
 7181SOL     OW22441   5.158   3.050   5.627
 7181SOL    HW122442   5.190   2.974   5.684
 7181SOL    HW222443   5.066   3.077   5.657
 7182SOL     OW22444   4.021   1.897   5.757
 7182SOL    HW122445   4.070   1.981   5.736
 7182SOL    HW222446   4.083   1.832   5.802
 7183SOL     OW22447   4.659   2.098   6.066
 7183SOL    HW122448   4.611   2.139   5.988
 7183SOL    HW222449   4.758   2.096   6.047
 7184SOL     OW22450   4.951   3.432   6.379
 7184SOL    HW122451   4.972   3.506   6.314
 7184SOL    HW222452   5.019   3.432   6.452
 7185SOL     OW22453   4.183   3.014   6.327
 7185SOL    HW122454   4.112   2.987   6.392
 7185SOL    HW222455   4.157   2.986   6.234
 7186SOL     OW22456   4.995   3.659   6.177
 7186SOL    HW122457   5.039   3.723   6.113
 7186SOL    HW222458   4.945   3.711   6.247
 7187SOL     OW22459   4.756   2.411   5.602
 7187SOL    HW122460   4.715   2.493   5.563
 7187SOL    HW222461   4.820   2.437   5.675
 7188SOL     OW22462   4.285   2.084   6.733
 7188SOL    HW122463   4.323   2.000   6.770
 7188SOL    HW222464   4.197   2.103   6.777
 7189SOL     OW22465   4.590   2.316   6.228
 7189SOL    HW122466   4.558   2.388   6.166
 7189SOL    HW222467   4.614   2.235   6.175
 7190SOL     OW22468   4.741   1.901   6.339
 7190SOL    HW122469   4.669   1.906   6.270
 7190SOL    HW222470   4.717   1.832   6.408
 7191SOL     OW22471   5.153   3.035   6.453
 7191SOL    HW122472   5.098   2.951   6.446
 7191SOL    HW222473   5.179   3.064   6.361
 7192SOL     OW22474   5.190   2.452   6.578
 7192SOL    HW122475   5.160   2.357   6.585
 7192SOL    HW222476   5.263   2.468   6.644
 7193SOL     OW22477   5.581   2.695   5.963
 7193SOL    HW122478   5.623   2.631   6.027
 7193SOL    HW222479   5.543   2.644   5.885
 7194SOL     OW22480   4.212   3.247   5.760
 7194SOL    HW122481   4.125   3.232   5.807
 7194SOL    HW222482   4.195   3.273   5.665
 7195SOL     OW22483   5.388   3.142   6.243
 7195SOL    HW122484   5.487   3.150   6.257
 7195SOL    HW222485   5.343   3.226   6.274
 7196SOL     OW22486   5.114   2.437   5.664
 7196SOL    HW122487   5.060   2.416   5.745
 7196SOL    HW222488   5.205   2.396   5.673
 7197SOL     OW22489   4.251   2.118   5.914
 7197SOL    HW122490   4.278   2.059   5.839
 7197SOL    HW222491   4.251   2.213   5.883
 7198SOL     OW22492   5.478   3.085   7.174
 7198SOL    HW122493   5.569   3.046   7.161
 7198SOL    HW222494   5.486   3.181   7.198
 7199SOL     OW22495   4.835   3.057   6.686
 7199SOL    HW122496   4.795   3.101   6.767
 7199SOL    HW222497   4.794   3.094   6.603
 7200SOL     OW22498   5.362   2.961   6.665
 7200SOL    HW122499   5.367   3.042   6.724
 7200SOL    HW222500   5.276   2.963   6.614
 7201SOL     OW22501   4.429   2.912   5.954
 7201SOL    HW122502   4.415   2.919   6.053
 7201SOL    HW222503   4.513   2.861   5.936
 7202SOL     OW22504   4.134   2.675   6.837
 7202SOL    HW122505   4.220   2.687   6.887
 7202SOL    HW222506   4.092   2.588   6.864
 7203SOL     OW22507   4.998   2.248   6.848
 7203SOL    HW122508   5.019   2.322   6.912
 7203SOL    HW222509   4.909   2.265   6.805
 7204SOL     OW22510   3.788   3.426   6.917
 7204SOL    HW122511   3.742   3.508   6.883
 7204SOL    HW222512   3.886   3.445   6.926
 7205SOL     OW22513   4.091   2.962   6.087
 7205SOL    HW122514   4.084   3.045   6.031
 7205SOL    HW222515   4.095   2.882   6.027
 7206SOL     OW22516   4.290   2.399   6.451
 7206SOL    HW122517   4.302   2.465   6.377
 7206SOL    HW222518   4.336   2.433   6.534
 7207SOL     OW22519   4.976   3.210   5.974
 7207SOL    HW122520   5.026   3.287   6.014
 7207SOL    HW222521   4.881   3.212   6.006
 7208SOL     OW22522   4.996   3.307   6.728
 7208SOL    HW122523   5.043   3.320   6.815
 7208SOL    HW222524   4.930   3.233   6.737
 7209SOL     OW22525   5.306   2.501   6.058
 7209SOL    HW122526   5.275   2.562   6.131
 7209SOL    HW222527   5.356   2.553   5.989
 7210SOL     OW22528   4.078   3.372   6.915
 7210SOL    HW122529   4.057   3.328   6.828
 7210SOL    HW222530   4.175   3.398   6.918
 7211SOL     OW22531   4.297   2.732   6.615
 7211SOL    HW122532   4.341   2.821   6.606
 7211SOL    HW222533   4.234   2.732   6.692
 7212SOL     OW22534   5.084   2.724   6.631
 7212SOL    HW122535   5.009   2.724   6.565
 7212SOL    HW222536   5.121   2.632   6.640
 7213SOL     OW22537   4.933   2.387   5.861
 7213SOL    HW122538   4.946   2.303   5.915
 7213SOL    HW222539   4.904   2.461   5.921
 7214SOL     OW22540   4.031   2.075   6.817
 7214SOL    HW122541   4.008   2.112   6.907
 7214SOL    HW222542   4.001   1.980   6.811
 7215SOL     OW22543   3.761   3.172   6.868
 7215SOL    HW122544   3.814   3.123   6.936
 7215SOL    HW222545   3.783   3.270   6.873
 7216SOL     OW22546   4.456   2.496   6.650
 7216SOL    HW122547   4.515   2.470   6.574
 7216SOL    HW222548   4.428   2.592   6.639
 7217SOL     OW22549   4.031   1.925   6.204
 7217SOL    HW122550   4.020   2.019   6.237
 7217SOL    HW222551   4.026   1.862   6.281
 7218SOL     OW22552   5.346   2.229   5.960
 7218SOL    HW122553   5.348   2.153   6.024
 7218SOL    HW222554   5.298   2.306   6.000
 7219SOL     OW22555   4.747   2.628   6.552
 7219SOL    HW122556   4.762   2.649   6.648
 7219SOL    HW222557   4.717   2.533   6.543
 7220SOL     OW22558   5.264   2.136   5.711
 7220SOL    HW122559   5.203   2.061   5.734
 7220SOL    HW222560   5.286   2.188   5.794
 7221SOL     OW22561   5.027   2.700   5.628
 7221SOL    HW122562   5.061   2.607   5.643
 7221SOL    HW222563   5.045   2.727   5.533
 7222SOL     OW22564   4.792   3.195   6.435
 7222SOL    HW122565   4.799   3.111   6.380
 7222SOL    HW222566   4.854   3.264   6.399
 7223SOL     OW22567   4.043   2.672   6.535
 7223SOL    HW122568   4.136   2.708   6.540
 7223SOL    HW222569   4.037   2.587   6.587
 7224SOL     OW22570   4.063   2.371   6.592
 7224SOL    HW122571   4.011   2.288   6.575
 7224SOL    HW222572   4.140   2.376   6.528
 7225SOL     OW22573   4.884   2.069   7.063
 7225SOL    HW122574   4.884   2.133   7.140
 7225SOL    HW222575   4.912   2.117   6.980
 7226SOL     OW22576   3.732   3.188   5.786
 7226SOL    HW122577   3.639   3.209   5.755
 7226SOL    HW222578   3.742   3.089   5.799
 7227SOL     OW22579   3.812   3.663   6.513
 7227SOL    HW122580   3.770   3.577   6.486
 7227SOL    HW222581   3.906   3.666   6.479
 7228SOL     OW22582   4.228   3.430   6.496
 7228SOL    HW122583   4.294   3.504   6.505
 7228SOL    HW222584   4.272   3.351   6.454
 7229SOL     OW22585   4.726   2.658   6.824
 7229SOL    HW122586   4.767   2.626   6.910
 7229SOL    HW222587   4.630   2.631   6.821
 7230SOL     OW22588   3.764   2.406   6.700
 7230SOL    HW122589   3.849   2.373   6.659
 7230SOL    HW222590   3.777   2.421   6.798
 7231SOL     OW22591   4.539   2.434   5.911
 7231SOL    HW122592   4.546   2.345   5.865
 7231SOL    HW222593   4.445   2.468   5.903
 7232SOL     OW22594   5.381   2.466   6.792
 7232SOL    HW122595   5.343   2.397   6.854
 7232SOL    HW222596   5.463   2.430   6.748
 7233SOL     OW22597   4.395   2.326   6.855
 7233SOL    HW122598   4.361   2.237   6.825
 7233SOL    HW222599   4.421   2.380   6.775
 7234SOL     OW22600   4.654   3.540   7.051
 7234SOL    HW122601   4.630   3.522   6.956
 7234SOL    HW222602   4.684   3.634   7.061
 7235SOL     OW22603   4.197   2.362   5.777
 7235SOL    HW122604   4.258   2.442   5.781
 7235SOL    HW222605   4.102   2.393   5.784
 7236SOL     OW22606   3.883   2.999   7.052
 7236SOL    HW122607   3.905   2.938   7.128
 7236SOL    HW222608   3.893   2.950   6.966
 7237SOL     OW22609   5.071   2.921   6.820
 7237SOL    HW122610   5.095   2.858   6.746
 7237SOL    HW222611   4.981   2.961   6.802
 7238SOL     OW22612   5.026   2.717   5.895
 7238SOL    HW122613   4.940   2.686   5.937
 7238SOL    HW222614   5.022   2.703   5.796
 7239SOL     OW22615   5.483   3.609   6.740
 7239SOL    HW122616   5.544   3.639   6.667
 7239SOL    HW222617   5.445   3.520   6.718
 7240SOL     OW22618   4.976   3.593   6.714
 7240SOL    HW122619   5.060   3.598   6.660
 7240SOL    HW222620   4.953   3.497   6.732
 7241SOL     OW22621   3.807   3.120   6.608
 7241SOL    HW122622   3.802   3.119   6.708
 7241SOL    HW222623   3.724   3.079   6.570
 7242SOL     OW22624   5.450   1.997   6.109
 7242SOL    HW122625   5.523   1.980   6.042
 7242SOL    HW222626   5.419   1.910   6.147
 7243SOL     OW22627   5.112   3.435   6.063
 7243SOL    HW122628   5.179   3.447   5.989
 7243SOL    HW222629   5.072   3.524   6.086
 7244SOL     OW22630   5.004   2.789   6.258
 7244SOL    HW122631   5.064   2.708   6.260
 7244SOL    HW222632   5.044   2.858   6.198
 7245SOL     OW22633   4.396   3.478   5.740
 7245SOL    HW122634   4.405   3.488   5.641
 7245SOL    HW222635   4.356   3.389   5.761
 7246SOL     OW22636   5.565   2.037   6.549
 7246SOL    HW122637   5.604   1.952   6.513
 7246SOL    HW222638   5.467   2.039   6.530
 7247SOL     OW22639   3.987   2.188   6.306
 7247SOL    HW122640   3.908   2.239   6.272
 7247SOL    HW222641   3.978   2.173   6.404
 7248SOL     OW22642   4.918   3.474   5.617
 7248SOL    HW122643   4.924   3.381   5.654
 7248SOL    HW222644   4.859   3.474   5.537
 7249SOL     OW22645   4.546   2.864   6.958
 7249SOL    HW122646   4.586   2.863   6.866
 7249SOL    HW222647   4.556   2.956   6.998
 7250SOL     OW22648   4.640   2.772   5.877
 7250SOL    HW122649   4.703   2.810   5.809
 7250SOL    HW222650   4.680   2.689   5.916
 7251SOL     OW22651   5.228   3.469   5.630
 7251SOL    HW122652   5.136   3.506   5.637
 7251SOL    HW222653   5.266   3.489   5.540
 7252SOL     OW22654   5.338   3.154   6.875
 7252SOL    HW122655   5.398   3.157   6.955
 7252SOL    HW222656   5.263   3.218   6.888
 7253SOL     OW22657   4.763   2.960   6.282
 7253SOL    HW122658   4.693   2.913   6.336
 7253SOL    HW222659   4.822   2.892   6.239
 7254SOL     OW22660   4.738   2.098   6.557
 7254SOL    HW122661   4.730   2.062   6.464
 7254SOL    HW222662   4.736   2.022   6.622
 7255SOL     OW22663   4.314   3.349   6.077
 7255SOL    HW122664   4.356   3.291   6.007
 7255SOL    HW222665   4.270   3.428   6.033
 7256SOL     OW22666   5.433   2.247   6.967
 7256SOL    HW122667   5.506   2.316   6.971
 7256SOL    HW222668   5.461   2.172   6.908
 7257SOL     OW22669   3.979   3.210   5.876
 7257SOL    HW122670   3.883   3.211   5.849
 7257SOL    HW222671   3.991   3.263   5.960
 7258SOL     OW22672   4.396   2.065   7.075
 7258SOL    HW122673   4.486   2.049   7.035
 7258SOL    HW222674   4.404   2.070   7.174
 7259SOL     OW22675   3.799   2.207   5.619
 7259SOL    HW122676   3.707   2.179   5.590
 7259SOL    HW222677   3.830   2.284   5.563
 7260SOL     OW22678   3.796   2.028   5.904
 7260SOL    HW122679   3.779   2.111   5.850
 7260SOL    HW222680   3.886   1.991   5.882
 7261SOL     OW22681   4.907   3.197   5.705
 7261SOL    HW122682   4.808   3.186   5.707
 7261SOL    HW222683   4.941   3.212   5.798
 7262SOL     OW22684   5.217   3.629   6.545
 7262SOL    HW122685   5.250   3.693   6.476
 7262SOL    HW222686   5.283   3.623   6.620
 7263SOL     OW22687   5.174   3.082   7.219
 7263SOL    HW122688   5.165   3.072   7.318
 7263SOL    HW222689   5.270   3.075   7.193
 7264SOL     OW22690   4.114   3.603   7.146
 7264SOL    HW122691   4.023   3.644   7.144
 7264SOL    HW222692   4.107   3.509   7.178
 7265SOL     OW22693   5.398   2.745   6.840
 7265SOL    HW122694   5.371   2.656   6.803
 7265SOL    HW222695   5.399   2.813   6.767
 7266SOL     OW22696   4.949   2.187   6.035
 7266SOL    HW122697   5.014   2.113   6.024
 7266SOL    HW222698   4.969   2.237   6.119
 7267SOL     OW22699   4.318   2.607   6.238
 7267SOL    HW122700   4.368   2.692   6.219
 7267SOL    HW222701   4.230   2.609   6.190
 7268SOL     OW22702   5.454   2.796   7.103
 7268SOL    HW122703   5.492   2.887   7.118
 7268SOL    HW222704   5.446   2.779   7.004
 7269SOL     OW22705   4.583   3.236   5.602
 7269SOL    HW122706   4.537   3.251   5.690
 7269SOL    HW222707   4.627   3.321   5.572
 7270SOL     OW22708   4.385   3.652   6.539
 7270SOL    HW122709   4.339   3.740   6.526
 7270SOL    HW222710   4.484   3.664   6.532
 7271SOL     OW22711   4.583   2.818   6.447
 7271SOL    HW122712   4.637   2.749   6.495
 7271SOL    HW222713   4.551   2.887   6.513
 7272SOL     OW22714   4.807   2.846   5.673
 7272SOL    HW122715   4.784   2.899   5.591
 7272SOL    HW222716   4.888   2.790   5.654
 7273SOL     OW22717   5.585   3.431   6.437
 7273SOL    HW122718   5.514   3.419   6.367
 7273SOL    HW222719   5.586   3.352   6.497
 7274SOL     OW22720   3.803   3.102   6.239
 7274SOL    HW122721   3.802   3.055   6.327
 7274SOL    HW222722   3.885   3.074   6.188
 7275SOL     OW22723   5.548   2.054   6.813
 7275SOL    HW122724   5.544   1.964   6.857
 7275SOL    HW222725   5.551   2.043   6.714
 7276SOL     OW22726   4.152   2.286   6.106
 7276SOL    HW122727   4.182   2.214   6.044
 7276SOL    HW222728   4.113   2.246   6.189
 7277SOL     OW22729   5.429   3.349   6.690
 7277SOL    HW122730   5.336   3.324   6.663
 7277SOL    HW222731   5.455   3.299   6.772
 7278SOL     OW22732   4.041   2.409   6.866
 7278SOL    HW122733   4.079   2.350   6.938
 7278SOL    HW222734   4.081   2.383   6.778
 7279SOL     OW22735   4.536   3.448   6.273
 7279SOL    HW122736   4.568   3.458   6.179
 7279SOL    HW222737   4.457   3.386   6.275
 7280SOL     OW22738   5.148   2.076   6.698
 7280SOL    HW122739   5.200   2.011   6.753
 7280SOL    HW222740   5.099   2.139   6.759
 7281SOL     OW22741   4.725   1.896   6.740
 7281SOL    HW122742   4.662   1.824   6.709
 7281SOL    HW222743   4.818   1.860   6.740
 7282SOL     OW22744   4.494   3.192   5.887
 7282SOL    HW122745   4.448   3.105   5.904
 7282SOL    HW222746   4.585   3.189   5.928
 7283SOL     OW22747   4.342   3.429   6.870
 7283SOL    HW122748   4.337   3.511   6.927
 7283SOL    HW222749   4.431   3.426   6.825
 7284SOL     OW22750   5.076   1.914   5.754
 7284SOL    HW122751   5.111   1.873   5.670
 7284SOL    HW222752   4.986   1.876   5.774
 7285SOL     OW22753   5.024   2.315   6.277
 7285SOL    HW122754   4.965   2.395   6.281
 7285SOL    HW222755   5.039   2.280   6.370
 7286SOL     OW22756   5.317   2.083   6.468
 7286SOL    HW122757   5.233   2.082   6.522
 7286SOL    HW222758   5.319   2.166   6.412
 7287SOL     OW22759   3.763   2.939   5.886
 7287SOL    HW122760   3.862   2.928   5.877
 7287SOL    HW222761   3.723   2.853   5.918
 7288SOL     OW22762   4.599   3.508   5.923
 7288SOL    HW122763   4.522   3.473   5.869
 7288SOL    HW222764   4.567   3.579   5.985
 7289SOL     OW22765   3.954   4.352   0.113
 7289SOL    HW122766   3.861   4.350   0.150
 7289SOL    HW222767   3.955   4.313   0.021
 7290SOL     OW22768   3.743   4.092   0.647
 7290SOL    HW122769   3.661   4.135   0.686
 7290SOL    HW222770   3.715   4.019   0.584
 7291SOL     OW22771   4.293   4.999   1.165
 7291SOL    HW122772   4.200   4.992   1.128
 7291SOL    HW222773   4.304   5.088   1.209
 7292SOL     OW22774   5.279   5.235   0.703
 7292SOL    HW122775   5.222   5.219   0.784
 7292SOL    HW222776   5.220   5.245   0.623
 7293SOL     OW22777   4.859   4.427   0.717
 7293SOL    HW122778   4.916   4.505   0.692
 7293SOL    HW222779   4.799   4.453   0.793
 7294SOL     OW22780   5.479   4.331   0.231
 7294SOL    HW122781   5.467   4.318   0.132
 7294SOL    HW222782   5.449   4.250   0.280
 7295SOL     OW22783   4.492   4.868   1.023
 7295SOL    HW122784   4.414   4.885   1.083
 7295SOL    HW222785   4.526   4.955   0.987
 7296SOL     OW22786   4.574   4.522   1.823
 7296SOL    HW122787   4.570   4.598   1.888
 7296SOL    HW222788   4.596   4.558   1.732
 7297SOL     OW22789   4.409   4.736   0.665
 7297SOL    HW122790   4.478   4.720   0.735
 7297SOL    HW222791   4.336   4.793   0.703
 7298SOL     OW22792   4.410   4.885   1.803
 7298SOL    HW122793   4.470   4.964   1.817
 7298SOL    HW222794   4.324   4.916   1.762
 7299SOL     OW22795   4.059   5.159   1.061
 7299SOL    HW122796   3.981   5.128   1.008
 7299SOL    HW222797   4.117   5.217   1.004
 7300SOL     OW22798   5.184   5.229   1.339
 7300SOL    HW122799   5.208   5.323   1.365
 7300SOL    HW222800   5.168   5.175   1.421
 7301SOL     OW22801   4.162   4.116   1.499
 7301SOL    HW122802   4.244   4.060   1.508
 7301SOL    HW222803   4.081   4.058   1.503
 7302SOL     OW22804   5.327   4.171   0.737
 7302SOL    HW122805   5.253   4.217   0.687
 7302SOL    HW222806   5.378   4.239   0.790
 7303SOL     OW22807   3.955   5.437   0.483
 7303SOL    HW122808   3.989   5.514   0.537
 7303SOL    HW222809   3.999   5.437   0.393
 7304SOL     OW22810   4.851   5.065   1.690
 7304SOL    HW122811   4.898   5.065   1.778
 7304SOL    HW222812   4.803   4.978   1.679
 7305SOL     OW22813   3.954   5.158   0.538
 7305SOL    HW122814   3.928   5.254   0.538
 7305SOL    HW222815   3.883   5.104   0.583
 7306SOL     OW22816   3.964   4.815   0.886
 7306SOL    HW122817   3.978   4.731   0.938
 7306SOL    HW222818   3.909   4.879   0.941
 7307SOL     OW22819   4.344   5.510   1.439
 7307SOL    HW122820   4.252   5.493   1.474
 7307SOL    HW222821   4.372   5.602   1.465
 7308SOL     OW22822   4.330   4.688   0.123
 7308SOL    HW122823   4.337   4.772   0.069
 7308SOL    HW222824   4.376   4.701   0.211
 7309SOL     OW22825   5.318   3.838   1.480
 7309SOL    HW122826   5.300   3.905   1.408
 7309SOL    HW222827   5.315   3.884   1.569
 7310SOL     OW22828   3.846   4.367   0.563
 7310SOL    HW122829   3.801   4.279   0.580
 7310SOL    HW222830   3.845   4.421   0.647
 7311SOL     OW22831   5.566   5.491   0.359
 7311SOL    HW122832   5.620   5.462   0.439
 7311SOL    HW222833   5.596   5.581   0.330
 7312SOL     OW22834   3.751   5.320   0.117
 7312SOL    HW122835   3.732   5.224   0.138
 7312SOL    HW222836   3.718   5.378   0.192
 7313SOL     OW22837   5.413   4.646   0.612
 7313SOL    HW122838   5.508   4.617   0.620
 7313SOL    HW222839   5.405   4.711   0.537
 7314SOL     OW22840   5.365   4.832   0.432
 7314SOL    HW122841   5.451   4.834   0.380
 7314SOL    HW222842   5.379   4.879   0.520
 7315SOL     OW22843   3.837   4.461   1.597
 7315SOL    HW122844   3.925   4.448   1.642
 7315SOL    HW222845   3.824   4.558   1.575
 7316SOL     OW22846   4.337   5.089   0.726
 7316SOL    HW122847   4.288   5.002   0.735
 7316SOL    HW222848   4.314   5.132   0.639
 7317SOL     OW22849   5.017   4.952   1.423
 7317SOL    HW122850   5.054   4.879   1.365
 7317SOL    HW222851   5.069   4.957   1.508
 7318SOL     OW22852   4.533   3.728   0.502
 7318SOL    HW122853   4.573   3.819   0.493
 7318SOL    HW222854   4.433   3.736   0.508
 7319SOL     OW22855   3.921   4.700   1.264
 7319SOL    HW122856   4.010   4.655   1.250
 7319SOL    HW222857   3.848   4.635   1.245
 7320SOL     OW22858   5.249   4.723   0.190
 7320SOL    HW122859   5.186   4.647   0.203
 7320SOL    HW222860   5.297   4.741   0.276
 7321SOL     OW22861   4.911   5.516   1.616
 7321SOL    HW122862   4.935   5.576   1.540
 7321SOL    HW222863   4.918   5.421   1.586
 7322SOL     OW22864   4.041   3.975   1.801
 7322SOL    HW122865   4.112   4.046   1.807
 7322SOL    HW222866   3.953   4.014   1.829
 7323SOL     OW22867   5.190   5.141   0.953
 7323SOL    HW122868   5.131   5.147   1.033
 7323SOL    HW222869   5.175   5.053   0.907
 7324SOL     OW22870   5.391   5.438   0.572
 7324SOL    HW122871   5.350   5.415   0.484
 7324SOL    HW222872   5.373   5.364   0.637
 7325SOL     OW22873   4.322   4.453   0.270
 7325SOL    HW122874   4.346   4.522   0.202
 7325SOL    HW222875   4.244   4.486   0.324
 7326SOL     OW22876   5.005   4.069   0.944
 7326SOL    HW122877   4.919   4.019   0.931
 7326SOL    HW222878   5.067   4.015   1.000
 7327SOL     OW22879   5.300   5.386   0.307
 7327SOL    HW122880   5.389   5.432   0.310
 7327SOL    HW222881   5.279   5.362   0.212
 7328SOL     OW22882   4.531   4.329   1.465
 7328SOL    HW122883   4.484   4.326   1.554
 7328SOL    HW222884   4.480   4.274   1.399
 7329SOL     OW22885   5.118   4.193   1.674
 7329SOL    HW122886   5.098   4.236   1.762
 7329SOL    HW222887   5.196   4.131   1.683
 7330SOL     OW22888   4.697   4.614   1.572
 7330SOL    HW122889   4.743   4.530   1.543
 7330SOL    HW222890   4.641   4.648   1.497
 7331SOL     OW22891   4.715   4.134   1.242
 7331SOL    HW122892   4.638   4.168   1.296
 7331SOL    HW222893   4.681   4.083   1.163
 7332SOL     OW22894   4.765   4.425   0.429
 7332SOL    HW122895   4.791   4.421   0.525
 7332SOL    HW222896   4.680   4.374   0.415
 7333SOL     OW22897   3.800   4.535   0.789
 7333SOL    HW122898   3.899   4.523   0.798
 7333SOL    HW222899   3.776   4.630   0.810
 7334SOL     OW22900   3.854   5.545   1.571
 7334SOL    HW122901   3.844   5.530   1.670
 7334SOL    HW222902   3.768   5.581   1.535
 7335SOL     OW22903   4.589   4.072   0.195
 7335SOL    HW122904   4.648   4.135   0.146
 7335SOL    HW222905   4.608   3.978   0.166
 7336SOL     OW22906   5.443   4.309   1.831
 7336SOL    HW122907   5.417   4.398   1.795
 7336SOL    HW222908   5.441   4.241   1.758
 7337SOL     OW22909   5.086   4.868   0.545
 7337SOL    HW122910   5.169   4.839   0.497
 7337SOL    HW222911   5.037   4.935   0.489
 7338SOL     OW22912   4.274   3.920   0.885
 7338SOL    HW122913   4.269   3.915   0.985
 7338SOL    HW222914   4.276   4.016   0.856
 7339SOL     OW22915   4.732   5.180   0.477
 7339SOL    HW122916   4.686   5.252   0.425
 7339SOL    HW222917   4.728   5.200   0.575
 7340SOL     OW22918   4.075   5.525   0.853
 7340SOL    HW122919   4.125   5.439   0.859
 7340SOL    HW222920   4.140   5.602   0.850
 7341SOL     OW22921   5.519   4.790   0.873
 7341SOL    HW122922   5.457   4.775   0.797
 7341SOL    HW222923   5.467   4.801   0.958
 7342SOL     OW22924   4.951   5.274   1.506
 7342SOL    HW122925   4.957   5.197   1.570
 7342SOL    HW222926   4.899   5.248   1.426
 7343SOL     OW22927   4.045   4.667   0.242
 7343SOL    HW122928   4.127   4.706   0.200
 7343SOL    HW222929   4.018   4.585   0.193
 7344SOL     OW22930   5.182   4.459   0.728
 7344SOL    HW122931   5.177   4.394   0.803
 7344SOL    HW222932   5.262   4.518   0.741
 7345SOL     OW22933   4.185   4.990   1.727
 7345SOL    HW122934   4.135   4.991   1.641
 7345SOL    HW222935   4.122   4.972   1.803
 7346SOL     OW22936   4.835   5.500   0.237
 7346SOL    HW122937   4.775   5.438   0.287
 7346SOL    HW222938   4.866   5.456   0.152
 7347SOL     OW22939   3.926   4.009   1.498
 7347SOL    HW122940   3.846   4.069   1.485
 7347SOL    HW222941   3.916   3.960   1.584
 7348SOL     OW22942   5.356   5.101   0.081
 7348SOL    HW122943   5.324   5.195   0.071
 7348SOL    HW222944   5.280   5.038   0.069
 7349SOL     OW22945   4.188   5.467   0.323
 7349SOL    HW122946   4.221   5.506   0.409
 7349SOL    HW222947   4.264   5.460   0.258
 7350SOL     OW22948   3.973   5.509   1.241
 7350SOL    HW122949   4.030   5.444   1.291
 7350SOL    HW222950   3.957   5.476   1.148
 7351SOL     OW22951   4.664   5.422   0.904
 7351SOL    HW122952   4.744   5.365   0.925
 7351SOL    HW222953   4.615   5.382   0.827
 7352SOL     OW22954   4.106   4.424   0.480
 7352SOL    HW122955   4.151   4.334   0.477
 7352SOL    HW222956   4.012   4.413   0.513
 7353SOL     OW22957   5.271   3.946   1.729
 7353SOL    HW122958   5.266   3.983   1.821
 7353SOL    HW222959   5.199   3.877   1.717
 7354SOL     OW22960   4.612   5.238   1.195
 7354SOL    HW122961   4.589   5.213   1.101
 7354SOL    HW222962   4.673   5.169   1.234
 7355SOL     OW22963   5.075   4.314   1.433
 7355SOL    HW122964   5.103   4.271   1.518
 7355SOL    HW222965   5.100   4.410   1.434
 7356SOL     OW22966   4.527   5.126   0.924
 7356SOL    HW122967   4.617   5.140   0.882
 7356SOL    HW222968   4.456   5.128   0.853
 7357SOL     OW22969   4.646   4.227   0.899
 7357SOL    HW122970   4.621   4.218   0.803
 7357SOL    HW222971   4.694   4.145   0.930
 7358SOL     OW22972   4.263   3.788   0.512
 7358SOL    HW122973   4.182   3.789   0.570
 7358SOL    HW222974   4.266   3.871   0.457
 7359SOL     OW22975   5.158   4.912   0.041
 7359SOL    HW122976   5.190   4.836   0.098
 7359SOL    HW222977   5.066   4.939   0.071
 7360SOL     OW22978   4.659   3.960   0.480
 7360SOL    HW122979   4.611   4.001   0.402
 7360SOL    HW222980   4.758   3.958   0.461
 7361SOL     OW22981   4.800   4.407   1.464
 7361SOL    HW122982   4.720   4.346   1.467
 7361SOL    HW222983   4.881   4.354   1.440
 7362SOL     OW22984   4.951   5.294   0.793
 7362SOL    HW122985   4.972   5.368   0.728
 7362SOL    HW222986   5.019   5.294   0.866
 7363SOL     OW22987   4.183   4.876   0.741
 7363SOL    HW122988   4.112   4.849   0.806
 7363SOL    HW222989   4.157   4.848   0.648
 7364SOL     OW22990   4.995   5.521   0.591
 7364SOL    HW122991   5.039   5.585   0.527
 7364SOL    HW222992   4.945   5.573   0.661
 7365SOL     OW22993   4.756   4.273   0.016
 7365SOL    HW122994   4.715   4.355  -0.023
 7365SOL    HW222995   4.820   4.299   0.089
 7366SOL     OW22996   3.802   4.280   1.386
 7366SOL    HW122997   3.894   4.279   1.345
 7366SOL    HW222998   3.796   4.354   1.453
 7367SOL     OW22999   4.285   3.946   1.147
 7367SOL    HW123000   4.323   3.862   1.184
 7367SOL    HW223001   4.197   3.965   1.191
 7368SOL     OW23002   4.590   4.178   0.642
 7368SOL    HW123003   4.558   4.250   0.580
 7368SOL    HW223004   4.614   4.097   0.589
 7369SOL     OW23005   4.741   3.763   0.753
 7369SOL    HW123006   4.669   3.768   0.684
 7369SOL    HW223007   4.717   3.694   0.822
 7370SOL     OW23008   5.153   4.897   0.867
 7370SOL    HW123009   5.098   4.813   0.860
 7370SOL    HW223010   5.179   4.926   0.775
 7371SOL     OW23011   5.190   4.314   0.992
 7371SOL    HW123012   5.160   4.219   0.999
 7371SOL    HW223013   5.263   4.330   1.058
 7372SOL     OW23014   5.581   4.557   0.377
 7372SOL    HW123015   5.623   4.493   0.441
 7372SOL    HW223016   5.543   4.506   0.299
 7373SOL     OW23017   4.212   5.109   0.174
 7373SOL    HW123018   4.125   5.094   0.221
 7373SOL    HW223019   4.195   5.135   0.079
 7374SOL     OW23020   5.388   5.004   0.657
 7374SOL    HW123021   5.487   5.012   0.671
 7374SOL    HW223022   5.343   5.088   0.688
 7375SOL     OW23023   5.114   4.299   0.078
 7375SOL    HW123024   5.060   4.278   0.159
 7375SOL    HW223025   5.205   4.258   0.087
 7376SOL     OW23026   4.251   3.980   0.328
 7376SOL    HW123027   4.278   3.921   0.253
 7376SOL    HW223028   4.251   4.075   0.297
 7377SOL     OW23029   5.478   4.947   1.588
 7377SOL    HW123030   5.569   4.908   1.575
 7377SOL    HW223031   5.486   5.043   1.612
 7378SOL     OW23032   4.788   5.071   1.340
 7378SOL    HW123033   4.708   5.048   1.395
 7378SOL    HW223034   4.871   5.045   1.389
 7379SOL     OW23035   5.316   5.353   1.625
 7379SOL    HW123036   5.343   5.387   1.535
 7379SOL    HW223037   5.395   5.315   1.671
 7380SOL     OW23038   4.835   4.919   1.100
 7380SOL    HW123039   4.795   4.963   1.181
 7380SOL    HW223040   4.794   4.956   1.017
 7381SOL     OW23041   5.362   4.823   1.079
 7381SOL    HW123042   5.367   4.904   1.138
 7381SOL    HW223043   5.276   4.825   1.028
 7382SOL     OW23044   4.639   3.813   1.402
 7382SOL    HW123045   4.664   3.793   1.307
 7382SOL    HW223046   4.711   3.869   1.444
 7383SOL     OW23047   4.704   4.840   1.719
 7383SOL    HW123048   4.605   4.846   1.729
 7383SOL    HW223049   4.727   4.760   1.663
 7384SOL     OW23050   4.429   4.774   0.368
 7384SOL    HW123051   4.415   4.781   0.467
 7384SOL    HW223052   4.513   4.723   0.350
 7385SOL     OW23053   4.134   4.537   1.251
 7385SOL    HW123054   4.220   4.549   1.301
 7385SOL    HW223055   4.092   4.450   1.278
 7386SOL     OW23056   4.998   4.110   1.262
 7386SOL    HW123057   5.019   4.184   1.326
 7386SOL    HW223058   4.909   4.127   1.219
 7387SOL     OW23059   3.788   5.288   1.331
 7387SOL    HW123060   3.742   5.370   1.297
 7387SOL    HW223061   3.886   5.307   1.340
 7388SOL     OW23062   4.091   4.824   0.501
 7388SOL    HW123063   4.084   4.907   0.445
 7388SOL    HW223064   4.095   4.744   0.441
 7389SOL     OW23065   4.290   4.261   0.865
 7389SOL    HW123066   4.302   4.327   0.791
 7389SOL    HW223067   4.336   4.295   0.948
 7390SOL     OW23068   4.976   5.072   0.388
 7390SOL    HW123069   5.026   5.149   0.428
 7390SOL    HW223070   4.881   5.074   0.420
 7391SOL     OW23071   4.996   5.169   1.142
 7391SOL    HW123072   5.043   5.182   1.229
 7391SOL    HW223073   4.930   5.095   1.151
 7392SOL     OW23074   5.306   4.363   0.472
 7392SOL    HW123075   5.275   4.424   0.545
 7392SOL    HW223076   5.356   4.415   0.403
 7393SOL     OW23077   4.078   5.234   1.329
 7393SOL    HW123078   4.057   5.190   1.242
 7393SOL    HW223079   4.175   5.260   1.332
 7394SOL     OW23080   4.126   4.475   1.598
 7394SOL    HW123081   4.194   4.530   1.551
 7394SOL    HW223082   4.166   4.387   1.625
 7395SOL     OW23083   5.311   4.503   1.670
 7395SOL    HW123084   5.219   4.541   1.665
 7395SOL    HW223085   5.371   4.550   1.605
 7396SOL     OW23086   4.737   3.829   1.770
 7396SOL    HW123087   4.743   3.914   1.718
 7396SOL    HW223088   4.769   3.753   1.713
 7397SOL     OW23089   4.228   3.774   1.740
 7397SOL    HW123090   4.186   3.717   1.670
 7397SOL    HW223091   4.162   3.843   1.772
 7398SOL     OW23092   4.297   4.594   1.029
 7398SOL    HW123093   4.341   4.683   1.020
 7398SOL    HW223094   4.234   4.594   1.106
 7399SOL     OW23095   5.084   4.586   1.045
 7399SOL    HW123096   5.009   4.586   0.979
 7399SOL    HW223097   5.121   4.494   1.054
 7400SOL     OW23098   4.933   4.249   0.275
 7400SOL    HW123099   4.946   4.165   0.329
 7400SOL    HW223100   4.904   4.323   0.335
 7401SOL     OW23101   3.761   5.034   1.282
 7401SOL    HW123102   3.814   4.985   1.350
 7401SOL    HW223103   3.783   5.132   1.287
 7402SOL     OW23104   4.456   4.358   1.064
 7402SOL    HW123105   4.515   4.332   0.988
 7402SOL    HW223106   4.428   4.454   1.053
 7403SOL     OW23107   5.452   4.659   1.854
 7403SOL    HW123108   5.406   4.652   1.765
 7403SOL    HW223109   5.390   4.703   1.920
 7404SOL     OW23110   5.346   4.091   0.374
 7404SOL    HW123111   5.348   4.015   0.438
 7404SOL    HW223112   5.298   4.168   0.414
 7405SOL     OW23113   4.747   4.490   0.966
 7405SOL    HW123114   4.762   4.511   1.062
 7405SOL    HW223115   4.717   4.395   0.957
 7406SOL     OW23116   4.704   5.297   1.700
 7406SOL    HW123117   4.684   5.341   1.612
 7406SOL    HW223118   4.743   5.206   1.684
 7407SOL     OW23119   5.583   5.242   1.605
 7407SOL    HW123120   5.597   5.269   1.510
 7407SOL    HW223121   5.666   5.264   1.658
 7408SOL     OW23122   4.074   4.622   1.804
 7408SOL    HW123123   4.150   4.666   1.852
 7408SOL    HW223124   4.109   4.575   1.722
 7409SOL     OW23125   5.264   3.998   0.125
 7409SOL    HW123126   5.203   3.923   0.148
 7409SOL    HW223127   5.286   4.050   0.208
 7410SOL     OW23128   5.027   4.562   0.042
 7410SOL    HW123129   5.061   4.469   0.057
 7410SOL    HW223130   5.045   4.589  -0.053
 7411SOL     OW23131   4.792   5.057   0.849
 7411SOL    HW123132   4.799   4.973   0.794
 7411SOL    HW223133   4.854   5.126   0.813
 7412SOL     OW23134   4.043   4.534   0.949
 7412SOL    HW123135   4.136   4.570   0.954
 7412SOL    HW223136   4.037   4.449   1.001
 7413SOL     OW23137   4.063   4.233   1.006
 7413SOL    HW123138   4.011   4.150   0.989
 7413SOL    HW223139   4.140   4.238   0.942
 7414SOL     OW23140   4.862   4.104   1.678
 7414SOL    HW123141   4.817   4.167   1.742
 7414SOL    HW223142   4.955   4.135   1.661
 7415SOL     OW23143   4.884   3.931   1.477
 7415SOL    HW123144   4.884   3.995   1.554
 7415SOL    HW223145   4.912   3.979   1.394
 7416SOL     OW23146   3.812   5.525   0.927
 7416SOL    HW123147   3.770   5.439   0.900
 7416SOL    HW223148   3.906   5.528   0.893
 7417SOL     OW23149   4.228   5.292   0.910
 7417SOL    HW123150   4.294   5.366   0.919
 7417SOL    HW223151   4.272   5.213   0.868
 7418SOL     OW23152   4.726   4.520   1.238
 7418SOL    HW123153   4.767   4.488   1.324
 7418SOL    HW223154   4.630   4.493   1.235
 7419SOL     OW23155   3.764   4.268   1.114
 7419SOL    HW123156   3.849   4.235   1.073
 7419SOL    HW223157   3.777   4.283   1.212
 7420SOL     OW23158   3.913   4.244   1.722
 7420SOL    HW123159   3.972   4.204   1.652
 7420SOL    HW223160   3.855   4.315   1.681
 7421SOL     OW23161   5.093   4.674   1.660
 7421SOL    HW123162   5.132   4.763   1.680
 7421SOL    HW223163   5.103   4.654   1.563
 7422SOL     OW23164   4.539   4.296   0.325
 7422SOL    HW123165   4.546   4.207   0.279
 7422SOL    HW223166   4.445   4.330   0.317
 7423SOL     OW23167   5.381   4.328   1.206
 7423SOL    HW123168   5.343   4.259   1.268
 7423SOL    HW223169   5.463   4.292   1.162
 7424SOL     OW23170   3.976   5.288   1.744
 7424SOL    HW123171   3.946   5.345   1.820
 7424SOL    HW223172   3.969   5.191   1.770
 7425SOL     OW23173   4.395   4.188   1.269
 7425SOL    HW123174   4.361   4.099   1.239
 7425SOL    HW223175   4.421   4.242   1.189
 7426SOL     OW23176   4.654   5.402   1.465
 7426SOL    HW123177   4.630   5.384   1.370
 7426SOL    HW223178   4.684   5.496   1.475
 7427SOL     OW23179   4.197   4.224   0.191
 7427SOL    HW123180   4.258   4.304   0.195
 7427SOL    HW223181   4.102   4.255   0.198
 7428SOL     OW23182   3.883   4.861   1.466
 7428SOL    HW123183   3.905   4.800   1.542
 7428SOL    HW223184   3.893   4.812   1.380
 7429SOL     OW23185   5.071   4.783   1.234
 7429SOL    HW123186   5.095   4.720   1.160
 7429SOL    HW223187   4.981   4.823   1.216
 7430SOL     OW23188   5.026   4.579   0.309
 7430SOL    HW123189   4.940   4.548   0.351
 7430SOL    HW223190   5.022   4.565   0.210
 7431SOL     OW23191   5.483   5.471   1.154
 7431SOL    HW123192   5.544   5.501   1.081
 7431SOL    HW223193   5.445   5.382   1.132
 7432SOL     OW23194   4.976   5.455   1.128
 7432SOL    HW123195   5.060   5.460   1.074
 7432SOL    HW223196   4.953   5.359   1.146
 7433SOL     OW23197   3.807   4.982   1.022
 7433SOL    HW123198   3.802   4.981   1.122
 7433SOL    HW223199   3.724   4.941   0.984
 7434SOL     OW23200   4.412   5.386   1.716
 7434SOL    HW123201   4.356   5.467   1.725
 7434SOL    HW223202   4.464   5.390   1.630
 7435SOL     OW23203   4.627   3.810   0.133
 7435SOL    HW123204   4.678   3.811   0.047
 7435SOL    HW223205   4.683   3.768   0.204
 7436SOL     OW23206   5.450   3.859   0.523
 7436SOL    HW123207   5.523   3.842   0.456
 7436SOL    HW223208   5.419   3.772   0.561
 7437SOL     OW23209   5.112   5.297   0.477
 7437SOL    HW123210   5.179   5.309   0.403
 7437SOL    HW223211   5.072   5.386   0.500
 7438SOL     OW23212   3.854   5.518   1.851
 7438SOL    HW123213   3.813   5.444   1.904
 7438SOL    HW223214   3.918   5.569   1.909
 7439SOL     OW23215   5.004   4.651   0.672
 7439SOL    HW123216   5.064   4.570   0.674
 7439SOL    HW223217   5.044   4.720   0.612
 7440SOL     OW23218   4.554   4.997   1.422
 7440SOL    HW123219   4.549   5.030   1.517
 7440SOL    HW223220   4.468   5.016   1.376
 7441SOL     OW23221   4.396   5.340   0.154
 7441SOL    HW123222   4.405   5.350   0.055
 7441SOL    HW223223   4.356   5.251   0.175
 7442SOL     OW23224   5.374   5.444   1.394
 7442SOL    HW123225   5.427   5.454   1.310
 7442SOL    HW223226   5.347   5.534   1.428
 7443SOL     OW23227   5.565   3.899   0.963
 7443SOL    HW123228   5.604   3.814   0.927
 7443SOL    HW223229   5.467   3.901   0.944
 7444SOL     OW23230   4.918   5.336   0.031
 7444SOL    HW123231   4.924   5.243   0.068
 7444SOL    HW223232   4.859   5.336  -0.049
 7445SOL     OW23233   4.546   4.726   1.372
 7445SOL    HW123234   4.586   4.725   1.280
 7445SOL    HW223235   4.556   4.818   1.412
 7446SOL     OW23236   4.640   4.634   0.291
 7446SOL    HW123237   4.703   4.672   0.223
 7446SOL    HW223238   4.680   4.551   0.330
 7447SOL     OW23239   5.228   5.331   0.044
 7447SOL    HW123240   5.136   5.368   0.051
 7447SOL    HW223241   5.266   5.351  -0.046
 7448SOL     OW23242   4.096   5.012   1.490
 7448SOL    HW123243   4.083   5.105   1.456
 7448SOL    HW223244   4.012   4.960   1.477
 7449SOL     OW23245   5.338   5.016   1.289
 7449SOL    HW123246   5.398   5.019   1.369
 7449SOL    HW223247   5.263   5.080   1.302
 7450SOL     OW23248   4.763   4.822   0.696
 7450SOL    HW123249   4.693   4.775   0.750
 7450SOL    HW223250   4.822   4.754   0.653
 7451SOL     OW23251   4.738   3.960   0.971
 7451SOL    HW123252   4.730   3.924   0.878
 7451SOL    HW223253   4.736   3.884   1.036
 7452SOL     OW23254   4.314   5.211   0.491
 7452SOL    HW123255   4.356   5.153   0.421
 7452SOL    HW223256   4.270   5.290   0.447
 7453SOL     OW23257   5.433   4.109   1.381
 7453SOL    HW123258   5.506   4.178   1.385
 7453SOL    HW223259   5.461   4.034   1.322
 7454SOL     OW23260   3.979   5.072   0.290
 7454SOL    HW123261   3.883   5.073   0.263
 7454SOL    HW223262   3.991   5.125   0.374
 7455SOL     OW23263   3.829   4.737   1.726
 7455SOL    HW123264   3.752   4.704   1.780
 7455SOL    HW223265   3.914   4.707   1.768
 7456SOL     OW23266   4.396   3.927   1.489
 7456SOL    HW123267   4.486   3.911   1.449
 7456SOL    HW223268   4.404   3.932   1.588
 7457SOL     OW23269   3.799   4.069   0.033
 7457SOL    HW123270   3.707   4.041   0.004
 7457SOL    HW223271   3.830   4.146  -0.023
 7458SOL     OW23272   5.164   4.580   1.398
 7458SOL    HW123273   5.107   4.632   1.335
 7458SOL    HW223274   5.260   4.592   1.374
 7459SOL     OW23275   3.796   3.890   0.318
 7459SOL    HW123276   3.779   3.973   0.264
 7459SOL    HW223277   3.886   3.853   0.296
 7460SOL     OW23278   4.907   5.059   0.119
 7460SOL    HW123279   4.808   5.048   0.121
 7460SOL    HW223280   4.941   5.074   0.212
 7461SOL     OW23281   4.337   4.566   1.431
 7461SOL    HW123282   4.393   4.647   1.414
 7461SOL    HW223283   4.396   4.486   1.434
 7462SOL     OW23284   5.217   5.491   0.959
 7462SOL    HW123285   5.250   5.555   0.890
 7462SOL    HW223286   5.283   5.485   1.034
 7463SOL     OW23287   5.174   4.944   1.633
 7463SOL    HW123288   5.165   4.934   1.732
 7463SOL    HW223289   5.270   4.937   1.607
 7464SOL     OW23290   4.114   5.465   1.560
 7464SOL    HW123291   4.023   5.506   1.558
 7464SOL    HW223292   4.107   5.371   1.592
 7465SOL     OW23293   5.398   4.607   1.254
 7465SOL    HW123294   5.371   4.518   1.217
 7465SOL    HW223295   5.399   4.675   1.181
 7466SOL     OW23296   4.949   4.049   0.449
 7466SOL    HW123297   5.014   3.975   0.438
 7466SOL    HW223298   4.969   4.099   0.533
 7467SOL     OW23299   4.318   4.469   0.652
 7467SOL    HW123300   4.368   4.554   0.633
 7467SOL    HW223301   4.230   4.471   0.604
 7468SOL     OW23302   5.501   4.066   1.642
 7468SOL    HW123303   5.484   4.097   1.548
 7468SOL    HW223304   5.417   4.029   1.680
 7469SOL     OW23305   5.454   4.658   1.517
 7469SOL    HW123306   5.492   4.749   1.532
 7469SOL    HW223307   5.446   4.641   1.418
 7470SOL     OW23308   4.583   5.098   0.016
 7470SOL    HW123309   4.537   5.113   0.104
 7470SOL    HW223310   4.627   5.183  -0.014
 7471SOL     OW23311   4.385   5.514   0.953
 7471SOL    HW123312   4.339   5.602   0.940
 7471SOL    HW223313   4.484   5.526   0.946
 7472SOL     OW23314   4.583   4.680   0.861
 7472SOL    HW123315   4.637   4.611   0.909
 7472SOL    HW223316   4.551   4.749   0.927
 7473SOL     OW23317   4.807   4.708   0.087
 7473SOL    HW123318   4.784   4.761   0.005
 7473SOL    HW223319   4.888   4.652   0.068
 7474SOL     OW23320   5.585   5.293   0.851
 7474SOL    HW123321   5.514   5.281   0.781
 7474SOL    HW223322   5.586   5.214   0.911
 7475SOL     OW23323   3.945   5.038   1.844
 7475SOL    HW123324   3.880   4.965   1.823
 7475SOL    HW223325   3.949   5.052   1.942
 7476SOL     OW23326   3.803   4.964   0.653
 7476SOL    HW123327   3.802   4.917   0.741
 7476SOL    HW223328   3.885   4.936   0.602
 7477SOL     OW23329   4.396   5.115   1.624
 7477SOL    HW123330   4.318   5.065   1.662
 7477SOL    HW223331   4.393   5.210   1.655
 7478SOL     OW23332   5.548   3.916   1.227
 7478SOL    HW123333   5.544   3.826   1.271
 7478SOL    HW223334   5.551   3.905   1.128
 7479SOL     OW23335   4.152   4.148   0.520
 7479SOL    HW123336   4.182   4.076   0.458
 7479SOL    HW223337   4.113   4.108   0.603
 7480SOL     OW23338   5.429   5.211   1.104
 7480SOL    HW123339   5.336   5.186   1.077
 7480SOL    HW223340   5.455   5.161   1.186
 7481SOL     OW23341   4.041   4.271   1.280
 7481SOL    HW123342   4.079   4.212   1.352
 7481SOL    HW223343   4.081   4.245   1.192
 7482SOL     OW23344   4.536   5.310   0.687
 7482SOL    HW123345   4.568   5.320   0.593
 7482SOL    HW223346   4.457   5.248   0.689
 7483SOL     OW23347   5.148   3.938   1.112
 7483SOL    HW123348   5.200   3.873   1.167
 7483SOL    HW223349   5.099   4.001   1.173
 7484SOL     OW23350   4.725   3.758   1.154
 7484SOL    HW123351   4.662   3.686   1.123
 7484SOL    HW223352   4.818   3.722   1.154
 7485SOL     OW23353   4.494   5.054   0.301
 7485SOL    HW123354   4.448   4.967   0.318
 7485SOL    HW223355   4.585   5.051   0.342
 7486SOL     OW23356   4.342   5.291   1.284
 7486SOL    HW123357   4.337   5.373   1.341
 7486SOL    HW223358   4.431   5.288   1.239
 7487SOL     OW23359   5.076   3.776   0.168
 7487SOL    HW123360   5.111   3.735   0.084
 7487SOL    HW223361   4.986   3.738   0.188
 7488SOL     OW23362   5.024   4.177   0.691
 7488SOL    HW123363   4.965   4.257   0.695
 7488SOL    HW223364   5.039   4.142   0.784
 7489SOL     OW23365   5.317   3.945   0.882
 7489SOL    HW123366   5.233   3.944   0.936
 7489SOL    HW223367   5.319   4.028   0.826
 7490SOL     OW23368   3.763   4.801   0.300
 7490SOL    HW123369   3.862   4.790   0.291
 7490SOL    HW223370   3.723   4.715   0.332
 7491SOL     OW23371   4.599   5.370   0.337
 7491SOL    HW123372   4.522   5.335   0.283
 7491SOL    HW223373   4.567   5.441   0.399
 7492SOL     OW23374   3.949   3.999   2.858
 7492SOL    HW123375   3.984   3.982   2.950
 7492SOL    HW223376   3.861   3.954   2.846
 7493SOL     OW23377   3.743   4.092   2.509
 7493SOL    HW123378   3.661   4.135   2.548
 7493SOL    HW223379   3.715   4.019   2.446
 7494SOL     OW23380   4.293   4.999   3.027
 7494SOL    HW123381   4.200   4.992   2.990
 7494SOL    HW223382   4.304   5.088   3.071
 7495SOL     OW23383   5.279   5.235   2.565
 7495SOL    HW123384   5.222   5.219   2.646
 7495SOL    HW223385   5.220   5.245   2.485
 7496SOL     OW23386   4.859   4.427   2.579
 7496SOL    HW123387   4.916   4.505   2.554
 7496SOL    HW223388   4.799   4.453   2.655
 7497SOL     OW23389   5.479   4.331   2.093
 7497SOL    HW123390   5.467   4.318   1.994
 7497SOL    HW223391   5.449   4.250   2.142
 7498SOL     OW23392   4.492   4.868   2.885
 7498SOL    HW123393   4.414   4.885   2.945
 7498SOL    HW223394   4.526   4.955   2.849
 7499SOL     OW23395   4.574   4.522   3.685
 7499SOL    HW123396   4.570   4.598   3.750
 7499SOL    HW223397   4.596   4.558   3.594
 7500SOL     OW23398   4.409   4.736   2.527
 7500SOL    HW123399   4.478   4.720   2.597
 7500SOL    HW223400   4.336   4.793   2.565
 7501SOL     OW23401   4.410   4.885   3.665
 7501SOL    HW123402   4.470   4.964   3.679
 7501SOL    HW223403   4.324   4.916   3.624
 7502SOL     OW23404   4.059   5.159   2.923
 7502SOL    HW123405   3.981   5.128   2.870
 7502SOL    HW223406   4.117   5.217   2.866
 7503SOL     OW23407   5.184   5.229   3.201
 7503SOL    HW123408   5.208   5.323   3.227
 7503SOL    HW223409   5.168   5.175   3.283
 7504SOL     OW23410   5.327   4.171   2.599
 7504SOL    HW123411   5.253   4.217   2.549
 7504SOL    HW223412   5.378   4.239   2.652
 7505SOL     OW23413   3.955   5.437   2.345
 7505SOL    HW123414   3.989   5.514   2.399
 7505SOL    HW223415   3.999   5.437   2.255
 7506SOL     OW23416   4.851   5.065   3.552
 7506SOL    HW123417   4.898   5.065   3.640
 7506SOL    HW223418   4.803   4.978   3.541
 7507SOL     OW23419   3.954   5.158   2.400
 7507SOL    HW123420   3.928   5.254   2.400
 7507SOL    HW223421   3.883   5.104   2.445
 7508SOL     OW23422   3.964   4.815   2.748
 7508SOL    HW123423   3.978   4.731   2.800
 7508SOL    HW223424   3.909   4.879   2.803
 7509SOL     OW23425   4.344   5.510   3.301
 7509SOL    HW123426   4.252   5.493   3.336
 7509SOL    HW223427   4.372   5.602   3.327
 7510SOL     OW23428   4.330   4.688   1.985
 7510SOL    HW123429   4.337   4.772   1.931
 7510SOL    HW223430   4.376   4.701   2.073
 7511SOL     OW23431   5.318   3.838   3.342
 7511SOL    HW123432   5.300   3.905   3.270
 7511SOL    HW223433   5.315   3.884   3.431
 7512SOL     OW23434   5.566   5.491   2.221
 7512SOL    HW123435   5.620   5.462   2.301
 7512SOL    HW223436   5.596   5.581   2.192
 7513SOL     OW23437   3.751   5.320   1.979
 7513SOL    HW123438   3.732   5.224   2.000
 7513SOL    HW223439   3.718   5.378   2.054
 7514SOL     OW23440   5.413   4.646   2.474
 7514SOL    HW123441   5.508   4.617   2.482
 7514SOL    HW223442   5.405   4.711   2.399
 7515SOL     OW23443   5.365   4.832   2.294
 7515SOL    HW123444   5.451   4.834   2.242
 7515SOL    HW223445   5.379   4.879   2.382
 7516SOL     OW23446   4.337   5.089   2.588
 7516SOL    HW123447   4.288   5.002   2.597
 7516SOL    HW223448   4.314   5.132   2.501
 7517SOL     OW23449   5.017   4.952   3.285
 7517SOL    HW123450   5.054   4.879   3.227
 7517SOL    HW223451   5.069   4.957   3.370
 7518SOL     OW23452   5.249   4.723   2.052
 7518SOL    HW123453   5.186   4.647   2.065
 7518SOL    HW223454   5.297   4.741   2.138
 7519SOL     OW23455   4.911   5.516   3.478
 7519SOL    HW123456   4.935   5.576   3.402
 7519SOL    HW223457   4.918   5.421   3.448
 7520SOL     OW23458   4.041   3.975   3.663
 7520SOL    HW123459   4.112   4.046   3.669
 7520SOL    HW223460   3.953   4.014   3.691
 7521SOL     OW23461   5.190   5.141   2.815
 7521SOL    HW123462   5.131   5.147   2.895
 7521SOL    HW223463   5.175   5.053   2.769
 7522SOL     OW23464   5.391   5.438   2.434
 7522SOL    HW123465   5.350   5.415   2.346
 7522SOL    HW223466   5.373   5.364   2.499
 7523SOL     OW23467   4.322   4.453   2.132
 7523SOL    HW123468   4.346   4.522   2.064
 7523SOL    HW223469   4.244   4.486   2.186
 7524SOL     OW23470   5.005   4.069   2.806
 7524SOL    HW123471   4.919   4.019   2.793
 7524SOL    HW223472   5.067   4.015   2.862
 7525SOL     OW23473   5.300   5.386   2.169
 7525SOL    HW123474   5.389   5.432   2.172
 7525SOL    HW223475   5.279   5.362   2.074
 7526SOL     OW23476   4.531   4.329   3.327
 7526SOL    HW123477   4.484   4.326   3.416
 7526SOL    HW223478   4.480   4.274   3.261
 7527SOL     OW23479   5.118   4.193   3.536
 7527SOL    HW123480   5.098   4.236   3.624
 7527SOL    HW223481   5.196   4.131   3.545
 7528SOL     OW23482   4.697   4.614   3.434
 7528SOL    HW123483   4.743   4.530   3.405
 7528SOL    HW223484   4.641   4.648   3.359
 7529SOL     OW23485   4.715   4.134   3.104
 7529SOL    HW123486   4.638   4.168   3.158
 7529SOL    HW223487   4.681   4.083   3.025
 7530SOL     OW23488   4.765   4.425   2.291
 7530SOL    HW123489   4.791   4.421   2.387
 7530SOL    HW223490   4.680   4.374   2.277
 7531SOL     OW23491   3.854   5.545   3.433
 7531SOL    HW123492   3.844   5.530   3.532
 7531SOL    HW223493   3.768   5.581   3.397
 7532SOL     OW23494   5.443   4.309   3.693
 7532SOL    HW123495   5.417   4.398   3.657
 7532SOL    HW223496   5.441   4.241   3.620
 7533SOL     OW23497   5.086   4.868   2.407
 7533SOL    HW123498   5.169   4.839   2.359
 7533SOL    HW223499   5.037   4.935   2.351
 7534SOL     OW23500   4.732   5.180   2.339
 7534SOL    HW123501   4.686   5.252   2.287
 7534SOL    HW223502   4.728   5.200   2.437
 7535SOL     OW23503   4.075   5.525   2.715
 7535SOL    HW123504   4.125   5.439   2.721
 7535SOL    HW223505   4.140   5.602   2.712
 7536SOL     OW23506   5.519   4.790   2.735
 7536SOL    HW123507   5.457   4.775   2.659
 7536SOL    HW223508   5.467   4.801   2.820
 7537SOL     OW23509   4.951   5.274   3.368
 7537SOL    HW123510   4.957   5.197   3.432
 7537SOL    HW223511   4.899   5.248   3.288
 7538SOL     OW23512   4.045   4.667   2.104
 7538SOL    HW123513   4.127   4.706   2.062
 7538SOL    HW223514   4.018   4.585   2.055
 7539SOL     OW23515   5.182   4.459   2.590
 7539SOL    HW123516   5.177   4.394   2.665
 7539SOL    HW223517   5.262   4.518   2.603
 7540SOL     OW23518   4.185   4.990   3.589
 7540SOL    HW123519   4.135   4.991   3.503
 7540SOL    HW223520   4.122   4.972   3.665
 7541SOL     OW23521   4.835   5.500   2.099
 7541SOL    HW123522   4.775   5.438   2.149
 7541SOL    HW223523   4.866   5.456   2.014
 7542SOL     OW23524   3.926   4.009   3.360
 7542SOL    HW123525   3.846   4.069   3.347
 7542SOL    HW223526   3.916   3.960   3.446
 7543SOL     OW23527   5.356   5.101   1.943
 7543SOL    HW123528   5.324   5.195   1.933
 7543SOL    HW223529   5.280   5.038   1.931
 7544SOL     OW23530   4.188   5.467   2.185
 7544SOL    HW123531   4.221   5.506   2.271
 7544SOL    HW223532   4.264   5.460   2.120
 7545SOL     OW23533   5.124   3.831   2.288
 7545SOL    HW123534   5.100   3.794   2.198
 7545SOL    HW223535   5.223   3.847   2.292
 7546SOL     OW23536   3.973   5.509   3.103
 7546SOL    HW123537   4.030   5.444   3.153
 7546SOL    HW223538   3.957   5.476   3.010
 7547SOL     OW23539   4.664   5.422   2.766
 7547SOL    HW123540   4.744   5.365   2.787
 7547SOL    HW223541   4.615   5.382   2.689
 7548SOL     OW23542   5.271   3.946   3.591
 7548SOL    HW123543   5.266   3.983   3.683
 7548SOL    HW223544   5.199   3.877   3.579
 7549SOL     OW23545   4.612   5.238   3.057
 7549SOL    HW123546   4.589   5.213   2.963
 7549SOL    HW223547   4.673   5.169   3.096
 7550SOL     OW23548   5.075   4.314   3.295
 7550SOL    HW123549   5.103   4.271   3.380
 7550SOL    HW223550   5.100   4.410   3.296
 7551SOL     OW23551   4.527   5.126   2.786
 7551SOL    HW123552   4.617   5.140   2.744
 7551SOL    HW223553   4.456   5.128   2.715
 7552SOL     OW23554   4.646   4.227   2.761
 7552SOL    HW123555   4.621   4.218   2.665
 7552SOL    HW223556   4.694   4.145   2.792
 7553SOL     OW23557   4.263   3.788   2.374
 7553SOL    HW123558   4.182   3.789   2.432
 7553SOL    HW223559   4.266   3.871   2.319
 7554SOL     OW23560   5.158   4.912   1.903
 7554SOL    HW123561   5.190   4.836   1.960
 7554SOL    HW223562   5.066   4.939   1.933
 7555SOL     OW23563   4.021   3.759   2.033
 7555SOL    HW123564   4.070   3.843   2.012
 7555SOL    HW223565   4.083   3.694   2.078
 7556SOL     OW23566   4.659   3.960   2.342
 7556SOL    HW123567   4.611   4.001   2.264
 7556SOL    HW223568   4.758   3.958   2.323
 7557SOL     OW23569   4.800   4.407   3.326
 7557SOL    HW123570   4.720   4.346   3.329
 7557SOL    HW223571   4.881   4.354   3.302
 7558SOL     OW23572   4.951   5.294   2.655
 7558SOL    HW123573   4.972   5.368   2.590
 7558SOL    HW223574   5.019   5.294   2.728
 7559SOL     OW23575   4.183   4.876   2.603
 7559SOL    HW123576   4.112   4.849   2.668
 7559SOL    HW223577   4.157   4.848   2.510
 7560SOL     OW23578   4.995   5.521   2.453
 7560SOL    HW123579   5.039   5.585   2.389
 7560SOL    HW223580   4.945   5.573   2.523
 7561SOL     OW23581   4.756   4.273   1.878
 7561SOL    HW123582   4.715   4.355   1.839
 7561SOL    HW223583   4.820   4.299   1.951
 7562SOL     OW23584   4.590   4.178   2.504
 7562SOL    HW123585   4.558   4.250   2.442
 7562SOL    HW223586   4.614   4.097   2.451
 7563SOL     OW23587   4.741   3.763   2.615
 7563SOL    HW123588   4.669   3.768   2.546
 7563SOL    HW223589   4.717   3.694   2.684
 7564SOL     OW23590   5.153   4.897   2.729
 7564SOL    HW123591   5.098   4.813   2.722
 7564SOL    HW223592   5.179   4.926   2.637
 7565SOL     OW23593   5.190   4.314   2.854
 7565SOL    HW123594   5.160   4.219   2.861
 7565SOL    HW223595   5.263   4.330   2.920
 7566SOL     OW23596   5.581   4.557   2.239
 7566SOL    HW123597   5.623   4.493   2.303
 7566SOL    HW223598   5.543   4.506   2.161
 7567SOL     OW23599   4.212   5.109   2.036
 7567SOL    HW123600   4.125   5.094   2.083
 7567SOL    HW223601   4.195   5.135   1.941
 7568SOL     OW23602   5.388   5.004   2.519
 7568SOL    HW123603   5.487   5.012   2.533
 7568SOL    HW223604   5.343   5.088   2.550
 7569SOL     OW23605   5.114   4.299   1.940
 7569SOL    HW123606   5.060   4.278   2.021
 7569SOL    HW223607   5.205   4.258   1.949
 7570SOL     OW23608   5.478   4.947   3.450
 7570SOL    HW123609   5.569   4.908   3.437
 7570SOL    HW223610   5.486   5.043   3.474
 7571SOL     OW23611   4.788   5.071   3.202
 7571SOL    HW123612   4.708   5.048   3.257
 7571SOL    HW223613   4.871   5.045   3.251
 7572SOL     OW23614   5.316   5.353   3.487
 7572SOL    HW123615   5.343   5.387   3.397
 7572SOL    HW223616   5.395   5.315   3.533
 7573SOL     OW23617   4.835   4.919   2.962
 7573SOL    HW123618   4.795   4.963   3.043
 7573SOL    HW223619   4.794   4.956   2.879
 7574SOL     OW23620   5.362   4.823   2.941
 7574SOL    HW123621   5.367   4.904   3.000
 7574SOL    HW223622   5.276   4.825   2.890
 7575SOL     OW23623   4.704   4.840   3.581
 7575SOL    HW123624   4.605   4.846   3.591
 7575SOL    HW223625   4.727   4.760   3.525
 7576SOL     OW23626   4.429   4.774   2.230
 7576SOL    HW123627   4.415   4.781   2.329
 7576SOL    HW223628   4.513   4.723   2.212
 7577SOL     OW23629   4.998   4.110   3.124
 7577SOL    HW123630   5.019   4.184   3.188
 7577SOL    HW223631   4.909   4.127   3.081
 7578SOL     OW23632   3.788   5.288   3.193
 7578SOL    HW123633   3.742   5.370   3.159
 7578SOL    HW223634   3.886   5.307   3.202
 7579SOL     OW23635   4.091   4.824   2.363
 7579SOL    HW123636   4.084   4.907   2.307
 7579SOL    HW223637   4.095   4.744   2.303
 7580SOL     OW23638   4.976   5.072   2.250
 7580SOL    HW123639   5.026   5.149   2.290
 7580SOL    HW223640   4.881   5.074   2.282
 7581SOL     OW23641   4.996   5.169   3.004
 7581SOL    HW123642   5.043   5.182   3.091
 7581SOL    HW223643   4.930   5.095   3.013
 7582SOL     OW23644   5.306   4.363   2.334
 7582SOL    HW123645   5.275   4.424   2.407
 7582SOL    HW223646   5.356   4.415   2.265
 7583SOL     OW23647   4.078   5.234   3.191
 7583SOL    HW123648   4.057   5.190   3.104
 7583SOL    HW223649   4.175   5.260   3.194
 7584SOL     OW23650   5.311   4.503   3.532
 7584SOL    HW123651   5.219   4.541   3.527
 7584SOL    HW223652   5.371   4.550   3.467
 7585SOL     OW23653   4.737   3.829   3.632
 7585SOL    HW123654   4.743   3.914   3.580
 7585SOL    HW223655   4.769   3.753   3.575
 7586SOL     OW23656   4.228   3.774   3.602
 7586SOL    HW123657   4.186   3.717   3.532
 7586SOL    HW223658   4.162   3.843   3.634
 7587SOL     OW23659   4.297   4.594   2.891
 7587SOL    HW123660   4.341   4.683   2.882
 7587SOL    HW223661   4.234   4.594   2.968
 7588SOL     OW23662   5.084   4.586   2.907
 7588SOL    HW123663   5.009   4.586   2.841
 7588SOL    HW223664   5.121   4.494   2.916
 7589SOL     OW23665   4.933   4.249   2.137
 7589SOL    HW123666   4.946   4.165   2.191
 7589SOL    HW223667   4.904   4.323   2.197
 7590SOL     OW23668   4.031   3.937   3.093
 7590SOL    HW123669   4.008   3.974   3.183
 7590SOL    HW223670   4.001   3.842   3.087
 7591SOL     OW23671   3.761   5.034   3.144
 7591SOL    HW123672   3.814   4.985   3.212
 7591SOL    HW223673   3.783   5.132   3.149
 7592SOL     OW23674   4.456   4.358   2.926
 7592SOL    HW123675   4.515   4.332   2.850
 7592SOL    HW223676   4.428   4.454   2.915
 7593SOL     OW23677   5.452   4.659   3.716
 7593SOL    HW123678   5.406   4.652   3.627
 7593SOL    HW223679   5.390   4.703   3.782
 7594SOL     OW23680   4.031   3.787   2.480
 7594SOL    HW123681   4.020   3.881   2.513
 7594SOL    HW223682   4.026   3.724   2.557
 7595SOL     OW23683   5.346   4.091   2.236
 7595SOL    HW123684   5.348   4.015   2.300
 7595SOL    HW223685   5.298   4.168   2.276
 7596SOL     OW23686   4.747   4.490   2.828
 7596SOL    HW123687   4.762   4.511   2.924
 7596SOL    HW223688   4.717   4.395   2.819
 7597SOL     OW23689   4.704   5.297   3.562
 7597SOL    HW123690   4.684   5.341   3.474
 7597SOL    HW223691   4.743   5.206   3.546
 7598SOL     OW23692   5.583   5.242   3.467
 7598SOL    HW123693   5.597   5.269   3.372
 7598SOL    HW223694   5.666   5.264   3.520
 7599SOL     OW23695   4.074   4.622   3.666
 7599SOL    HW123696   4.150   4.666   3.714
 7599SOL    HW223697   4.109   4.575   3.584
 7600SOL     OW23698   5.264   3.998   1.987
 7600SOL    HW123699   5.203   3.923   2.010
 7600SOL    HW223700   5.286   4.050   2.070
 7601SOL     OW23701   5.027   4.562   1.904
 7601SOL    HW123702   5.061   4.469   1.919
 7601SOL    HW223703   5.045   4.589   1.809
 7602SOL     OW23704   4.792   5.057   2.711
 7602SOL    HW123705   4.799   4.973   2.656
 7602SOL    HW223706   4.854   5.126   2.675
 7603SOL     OW23707   4.862   4.104   3.540
 7603SOL    HW123708   4.817   4.167   3.604
 7603SOL    HW223709   4.955   4.135   3.523
 7604SOL     OW23710   4.884   3.931   3.339
 7604SOL    HW123711   4.884   3.995   3.416
 7604SOL    HW223712   4.912   3.979   3.256
 7605SOL     OW23713   3.732   5.050   2.062
 7605SOL    HW123714   3.639   5.071   2.031
 7605SOL    HW223715   3.742   4.951   2.075
 7606SOL     OW23716   3.812   5.525   2.789
 7606SOL    HW123717   3.770   5.439   2.762
 7606SOL    HW223718   3.906   5.528   2.755
 7607SOL     OW23719   4.228   5.292   2.772
 7607SOL    HW123720   4.294   5.366   2.781
 7607SOL    HW223721   4.272   5.213   2.730
 7608SOL     OW23722   4.726   4.520   3.100
 7608SOL    HW123723   4.767   4.488   3.186
 7608SOL    HW223724   4.630   4.493   3.097
 7609SOL     OW23725   3.764   4.268   2.976
 7609SOL    HW123726   3.849   4.235   2.935
 7609SOL    HW223727   3.777   4.283   3.074
 7610SOL     OW23728   3.913   4.244   3.584
 7610SOL    HW123729   3.972   4.204   3.514
 7610SOL    HW223730   3.855   4.315   3.543
 7611SOL     OW23731   5.093   4.674   3.522
 7611SOL    HW123732   5.132   4.763   3.542
 7611SOL    HW223733   5.103   4.654   3.425
 7612SOL     OW23734   4.539   4.296   2.187
 7612SOL    HW123735   4.546   4.207   2.141
 7612SOL    HW223736   4.445   4.330   2.179
 7613SOL     OW23737   5.381   4.328   3.068
 7613SOL    HW123738   5.343   4.259   3.130
 7613SOL    HW223739   5.463   4.292   3.024
 7614SOL     OW23740   3.976   5.288   3.606
 7614SOL    HW123741   3.946   5.345   3.682
 7614SOL    HW223742   3.969   5.191   3.632
 7615SOL     OW23743   4.654   5.402   3.327
 7615SOL    HW123744   4.630   5.384   3.232
 7615SOL    HW223745   4.684   5.496   3.337
 7616SOL     OW23746   3.883   4.861   3.328
 7616SOL    HW123747   3.905   4.800   3.404
 7616SOL    HW223748   3.893   4.812   3.242
 7617SOL     OW23749   5.071   4.783   3.096
 7617SOL    HW123750   5.095   4.720   3.022
 7617SOL    HW223751   4.981   4.823   3.078
 7618SOL     OW23752   5.026   4.579   2.171
 7618SOL    HW123753   4.940   4.548   2.213
 7618SOL    HW223754   5.022   4.565   2.072
 7619SOL     OW23755   5.483   5.471   3.016
 7619SOL    HW123756   5.544   5.501   2.943
 7619SOL    HW223757   5.445   5.382   2.994
 7620SOL     OW23758   4.976   5.455   2.990
 7620SOL    HW123759   5.060   5.460   2.936
 7620SOL    HW223760   4.953   5.359   3.008
 7621SOL     OW23761   3.807   4.982   2.884
 7621SOL    HW123762   3.802   4.981   2.984
 7621SOL    HW223763   3.724   4.941   2.846
 7622SOL     OW23764   4.412   5.386   3.578
 7622SOL    HW123765   4.356   5.467   3.587
 7622SOL    HW223766   4.464   5.390   3.492
 7623SOL     OW23767   5.450   3.859   2.385
 7623SOL    HW123768   5.523   3.842   2.318
 7623SOL    HW223769   5.419   3.772   2.423
 7624SOL     OW23770   5.112   5.297   2.339
 7624SOL    HW123771   5.179   5.309   2.265
 7624SOL    HW223772   5.072   5.386   2.362
 7625SOL     OW23773   3.854   5.518   3.713
 7625SOL    HW123774   3.813   5.444   3.766
 7625SOL    HW223775   3.918   5.569   3.771
 7626SOL     OW23776   5.004   4.651   2.534
 7626SOL    HW123777   5.064   4.570   2.536
 7626SOL    HW223778   5.044   4.720   2.474
 7627SOL     OW23779   4.554   4.997   3.284
 7627SOL    HW123780   4.549   5.030   3.379
 7627SOL    HW223781   4.468   5.016   3.238
 7628SOL     OW23782   4.396   5.340   2.016
 7628SOL    HW123783   4.405   5.350   1.917
 7628SOL    HW223784   4.356   5.251   2.037
 7629SOL     OW23785   5.374   5.444   3.256
 7629SOL    HW123786   5.427   5.454   3.172
 7629SOL    HW223787   5.347   5.534   3.290
 7630SOL     OW23788   5.565   3.899   2.825
 7630SOL    HW123789   5.604   3.814   2.789
 7630SOL    HW223790   5.467   3.901   2.806
 7631SOL     OW23791   3.987   4.050   2.582
 7631SOL    HW123792   3.908   4.101   2.548
 7631SOL    HW223793   3.978   4.035   2.680
 7632SOL     OW23794   4.918   5.336   1.893
 7632SOL    HW123795   4.924   5.243   1.930
 7632SOL    HW223796   4.859   5.336   1.813
 7633SOL     OW23797   4.546   4.726   3.234
 7633SOL    HW123798   4.586   4.725   3.142
 7633SOL    HW223799   4.556   4.818   3.274
 7634SOL     OW23800   4.640   4.634   2.153
 7634SOL    HW123801   4.703   4.672   2.085
 7634SOL    HW223802   4.680   4.551   2.192
 7635SOL     OW23803   5.228   5.331   1.906
 7635SOL    HW123804   5.136   5.368   1.913
 7635SOL    HW223805   5.266   5.351   1.816
 7636SOL     OW23806   4.096   5.012   3.352
 7636SOL    HW123807   4.083   5.105   3.318
 7636SOL    HW223808   4.012   4.960   3.339
 7637SOL     OW23809   5.338   5.016   3.151
 7637SOL    HW123810   5.398   5.019   3.231
 7637SOL    HW223811   5.263   5.080   3.164
 7638SOL     OW23812   4.763   4.822   2.558
 7638SOL    HW123813   4.693   4.775   2.612
 7638SOL    HW223814   4.822   4.754   2.515
 7639SOL     OW23815   4.738   3.960   2.833
 7639SOL    HW123816   4.730   3.924   2.740
 7639SOL    HW223817   4.736   3.884   2.898
 7640SOL     OW23818   4.314   5.211   2.353
 7640SOL    HW123819   4.356   5.153   2.283
 7640SOL    HW223820   4.270   5.290   2.309
 7641SOL     OW23821   5.433   4.109   3.243
 7641SOL    HW123822   5.506   4.178   3.247
 7641SOL    HW223823   5.461   4.034   3.184
 7642SOL     OW23824   3.979   5.072   2.152
 7642SOL    HW123825   3.883   5.073   2.125
 7642SOL    HW223826   3.991   5.125   2.236
 7643SOL     OW23827   3.829   4.737   3.588
 7643SOL    HW123828   3.752   4.704   3.642
 7643SOL    HW223829   3.914   4.707   3.630
 7644SOL     OW23830   3.799   4.069   1.895
 7644SOL    HW123831   3.707   4.041   1.866
 7644SOL    HW223832   3.830   4.146   1.839
 7645SOL     OW23833   5.164   4.580   3.260
 7645SOL    HW123834   5.107   4.632   3.197
 7645SOL    HW223835   5.260   4.592   3.236
 7646SOL     OW23836   3.796   3.890   2.180
 7646SOL    HW123837   3.779   3.973   2.126
 7646SOL    HW223838   3.886   3.853   2.158
 7647SOL     OW23839   4.907   5.059   1.981
 7647SOL    HW123840   4.808   5.048   1.983
 7647SOL    HW223841   4.941   5.074   2.074
 7648SOL     OW23842   4.337   4.566   3.293
 7648SOL    HW123843   4.393   4.647   3.276
 7648SOL    HW223844   4.396   4.486   3.296
 7649SOL     OW23845   5.217   5.491   2.821
 7649SOL    HW123846   5.250   5.555   2.752
 7649SOL    HW223847   5.283   5.485   2.896
 7650SOL     OW23848   5.174   4.944   3.495
 7650SOL    HW123849   5.165   4.934   3.594
 7650SOL    HW223850   5.270   4.937   3.469
 7651SOL     OW23851   4.114   5.465   3.422
 7651SOL    HW123852   4.023   5.506   3.420
 7651SOL    HW223853   4.107   5.371   3.454
 7652SOL     OW23854   5.398   4.607   3.116
 7652SOL    HW123855   5.371   4.518   3.079
 7652SOL    HW223856   5.399   4.675   3.043
 7653SOL     OW23857   4.949   4.049   2.311
 7653SOL    HW123858   5.014   3.975   2.300
 7653SOL    HW223859   4.969   4.099   2.395
 7654SOL     OW23860   4.318   4.469   2.514
 7654SOL    HW123861   4.368   4.554   2.495
 7654SOL    HW223862   4.230   4.471   2.466
 7655SOL     OW23863   5.501   4.066   3.504
 7655SOL    HW123864   5.484   4.097   3.410
 7655SOL    HW223865   5.417   4.029   3.542
 7656SOL     OW23866   5.454   4.658   3.379
 7656SOL    HW123867   5.492   4.749   3.394
 7656SOL    HW223868   5.446   4.641   3.280
 7657SOL     OW23869   4.583   5.098   1.878
 7657SOL    HW123870   4.537   5.113   1.966
 7657SOL    HW223871   4.627   5.183   1.848
 7658SOL     OW23872   4.385   5.514   2.815
 7658SOL    HW123873   4.339   5.602   2.802
 7658SOL    HW223874   4.484   5.526   2.808
 7659SOL     OW23875   4.583   4.680   2.723
 7659SOL    HW123876   4.637   4.611   2.771
 7659SOL    HW223877   4.551   4.749   2.789
 7660SOL     OW23878   4.807   4.708   1.949
 7660SOL    HW123879   4.784   4.761   1.867
 7660SOL    HW223880   4.888   4.652   1.930
 7661SOL     OW23881   5.585   5.293   2.713
 7661SOL    HW123882   5.514   5.281   2.643
 7661SOL    HW223883   5.586   5.214   2.773
 7662SOL     OW23884   3.945   5.038   3.706
 7662SOL    HW123885   3.880   4.965   3.685
 7662SOL    HW223886   3.949   5.052   3.804
 7663SOL     OW23887   3.803   4.964   2.515
 7663SOL    HW123888   3.802   4.917   2.603
 7663SOL    HW223889   3.885   4.936   2.464
 7664SOL     OW23890   4.396   5.115   3.486
 7664SOL    HW123891   4.318   5.065   3.524
 7664SOL    HW223892   4.393   5.210   3.517
 7665SOL     OW23893   5.548   3.916   3.089
 7665SOL    HW123894   5.544   3.826   3.133
 7665SOL    HW223895   5.551   3.905   2.990
 7666SOL     OW23896   5.429   5.211   2.966
 7666SOL    HW123897   5.336   5.186   2.939
 7666SOL    HW223898   5.455   5.161   3.048
 7667SOL     OW23899   4.536   5.310   2.549
 7667SOL    HW123900   4.568   5.320   2.455
 7667SOL    HW223901   4.457   5.248   2.551
 7668SOL     OW23902   5.148   3.938   2.974
 7668SOL    HW123903   5.200   3.873   3.029
 7668SOL    HW223904   5.099   4.001   3.035
 7669SOL     OW23905   4.494   5.054   2.163
 7669SOL    HW123906   4.448   4.967   2.180
 7669SOL    HW223907   4.585   5.051   2.204
 7670SOL     OW23908   4.342   5.291   3.146
 7670SOL    HW123909   4.337   5.373   3.203
 7670SOL    HW223910   4.431   5.288   3.101
 7671SOL     OW23911   5.076   3.776   2.030
 7671SOL    HW123912   5.111   3.735   1.946
 7671SOL    HW223913   4.986   3.738   2.050
 7672SOL     OW23914   5.024   4.177   2.553
 7672SOL    HW123915   4.965   4.257   2.557
 7672SOL    HW223916   5.039   4.142   2.646
 7673SOL     OW23917   5.317   3.945   2.744
 7673SOL    HW123918   5.233   3.944   2.798
 7673SOL    HW223919   5.319   4.028   2.688
 7674SOL     OW23920   3.763   4.801   2.162
 7674SOL    HW123921   3.862   4.790   2.153
 7674SOL    HW223922   3.723   4.715   2.194
 7675SOL     OW23923   4.599   5.370   2.199
 7675SOL    HW123924   4.522   5.335   2.145
 7675SOL    HW223925   4.567   5.441   2.261
 7676SOL     OW23926   3.949   3.999   4.720
 7676SOL    HW123927   3.984   3.982   4.812
 7676SOL    HW223928   3.861   3.954   4.708
 7677SOL     OW23929   3.743   4.092   4.371
 7677SOL    HW123930   3.661   4.135   4.410
 7677SOL    HW223931   3.715   4.019   4.308
 7678SOL     OW23932   4.293   4.999   4.889
 7678SOL    HW123933   4.200   4.992   4.852
 7678SOL    HW223934   4.304   5.088   4.933
 7679SOL     OW23935   5.279   5.235   4.427
 7679SOL    HW123936   5.222   5.219   4.508
 7679SOL    HW223937   5.220   5.245   4.347
 7680SOL     OW23938   4.859   4.427   4.441
 7680SOL    HW123939   4.916   4.505   4.416
 7680SOL    HW223940   4.799   4.453   4.517
 7681SOL     OW23941   5.479   4.331   3.955
 7681SOL    HW123942   5.467   4.318   3.856
 7681SOL    HW223943   5.449   4.250   4.004
 7682SOL     OW23944   4.492   4.868   4.747
 7682SOL    HW123945   4.414   4.885   4.807
 7682SOL    HW223946   4.526   4.955   4.711
 7683SOL     OW23947   4.574   4.522   5.547
 7683SOL    HW123948   4.570   4.598   5.612
 7683SOL    HW223949   4.596   4.558   5.456
 7684SOL     OW23950   4.409   4.736   4.389
 7684SOL    HW123951   4.478   4.720   4.459
 7684SOL    HW223952   4.336   4.793   4.427
 7685SOL     OW23953   4.410   4.885   5.527
 7685SOL    HW123954   4.470   4.964   5.541
 7685SOL    HW223955   4.324   4.916   5.486
 7686SOL     OW23956   4.059   5.159   4.785
 7686SOL    HW123957   3.981   5.128   4.732
 7686SOL    HW223958   4.117   5.217   4.728
 7687SOL     OW23959   5.184   5.229   5.063
 7687SOL    HW123960   5.208   5.323   5.089
 7687SOL    HW223961   5.168   5.175   5.145
 7688SOL     OW23962   4.162   4.116   5.223
 7688SOL    HW123963   4.244   4.060   5.232
 7688SOL    HW223964   4.081   4.058   5.227
 7689SOL     OW23965   5.327   4.171   4.461
 7689SOL    HW123966   5.253   4.217   4.411
 7689SOL    HW223967   5.378   4.239   4.514
 7690SOL     OW23968   3.955   5.437   4.207
 7690SOL    HW123969   3.989   5.514   4.261
 7690SOL    HW223970   3.999   5.437   4.117
 7691SOL     OW23971   4.851   5.065   5.414
 7691SOL    HW123972   4.898   5.065   5.502
 7691SOL    HW223973   4.803   4.978   5.403
 7692SOL     OW23974   3.954   5.158   4.262
 7692SOL    HW123975   3.928   5.254   4.262
 7692SOL    HW223976   3.883   5.104   4.307
 7693SOL     OW23977   3.964   4.815   4.610
 7693SOL    HW123978   3.978   4.731   4.662
 7693SOL    HW223979   3.909   4.879   4.665
 7694SOL     OW23980   4.344   5.510   5.163
 7694SOL    HW123981   4.252   5.493   5.198
 7694SOL    HW223982   4.372   5.602   5.189
 7695SOL     OW23983   4.330   4.688   3.847
 7695SOL    HW123984   4.337   4.772   3.793
 7695SOL    HW223985   4.376   4.701   3.935
 7696SOL     OW23986   5.318   3.838   5.204
 7696SOL    HW123987   5.300   3.905   5.132
 7696SOL    HW223988   5.315   3.884   5.293
 7697SOL     OW23989   5.566   5.491   4.083
 7697SOL    HW123990   5.620   5.462   4.163
 7697SOL    HW223991   5.596   5.581   4.054
 7698SOL     OW23992   3.751   5.320   3.841
 7698SOL    HW123993   3.732   5.224   3.862
 7698SOL    HW223994   3.718   5.378   3.916
 7699SOL     OW23995   5.413   4.646   4.336
 7699SOL    HW123996   5.508   4.617   4.344
 7699SOL    HW223997   5.405   4.711   4.261
 7700SOL     OW23998   5.365   4.832   4.156
 7700SOL    HW123999   5.451   4.834   4.104
 7700SOL    HW224000   5.379   4.879   4.244
 7701SOL     OW24001   3.837   4.461   5.321
 7701SOL    HW124002   3.925   4.448   5.366
 7701SOL    HW224003   3.824   4.558   5.299
 7702SOL     OW24004   4.337   5.089   4.450
 7702SOL    HW124005   4.288   5.002   4.459
 7702SOL    HW224006   4.314   5.132   4.363
 7703SOL     OW24007   5.017   4.952   5.147
 7703SOL    HW124008   5.054   4.879   5.089
 7703SOL    HW224009   5.069   4.957   5.232
 7704SOL     OW24010   5.249   4.723   3.914
 7704SOL    HW124011   5.186   4.647   3.927
 7704SOL    HW224012   5.297   4.741   4.000
 7705SOL     OW24013   4.911   5.516   5.340
 7705SOL    HW124014   4.935   5.576   5.264
 7705SOL    HW224015   4.918   5.421   5.310
 7706SOL     OW24016   4.041   3.975   5.525
 7706SOL    HW124017   4.112   4.046   5.531
 7706SOL    HW224018   3.953   4.014   5.553
 7707SOL     OW24019   5.190   5.141   4.677
 7707SOL    HW124020   5.131   5.147   4.757
 7707SOL    HW224021   5.175   5.053   4.631
 7708SOL     OW24022   5.391   5.438   4.296
 7708SOL    HW124023   5.350   5.415   4.208
 7708SOL    HW224024   5.373   5.364   4.361
 7709SOL     OW24025   4.322   4.453   3.994
 7709SOL    HW124026   4.346   4.522   3.926
 7709SOL    HW224027   4.244   4.486   4.048
 7710SOL     OW24028   5.005   4.069   4.668
 7710SOL    HW124029   4.919   4.019   4.655
 7710SOL    HW224030   5.067   4.015   4.724
 7711SOL     OW24031   5.300   5.386   4.031
 7711SOL    HW124032   5.389   5.432   4.034
 7711SOL    HW224033   5.279   5.362   3.936
 7712SOL     OW24034   4.531   4.329   5.189
 7712SOL    HW124035   4.484   4.326   5.278
 7712SOL    HW224036   4.480   4.274   5.123
 7713SOL     OW24037   5.118   4.193   5.398
 7713SOL    HW124038   5.098   4.236   5.486
 7713SOL    HW224039   5.196   4.131   5.407
 7714SOL     OW24040   4.697   4.614   5.296
 7714SOL    HW124041   4.743   4.530   5.267
 7714SOL    HW224042   4.641   4.648   5.221
 7715SOL     OW24043   4.715   4.134   4.966
 7715SOL    HW124044   4.638   4.168   5.020
 7715SOL    HW224045   4.681   4.083   4.887
 7716SOL     OW24046   4.765   4.425   4.153
 7716SOL    HW124047   4.791   4.421   4.249
 7716SOL    HW224048   4.680   4.374   4.139
 7717SOL     OW24049   3.854   5.545   5.295
 7717SOL    HW124050   3.844   5.530   5.394
 7717SOL    HW224051   3.768   5.581   5.259
 7718SOL     OW24052   5.443   4.309   5.555
 7718SOL    HW124053   5.417   4.398   5.519
 7718SOL    HW224054   5.441   4.241   5.482
 7719SOL     OW24055   5.086   4.868   4.269
 7719SOL    HW124056   5.169   4.839   4.221
 7719SOL    HW224057   5.037   4.935   4.213
 7720SOL     OW24058   4.732   5.180   4.201
 7720SOL    HW124059   4.686   5.252   4.149
 7720SOL    HW224060   4.728   5.200   4.299
 7721SOL     OW24061   4.075   5.525   4.577
 7721SOL    HW124062   4.125   5.439   4.583
 7721SOL    HW224063   4.140   5.602   4.574
 7722SOL     OW24064   5.519   4.790   4.597
 7722SOL    HW124065   5.457   4.775   4.521
 7722SOL    HW224066   5.467   4.801   4.682
 7723SOL     OW24067   4.951   5.274   5.230
 7723SOL    HW124068   4.957   5.197   5.294
 7723SOL    HW224069   4.899   5.248   5.150
 7724SOL     OW24070   5.182   4.459   4.452
 7724SOL    HW124071   5.177   4.394   4.527
 7724SOL    HW224072   5.262   4.518   4.465
 7725SOL     OW24073   4.185   4.990   5.451
 7725SOL    HW124074   4.135   4.991   5.365
 7725SOL    HW224075   4.122   4.972   5.527
 7726SOL     OW24076   4.835   5.500   3.961
 7726SOL    HW124077   4.775   5.438   4.011
 7726SOL    HW224078   4.866   5.456   3.876
 7727SOL     OW24079   3.926   4.009   5.222
 7727SOL    HW124080   3.846   4.069   5.209
 7727SOL    HW224081   3.916   3.960   5.308
 7728SOL     OW24082   5.356   5.101   3.805
 7728SOL    HW124083   5.324   5.195   3.795
 7728SOL    HW224084   5.280   5.038   3.793
 7729SOL     OW24085   4.188   5.467   4.047
 7729SOL    HW124086   4.221   5.506   4.133
 7729SOL    HW224087   4.264   5.460   3.982
 7730SOL     OW24088   5.124   3.831   4.150
 7730SOL    HW124089   5.100   3.794   4.060
 7730SOL    HW224090   5.223   3.847   4.154
 7731SOL     OW24091   3.973   5.509   4.965
 7731SOL    HW124092   4.030   5.444   5.015
 7731SOL    HW224093   3.957   5.476   4.872
 7732SOL     OW24094   4.664   5.422   4.628
 7732SOL    HW124095   4.744   5.365   4.649
 7732SOL    HW224096   4.615   5.382   4.551
 7733SOL     OW24097   5.271   3.946   5.453
 7733SOL    HW124098   5.266   3.983   5.545
 7733SOL    HW224099   5.199   3.877   5.441
 7734SOL     OW24100   4.505   3.988   5.473
 7734SOL    HW124101   4.572   3.927   5.516
 7734SOL    HW224102   4.432   4.007   5.538
 7735SOL     OW24103   4.612   5.238   4.919
 7735SOL    HW124104   4.589   5.213   4.825
 7735SOL    HW224105   4.673   5.169   4.958
 7736SOL     OW24106   5.075   4.314   5.157
 7736SOL    HW124107   5.103   4.271   5.242
 7736SOL    HW224108   5.100   4.410   5.158
 7737SOL     OW24109   4.527   5.126   4.648
 7737SOL    HW124110   4.617   5.140   4.606
 7737SOL    HW224111   4.456   5.128   4.577
 7738SOL     OW24112   4.646   4.227   4.623
 7738SOL    HW124113   4.621   4.218   4.527
 7738SOL    HW224114   4.694   4.145   4.654
 7739SOL     OW24115   4.263   3.788   4.236
 7739SOL    HW124116   4.182   3.789   4.294
 7739SOL    HW224117   4.266   3.871   4.181
 7740SOL     OW24118   5.158   4.912   3.765
 7740SOL    HW124119   5.190   4.836   3.822
 7740SOL    HW224120   5.066   4.939   3.795
 7741SOL     OW24121   4.021   3.759   3.895
 7741SOL    HW124122   4.070   3.843   3.874
 7741SOL    HW224123   4.083   3.694   3.940
 7742SOL     OW24124   4.800   4.407   5.188
 7742SOL    HW124125   4.720   4.346   5.191
 7742SOL    HW224126   4.881   4.354   5.164
 7743SOL     OW24127   4.951   5.294   4.517
 7743SOL    HW124128   4.972   5.368   4.452
 7743SOL    HW224129   5.019   5.294   4.590
 7744SOL     OW24130   4.183   4.876   4.465
 7744SOL    HW124131   4.112   4.849   4.530
 7744SOL    HW224132   4.157   4.848   4.372
 7745SOL     OW24133   4.995   5.521   4.315
 7745SOL    HW124134   5.039   5.585   4.251
 7745SOL    HW224135   4.945   5.573   4.385
 7746SOL     OW24136   4.756   4.273   3.740
 7746SOL    HW124137   4.715   4.355   3.701
 7746SOL    HW224138   4.820   4.299   3.813
 7747SOL     OW24139   3.802   4.280   5.110
 7747SOL    HW124140   3.894   4.279   5.069
 7747SOL    HW224141   3.796   4.354   5.177
 7748SOL     OW24142   4.590   4.178   4.366
 7748SOL    HW124143   4.558   4.250   4.304
 7748SOL    HW224144   4.614   4.097   4.313
 7749SOL     OW24145   5.153   4.897   4.591
 7749SOL    HW124146   5.098   4.813   4.584
 7749SOL    HW224147   5.179   4.926   4.499
 7750SOL     OW24148   5.190   4.314   4.716
 7750SOL    HW124149   5.160   4.219   4.723
 7750SOL    HW224150   5.263   4.330   4.782
 7751SOL     OW24151   5.581   4.557   4.101
 7751SOL    HW124152   5.623   4.493   4.165
 7751SOL    HW224153   5.543   4.506   4.023
 7752SOL     OW24154   4.212   5.109   3.898
 7752SOL    HW124155   4.125   5.094   3.945
 7752SOL    HW224156   4.195   5.135   3.803
 7753SOL     OW24157   5.388   5.004   4.381
 7753SOL    HW124158   5.487   5.012   4.395
 7753SOL    HW224159   5.343   5.088   4.412
 7754SOL     OW24160   5.114   4.299   3.802
 7754SOL    HW124161   5.060   4.278   3.883
 7754SOL    HW224162   5.205   4.258   3.811
 7755SOL     OW24163   5.478   4.947   5.312
 7755SOL    HW124164   5.569   4.908   5.299
 7755SOL    HW224165   5.486   5.043   5.336
 7756SOL     OW24166   4.788   5.071   5.064
 7756SOL    HW124167   4.708   5.048   5.119
 7756SOL    HW224168   4.871   5.045   5.113
 7757SOL     OW24169   5.316   5.353   5.349
 7757SOL    HW124170   5.343   5.387   5.259
 7757SOL    HW224171   5.395   5.315   5.395
 7758SOL     OW24172   4.835   4.919   4.824
 7758SOL    HW124173   4.795   4.963   4.905
 7758SOL    HW224174   4.794   4.956   4.741
 7759SOL     OW24175   5.362   4.823   4.803
 7759SOL    HW124176   5.367   4.904   4.862
 7759SOL    HW224177   5.276   4.825   4.752
 7760SOL     OW24178   4.704   4.840   5.443
 7760SOL    HW124179   4.605   4.846   5.453
 7760SOL    HW224180   4.727   4.760   5.387
 7761SOL     OW24181   4.429   4.774   4.092
 7761SOL    HW124182   4.415   4.781   4.191
 7761SOL    HW224183   4.513   4.723   4.074
 7762SOL     OW24184   4.998   4.110   4.986
 7762SOL    HW124185   5.019   4.184   5.050
 7762SOL    HW224186   4.909   4.127   4.943
 7763SOL     OW24187   3.788   5.288   5.055
 7763SOL    HW124188   3.742   5.370   5.021
 7763SOL    HW224189   3.886   5.307   5.064
 7764SOL     OW24190   4.091   4.824   4.225
 7764SOL    HW124191   4.084   4.907   4.169
 7764SOL    HW224192   4.095   4.744   4.165
 7765SOL     OW24193   4.976   5.072   4.112
 7765SOL    HW124194   5.026   5.149   4.152
 7765SOL    HW224195   4.881   5.074   4.144
 7766SOL     OW24196   4.996   5.169   4.866
 7766SOL    HW124197   5.043   5.182   4.953
 7766SOL    HW224198   4.930   5.095   4.875
 7767SOL     OW24199   5.306   4.363   4.196
 7767SOL    HW124200   5.275   4.424   4.269
 7767SOL    HW224201   5.356   4.415   4.127
 7768SOL     OW24202   4.078   5.234   5.053
 7768SOL    HW124203   4.057   5.190   4.966
 7768SOL    HW224204   4.175   5.260   5.056
 7769SOL     OW24205   5.311   4.503   5.394
 7769SOL    HW124206   5.219   4.541   5.389
 7769SOL    HW224207   5.371   4.550   5.329
 7770SOL     OW24208   4.737   3.829   5.494
 7770SOL    HW124209   4.743   3.914   5.442
 7770SOL    HW224210   4.769   3.753   5.437
 7771SOL     OW24211   4.228   3.774   5.464
 7771SOL    HW124212   4.186   3.717   5.394
 7771SOL    HW224213   4.162   3.843   5.496
 7772SOL     OW24214   4.297   4.594   4.753
 7772SOL    HW124215   4.341   4.683   4.744
 7772SOL    HW224216   4.234   4.594   4.830
 7773SOL     OW24217   5.084   4.586   4.769
 7773SOL    HW124218   5.009   4.586   4.703
 7773SOL    HW224219   5.121   4.494   4.778
 7774SOL     OW24220   4.933   4.249   3.999
 7774SOL    HW124221   4.946   4.165   4.053
 7774SOL    HW224222   4.904   4.323   4.059
 7775SOL     OW24223   4.031   3.937   4.955
 7775SOL    HW124224   4.008   3.974   5.045
 7775SOL    HW224225   4.001   3.842   4.949
 7776SOL     OW24226   3.761   5.034   5.006
 7776SOL    HW124227   3.814   4.985   5.074
 7776SOL    HW224228   3.783   5.132   5.011
 7777SOL     OW24229   4.456   4.358   4.788
 7777SOL    HW124230   4.515   4.332   4.712
 7777SOL    HW224231   4.428   4.454   4.777
 7778SOL     OW24232   5.452   4.659   5.578
 7778SOL    HW124233   5.406   4.652   5.489
 7778SOL    HW224234   5.390   4.703   5.644
 7779SOL     OW24235   4.031   3.787   4.342
 7779SOL    HW124236   4.020   3.881   4.375
 7779SOL    HW224237   4.026   3.724   4.419
 7780SOL     OW24238   5.346   4.091   4.098
 7780SOL    HW124239   5.348   4.015   4.162
 7780SOL    HW224240   5.298   4.168   4.138
 7781SOL     OW24241   4.747   4.490   4.690
 7781SOL    HW124242   4.762   4.511   4.786
 7781SOL    HW224243   4.717   4.395   4.681
 7782SOL     OW24244   4.704   5.297   5.424
 7782SOL    HW124245   4.684   5.341   5.336
 7782SOL    HW224246   4.743   5.206   5.408
 7783SOL     OW24247   5.583   5.242   5.329
 7783SOL    HW124248   5.597   5.269   5.234
 7783SOL    HW224249   5.666   5.264   5.382
 7784SOL     OW24250   4.074   4.622   5.528
 7784SOL    HW124251   4.150   4.666   5.576
 7784SOL    HW224252   4.109   4.575   5.446
 7785SOL     OW24253   5.264   3.998   3.849
 7785SOL    HW124254   5.203   3.923   3.872
 7785SOL    HW224255   5.286   4.050   3.932
 7786SOL     OW24256   5.027   4.562   3.766
 7786SOL    HW124257   5.061   4.469   3.781
 7786SOL    HW224258   5.045   4.589   3.671
 7787SOL     OW24259   4.792   5.057   4.573
 7787SOL    HW124260   4.799   4.973   4.518
 7787SOL    HW224261   4.854   5.126   4.537
 7788SOL     OW24262   4.862   4.104   5.402
 7788SOL    HW124263   4.817   4.167   5.466
 7788SOL    HW224264   4.955   4.135   5.385
 7789SOL     OW24265   4.884   3.931   5.201
 7789SOL    HW124266   4.884   3.995   5.278
 7789SOL    HW224267   4.912   3.979   5.118
 7790SOL     OW24268   3.732   5.050   3.924
 7790SOL    HW124269   3.639   5.071   3.893
 7790SOL    HW224270   3.742   4.951   3.937
 7791SOL     OW24271   3.812   5.525   4.651
 7791SOL    HW124272   3.770   5.439   4.624
 7791SOL    HW224273   3.906   5.528   4.617
 7792SOL     OW24274   4.228   5.292   4.634
 7792SOL    HW124275   4.294   5.366   4.643
 7792SOL    HW224276   4.272   5.213   4.592
 7793SOL     OW24277   4.726   4.520   4.962
 7793SOL    HW124278   4.767   4.488   5.048
 7793SOL    HW224279   4.630   4.493   4.959
 7794SOL     OW24280   3.764   4.268   4.838
 7794SOL    HW124281   3.849   4.235   4.797
 7794SOL    HW224282   3.777   4.283   4.936
 7795SOL     OW24283   3.913   4.244   5.446
 7795SOL    HW124284   3.972   4.204   5.376
 7795SOL    HW224285   3.855   4.315   5.405
 7796SOL     OW24286   5.093   4.674   5.384
 7796SOL    HW124287   5.132   4.763   5.404
 7796SOL    HW224288   5.103   4.654   5.287
 7797SOL     OW24289   4.539   4.296   4.049
 7797SOL    HW124290   4.546   4.207   4.003
 7797SOL    HW224291   4.445   4.330   4.041
 7798SOL     OW24292   5.381   4.328   4.930
 7798SOL    HW124293   5.343   4.259   4.992
 7798SOL    HW224294   5.463   4.292   4.886
 7799SOL     OW24295   3.976   5.288   5.468
 7799SOL    HW124296   3.946   5.345   5.544
 7799SOL    HW224297   3.969   5.191   5.494
 7800SOL     OW24298   4.654   5.402   5.189
 7800SOL    HW124299   4.630   5.384   5.094
 7800SOL    HW224300   4.684   5.496   5.199
 7801SOL     OW24301   3.883   4.861   5.190
 7801SOL    HW124302   3.905   4.800   5.266
 7801SOL    HW224303   3.893   4.812   5.104
 7802SOL     OW24304   5.071   4.783   4.958
 7802SOL    HW124305   5.095   4.720   4.884
 7802SOL    HW224306   4.981   4.823   4.940
 7803SOL     OW24307   5.026   4.579   4.033
 7803SOL    HW124308   4.940   4.548   4.075
 7803SOL    HW224309   5.022   4.565   3.934
 7804SOL     OW24310   5.483   5.471   4.878
 7804SOL    HW124311   5.544   5.501   4.805
 7804SOL    HW224312   5.445   5.382   4.856
 7805SOL     OW24313   4.976   5.455   4.852
 7805SOL    HW124314   5.060   5.460   4.798
 7805SOL    HW224315   4.953   5.359   4.870
 7806SOL     OW24316   3.807   4.982   4.746
 7806SOL    HW124317   3.802   4.981   4.846
 7806SOL    HW224318   3.724   4.941   4.708
 7807SOL     OW24319   4.412   5.386   5.440
 7807SOL    HW124320   4.356   5.467   5.449
 7807SOL    HW224321   4.464   5.390   5.354
 7808SOL     OW24322   5.450   3.859   4.247
 7808SOL    HW124323   5.523   3.842   4.180
 7808SOL    HW224324   5.419   3.772   4.285
 7809SOL     OW24325   5.112   5.297   4.201
 7809SOL    HW124326   5.179   5.309   4.127
 7809SOL    HW224327   5.072   5.386   4.224
 7810SOL     OW24328   3.854   5.518   5.575
 7810SOL    HW124329   3.813   5.444   5.628
 7810SOL    HW224330   3.918   5.569   5.633
 7811SOL     OW24331   5.004   4.651   4.396
 7811SOL    HW124332   5.064   4.570   4.398
 7811SOL    HW224333   5.044   4.720   4.336
 7812SOL     OW24334   4.554   4.997   5.146
 7812SOL    HW124335   4.549   5.030   5.241
 7812SOL    HW224336   4.468   5.016   5.100
 7813SOL     OW24337   4.396   5.340   3.878
 7813SOL    HW124338   4.405   5.350   3.779
 7813SOL    HW224339   4.356   5.251   3.899
 7814SOL     OW24340   5.374   5.444   5.118
 7814SOL    HW124341   5.427   5.454   5.034
 7814SOL    HW224342   5.347   5.534   5.152
 7815SOL     OW24343   5.565   3.899   4.687
 7815SOL    HW124344   5.604   3.814   4.651
 7815SOL    HW224345   5.467   3.901   4.668
 7816SOL     OW24346   3.987   4.050   4.444
 7816SOL    HW124347   3.908   4.101   4.410
 7816SOL    HW224348   3.978   4.035   4.542
 7817SOL     OW24349   4.918   5.336   3.755
 7817SOL    HW124350   4.924   5.243   3.792
 7817SOL    HW224351   4.859   5.336   3.675
 7818SOL     OW24352   4.546   4.726   5.096
 7818SOL    HW124353   4.586   4.725   5.004
 7818SOL    HW224354   4.556   4.818   5.136
 7819SOL     OW24355   4.640   4.634   4.015
 7819SOL    HW124356   4.703   4.672   3.947
 7819SOL    HW224357   4.680   4.551   4.054
 7820SOL     OW24358   5.228   5.331   3.768
 7820SOL    HW124359   5.136   5.368   3.775
 7820SOL    HW224360   5.266   5.351   3.678
 7821SOL     OW24361   4.096   5.012   5.214
 7821SOL    HW124362   4.083   5.105   5.180
 7821SOL    HW224363   4.012   4.960   5.201
 7822SOL     OW24364   5.338   5.016   5.013
 7822SOL    HW124365   5.398   5.019   5.093
 7822SOL    HW224366   5.263   5.080   5.026
 7823SOL     OW24367   4.763   4.822   4.420
 7823SOL    HW124368   4.693   4.775   4.474
 7823SOL    HW224369   4.822   4.754   4.377
 7824SOL     OW24370   4.738   3.960   4.695
 7824SOL    HW124371   4.730   3.924   4.602
 7824SOL    HW224372   4.736   3.884   4.760
 7825SOL     OW24373   4.314   5.211   4.215
 7825SOL    HW124374   4.356   5.153   4.145
 7825SOL    HW224375   4.270   5.290   4.171
 7826SOL     OW24376   5.433   4.109   5.105
 7826SOL    HW124377   5.506   4.178   5.109
 7826SOL    HW224378   5.461   4.034   5.046
 7827SOL     OW24379   3.979   5.072   4.014
 7827SOL    HW124380   3.883   5.073   3.987
 7827SOL    HW224381   3.991   5.125   4.098
 7828SOL     OW24382   3.829   4.737   5.450
 7828SOL    HW124383   3.752   4.704   5.504
 7828SOL    HW224384   3.914   4.707   5.492
 7829SOL     OW24385   3.799   4.069   3.757
 7829SOL    HW124386   3.707   4.041   3.728
 7829SOL    HW224387   3.830   4.146   3.701
 7830SOL     OW24388   5.164   4.580   5.122
 7830SOL    HW124389   5.107   4.632   5.059
 7830SOL    HW224390   5.260   4.592   5.098
 7831SOL     OW24391   3.796   3.890   4.042
 7831SOL    HW124392   3.779   3.973   3.988
 7831SOL    HW224393   3.886   3.853   4.020
 7832SOL     OW24394   4.907   5.059   3.843
 7832SOL    HW124395   4.808   5.048   3.845
 7832SOL    HW224396   4.941   5.074   3.936
 7833SOL     OW24397   5.217   5.491   4.683
 7833SOL    HW124398   5.250   5.555   4.614
 7833SOL    HW224399   5.283   5.485   4.758
 7834SOL     OW24400   4.440   4.289   5.432
 7834SOL    HW124401   4.459   4.354   5.506
 7834SOL    HW224402   4.500   4.209   5.441
 7835SOL     OW24403   5.174   4.944   5.357
 7835SOL    HW124404   5.165   4.934   5.456
 7835SOL    HW224405   5.270   4.937   5.331
 7836SOL     OW24406   4.114   5.465   5.284
 7836SOL    HW124407   4.023   5.506   5.282
 7836SOL    HW224408   4.107   5.371   5.316
 7837SOL     OW24409   5.398   4.607   4.978
 7837SOL    HW124410   5.371   4.518   4.941
 7837SOL    HW224411   5.399   4.675   4.905
 7838SOL     OW24412   4.949   4.049   4.173
 7838SOL    HW124413   5.014   3.975   4.162
 7838SOL    HW224414   4.969   4.099   4.257
 7839SOL     OW24415   4.318   4.469   4.376
 7839SOL    HW124416   4.368   4.554   4.357
 7839SOL    HW224417   4.230   4.471   4.328
 7840SOL     OW24418   5.501   4.066   5.366
 7840SOL    HW124419   5.484   4.097   5.272
 7840SOL    HW224420   5.417   4.029   5.404
 7841SOL     OW24421   5.454   4.658   5.241
 7841SOL    HW124422   5.492   4.749   5.256
 7841SOL    HW224423   5.446   4.641   5.142
 7842SOL     OW24424   4.583   5.098   3.740
 7842SOL    HW124425   4.537   5.113   3.828
 7842SOL    HW224426   4.627   5.183   3.710
 7843SOL     OW24427   4.385   5.514   4.677
 7843SOL    HW124428   4.339   5.602   4.664
 7843SOL    HW224429   4.484   5.526   4.670
 7844SOL     OW24430   4.583   4.680   4.585
 7844SOL    HW124431   4.637   4.611   4.633
 7844SOL    HW224432   4.551   4.749   4.651
 7845SOL     OW24433   4.807   4.708   3.811
 7845SOL    HW124434   4.784   4.761   3.729
 7845SOL    HW224435   4.888   4.652   3.792
 7846SOL     OW24436   5.585   5.293   4.575
 7846SOL    HW124437   5.514   5.281   4.505
 7846SOL    HW224438   5.586   5.214   4.635
 7847SOL     OW24439   3.945   5.038   5.568
 7847SOL    HW124440   3.880   4.965   5.547
 7847SOL    HW224441   3.949   5.052   5.666
 7848SOL     OW24442   3.803   4.964   4.377
 7848SOL    HW124443   3.802   4.917   4.465
 7848SOL    HW224444   3.885   4.936   4.326
 7849SOL     OW24445   4.396   5.115   5.348
 7849SOL    HW124446   4.318   5.065   5.386
 7849SOL    HW224447   4.393   5.210   5.379
 7850SOL     OW24448   5.548   3.916   4.951
 7850SOL    HW124449   5.544   3.826   4.995
 7850SOL    HW224450   5.551   3.905   4.852
 7851SOL     OW24451   4.152   4.148   4.244
 7851SOL    HW124452   4.182   4.076   4.182
 7851SOL    HW224453   4.113   4.108   4.327
 7852SOL     OW24454   5.429   5.211   4.828
 7852SOL    HW124455   5.336   5.186   4.801
 7852SOL    HW224456   5.455   5.161   4.910
 7853SOL     OW24457   4.536   5.310   4.411
 7853SOL    HW124458   4.568   5.320   4.317
 7853SOL    HW224459   4.457   5.248   4.413
 7854SOL     OW24460   5.148   3.938   4.836
 7854SOL    HW124461   5.200   3.873   4.891
 7854SOL    HW224462   5.099   4.001   4.897
 7855SOL     OW24463   4.494   5.054   4.025
 7855SOL    HW124464   4.448   4.967   4.042
 7855SOL    HW224465   4.585   5.051   4.066
 7856SOL     OW24466   4.342   5.291   5.008
 7856SOL    HW124467   4.337   5.373   5.065
 7856SOL    HW224468   4.431   5.288   4.963
 7857SOL     OW24469   5.076   3.776   3.892
 7857SOL    HW124470   5.111   3.735   3.808
 7857SOL    HW224471   4.986   3.738   3.912
 7858SOL     OW24472   5.024   4.177   4.415
 7858SOL    HW124473   4.965   4.257   4.419
 7858SOL    HW224474   5.039   4.142   4.508
 7859SOL     OW24475   5.317   3.945   4.606
 7859SOL    HW124476   5.233   3.944   4.660
 7859SOL    HW224477   5.319   4.028   4.550
 7860SOL     OW24478   3.763   4.801   4.024
 7860SOL    HW124479   3.862   4.790   4.015
 7860SOL    HW224480   3.723   4.715   4.056
 7861SOL     OW24481   4.599   5.370   4.061
 7861SOL    HW124482   4.522   5.335   4.007
 7861SOL    HW224483   4.567   5.441   4.123
 7862SOL     OW24484   3.954   4.352   5.699
 7862SOL    HW124485   3.861   4.350   5.736
 7862SOL    HW224486   3.955   4.313   5.607
 7863SOL     OW24487   3.949   3.999   6.582
 7863SOL    HW124488   3.984   3.982   6.674
 7863SOL    HW224489   3.861   3.954   6.570
 7864SOL     OW24490   3.743   4.092   6.233
 7864SOL    HW124491   3.661   4.135   6.272
 7864SOL    HW224492   3.715   4.019   6.170
 7865SOL     OW24493   4.293   4.999   6.751
 7865SOL    HW124494   4.200   4.992   6.714
 7865SOL    HW224495   4.304   5.088   6.795
 7866SOL     OW24496   5.279   5.235   6.289
 7866SOL    HW124497   5.222   5.219   6.370
 7866SOL    HW224498   5.220   5.245   6.209
 7867SOL     OW24499   4.859   4.427   6.303
 7867SOL    HW124500   4.916   4.505   6.278
 7867SOL    HW224501   4.799   4.453   6.379
 7868SOL     OW24502   5.479   4.331   5.817
 7868SOL    HW124503   5.467   4.318   5.718
 7868SOL    HW224504   5.449   4.250   5.866
 7869SOL     OW24505   4.492   4.868   6.609
 7869SOL    HW124506   4.414   4.885   6.669
 7869SOL    HW224507   4.526   4.955   6.573
 7870SOL     OW24508   4.409   4.736   6.251
 7870SOL    HW124509   4.478   4.720   6.321
 7870SOL    HW224510   4.336   4.793   6.289
 7871SOL     OW24511   4.059   5.159   6.647
 7871SOL    HW124512   3.981   5.128   6.594
 7871SOL    HW224513   4.117   5.217   6.590
 7872SOL     OW24514   5.327   4.171   6.323
 7872SOL    HW124515   5.253   4.217   6.273
 7872SOL    HW224516   5.378   4.239   6.376
 7873SOL     OW24517   3.955   5.437   6.069
 7873SOL    HW124518   3.989   5.514   6.123
 7873SOL    HW224519   3.999   5.437   5.979
 7874SOL     OW24520   3.954   5.158   6.124
 7874SOL    HW124521   3.928   5.254   6.124
 7874SOL    HW224522   3.883   5.104   6.169
 7875SOL     OW24523   3.964   4.815   6.472
 7875SOL    HW124524   3.978   4.731   6.524
 7875SOL    HW224525   3.909   4.879   6.527
 7876SOL     OW24526   4.344   5.510   7.025
 7876SOL    HW124527   4.252   5.493   7.060
 7876SOL    HW224528   4.372   5.602   7.051
 7877SOL     OW24529   4.330   4.688   5.709
 7877SOL    HW124530   4.337   4.772   5.655
 7877SOL    HW224531   4.376   4.701   5.797
 7878SOL     OW24532   3.846   4.367   6.149
 7878SOL    HW124533   3.801   4.279   6.166
 7878SOL    HW224534   3.845   4.421   6.233
 7879SOL     OW24535   5.566   5.491   5.945
 7879SOL    HW124536   5.620   5.462   6.025
 7879SOL    HW224537   5.596   5.581   5.916
 7880SOL     OW24538   3.751   5.320   5.703
 7880SOL    HW124539   3.732   5.224   5.724
 7880SOL    HW224540   3.718   5.378   5.778
 7881SOL     OW24541   5.413   4.646   6.198
 7881SOL    HW124542   5.508   4.617   6.206
 7881SOL    HW224543   5.405   4.711   6.123
 7882SOL     OW24544   5.365   4.832   6.018
 7882SOL    HW124545   5.451   4.834   5.966
 7882SOL    HW224546   5.379   4.879   6.106
 7883SOL     OW24547   4.337   5.089   6.312
 7883SOL    HW124548   4.288   5.002   6.321
 7883SOL    HW224549   4.314   5.132   6.225
 7884SOL     OW24550   4.533   3.728   6.088
 7884SOL    HW124551   4.573   3.819   6.079
 7884SOL    HW224552   4.433   3.736   6.094
 7885SOL     OW24553   3.921   4.700   6.850
 7885SOL    HW124554   4.010   4.655   6.836
 7885SOL    HW224555   3.848   4.635   6.831
 7886SOL     OW24556   5.249   4.723   5.776
 7886SOL    HW124557   5.186   4.647   5.789
 7886SOL    HW224558   5.297   4.741   5.862
 7887SOL     OW24559   5.190   5.141   6.539
 7887SOL    HW124560   5.131   5.147   6.619
 7887SOL    HW224561   5.175   5.053   6.493
 7888SOL     OW24562   5.391   5.438   6.158
 7888SOL    HW124563   5.350   5.415   6.070
 7888SOL    HW224564   5.373   5.364   6.223
 7889SOL     OW24565   4.322   4.453   5.856
 7889SOL    HW124566   4.346   4.522   5.788
 7889SOL    HW224567   4.244   4.486   5.910
 7890SOL     OW24568   5.005   4.069   6.530
 7890SOL    HW124569   4.919   4.019   6.517
 7890SOL    HW224570   5.067   4.015   6.586
 7891SOL     OW24571   5.300   5.386   5.893
 7891SOL    HW124572   5.389   5.432   5.896
 7891SOL    HW224573   5.279   5.362   5.798
 7892SOL     OW24574   4.531   4.329   7.051
 7892SOL    HW124575   4.484   4.326   7.140
 7892SOL    HW224576   4.480   4.274   6.985
 7893SOL     OW24577   4.715   4.134   6.828
 7893SOL    HW124578   4.638   4.168   6.882
 7893SOL    HW224579   4.681   4.083   6.749
 7894SOL     OW24580   4.765   4.425   6.015
 7894SOL    HW124581   4.791   4.421   6.111
 7894SOL    HW224582   4.680   4.374   6.001
 7895SOL     OW24583   3.800   4.535   6.375
 7895SOL    HW124584   3.899   4.523   6.384
 7895SOL    HW224585   3.776   4.630   6.396
 7896SOL     OW24586   3.854   5.545   7.157
 7896SOL    HW124587   3.844   5.530   7.256
 7896SOL    HW224588   3.768   5.581   7.121
 7897SOL     OW24589   4.589   4.072   5.781
 7897SOL    HW124590   4.648   4.135   5.732
 7897SOL    HW224591   4.608   3.978   5.752
 7898SOL     OW24592   5.086   4.868   6.131
 7898SOL    HW124593   5.169   4.839   6.083
 7898SOL    HW224594   5.037   4.935   6.075
 7899SOL     OW24595   4.274   3.920   6.471
 7899SOL    HW124596   4.269   3.915   6.571
 7899SOL    HW224597   4.276   4.016   6.442
 7900SOL     OW24598   4.732   5.180   6.063
 7900SOL    HW124599   4.686   5.252   6.011
 7900SOL    HW224600   4.728   5.200   6.161
 7901SOL     OW24601   4.075   5.525   6.439
 7901SOL    HW124602   4.125   5.439   6.445
 7901SOL    HW224603   4.140   5.602   6.436
 7902SOL     OW24604   5.519   4.790   6.459
 7902SOL    HW124605   5.457   4.775   6.383
 7902SOL    HW224606   5.467   4.801   6.544
 7903SOL     OW24607   4.045   4.667   5.828
 7903SOL    HW124608   4.127   4.706   5.786
 7903SOL    HW224609   4.018   4.585   5.779
 7904SOL     OW24610   5.182   4.459   6.314
 7904SOL    HW124611   5.177   4.394   6.389
 7904SOL    HW224612   5.262   4.518   6.327
 7905SOL     OW24613   4.835   5.500   5.823
 7905SOL    HW124614   4.775   5.438   5.873
 7905SOL    HW224615   4.866   5.456   5.738
 7906SOL     OW24616   5.356   5.101   5.667
 7906SOL    HW124617   5.324   5.195   5.657
 7906SOL    HW224618   5.280   5.038   5.655
 7907SOL     OW24619   4.188   5.467   5.909
 7907SOL    HW124620   4.221   5.506   5.995
 7907SOL    HW224621   4.264   5.460   5.844
 7908SOL     OW24622   5.124   3.831   6.012
 7908SOL    HW124623   5.100   3.794   5.922
 7908SOL    HW224624   5.223   3.847   6.016
 7909SOL     OW24625   3.973   5.509   6.827
 7909SOL    HW124626   4.030   5.444   6.877
 7909SOL    HW224627   3.957   5.476   6.734
 7910SOL     OW24628   4.664   5.422   6.490
 7910SOL    HW124629   4.744   5.365   6.511
 7910SOL    HW224630   4.615   5.382   6.413
 7911SOL     OW24631   4.106   4.424   6.066
 7911SOL    HW124632   4.151   4.334   6.063
 7911SOL    HW224633   4.012   4.413   6.099
 7912SOL     OW24634   4.338   3.846   5.703
 7912SOL    HW124635   4.436   3.824   5.710
 7912SOL    HW224636   4.307   3.829   5.610
 7913SOL     OW24637   4.612   5.238   6.781
 7913SOL    HW124638   4.589   5.213   6.687
 7913SOL    HW224639   4.673   5.169   6.820
 7914SOL     OW24640   4.527   5.126   6.510
 7914SOL    HW124641   4.617   5.140   6.468
 7914SOL    HW224642   4.456   5.128   6.439
 7915SOL     OW24643   4.646   4.227   6.485
 7915SOL    HW124644   4.621   4.218   6.389
 7915SOL    HW224645   4.694   4.145   6.516
 7916SOL     OW24646   4.263   3.788   6.098
 7916SOL    HW124647   4.182   3.789   6.156
 7916SOL    HW224648   4.266   3.871   6.043
 7917SOL     OW24649   5.158   4.912   5.627
 7917SOL    HW124650   5.190   4.836   5.684
 7917SOL    HW224651   5.066   4.939   5.657
 7918SOL     OW24652   4.021   3.759   5.757
 7918SOL    HW124653   4.070   3.843   5.736
 7918SOL    HW224654   4.083   3.694   5.802
 7919SOL     OW24655   4.659   3.960   6.066
 7919SOL    HW124656   4.611   4.001   5.988
 7919SOL    HW224657   4.758   3.958   6.047
 7920SOL     OW24658   4.951   5.294   6.379
 7920SOL    HW124659   4.972   5.368   6.314
 7920SOL    HW224660   5.019   5.294   6.452
 7921SOL     OW24661   4.183   4.876   6.327
 7921SOL    HW124662   4.112   4.849   6.392
 7921SOL    HW224663   4.157   4.848   6.234
 7922SOL     OW24664   4.995   5.521   6.177
 7922SOL    HW124665   5.039   5.585   6.113
 7922SOL    HW224666   4.945   5.573   6.247
 7923SOL     OW24667   4.756   4.273   5.602
 7923SOL    HW124668   4.715   4.355   5.563
 7923SOL    HW224669   4.820   4.299   5.675
 7924SOL     OW24670   4.285   3.946   6.733
 7924SOL    HW124671   4.323   3.862   6.770
 7924SOL    HW224672   4.197   3.965   6.777
 7925SOL     OW24673   4.590   4.178   6.228
 7925SOL    HW124674   4.558   4.250   6.166
 7925SOL    HW224675   4.614   4.097   6.175
 7926SOL     OW24676   4.741   3.763   6.339
 7926SOL    HW124677   4.669   3.768   6.270
 7926SOL    HW224678   4.717   3.694   6.408
 7927SOL     OW24679   5.153   4.897   6.453
 7927SOL    HW124680   5.098   4.813   6.446
 7927SOL    HW224681   5.179   4.926   6.361
 7928SOL     OW24682   5.190   4.314   6.578
 7928SOL    HW124683   5.160   4.219   6.585
 7928SOL    HW224684   5.263   4.330   6.644
 7929SOL     OW24685   5.581   4.557   5.963
 7929SOL    HW124686   5.623   4.493   6.027
 7929SOL    HW224687   5.543   4.506   5.885
 7930SOL     OW24688   4.212   5.109   5.760
 7930SOL    HW124689   4.125   5.094   5.807
 7930SOL    HW224690   4.195   5.135   5.665
 7931SOL     OW24691   5.388   5.004   6.243
 7931SOL    HW124692   5.487   5.012   6.257
 7931SOL    HW224693   5.343   5.088   6.274
 7932SOL     OW24694   5.114   4.299   5.664
 7932SOL    HW124695   5.060   4.278   5.745
 7932SOL    HW224696   5.205   4.258   5.673
 7933SOL     OW24697   4.251   3.980   5.914
 7933SOL    HW124698   4.278   3.921   5.839
 7933SOL    HW224699   4.251   4.075   5.883
 7934SOL     OW24700   5.478   4.947   7.174
 7934SOL    HW124701   5.569   4.908   7.161
 7934SOL    HW224702   5.486   5.043   7.198
 7935SOL     OW24703   4.835   4.919   6.686
 7935SOL    HW124704   4.795   4.963   6.767
 7935SOL    HW224705   4.794   4.956   6.603
 7936SOL     OW24706   5.362   4.823   6.665
 7936SOL    HW124707   5.367   4.904   6.724
 7936SOL    HW224708   5.276   4.825   6.614
 7937SOL     OW24709   4.429   4.774   5.954
 7937SOL    HW124710   4.415   4.781   6.053
 7937SOL    HW224711   4.513   4.723   5.936
 7938SOL     OW24712   4.134   4.537   6.837
 7938SOL    HW124713   4.220   4.549   6.887
 7938SOL    HW224714   4.092   4.450   6.864
 7939SOL     OW24715   4.998   4.110   6.848
 7939SOL    HW124716   5.019   4.184   6.912
 7939SOL    HW224717   4.909   4.127   6.805
 7940SOL     OW24718   3.788   5.288   6.917
 7940SOL    HW124719   3.742   5.370   6.883
 7940SOL    HW224720   3.886   5.307   6.926
 7941SOL     OW24721   4.091   4.824   6.087
 7941SOL    HW124722   4.084   4.907   6.031
 7941SOL    HW224723   4.095   4.744   6.027
 7942SOL     OW24724   4.290   4.261   6.451
 7942SOL    HW124725   4.302   4.327   6.377
 7942SOL    HW224726   4.336   4.295   6.534
 7943SOL     OW24727   4.976   5.072   5.974
 7943SOL    HW124728   5.026   5.149   6.014
 7943SOL    HW224729   4.881   5.074   6.006
 7944SOL     OW24730   4.996   5.169   6.728
 7944SOL    HW124731   5.043   5.182   6.815
 7944SOL    HW224732   4.930   5.095   6.737
 7945SOL     OW24733   5.306   4.363   6.058
 7945SOL    HW124734   5.275   4.424   6.131
 7945SOL    HW224735   5.356   4.415   5.989
 7946SOL     OW24736   4.078   5.234   6.915
 7946SOL    HW124737   4.057   5.190   6.828
 7946SOL    HW224738   4.175   5.260   6.918
 7947SOL     OW24739   4.297   4.594   6.615
 7947SOL    HW124740   4.341   4.683   6.606
 7947SOL    HW224741   4.234   4.594   6.692
 7948SOL     OW24742   5.084   4.586   6.631
 7948SOL    HW124743   5.009   4.586   6.565
 7948SOL    HW224744   5.121   4.494   6.640
 7949SOL     OW24745   4.933   4.249   5.861
 7949SOL    HW124746   4.946   4.165   5.915
 7949SOL    HW224747   4.904   4.323   5.921
 7950SOL     OW24748   4.031   3.937   6.817
 7950SOL    HW124749   4.008   3.974   6.907
 7950SOL    HW224750   4.001   3.842   6.811
 7951SOL     OW24751   3.761   5.034   6.868
 7951SOL    HW124752   3.814   4.985   6.936
 7951SOL    HW224753   3.783   5.132   6.873
 7952SOL     OW24754   4.456   4.358   6.650
 7952SOL    HW124755   4.515   4.332   6.574
 7952SOL    HW224756   4.428   4.454   6.639
 7953SOL     OW24757   4.031   3.787   6.204
 7953SOL    HW124758   4.020   3.881   6.237
 7953SOL    HW224759   4.026   3.724   6.281
 7954SOL     OW24760   5.346   4.091   5.960
 7954SOL    HW124761   5.348   4.015   6.024
 7954SOL    HW224762   5.298   4.168   6.000
 7955SOL     OW24763   4.747   4.490   6.552
 7955SOL    HW124764   4.762   4.511   6.648
 7955SOL    HW224765   4.717   4.395   6.543
 7956SOL     OW24766   5.264   3.998   5.711
 7956SOL    HW124767   5.203   3.923   5.734
 7956SOL    HW224768   5.286   4.050   5.794
 7957SOL     OW24769   5.027   4.562   5.628
 7957SOL    HW124770   5.061   4.469   5.643
 7957SOL    HW224771   5.045   4.589   5.533
 7958SOL     OW24772   4.792   5.057   6.435
 7958SOL    HW124773   4.799   4.973   6.380
 7958SOL    HW224774   4.854   5.126   6.399
 7959SOL     OW24775   4.043   4.534   6.535
 7959SOL    HW124776   4.136   4.570   6.540
 7959SOL    HW224777   4.037   4.449   6.587
 7960SOL     OW24778   4.063   4.233   6.592
 7960SOL    HW124779   4.011   4.150   6.575
 7960SOL    HW224780   4.140   4.238   6.528
 7961SOL     OW24781   4.884   3.931   7.063
 7961SOL    HW124782   4.884   3.995   7.140
 7961SOL    HW224783   4.912   3.979   6.980
 7962SOL     OW24784   3.732   5.050   5.786
 7962SOL    HW124785   3.639   5.071   5.755
 7962SOL    HW224786   3.742   4.951   5.799
 7963SOL     OW24787   3.812   5.525   6.513
 7963SOL    HW124788   3.770   5.439   6.486
 7963SOL    HW224789   3.906   5.528   6.479
 7964SOL     OW24790   4.228   5.292   6.496
 7964SOL    HW124791   4.294   5.366   6.505
 7964SOL    HW224792   4.272   5.213   6.454
 7965SOL     OW24793   4.726   4.520   6.824
 7965SOL    HW124794   4.767   4.488   6.910
 7965SOL    HW224795   4.630   4.493   6.821
 7966SOL     OW24796   3.764   4.268   6.700
 7966SOL    HW124797   3.849   4.235   6.659
 7966SOL    HW224798   3.777   4.283   6.798
 7967SOL     OW24799   4.539   4.296   5.911
 7967SOL    HW124800   4.546   4.207   5.865
 7967SOL    HW224801   4.445   4.330   5.903
 7968SOL     OW24802   5.381   4.328   6.792
 7968SOL    HW124803   5.343   4.259   6.854
 7968SOL    HW224804   5.463   4.292   6.748
 7969SOL     OW24805   4.395   4.188   6.855
 7969SOL    HW124806   4.361   4.099   6.825
 7969SOL    HW224807   4.421   4.242   6.775
 7970SOL     OW24808   4.654   5.402   7.051
 7970SOL    HW124809   4.630   5.384   6.956
 7970SOL    HW224810   4.684   5.496   7.061
 7971SOL     OW24811   4.197   4.224   5.777
 7971SOL    HW124812   4.258   4.304   5.781
 7971SOL    HW224813   4.102   4.255   5.784
 7972SOL     OW24814   3.883   4.861   7.052
 7972SOL    HW124815   3.905   4.800   7.128
 7972SOL    HW224816   3.893   4.812   6.966
 7973SOL     OW24817   5.071   4.783   6.820
 7973SOL    HW124818   5.095   4.720   6.746
 7973SOL    HW224819   4.981   4.823   6.802
 7974SOL     OW24820   5.026   4.579   5.895
 7974SOL    HW124821   4.940   4.548   5.937
 7974SOL    HW224822   5.022   4.565   5.796
 7975SOL     OW24823   5.483   5.471   6.740
 7975SOL    HW124824   5.544   5.501   6.667
 7975SOL    HW224825   5.445   5.382   6.718
 7976SOL     OW24826   4.976   5.455   6.714
 7976SOL    HW124827   5.060   5.460   6.660
 7976SOL    HW224828   4.953   5.359   6.732
 7977SOL     OW24829   3.807   4.982   6.608
 7977SOL    HW124830   3.802   4.981   6.708
 7977SOL    HW224831   3.724   4.941   6.570
 7978SOL     OW24832   5.450   3.859   6.109
 7978SOL    HW124833   5.523   3.842   6.042
 7978SOL    HW224834   5.419   3.772   6.147
 7979SOL     OW24835   5.112   5.297   6.063
 7979SOL    HW124836   5.179   5.309   5.989
 7979SOL    HW224837   5.072   5.386   6.086
 7980SOL     OW24838   5.004   4.651   6.258
 7980SOL    HW124839   5.064   4.570   6.260
 7980SOL    HW224840   5.044   4.720   6.198
 7981SOL     OW24841   4.396   5.340   5.740
 7981SOL    HW124842   4.405   5.350   5.641
 7981SOL    HW224843   4.356   5.251   5.761
 7982SOL     OW24844   5.565   3.899   6.549
 7982SOL    HW124845   5.604   3.814   6.513
 7982SOL    HW224846   5.467   3.901   6.530
 7983SOL     OW24847   3.987   4.050   6.306
 7983SOL    HW124848   3.908   4.101   6.272
 7983SOL    HW224849   3.978   4.035   6.404
 7984SOL     OW24850   4.918   5.336   5.617
 7984SOL    HW124851   4.924   5.243   5.654
 7984SOL    HW224852   4.859   5.336   5.537
 7985SOL     OW24853   4.546   4.726   6.958
 7985SOL    HW124854   4.586   4.725   6.866
 7985SOL    HW224855   4.556   4.818   6.998
 7986SOL     OW24856   4.640   4.634   5.877
 7986SOL    HW124857   4.703   4.672   5.809
 7986SOL    HW224858   4.680   4.551   5.916
 7987SOL     OW24859   5.228   5.331   5.630
 7987SOL    HW124860   5.136   5.368   5.637
 7987SOL    HW224861   5.266   5.351   5.540
 7988SOL     OW24862   5.338   5.016   6.875
 7988SOL    HW124863   5.398   5.019   6.955
 7988SOL    HW224864   5.263   5.080   6.888
 7989SOL     OW24865   4.763   4.822   6.282
 7989SOL    HW124866   4.693   4.775   6.336
 7989SOL    HW224867   4.822   4.754   6.239
 7990SOL     OW24868   4.738   3.960   6.557
 7990SOL    HW124869   4.730   3.924   6.464
 7990SOL    HW224870   4.736   3.884   6.622
 7991SOL     OW24871   4.314   5.211   6.077
 7991SOL    HW124872   4.356   5.153   6.007
 7991SOL    HW224873   4.270   5.290   6.033
 7992SOL     OW24874   5.433   4.109   6.967
 7992SOL    HW124875   5.506   4.178   6.971
 7992SOL    HW224876   5.461   4.034   6.908
 7993SOL     OW24877   3.979   5.072   5.876
 7993SOL    HW124878   3.883   5.073   5.849
 7993SOL    HW224879   3.991   5.125   5.960
 7994SOL     OW24880   4.396   3.927   7.075
 7994SOL    HW124881   4.486   3.911   7.035
 7994SOL    HW224882   4.404   3.932   7.174
 7995SOL     OW24883   3.799   4.069   5.619
 7995SOL    HW124884   3.707   4.041   5.590
 7995SOL    HW224885   3.830   4.146   5.563
 7996SOL     OW24886   3.796   3.890   5.904
 7996SOL    HW124887   3.779   3.973   5.850
 7996SOL    HW224888   3.886   3.853   5.882
 7997SOL     OW24889   4.907   5.059   5.705
 7997SOL    HW124890   4.808   5.048   5.707
 7997SOL    HW224891   4.941   5.074   5.798
 7998SOL     OW24892   5.217   5.491   6.545
 7998SOL    HW124893   5.250   5.555   6.476
 7998SOL    HW224894   5.283   5.485   6.620
 7999SOL     OW24895   5.174   4.944   7.219
 7999SOL    HW124896   5.165   4.934   7.318
 7999SOL    HW224897   5.270   4.937   7.193
 8000SOL     OW24898   4.114   5.465   7.146
 8000SOL    HW124899   4.023   5.506   7.144
 8000SOL    HW224900   4.107   5.371   7.178
 8001SOL     OW24901   5.398   4.607   6.840
 8001SOL    HW124902   5.371   4.518   6.803
 8001SOL    HW224903   5.399   4.675   6.767
 8002SOL     OW24904   4.949   4.049   6.035
 8002SOL    HW124905   5.014   3.975   6.024
 8002SOL    HW224906   4.969   4.099   6.119
 8003SOL     OW24907   4.318   4.469   6.238
 8003SOL    HW124908   4.368   4.554   6.219
 8003SOL    HW224909   4.230   4.471   6.190
 8004SOL     OW24910   5.454   4.658   7.103
 8004SOL    HW124911   5.492   4.749   7.118
 8004SOL    HW224912   5.446   4.641   7.004
 8005SOL     OW24913   4.583   5.098   5.602
 8005SOL    HW124914   4.537   5.113   5.690
 8005SOL    HW224915   4.627   5.183   5.572
 8006SOL     OW24916   4.385   5.514   6.539
 8006SOL    HW124917   4.339   5.602   6.526
 8006SOL    HW224918   4.484   5.526   6.532
 8007SOL     OW24919   4.583   4.680   6.447
 8007SOL    HW124920   4.637   4.611   6.495
 8007SOL    HW224921   4.551   4.749   6.513
 8008SOL     OW24922   4.807   4.708   5.673
 8008SOL    HW124923   4.784   4.761   5.591
 8008SOL    HW224924   4.888   4.652   5.654
 8009SOL     OW24925   5.585   5.293   6.437
 8009SOL    HW124926   5.514   5.281   6.367
 8009SOL    HW224927   5.586   5.214   6.497
 8010SOL     OW24928   3.803   4.964   6.239
 8010SOL    HW124929   3.802   4.917   6.327
 8010SOL    HW224930   3.885   4.936   6.188
 8011SOL     OW24931   5.548   3.916   6.813
 8011SOL    HW124932   5.544   3.826   6.857
 8011SOL    HW224933   5.551   3.905   6.714
 8012SOL     OW24934   4.152   4.148   6.106
 8012SOL    HW124935   4.182   4.076   6.044
 8012SOL    HW224936   4.113   4.108   6.189
 8013SOL     OW24937   5.429   5.211   6.690
 8013SOL    HW124938   5.336   5.186   6.663
 8013SOL    HW224939   5.455   5.161   6.772
 8014SOL     OW24940   4.041   4.271   6.866
 8014SOL    HW124941   4.079   4.212   6.938
 8014SOL    HW224942   4.081   4.245   6.778
 8015SOL     OW24943   4.536   5.310   6.273
 8015SOL    HW124944   4.568   5.320   6.179
 8015SOL    HW224945   4.457   5.248   6.275
 8016SOL     OW24946   5.148   3.938   6.698
 8016SOL    HW124947   5.200   3.873   6.753
 8016SOL    HW224948   5.099   4.001   6.759
 8017SOL     OW24949   4.725   3.758   6.740
 8017SOL    HW124950   4.662   3.686   6.709
 8017SOL    HW224951   4.818   3.722   6.740
 8018SOL     OW24952   4.494   5.054   5.887
 8018SOL    HW124953   4.448   4.967   5.904
 8018SOL    HW224954   4.585   5.051   5.928
 8019SOL     OW24955   4.342   5.291   6.870
 8019SOL    HW124956   4.337   5.373   6.927
 8019SOL    HW224957   4.431   5.288   6.825
 8020SOL     OW24958   5.076   3.776   5.754
 8020SOL    HW124959   5.111   3.735   5.670
 8020SOL    HW224960   4.986   3.738   5.774
 8021SOL     OW24961   5.024   4.177   6.277
 8021SOL    HW124962   4.965   4.257   6.281
 8021SOL    HW224963   5.039   4.142   6.370
 8022SOL     OW24964   5.317   3.945   6.468
 8022SOL    HW124965   5.233   3.944   6.522
 8022SOL    HW224966   5.319   4.028   6.412
 8023SOL     OW24967   3.763   4.801   5.886
 8023SOL    HW124968   3.862   4.790   5.877
 8023SOL    HW224969   3.723   4.715   5.918
 8024SOL     OW24970   4.599   5.370   5.923
 8024SOL    HW124971   4.522   5.335   5.869
 8024SOL    HW224972   4.567   5.441   5.985
 8025SOL     OW24973   3.954   6.214   0.113
 8025SOL    HW124974   3.861   6.212   0.150
 8025SOL    HW224975   3.955   6.175   0.021
 8026SOL     OW24976   3.949   5.861   0.996
 8026SOL    HW124977   3.984   5.844   1.088
 8026SOL    HW224978   3.861   5.816   0.984
 8027SOL     OW24979   3.743   5.954   0.647
 8027SOL    HW124980   3.661   5.997   0.686
 8027SOL    HW224981   3.715   5.881   0.584
 8028SOL     OW24982   4.293   6.861   1.165
 8028SOL    HW124983   4.200   6.854   1.128
 8028SOL    HW224984   4.304   6.950   1.209
 8029SOL     OW24985   5.279   7.097   0.703
 8029SOL    HW124986   5.222   7.081   0.784
 8029SOL    HW224987   5.220   7.107   0.623
 8030SOL     OW24988   4.859   6.289   0.717
 8030SOL    HW124989   4.916   6.367   0.692
 8030SOL    HW224990   4.799   6.315   0.793
 8031SOL     OW24991   5.479   6.193   0.231
 8031SOL    HW124992   5.467   6.180   0.132
 8031SOL    HW224993   5.449   6.112   0.280
 8032SOL     OW24994   4.492   6.730   1.023
 8032SOL    HW124995   4.414   6.747   1.083
 8032SOL    HW224996   4.526   6.817   0.987
 8033SOL     OW24997   4.574   6.384   1.823
 8033SOL    HW124998   4.570   6.460   1.888
 8033SOL    HW224999   4.596   6.420   1.732
 8034SOL     OW25000   4.409   6.598   0.665
 8034SOL    HW125001   4.478   6.582   0.735
 8034SOL    HW225002   4.336   6.655   0.703
 8035SOL     OW25003   4.410   6.747   1.803
 8035SOL    HW125004   4.470   6.826   1.817
 8035SOL    HW225005   4.324   6.778   1.762
 8036SOL     OW25006   4.059   7.021   1.061
 8036SOL    HW125007   3.981   6.990   1.008
 8036SOL    HW225008   4.117   7.079   1.004
 8037SOL     OW25009   4.162   5.978   1.499
 8037SOL    HW125010   4.244   5.922   1.508
 8037SOL    HW225011   4.081   5.920   1.503
 8038SOL     OW25012   5.327   6.033   0.737
 8038SOL    HW125013   5.253   6.079   0.687
 8038SOL    HW225014   5.378   6.101   0.790
 8039SOL     OW25015   3.964   6.677   0.886
 8039SOL    HW125016   3.978   6.593   0.938
 8039SOL    HW225017   3.909   6.741   0.941
 8040SOL     OW25018   4.330   6.550   0.123
 8040SOL    HW125019   4.337   6.634   0.069
 8040SOL    HW225020   4.376   6.563   0.211
 8041SOL     OW25021   5.318   5.700   1.480
 8041SOL    HW125022   5.300   5.767   1.408
 8041SOL    HW225023   5.315   5.746   1.569
 8042SOL     OW25024   3.846   6.229   0.563
 8042SOL    HW125025   3.801   6.141   0.580
 8042SOL    HW225026   3.845   6.283   0.647
 8043SOL     OW25027   5.413   6.508   0.612
 8043SOL    HW125028   5.508   6.479   0.620
 8043SOL    HW225029   5.405   6.573   0.537
 8044SOL     OW25030   5.365   6.694   0.432
 8044SOL    HW125031   5.451   6.696   0.380
 8044SOL    HW225032   5.379   6.741   0.520
 8045SOL     OW25033   3.837   6.323   1.597
 8045SOL    HW125034   3.925   6.310   1.642
 8045SOL    HW225035   3.824   6.420   1.575
 8046SOL     OW25036   5.017   6.814   1.423
 8046SOL    HW125037   5.054   6.741   1.365
 8046SOL    HW225038   5.069   6.819   1.508
 8047SOL     OW25039   4.533   5.590   0.502
 8047SOL    HW125040   4.573   5.681   0.493
 8047SOL    HW225041   4.433   5.598   0.508
 8048SOL     OW25042   3.921   6.562   1.264
 8048SOL    HW125043   4.010   6.517   1.250
 8048SOL    HW225044   3.848   6.497   1.245
 8049SOL     OW25045   5.249   6.585   0.190
 8049SOL    HW125046   5.186   6.509   0.203
 8049SOL    HW225047   5.297   6.603   0.276
 8050SOL     OW25048   4.041   5.837   1.801
 8050SOL    HW125049   4.112   5.908   1.807
 8050SOL    HW225050   3.953   5.876   1.829
 8051SOL     OW25051   5.190   7.003   0.953
 8051SOL    HW125052   5.131   7.009   1.033
 8051SOL    HW225053   5.175   6.915   0.907
 8052SOL     OW25054   4.322   6.315   0.270
 8052SOL    HW125055   4.346   6.384   0.202
 8052SOL    HW225056   4.244   6.348   0.324
 8053SOL     OW25057   5.005   5.931   0.944
 8053SOL    HW125058   4.919   5.881   0.931
 8053SOL    HW225059   5.067   5.877   1.000
 8054SOL     OW25060   4.531   6.191   1.465
 8054SOL    HW125061   4.484   6.188   1.554
 8054SOL    HW225062   4.480   6.136   1.399
 8055SOL     OW25063   5.118   6.055   1.674
 8055SOL    HW125064   5.098   6.098   1.762
 8055SOL    HW225065   5.196   5.993   1.683
 8056SOL     OW25066   4.697   6.476   1.572
 8056SOL    HW125067   4.743   6.392   1.543
 8056SOL    HW225068   4.641   6.510   1.497
 8057SOL     OW25069   4.715   5.996   1.242
 8057SOL    HW125070   4.638   6.030   1.296
 8057SOL    HW225071   4.681   5.945   1.163
 8058SOL     OW25072   4.765   6.287   0.429
 8058SOL    HW125073   4.791   6.283   0.525
 8058SOL    HW225074   4.680   6.236   0.415
 8059SOL     OW25075   3.800   6.397   0.789
 8059SOL    HW125076   3.899   6.385   0.798
 8059SOL    HW225077   3.776   6.492   0.810
 8060SOL     OW25078   4.589   5.934   0.195
 8060SOL    HW125079   4.648   5.997   0.146
 8060SOL    HW225080   4.608   5.840   0.166
 8061SOL     OW25081   5.443   6.171   1.831
 8061SOL    HW125082   5.417   6.260   1.795
 8061SOL    HW225083   5.441   6.103   1.758
 8062SOL     OW25084   5.086   6.730   0.545
 8062SOL    HW125085   5.169   6.701   0.497
 8062SOL    HW225086   5.037   6.797   0.489
 8063SOL     OW25087   4.274   5.782   0.885
 8063SOL    HW125088   4.269   5.777   0.985
 8063SOL    HW225089   4.276   5.878   0.856
 8064SOL     OW25090   5.519   6.652   0.873
 8064SOL    HW125091   5.457   6.637   0.797
 8064SOL    HW225092   5.467   6.663   0.958
 8065SOL     OW25093   4.045   6.529   0.242
 8065SOL    HW125094   4.127   6.568   0.200
 8065SOL    HW225095   4.018   6.447   0.193
 8066SOL     OW25096   5.182   6.321   0.728
 8066SOL    HW125097   5.177   6.256   0.803
 8066SOL    HW225098   5.262   6.380   0.741
 8067SOL     OW25099   3.926   5.871   1.498
 8067SOL    HW125100   3.846   5.931   1.485
 8067SOL    HW225101   3.916   5.822   1.584
 8068SOL     OW25102   5.356   6.963   0.081
 8068SOL    HW125103   5.324   7.057   0.071
 8068SOL    HW225104   5.280   6.900   0.069
 8069SOL     OW25105   4.106   6.286   0.480
 8069SOL    HW125106   4.151   6.196   0.477
 8069SOL    HW225107   4.012   6.275   0.513
 8070SOL     OW25108   5.271   5.808   1.729
 8070SOL    HW125109   5.266   5.845   1.821
 8070SOL    HW225110   5.199   5.739   1.717
 8071SOL     OW25111   4.505   5.850   1.749
 8071SOL    HW125112   4.572   5.789   1.792
 8071SOL    HW225113   4.432   5.869   1.814
 8072SOL     OW25114   5.075   6.176   1.433
 8072SOL    HW125115   5.103   6.133   1.518
 8072SOL    HW225116   5.100   6.272   1.434
 8073SOL     OW25117   4.646   6.089   0.899
 8073SOL    HW125118   4.621   6.080   0.803
 8073SOL    HW225119   4.694   6.007   0.930
 8074SOL     OW25120   4.263   5.650   0.512
 8074SOL    HW125121   4.182   5.651   0.570
 8074SOL    HW225122   4.266   5.733   0.457
 8075SOL     OW25123   5.158   6.774   0.041
 8075SOL    HW125124   5.190   6.698   0.098
 8075SOL    HW225125   5.066   6.801   0.071
 8076SOL     OW25126   4.659   5.822   0.480
 8076SOL    HW125127   4.611   5.863   0.402
 8076SOL    HW225128   4.758   5.820   0.461
 8077SOL     OW25129   4.800   6.269   1.464
 8077SOL    HW125130   4.720   6.208   1.467
 8077SOL    HW225131   4.881   6.216   1.440
 8078SOL     OW25132   4.951   7.156   0.793
 8078SOL    HW125133   4.972   7.230   0.728
 8078SOL    HW225134   5.019   7.156   0.866
 8079SOL     OW25135   4.183   6.738   0.741
 8079SOL    HW125136   4.112   6.711   0.806
 8079SOL    HW225137   4.157   6.710   0.648
 8080SOL     OW25138   4.756   6.135   0.016
 8080SOL    HW125139   4.715   6.217  -0.023
 8080SOL    HW225140   4.820   6.161   0.089
 8081SOL     OW25141   3.802   6.142   1.386
 8081SOL    HW125142   3.894   6.141   1.345
 8081SOL    HW225143   3.796   6.216   1.453
 8082SOL     OW25144   4.285   5.808   1.147
 8082SOL    HW125145   4.323   5.724   1.184
 8082SOL    HW225146   4.197   5.827   1.191
 8083SOL     OW25147   4.590   6.040   0.642
 8083SOL    HW125148   4.558   6.112   0.580
 8083SOL    HW225149   4.614   5.959   0.589
 8084SOL     OW25150   4.741   5.625   0.753
 8084SOL    HW125151   4.669   5.630   0.684
 8084SOL    HW225152   4.717   5.556   0.822
 8085SOL     OW25153   5.153   6.759   0.867
 8085SOL    HW125154   5.098   6.675   0.860
 8085SOL    HW225155   5.179   6.788   0.775
 8086SOL     OW25156   5.190   6.176   0.992
 8086SOL    HW125157   5.160   6.081   0.999
 8086SOL    HW225158   5.263   6.192   1.058
 8087SOL     OW25159   5.581   6.419   0.377
 8087SOL    HW125160   5.623   6.355   0.441
 8087SOL    HW225161   5.543   6.368   0.299
 8088SOL     OW25162   5.388   6.866   0.657
 8088SOL    HW125163   5.487   6.874   0.671
 8088SOL    HW225164   5.343   6.950   0.688
 8089SOL     OW25165   5.114   6.161   0.078
 8089SOL    HW125166   5.060   6.140   0.159
 8089SOL    HW225167   5.205   6.120   0.087
 8090SOL     OW25168   4.251   5.842   0.328
 8090SOL    HW125169   4.278   5.783   0.253
 8090SOL    HW225170   4.251   5.937   0.297
 8091SOL     OW25171   5.478   6.809   1.588
 8091SOL    HW125172   5.569   6.770   1.575
 8091SOL    HW225173   5.486   6.905   1.612
 8092SOL     OW25174   4.788   6.933   1.340
 8092SOL    HW125175   4.708   6.910   1.395
 8092SOL    HW225176   4.871   6.907   1.389
 8093SOL     OW25177   4.835   6.781   1.100
 8093SOL    HW125178   4.795   6.825   1.181
 8093SOL    HW225179   4.794   6.818   1.017
 8094SOL     OW25180   5.362   6.685   1.079
 8094SOL    HW125181   5.367   6.766   1.138
 8094SOL    HW225182   5.276   6.687   1.028
 8095SOL     OW25183   4.639   5.675   1.402
 8095SOL    HW125184   4.664   5.655   1.307
 8095SOL    HW225185   4.711   5.731   1.444
 8096SOL     OW25186   4.704   6.702   1.719
 8096SOL    HW125187   4.605   6.708   1.729
 8096SOL    HW225188   4.727   6.622   1.663
 8097SOL     OW25189   4.429   6.636   0.368
 8097SOL    HW125190   4.415   6.643   0.467
 8097SOL    HW225191   4.513   6.585   0.350
 8098SOL     OW25192   4.134   6.399   1.251
 8098SOL    HW125193   4.220   6.411   1.301
 8098SOL    HW225194   4.092   6.312   1.278
 8099SOL     OW25195   4.998   5.972   1.262
 8099SOL    HW125196   5.019   6.046   1.326
 8099SOL    HW225197   4.909   5.989   1.219
 8100SOL     OW25198   4.091   6.686   0.501
 8100SOL    HW125199   4.084   6.769   0.445
 8100SOL    HW225200   4.095   6.606   0.441
 8101SOL     OW25201   4.290   6.123   0.865
 8101SOL    HW125202   4.302   6.189   0.791
 8101SOL    HW225203   4.336   6.157   0.948
 8102SOL     OW25204   5.306   6.225   0.472
 8102SOL    HW125205   5.275   6.286   0.545
 8102SOL    HW225206   5.356   6.277   0.403
 8103SOL     OW25207   4.126   6.337   1.598
 8103SOL    HW125208   4.194   6.392   1.551
 8103SOL    HW225209   4.166   6.249   1.625
 8104SOL     OW25210   5.311   6.365   1.670
 8104SOL    HW125211   5.219   6.403   1.665
 8104SOL    HW225212   5.371   6.412   1.605
 8105SOL     OW25213   4.737   5.691   1.770
 8105SOL    HW125214   4.743   5.776   1.718
 8105SOL    HW225215   4.769   5.615   1.713
 8106SOL     OW25216   4.228   5.636   1.740
 8106SOL    HW125217   4.186   5.579   1.670
 8106SOL    HW225218   4.162   5.705   1.772
 8107SOL     OW25219   4.297   6.456   1.029
 8107SOL    HW125220   4.341   6.545   1.020
 8107SOL    HW225221   4.234   6.456   1.106
 8108SOL     OW25222   5.084   6.448   1.045
 8108SOL    HW125223   5.009   6.448   0.979
 8108SOL    HW225224   5.121   6.356   1.054
 8109SOL     OW25225   4.933   6.111   0.275
 8109SOL    HW125226   4.946   6.027   0.329
 8109SOL    HW225227   4.904   6.185   0.335
 8110SOL     OW25228   4.031   5.799   1.231
 8110SOL    HW125229   4.008   5.836   1.321
 8110SOL    HW225230   4.001   5.704   1.225
 8111SOL     OW25231   3.761   6.896   1.282
 8111SOL    HW125232   3.814   6.847   1.350
 8111SOL    HW225233   3.783   6.994   1.287
 8112SOL     OW25234   4.456   6.220   1.064
 8112SOL    HW125235   4.515   6.194   0.988
 8112SOL    HW225236   4.428   6.316   1.053
 8113SOL     OW25237   5.452   6.521   1.854
 8113SOL    HW125238   5.406   6.514   1.765
 8113SOL    HW225239   5.390   6.565   1.920
 8114SOL     OW25240   4.031   5.649   0.618
 8114SOL    HW125241   4.020   5.743   0.651
 8114SOL    HW225242   4.026   5.586   0.695
 8115SOL     OW25243   5.346   5.953   0.374
 8115SOL    HW125244   5.348   5.877   0.438
 8115SOL    HW225245   5.298   6.030   0.414
 8116SOL     OW25246   4.747   6.352   0.966
 8116SOL    HW125247   4.762   6.373   1.062
 8116SOL    HW225248   4.717   6.257   0.957
 8117SOL     OW25249   5.583   7.104   1.605
 8117SOL    HW125250   5.597   7.131   1.510
 8117SOL    HW225251   5.666   7.126   1.658
 8118SOL     OW25252   4.074   6.484   1.804
 8118SOL    HW125253   4.150   6.528   1.852
 8118SOL    HW225254   4.109   6.437   1.722
 8119SOL     OW25255   5.264   5.860   0.125
 8119SOL    HW125256   5.203   5.785   0.148
 8119SOL    HW225257   5.286   5.912   0.208
 8120SOL     OW25258   5.027   6.424   0.042
 8120SOL    HW125259   5.061   6.331   0.057
 8120SOL    HW225260   5.045   6.451  -0.053
 8121SOL     OW25261   4.043   6.396   0.949
 8121SOL    HW125262   4.136   6.432   0.954
 8121SOL    HW225263   4.037   6.311   1.001
 8122SOL     OW25264   4.063   6.095   1.006
 8122SOL    HW125265   4.011   6.012   0.989
 8122SOL    HW225266   4.140   6.100   0.942
 8123SOL     OW25267   4.862   5.966   1.678
 8123SOL    HW125268   4.817   6.029   1.742
 8123SOL    HW225269   4.955   5.997   1.661
 8124SOL     OW25270   4.884   5.793   1.477
 8124SOL    HW125271   4.884   5.857   1.554
 8124SOL    HW225272   4.912   5.841   1.394
 8125SOL     OW25273   4.726   6.382   1.238
 8125SOL    HW125274   4.767   6.350   1.324
 8125SOL    HW225275   4.630   6.355   1.235
 8126SOL     OW25276   3.764   6.130   1.114
 8126SOL    HW125277   3.849   6.097   1.073
 8126SOL    HW225278   3.777   6.145   1.212
 8127SOL     OW25279   3.913   6.106   1.722
 8127SOL    HW125280   3.972   6.066   1.652
 8127SOL    HW225281   3.855   6.177   1.681
 8128SOL     OW25282   5.093   6.536   1.660
 8128SOL    HW125283   5.132   6.625   1.680
 8128SOL    HW225284   5.103   6.516   1.563
 8129SOL     OW25285   4.539   6.158   0.325
 8129SOL    HW125286   4.546   6.069   0.279
 8129SOL    HW225287   4.445   6.192   0.317
 8130SOL     OW25288   5.381   6.190   1.206
 8130SOL    HW125289   5.343   6.121   1.268
 8130SOL    HW225290   5.463   6.154   1.162
 8131SOL     OW25291   4.395   6.050   1.269
 8131SOL    HW125292   4.361   5.961   1.239
 8131SOL    HW225293   4.421   6.104   1.189
 8132SOL     OW25294   4.197   6.086   0.191
 8132SOL    HW125295   4.258   6.166   0.195
 8132SOL    HW225296   4.102   6.117   0.198
 8133SOL     OW25297   3.883   6.723   1.466
 8133SOL    HW125298   3.905   6.662   1.542
 8133SOL    HW225299   3.893   6.674   1.380
 8134SOL     OW25300   5.071   6.645   1.234
 8134SOL    HW125301   5.095   6.582   1.160
 8134SOL    HW225302   4.981   6.685   1.216
 8135SOL     OW25303   5.026   6.441   0.309
 8135SOL    HW125304   4.940   6.410   0.351
 8135SOL    HW225305   5.022   6.427   0.210
 8136SOL     OW25306   3.807   6.844   1.022
 8136SOL    HW125307   3.802   6.843   1.122
 8136SOL    HW225308   3.724   6.803   0.984
 8137SOL     OW25309   4.627   5.672   0.133
 8137SOL    HW125310   4.678   5.673   0.047
 8137SOL    HW225311   4.683   5.630   0.204
 8138SOL     OW25312   5.450   5.721   0.523
 8138SOL    HW125313   5.523   5.704   0.456
 8138SOL    HW225314   5.419   5.634   0.561
 8139SOL     OW25315   5.004   6.513   0.672
 8139SOL    HW125316   5.064   6.432   0.674
 8139SOL    HW225317   5.044   6.582   0.612
 8140SOL     OW25318   4.554   6.859   1.422
 8140SOL    HW125319   4.549   6.892   1.517
 8140SOL    HW225320   4.468   6.878   1.376
 8141SOL     OW25321   5.565   5.761   0.963
 8141SOL    HW125322   5.604   5.676   0.927
 8141SOL    HW225323   5.467   5.763   0.944
 8142SOL     OW25324   3.987   5.912   0.720
 8142SOL    HW125325   3.908   5.963   0.686
 8142SOL    HW225326   3.978   5.897   0.818
 8143SOL     OW25327   4.546   6.588   1.372
 8143SOL    HW125328   4.586   6.587   1.280
 8143SOL    HW225329   4.556   6.680   1.412
 8144SOL     OW25330   4.640   6.496   0.291
 8144SOL    HW125331   4.703   6.534   0.223
 8144SOL    HW225332   4.680   6.413   0.330
 8145SOL     OW25333   4.096   6.874   1.490
 8145SOL    HW125334   4.083   6.967   1.456
 8145SOL    HW225335   4.012   6.822   1.477
 8146SOL     OW25336   5.338   6.878   1.289
 8146SOL    HW125337   5.398   6.881   1.369
 8146SOL    HW225338   5.263   6.942   1.302
 8147SOL     OW25339   4.763   6.684   0.696
 8147SOL    HW125340   4.693   6.637   0.750
 8147SOL    HW225341   4.822   6.616   0.653
 8148SOL     OW25342   4.738   5.822   0.971
 8148SOL    HW125343   4.730   5.786   0.878
 8148SOL    HW225344   4.736   5.746   1.036
 8149SOL     OW25345   5.433   5.971   1.381
 8149SOL    HW125346   5.506   6.040   1.385
 8149SOL    HW225347   5.461   5.896   1.322
 8150SOL     OW25348   3.829   6.599   1.726
 8150SOL    HW125349   3.752   6.566   1.780
 8150SOL    HW225350   3.914   6.569   1.768
 8151SOL     OW25351   4.396   5.789   1.489
 8151SOL    HW125352   4.486   5.773   1.449
 8151SOL    HW225353   4.404   5.794   1.588
 8152SOL     OW25354   3.799   5.931   0.033
 8152SOL    HW125355   3.707   5.903   0.004
 8152SOL    HW225356   3.830   6.008  -0.023
 8153SOL     OW25357   5.164   6.442   1.398
 8153SOL    HW125358   5.107   6.494   1.335
 8153SOL    HW225359   5.260   6.454   1.374
 8154SOL     OW25360   3.796   5.752   0.318
 8154SOL    HW125361   3.779   5.835   0.264
 8154SOL    HW225362   3.886   5.715   0.296
 8155SOL     OW25363   4.337   6.428   1.431
 8155SOL    HW125364   4.393   6.509   1.414
 8155SOL    HW225365   4.396   6.348   1.434
 8156SOL     OW25366   4.440   6.151   1.708
 8156SOL    HW125367   4.459   6.216   1.782
 8156SOL    HW225368   4.500   6.071   1.717
 8157SOL     OW25369   5.174   6.806   1.633
 8157SOL    HW125370   5.165   6.796   1.732
 8157SOL    HW225371   5.270   6.799   1.607
 8158SOL     OW25372   5.398   6.469   1.254
 8158SOL    HW125373   5.371   6.380   1.217
 8158SOL    HW225374   5.399   6.537   1.181
 8159SOL     OW25375   4.949   5.911   0.449
 8159SOL    HW125376   5.014   5.837   0.438
 8159SOL    HW225377   4.969   5.961   0.533
 8160SOL     OW25378   4.318   6.331   0.652
 8160SOL    HW125379   4.368   6.416   0.633
 8160SOL    HW225380   4.230   6.333   0.604
 8161SOL     OW25381   5.501   5.928   1.642
 8161SOL    HW125382   5.484   5.959   1.548
 8161SOL    HW225383   5.417   5.891   1.680
 8162SOL     OW25384   5.454   6.520   1.517
 8162SOL    HW125385   5.492   6.611   1.532
 8162SOL    HW225386   5.446   6.503   1.418
 8163SOL     OW25387   4.583   6.542   0.861
 8163SOL    HW125388   4.637   6.473   0.909
 8163SOL    HW225389   4.551   6.611   0.927
 8164SOL     OW25390   4.807   6.570   0.087
 8164SOL    HW125391   4.784   6.623   0.005
 8164SOL    HW225392   4.888   6.514   0.068
 8165SOL     OW25393   3.945   6.900   1.844
 8165SOL    HW125394   3.880   6.827   1.823
 8165SOL    HW225395   3.949   6.914   1.942
 8166SOL     OW25396   3.803   6.826   0.653
 8166SOL    HW125397   3.802   6.779   0.741
 8166SOL    HW225398   3.885   6.798   0.602
 8167SOL     OW25399   4.396   6.977   1.624
 8167SOL    HW125400   4.318   6.927   1.662
 8167SOL    HW225401   4.393   7.072   1.655
 8168SOL     OW25402   5.548   5.778   1.227
 8168SOL    HW125403   5.544   5.688   1.271
 8168SOL    HW225404   5.551   5.767   1.128
 8169SOL     OW25405   4.152   6.010   0.520
 8169SOL    HW125406   4.182   5.938   0.458
 8169SOL    HW225407   4.113   5.970   0.603
 8170SOL     OW25408   5.429   7.073   1.104
 8170SOL    HW125409   5.336   7.048   1.077
 8170SOL    HW225410   5.455   7.023   1.186
 8171SOL     OW25411   4.041   6.133   1.280
 8171SOL    HW125412   4.079   6.074   1.352
 8171SOL    HW225413   4.081   6.107   1.192
 8172SOL     OW25414   5.148   5.800   1.112
 8172SOL    HW125415   5.200   5.735   1.167
 8172SOL    HW225416   5.099   5.863   1.173
 8173SOL     OW25417   4.725   5.620   1.154
 8173SOL    HW125418   4.662   5.548   1.123
 8173SOL    HW225419   4.818   5.584   1.154
 8174SOL     OW25420   4.494   6.916   0.301
 8174SOL    HW125421   4.448   6.829   0.318
 8174SOL    HW225422   4.585   6.913   0.342
 8175SOL     OW25423   5.076   5.638   0.168
 8175SOL    HW125424   5.111   5.597   0.084
 8175SOL    HW225425   4.986   5.600   0.188
 8176SOL     OW25426   5.024   6.039   0.691
 8176SOL    HW125427   4.965   6.119   0.695
 8176SOL    HW225428   5.039   6.004   0.784
 8177SOL     OW25429   5.317   5.807   0.882
 8177SOL    HW125430   5.233   5.806   0.936
 8177SOL    HW225431   5.319   5.890   0.826
 8178SOL     OW25432   3.763   6.663   0.300
 8178SOL    HW125433   3.862   6.652   0.291
 8178SOL    HW225434   3.723   6.577   0.332
 8179SOL     OW25435   3.954   6.214   1.975
 8179SOL    HW125436   3.861   6.212   2.012
 8179SOL    HW225437   3.955   6.175   1.883
 8180SOL     OW25438   3.949   5.861   2.858
 8180SOL    HW125439   3.984   5.844   2.950
 8180SOL    HW225440   3.861   5.816   2.846
 8181SOL     OW25441   3.743   5.954   2.509
 8181SOL    HW125442   3.661   5.997   2.548
 8181SOL    HW225443   3.715   5.881   2.446
 8182SOL     OW25444   4.293   6.861   3.027
 8182SOL    HW125445   4.200   6.854   2.990
 8182SOL    HW225446   4.304   6.950   3.071
 8183SOL     OW25447   5.279   7.097   2.565
 8183SOL    HW125448   5.222   7.081   2.646
 8183SOL    HW225449   5.220   7.107   2.485
 8184SOL     OW25450   4.859   6.289   2.579
 8184SOL    HW125451   4.916   6.367   2.554
 8184SOL    HW225452   4.799   6.315   2.655
 8185SOL     OW25453   5.479   6.193   2.093
 8185SOL    HW125454   5.467   6.180   1.994
 8185SOL    HW225455   5.449   6.112   2.142
 8186SOL     OW25456   4.492   6.730   2.885
 8186SOL    HW125457   4.414   6.747   2.945
 8186SOL    HW225458   4.526   6.817   2.849
 8187SOL     OW25459   4.574   6.384   3.685
 8187SOL    HW125460   4.570   6.460   3.750
 8187SOL    HW225461   4.596   6.420   3.594
 8188SOL     OW25462   4.409   6.598   2.527
 8188SOL    HW125463   4.478   6.582   2.597
 8188SOL    HW225464   4.336   6.655   2.565
 8189SOL     OW25465   4.410   6.747   3.665
 8189SOL    HW125466   4.470   6.826   3.679
 8189SOL    HW225467   4.324   6.778   3.624
 8190SOL     OW25468   4.059   7.021   2.923
 8190SOL    HW125469   3.981   6.990   2.870
 8190SOL    HW225470   4.117   7.079   2.866
 8191SOL     OW25471   4.162   5.978   3.361
 8191SOL    HW125472   4.244   5.922   3.370
 8191SOL    HW225473   4.081   5.920   3.365
 8192SOL     OW25474   5.327   6.033   2.599
 8192SOL    HW125475   5.253   6.079   2.549
 8192SOL    HW225476   5.378   6.101   2.652
 8193SOL     OW25477   3.964   6.677   2.748
 8193SOL    HW125478   3.978   6.593   2.800
 8193SOL    HW225479   3.909   6.741   2.803
 8194SOL     OW25480   4.330   6.550   1.985
 8194SOL    HW125481   4.337   6.634   1.931
 8194SOL    HW225482   4.376   6.563   2.073
 8195SOL     OW25483   5.318   5.700   3.342
 8195SOL    HW125484   5.300   5.767   3.270
 8195SOL    HW225485   5.315   5.746   3.431
 8196SOL     OW25486   3.846   6.229   2.425
 8196SOL    HW125487   3.801   6.141   2.442
 8196SOL    HW225488   3.845   6.283   2.509
 8197SOL     OW25489   5.413   6.508   2.474
 8197SOL    HW125490   5.508   6.479   2.482
 8197SOL    HW225491   5.405   6.573   2.399
 8198SOL     OW25492   5.365   6.694   2.294
 8198SOL    HW125493   5.451   6.696   2.242
 8198SOL    HW225494   5.379   6.741   2.382
 8199SOL     OW25495   3.837   6.323   3.459
 8199SOL    HW125496   3.925   6.310   3.504
 8199SOL    HW225497   3.824   6.420   3.437
 8200SOL     OW25498   5.017   6.814   3.285
 8200SOL    HW125499   5.054   6.741   3.227
 8200SOL    HW225500   5.069   6.819   3.370
 8201SOL     OW25501   4.533   5.590   2.364
 8201SOL    HW125502   4.573   5.681   2.355
 8201SOL    HW225503   4.433   5.598   2.370
 8202SOL     OW25504   3.921   6.562   3.126
 8202SOL    HW125505   4.010   6.517   3.112
 8202SOL    HW225506   3.848   6.497   3.107
 8203SOL     OW25507   5.249   6.585   2.052
 8203SOL    HW125508   5.186   6.509   2.065
 8203SOL    HW225509   5.297   6.603   2.138
 8204SOL     OW25510   4.041   5.837   3.663
 8204SOL    HW125511   4.112   5.908   3.669
 8204SOL    HW225512   3.953   5.876   3.691
 8205SOL     OW25513   5.190   7.003   2.815
 8205SOL    HW125514   5.131   7.009   2.895
 8205SOL    HW225515   5.175   6.915   2.769
 8206SOL     OW25516   4.322   6.315   2.132
 8206SOL    HW125517   4.346   6.384   2.064
 8206SOL    HW225518   4.244   6.348   2.186
 8207SOL     OW25519   5.005   5.931   2.806
 8207SOL    HW125520   4.919   5.881   2.793
 8207SOL    HW225521   5.067   5.877   2.862
 8208SOL     OW25522   4.531   6.191   3.327
 8208SOL    HW125523   4.484   6.188   3.416
 8208SOL    HW225524   4.480   6.136   3.261
 8209SOL     OW25525   5.118   6.055   3.536
 8209SOL    HW125526   5.098   6.098   3.624
 8209SOL    HW225527   5.196   5.993   3.545
 8210SOL     OW25528   4.697   6.476   3.434
 8210SOL    HW125529   4.743   6.392   3.405
 8210SOL    HW225530   4.641   6.510   3.359
 8211SOL     OW25531   4.715   5.996   3.104
 8211SOL    HW125532   4.638   6.030   3.158
 8211SOL    HW225533   4.681   5.945   3.025
 8212SOL     OW25534   4.765   6.287   2.291
 8212SOL    HW125535   4.791   6.283   2.387
 8212SOL    HW225536   4.680   6.236   2.277
 8213SOL     OW25537   3.800   6.397   2.651
 8213SOL    HW125538   3.899   6.385   2.660
 8213SOL    HW225539   3.776   6.492   2.672
 8214SOL     OW25540   4.589   5.934   2.057
 8214SOL    HW125541   4.648   5.997   2.008
 8214SOL    HW225542   4.608   5.840   2.028
 8215SOL     OW25543   5.443   6.171   3.693
 8215SOL    HW125544   5.417   6.260   3.657
 8215SOL    HW225545   5.441   6.103   3.620
 8216SOL     OW25546   5.086   6.730   2.407
 8216SOL    HW125547   5.169   6.701   2.359
 8216SOL    HW225548   5.037   6.797   2.351
 8217SOL     OW25549   4.274   5.782   2.747
 8217SOL    HW125550   4.269   5.777   2.847
 8217SOL    HW225551   4.276   5.878   2.718
 8218SOL     OW25552   5.519   6.652   2.735
 8218SOL    HW125553   5.457   6.637   2.659
 8218SOL    HW225554   5.467   6.663   2.820
 8219SOL     OW25555   4.045   6.529   2.104
 8219SOL    HW125556   4.127   6.568   2.062
 8219SOL    HW225557   4.018   6.447   2.055
 8220SOL     OW25558   5.182   6.321   2.590
 8220SOL    HW125559   5.177   6.256   2.665
 8220SOL    HW225560   5.262   6.380   2.603
 8221SOL     OW25561   3.926   5.871   3.360
 8221SOL    HW125562   3.846   5.931   3.347
 8221SOL    HW225563   3.916   5.822   3.446
 8222SOL     OW25564   5.356   6.963   1.943
 8222SOL    HW125565   5.324   7.057   1.933
 8222SOL    HW225566   5.280   6.900   1.931
 8223SOL     OW25567   5.124   5.693   2.288
 8223SOL    HW125568   5.100   5.656   2.198
 8223SOL    HW225569   5.223   5.709   2.292
 8224SOL     OW25570   4.106   6.286   2.342
 8224SOL    HW125571   4.151   6.196   2.339
 8224SOL    HW225572   4.012   6.275   2.375
 8225SOL     OW25573   5.271   5.808   3.591
 8225SOL    HW125574   5.266   5.845   3.683
 8225SOL    HW225575   5.199   5.739   3.579
 8226SOL     OW25576   4.338   5.708   1.979
 8226SOL    HW125577   4.436   5.686   1.986
 8226SOL    HW225578   4.307   5.691   1.886
 8227SOL     OW25579   4.505   5.850   3.611
 8227SOL    HW125580   4.572   5.789   3.654
 8227SOL    HW225581   4.432   5.869   3.676
 8228SOL     OW25582   5.075   6.176   3.295
 8228SOL    HW125583   5.103   6.133   3.380
 8228SOL    HW225584   5.100   6.272   3.296
 8229SOL     OW25585   4.646   6.089   2.761
 8229SOL    HW125586   4.621   6.080   2.665
 8229SOL    HW225587   4.694   6.007   2.792
 8230SOL     OW25588   4.263   5.650   2.374
 8230SOL    HW125589   4.182   5.651   2.432
 8230SOL    HW225590   4.266   5.733   2.319
 8231SOL     OW25591   5.158   6.774   1.903
 8231SOL    HW125592   5.190   6.698   1.960
 8231SOL    HW225593   5.066   6.801   1.933
 8232SOL     OW25594   4.021   5.621   2.033
 8232SOL    HW125595   4.070   5.705   2.012
 8232SOL    HW225596   4.083   5.556   2.078
 8233SOL     OW25597   4.659   5.822   2.342
 8233SOL    HW125598   4.611   5.863   2.264
 8233SOL    HW225599   4.758   5.820   2.323
 8234SOL     OW25600   4.800   6.269   3.326
 8234SOL    HW125601   4.720   6.208   3.329
 8234SOL    HW225602   4.881   6.216   3.302
 8235SOL     OW25603   4.951   7.156   2.655
 8235SOL    HW125604   4.972   7.230   2.590
 8235SOL    HW225605   5.019   7.156   2.728
 8236SOL     OW25606   4.183   6.738   2.603
 8236SOL    HW125607   4.112   6.711   2.668
 8236SOL    HW225608   4.157   6.710   2.510
 8237SOL     OW25609   4.756   6.135   1.878
 8237SOL    HW125610   4.715   6.217   1.839
 8237SOL    HW225611   4.820   6.161   1.951
 8238SOL     OW25612   3.802   6.142   3.248
 8238SOL    HW125613   3.894   6.141   3.207
 8238SOL    HW225614   3.796   6.216   3.315
 8239SOL     OW25615   4.285   5.808   3.009
 8239SOL    HW125616   4.323   5.724   3.046
 8239SOL    HW225617   4.197   5.827   3.053
 8240SOL     OW25618   4.590   6.040   2.504
 8240SOL    HW125619   4.558   6.112   2.442
 8240SOL    HW225620   4.614   5.959   2.451
 8241SOL     OW25621   4.741   5.625   2.615
 8241SOL    HW125622   4.669   5.630   2.546
 8241SOL    HW225623   4.717   5.556   2.684
 8242SOL     OW25624   5.153   6.759   2.729
 8242SOL    HW125625   5.098   6.675   2.722
 8242SOL    HW225626   5.179   6.788   2.637
 8243SOL     OW25627   5.190   6.176   2.854
 8243SOL    HW125628   5.160   6.081   2.861
 8243SOL    HW225629   5.263   6.192   2.920
 8244SOL     OW25630   5.581   6.419   2.239
 8244SOL    HW125631   5.623   6.355   2.303
 8244SOL    HW225632   5.543   6.368   2.161
 8245SOL     OW25633   5.388   6.866   2.519
 8245SOL    HW125634   5.487   6.874   2.533
 8245SOL    HW225635   5.343   6.950   2.550
 8246SOL     OW25636   5.114   6.161   1.940
 8246SOL    HW125637   5.060   6.140   2.021
 8246SOL    HW225638   5.205   6.120   1.949
 8247SOL     OW25639   4.251   5.842   2.190
 8247SOL    HW125640   4.278   5.783   2.115
 8247SOL    HW225641   4.251   5.937   2.159
 8248SOL     OW25642   5.478   6.809   3.450
 8248SOL    HW125643   5.569   6.770   3.437
 8248SOL    HW225644   5.486   6.905   3.474
 8249SOL     OW25645   4.788   6.933   3.202
 8249SOL    HW125646   4.708   6.910   3.257
 8249SOL    HW225647   4.871   6.907   3.251
 8250SOL     OW25648   4.835   6.781   2.962
 8250SOL    HW125649   4.795   6.825   3.043
 8250SOL    HW225650   4.794   6.818   2.879
 8251SOL     OW25651   5.362   6.685   2.941
 8251SOL    HW125652   5.367   6.766   3.000
 8251SOL    HW225653   5.276   6.687   2.890
 8252SOL     OW25654   4.639   5.675   3.264
 8252SOL    HW125655   4.664   5.655   3.169
 8252SOL    HW225656   4.711   5.731   3.306
 8253SOL     OW25657   4.704   6.702   3.581
 8253SOL    HW125658   4.605   6.708   3.591
 8253SOL    HW225659   4.727   6.622   3.525
 8254SOL     OW25660   4.429   6.636   2.230
 8254SOL    HW125661   4.415   6.643   2.329
 8254SOL    HW225662   4.513   6.585   2.212
 8255SOL     OW25663   4.134   6.399   3.113
 8255SOL    HW125664   4.220   6.411   3.163
 8255SOL    HW225665   4.092   6.312   3.140
 8256SOL     OW25666   4.998   5.972   3.124
 8256SOL    HW125667   5.019   6.046   3.188
 8256SOL    HW225668   4.909   5.989   3.081
 8257SOL     OW25669   4.091   6.686   2.363
 8257SOL    HW125670   4.084   6.769   2.307
 8257SOL    HW225671   4.095   6.606   2.303
 8258SOL     OW25672   4.290   6.123   2.727
 8258SOL    HW125673   4.302   6.189   2.653
 8258SOL    HW225674   4.336   6.157   2.810
 8259SOL     OW25675   5.306   6.225   2.334
 8259SOL    HW125676   5.275   6.286   2.407
 8259SOL    HW225677   5.356   6.277   2.265
 8260SOL     OW25678   4.126   6.337   3.460
 8260SOL    HW125679   4.194   6.392   3.413
 8260SOL    HW225680   4.166   6.249   3.487
 8261SOL     OW25681   5.311   6.365   3.532
 8261SOL    HW125682   5.219   6.403   3.527
 8261SOL    HW225683   5.371   6.412   3.467
 8262SOL     OW25684   4.737   5.691   3.632
 8262SOL    HW125685   4.743   5.776   3.580
 8262SOL    HW225686   4.769   5.615   3.575
 8263SOL     OW25687   4.228   5.636   3.602
 8263SOL    HW125688   4.186   5.579   3.532
 8263SOL    HW225689   4.162   5.705   3.634
 8264SOL     OW25690   4.297   6.456   2.891
 8264SOL    HW125691   4.341   6.545   2.882
 8264SOL    HW225692   4.234   6.456   2.968
 8265SOL     OW25693   5.084   6.448   2.907
 8265SOL    HW125694   5.009   6.448   2.841
 8265SOL    HW225695   5.121   6.356   2.916
 8266SOL     OW25696   4.933   6.111   2.137
 8266SOL    HW125697   4.946   6.027   2.191
 8266SOL    HW225698   4.904   6.185   2.197
 8267SOL     OW25699   4.031   5.799   3.093
 8267SOL    HW125700   4.008   5.836   3.183
 8267SOL    HW225701   4.001   5.704   3.087
 8268SOL     OW25702   3.761   6.896   3.144
 8268SOL    HW125703   3.814   6.847   3.212
 8268SOL    HW225704   3.783   6.994   3.149
 8269SOL     OW25705   4.456   6.220   2.926
 8269SOL    HW125706   4.515   6.194   2.850
 8269SOL    HW225707   4.428   6.316   2.915
 8270SOL     OW25708   5.452   6.521   3.716
 8270SOL    HW125709   5.406   6.514   3.627
 8270SOL    HW225710   5.390   6.565   3.782
 8271SOL     OW25711   4.031   5.649   2.480
 8271SOL    HW125712   4.020   5.743   2.513
 8271SOL    HW225713   4.026   5.586   2.557
 8272SOL     OW25714   5.346   5.953   2.236
 8272SOL    HW125715   5.348   5.877   2.300
 8272SOL    HW225716   5.298   6.030   2.276
 8273SOL     OW25717   4.747   6.352   2.828
 8273SOL    HW125718   4.762   6.373   2.924
 8273SOL    HW225719   4.717   6.257   2.819
 8274SOL     OW25720   5.583   7.104   3.467
 8274SOL    HW125721   5.597   7.131   3.372
 8274SOL    HW225722   5.666   7.126   3.520
 8275SOL     OW25723   4.074   6.484   3.666
 8275SOL    HW125724   4.150   6.528   3.714
 8275SOL    HW225725   4.109   6.437   3.584
 8276SOL     OW25726   5.264   5.860   1.987
 8276SOL    HW125727   5.203   5.785   2.010
 8276SOL    HW225728   5.286   5.912   2.070
 8277SOL     OW25729   5.027   6.424   1.904
 8277SOL    HW125730   5.061   6.331   1.919
 8277SOL    HW225731   5.045   6.451   1.809
 8278SOL     OW25732   4.043   6.396   2.811
 8278SOL    HW125733   4.136   6.432   2.816
 8278SOL    HW225734   4.037   6.311   2.863
 8279SOL     OW25735   4.063   6.095   2.868
 8279SOL    HW125736   4.011   6.012   2.851
 8279SOL    HW225737   4.140   6.100   2.804
 8280SOL     OW25738   4.862   5.966   3.540
 8280SOL    HW125739   4.817   6.029   3.604
 8280SOL    HW225740   4.955   5.997   3.523
 8281SOL     OW25741   4.884   5.793   3.339
 8281SOL    HW125742   4.884   5.857   3.416
 8281SOL    HW225743   4.912   5.841   3.256
 8282SOL     OW25744   3.732   6.912   2.062
 8282SOL    HW125745   3.639   6.933   2.031
 8282SOL    HW225746   3.742   6.813   2.075
 8283SOL     OW25747   4.726   6.382   3.100
 8283SOL    HW125748   4.767   6.350   3.186
 8283SOL    HW225749   4.630   6.355   3.097
 8284SOL     OW25750   3.764   6.130   2.976
 8284SOL    HW125751   3.849   6.097   2.935
 8284SOL    HW225752   3.777   6.145   3.074
 8285SOL     OW25753   3.913   6.106   3.584
 8285SOL    HW125754   3.972   6.066   3.514
 8285SOL    HW225755   3.855   6.177   3.543
 8286SOL     OW25756   5.093   6.536   3.522
 8286SOL    HW125757   5.132   6.625   3.542
 8286SOL    HW225758   5.103   6.516   3.425
 8287SOL     OW25759   4.539   6.158   2.187
 8287SOL    HW125760   4.546   6.069   2.141
 8287SOL    HW225761   4.445   6.192   2.179
 8288SOL     OW25762   5.381   6.190   3.068
 8288SOL    HW125763   5.343   6.121   3.130
 8288SOL    HW225764   5.463   6.154   3.024
 8289SOL     OW25765   4.395   6.050   3.131
 8289SOL    HW125766   4.361   5.961   3.101
 8289SOL    HW225767   4.421   6.104   3.051
 8290SOL     OW25768   4.197   6.086   2.053
 8290SOL    HW125769   4.258   6.166   2.057
 8290SOL    HW225770   4.102   6.117   2.060
 8291SOL     OW25771   3.883   6.723   3.328
 8291SOL    HW125772   3.905   6.662   3.404
 8291SOL    HW225773   3.893   6.674   3.242
 8292SOL     OW25774   5.071   6.645   3.096
 8292SOL    HW125775   5.095   6.582   3.022
 8292SOL    HW225776   4.981   6.685   3.078
 8293SOL     OW25777   5.026   6.441   2.171
 8293SOL    HW125778   4.940   6.410   2.213
 8293SOL    HW225779   5.022   6.427   2.072
 8294SOL     OW25780   3.807   6.844   2.884
 8294SOL    HW125781   3.802   6.843   2.984
 8294SOL    HW225782   3.724   6.803   2.846
 8295SOL     OW25783   5.450   5.721   2.385
 8295SOL    HW125784   5.523   5.704   2.318
 8295SOL    HW225785   5.419   5.634   2.423
 8296SOL     OW25786   5.004   6.513   2.534
 8296SOL    HW125787   5.064   6.432   2.536
 8296SOL    HW225788   5.044   6.582   2.474
 8297SOL     OW25789   4.554   6.859   3.284
 8297SOL    HW125790   4.549   6.892   3.379
 8297SOL    HW225791   4.468   6.878   3.238
 8298SOL     OW25792   5.565   5.761   2.825
 8298SOL    HW125793   5.604   5.676   2.789
 8298SOL    HW225794   5.467   5.763   2.806
 8299SOL     OW25795   3.987   5.912   2.582
 8299SOL    HW125796   3.908   5.963   2.548
 8299SOL    HW225797   3.978   5.897   2.680
 8300SOL     OW25798   4.918   7.198   1.893
 8300SOL    HW125799   4.924   7.105   1.930
 8300SOL    HW225800   4.859   7.198   1.813
 8301SOL     OW25801   4.546   6.588   3.234
 8301SOL    HW125802   4.586   6.587   3.142
 8301SOL    HW225803   4.556   6.680   3.274
 8302SOL     OW25804   4.640   6.496   2.153
 8302SOL    HW125805   4.703   6.534   2.085
 8302SOL    HW225806   4.680   6.413   2.192
 8303SOL     OW25807   4.096   6.874   3.352
 8303SOL    HW125808   4.083   6.967   3.318
 8303SOL    HW225809   4.012   6.822   3.339
 8304SOL     OW25810   5.338   6.878   3.151
 8304SOL    HW125811   5.398   6.881   3.231
 8304SOL    HW225812   5.263   6.942   3.164
 8305SOL     OW25813   4.763   6.684   2.558
 8305SOL    HW125814   4.693   6.637   2.612
 8305SOL    HW225815   4.822   6.616   2.515
 8306SOL     OW25816   4.738   5.822   2.833
 8306SOL    HW125817   4.730   5.786   2.740
 8306SOL    HW225818   4.736   5.746   2.898
 8307SOL     OW25819   5.433   5.971   3.243
 8307SOL    HW125820   5.506   6.040   3.247
 8307SOL    HW225821   5.461   5.896   3.184
 8308SOL     OW25822   3.829   6.599   3.588
 8308SOL    HW125823   3.752   6.566   3.642
 8308SOL    HW225824   3.914   6.569   3.630
 8309SOL     OW25825   4.396   5.789   3.351
 8309SOL    HW125826   4.486   5.773   3.311
 8309SOL    HW225827   4.404   5.794   3.450
 8310SOL     OW25828   3.799   5.931   1.895
 8310SOL    HW125829   3.707   5.903   1.866
 8310SOL    HW225830   3.830   6.008   1.839
 8311SOL     OW25831   5.164   6.442   3.260
 8311SOL    HW125832   5.107   6.494   3.197
 8311SOL    HW225833   5.260   6.454   3.236
 8312SOL     OW25834   3.796   5.752   2.180
 8312SOL    HW125835   3.779   5.835   2.126
 8312SOL    HW225836   3.886   5.715   2.158
 8313SOL     OW25837   4.337   6.428   3.293
 8313SOL    HW125838   4.393   6.509   3.276
 8313SOL    HW225839   4.396   6.348   3.296
 8314SOL     OW25840   4.440   6.151   3.570
 8314SOL    HW125841   4.459   6.216   3.644
 8314SOL    HW225842   4.500   6.071   3.579
 8315SOL     OW25843   5.174   6.806   3.495
 8315SOL    HW125844   5.165   6.796   3.594
 8315SOL    HW225845   5.270   6.799   3.469
 8316SOL     OW25846   5.398   6.469   3.116
 8316SOL    HW125847   5.371   6.380   3.079
 8316SOL    HW225848   5.399   6.537   3.043
 8317SOL     OW25849   4.949   5.911   2.311
 8317SOL    HW125850   5.014   5.837   2.300
 8317SOL    HW225851   4.969   5.961   2.395
 8318SOL     OW25852   4.318   6.331   2.514
 8318SOL    HW125853   4.368   6.416   2.495
 8318SOL    HW225854   4.230   6.333   2.466
 8319SOL     OW25855   5.501   5.928   3.504
 8319SOL    HW125856   5.484   5.959   3.410
 8319SOL    HW225857   5.417   5.891   3.542
 8320SOL     OW25858   5.454   6.520   3.379
 8320SOL    HW125859   5.492   6.611   3.394
 8320SOL    HW225860   5.446   6.503   3.280
 8321SOL     OW25861   4.583   6.542   2.723
 8321SOL    HW125862   4.637   6.473   2.771
 8321SOL    HW225863   4.551   6.611   2.789
 8322SOL     OW25864   4.807   6.570   1.949
 8322SOL    HW125865   4.784   6.623   1.867
 8322SOL    HW225866   4.888   6.514   1.930
 8323SOL     OW25867   3.945   6.900   3.706
 8323SOL    HW125868   3.880   6.827   3.685
 8323SOL    HW225869   3.949   6.914   3.804
 8324SOL     OW25870   3.803   6.826   2.515
 8324SOL    HW125871   3.802   6.779   2.603
 8324SOL    HW225872   3.885   6.798   2.464
 8325SOL     OW25873   4.396   6.977   3.486
 8325SOL    HW125874   4.318   6.927   3.524
 8325SOL    HW225875   4.393   7.072   3.517
 8326SOL     OW25876   5.548   5.778   3.089
 8326SOL    HW125877   5.544   5.688   3.133
 8326SOL    HW225878   5.551   5.767   2.990
 8327SOL     OW25879   4.152   6.010   2.382
 8327SOL    HW125880   4.182   5.938   2.320
 8327SOL    HW225881   4.113   5.970   2.465
 8328SOL     OW25882   5.429   7.073   2.966
 8328SOL    HW125883   5.336   7.048   2.939
 8328SOL    HW225884   5.455   7.023   3.048
 8329SOL     OW25885   4.041   6.133   3.142
 8329SOL    HW125886   4.079   6.074   3.214
 8329SOL    HW225887   4.081   6.107   3.054
 8330SOL     OW25888   5.148   5.800   2.974
 8330SOL    HW125889   5.200   5.735   3.029
 8330SOL    HW225890   5.099   5.863   3.035
 8331SOL     OW25891   4.725   5.620   3.016
 8331SOL    HW125892   4.662   5.548   2.985
 8331SOL    HW225893   4.818   5.584   3.016
 8332SOL     OW25894   4.494   6.916   2.163
 8332SOL    HW125895   4.448   6.829   2.180
 8332SOL    HW225896   4.585   6.913   2.204
 8333SOL     OW25897   5.076   5.638   2.030
 8333SOL    HW125898   5.111   5.597   1.946
 8333SOL    HW225899   4.986   5.600   2.050
 8334SOL     OW25900   5.024   6.039   2.553
 8334SOL    HW125901   4.965   6.119   2.557
 8334SOL    HW225902   5.039   6.004   2.646
 8335SOL     OW25903   5.317   5.807   2.744
 8335SOL    HW125904   5.233   5.806   2.798
 8335SOL    HW225905   5.319   5.890   2.688
 8336SOL     OW25906   3.763   6.663   2.162
 8336SOL    HW125907   3.862   6.652   2.153
 8336SOL    HW225908   3.723   6.577   2.194
 8337SOL     OW25909   3.954   6.214   3.837
 8337SOL    HW125910   3.861   6.212   3.874
 8337SOL    HW225911   3.955   6.175   3.745
 8338SOL     OW25912   3.949   5.861   4.720
 8338SOL    HW125913   3.984   5.844   4.812
 8338SOL    HW225914   3.861   5.816   4.708
 8339SOL     OW25915   3.743   5.954   4.371
 8339SOL    HW125916   3.661   5.997   4.410
 8339SOL    HW225917   3.715   5.881   4.308
 8340SOL     OW25918   4.293   6.861   4.889
 8340SOL    HW125919   4.200   6.854   4.852
 8340SOL    HW225920   4.304   6.950   4.933
 8341SOL     OW25921   5.279   7.097   4.427
 8341SOL    HW125922   5.222   7.081   4.508
 8341SOL    HW225923   5.220   7.107   4.347
 8342SOL     OW25924   4.859   6.289   4.441
 8342SOL    HW125925   4.916   6.367   4.416
 8342SOL    HW225926   4.799   6.315   4.517
 8343SOL     OW25927   5.479   6.193   3.955
 8343SOL    HW125928   5.467   6.180   3.856
 8343SOL    HW225929   5.449   6.112   4.004
 8344SOL     OW25930   4.492   6.730   4.747
 8344SOL    HW125931   4.414   6.747   4.807
 8344SOL    HW225932   4.526   6.817   4.711
 8345SOL     OW25933   4.574   6.384   5.547
 8345SOL    HW125934   4.570   6.460   5.612
 8345SOL    HW225935   4.596   6.420   5.456
 8346SOL     OW25936   4.409   6.598   4.389
 8346SOL    HW125937   4.478   6.582   4.459
 8346SOL    HW225938   4.336   6.655   4.427
 8347SOL     OW25939   4.410   6.747   5.527
 8347SOL    HW125940   4.470   6.826   5.541
 8347SOL    HW225941   4.324   6.778   5.486
 8348SOL     OW25942   4.059   7.021   4.785
 8348SOL    HW125943   3.981   6.990   4.732
 8348SOL    HW225944   4.117   7.079   4.728
 8349SOL     OW25945   4.162   5.978   5.223
 8349SOL    HW125946   4.244   5.922   5.232
 8349SOL    HW225947   4.081   5.920   5.227
 8350SOL     OW25948   5.327   6.033   4.461
 8350SOL    HW125949   5.253   6.079   4.411
 8350SOL    HW225950   5.378   6.101   4.514
 8351SOL     OW25951   3.964   6.677   4.610
 8351SOL    HW125952   3.978   6.593   4.662
 8351SOL    HW225953   3.909   6.741   4.665
 8352SOL     OW25954   4.330   6.550   3.847
 8352SOL    HW125955   4.337   6.634   3.793
 8352SOL    HW225956   4.376   6.563   3.935
 8353SOL     OW25957   5.318   5.700   5.204
 8353SOL    HW125958   5.300   5.767   5.132
 8353SOL    HW225959   5.315   5.746   5.293
 8354SOL     OW25960   3.846   6.229   4.287
 8354SOL    HW125961   3.801   6.141   4.304
 8354SOL    HW225962   3.845   6.283   4.371
 8355SOL     OW25963   5.413   6.508   4.336
 8355SOL    HW125964   5.508   6.479   4.344
 8355SOL    HW225965   5.405   6.573   4.261
 8356SOL     OW25966   5.365   6.694   4.156
 8356SOL    HW125967   5.451   6.696   4.104
 8356SOL    HW225968   5.379   6.741   4.244
 8357SOL     OW25969   3.837   6.323   5.321
 8357SOL    HW125970   3.925   6.310   5.366
 8357SOL    HW225971   3.824   6.420   5.299
 8358SOL     OW25972   5.017   6.814   5.147
 8358SOL    HW125973   5.054   6.741   5.089
 8358SOL    HW225974   5.069   6.819   5.232
 8359SOL     OW25975   4.533   5.590   4.226
 8359SOL    HW125976   4.573   5.681   4.217
 8359SOL    HW225977   4.433   5.598   4.232
 8360SOL     OW25978   3.921   6.562   4.988
 8360SOL    HW125979   4.010   6.517   4.974
 8360SOL    HW225980   3.848   6.497   4.969
 8361SOL     OW25981   5.249   6.585   3.914
 8361SOL    HW125982   5.186   6.509   3.927
 8361SOL    HW225983   5.297   6.603   4.000
 8362SOL     OW25984   4.041   5.837   5.525
 8362SOL    HW125985   4.112   5.908   5.531
 8362SOL    HW225986   3.953   5.876   5.553
 8363SOL     OW25987   5.190   7.003   4.677
 8363SOL    HW125988   5.131   7.009   4.757
 8363SOL    HW225989   5.175   6.915   4.631
 8364SOL     OW25990   4.322   6.315   3.994
 8364SOL    HW125991   4.346   6.384   3.926
 8364SOL    HW225992   4.244   6.348   4.048
 8365SOL     OW25993   5.005   5.931   4.668
 8365SOL    HW125994   4.919   5.881   4.655
 8365SOL    HW225995   5.067   5.877   4.724
 8366SOL     OW25996   4.531   6.191   5.189
 8366SOL    HW125997   4.484   6.188   5.278
 8366SOL    HW225998   4.480   6.136   5.123
 8367SOL     OW25999   5.118   6.055   5.398
 8367SOL    HW126000   5.098   6.098   5.486
 8367SOL    HW226001   5.196   5.993   5.407
 8368SOL     OW26002   4.697   6.476   5.296
 8368SOL    HW126003   4.743   6.392   5.267
 8368SOL    HW226004   4.641   6.510   5.221
 8369SOL     OW26005   4.715   5.996   4.966
 8369SOL    HW126006   4.638   6.030   5.020
 8369SOL    HW226007   4.681   5.945   4.887
 8370SOL     OW26008   4.765   6.287   4.153
 8370SOL    HW126009   4.791   6.283   4.249
 8370SOL    HW226010   4.680   6.236   4.139
 8371SOL     OW26011   3.800   6.397   4.513
 8371SOL    HW126012   3.899   6.385   4.522
 8371SOL    HW226013   3.776   6.492   4.534
 8372SOL     OW26014   4.589   5.934   3.919
 8372SOL    HW126015   4.648   5.997   3.870
 8372SOL    HW226016   4.608   5.840   3.890
 8373SOL     OW26017   5.443   6.171   5.555
 8373SOL    HW126018   5.417   6.260   5.519
 8373SOL    HW226019   5.441   6.103   5.482
 8374SOL     OW26020   5.086   6.730   4.269
 8374SOL    HW126021   5.169   6.701   4.221
 8374SOL    HW226022   5.037   6.797   4.213
 8375SOL     OW26023   4.274   5.782   4.609
 8375SOL    HW126024   4.269   5.777   4.709
 8375SOL    HW226025   4.276   5.878   4.580
 8376SOL     OW26026   5.519   6.652   4.597
 8376SOL    HW126027   5.457   6.637   4.521
 8376SOL    HW226028   5.467   6.663   4.682
 8377SOL     OW26029   4.045   6.529   3.966
 8377SOL    HW126030   4.127   6.568   3.924
 8377SOL    HW226031   4.018   6.447   3.917
 8378SOL     OW26032   5.182   6.321   4.452
 8378SOL    HW126033   5.177   6.256   4.527
 8378SOL    HW226034   5.262   6.380   4.465
 8379SOL     OW26035   3.926   5.871   5.222
 8379SOL    HW126036   3.846   5.931   5.209
 8379SOL    HW226037   3.916   5.822   5.308
 8380SOL     OW26038   5.356   6.963   3.805
 8380SOL    HW126039   5.324   7.057   3.795
 8380SOL    HW226040   5.280   6.900   3.793
 8381SOL     OW26041   5.124   5.693   4.150
 8381SOL    HW126042   5.100   5.656   4.060
 8381SOL    HW226043   5.223   5.709   4.154
 8382SOL     OW26044   4.106   6.286   4.204
 8382SOL    HW126045   4.151   6.196   4.201
 8382SOL    HW226046   4.012   6.275   4.237
 8383SOL     OW26047   5.271   5.808   5.453
 8383SOL    HW126048   5.266   5.845   5.545
 8383SOL    HW226049   5.199   5.739   5.441
 8384SOL     OW26050   4.338   5.708   3.841
 8384SOL    HW126051   4.436   5.686   3.848
 8384SOL    HW226052   4.307   5.691   3.748
 8385SOL     OW26053   4.505   5.850   5.473
 8385SOL    HW126054   4.572   5.789   5.516
 8385SOL    HW226055   4.432   5.869   5.538
 8386SOL     OW26056   5.075   6.176   5.157
 8386SOL    HW126057   5.103   6.133   5.242
 8386SOL    HW226058   5.100   6.272   5.158
 8387SOL     OW26059   4.646   6.089   4.623
 8387SOL    HW126060   4.621   6.080   4.527
 8387SOL    HW226061   4.694   6.007   4.654
 8388SOL     OW26062   4.263   5.650   4.236
 8388SOL    HW126063   4.182   5.651   4.294
 8388SOL    HW226064   4.266   5.733   4.181
 8389SOL     OW26065   5.158   6.774   3.765
 8389SOL    HW126066   5.190   6.698   3.822
 8389SOL    HW226067   5.066   6.801   3.795
 8390SOL     OW26068   4.021   5.621   3.895
 8390SOL    HW126069   4.070   5.705   3.874
 8390SOL    HW226070   4.083   5.556   3.940
 8391SOL     OW26071   4.659   5.822   4.204
 8391SOL    HW126072   4.611   5.863   4.126
 8391SOL    HW226073   4.758   5.820   4.185
 8392SOL     OW26074   4.800   6.269   5.188
 8392SOL    HW126075   4.720   6.208   5.191
 8392SOL    HW226076   4.881   6.216   5.164
 8393SOL     OW26077   4.951   7.156   4.517
 8393SOL    HW126078   4.972   7.230   4.452
 8393SOL    HW226079   5.019   7.156   4.590
 8394SOL     OW26080   4.183   6.738   4.465
 8394SOL    HW126081   4.112   6.711   4.530
 8394SOL    HW226082   4.157   6.710   4.372
 8395SOL     OW26083   4.756   6.135   3.740
 8395SOL    HW126084   4.715   6.217   3.701
 8395SOL    HW226085   4.820   6.161   3.813
 8396SOL     OW26086   3.802   6.142   5.110
 8396SOL    HW126087   3.894   6.141   5.069
 8396SOL    HW226088   3.796   6.216   5.177
 8397SOL     OW26089   4.285   5.808   4.871
 8397SOL    HW126090   4.323   5.724   4.908
 8397SOL    HW226091   4.197   5.827   4.915
 8398SOL     OW26092   4.590   6.040   4.366
 8398SOL    HW126093   4.558   6.112   4.304
 8398SOL    HW226094   4.614   5.959   4.313
 8399SOL     OW26095   4.741   5.625   4.477
 8399SOL    HW126096   4.669   5.630   4.408
 8399SOL    HW226097   4.717   5.556   4.546
 8400SOL     OW26098   5.153   6.759   4.591
 8400SOL    HW126099   5.098   6.675   4.584
 8400SOL    HW226100   5.179   6.788   4.499
 8401SOL     OW26101   5.190   6.176   4.716
 8401SOL    HW126102   5.160   6.081   4.723
 8401SOL    HW226103   5.263   6.192   4.782
 8402SOL     OW26104   5.581   6.419   4.101
 8402SOL    HW126105   5.623   6.355   4.165
 8402SOL    HW226106   5.543   6.368   4.023
 8403SOL     OW26107   5.388   6.866   4.381
 8403SOL    HW126108   5.487   6.874   4.395
 8403SOL    HW226109   5.343   6.950   4.412
 8404SOL     OW26110   5.114   6.161   3.802
 8404SOL    HW126111   5.060   6.140   3.883
 8404SOL    HW226112   5.205   6.120   3.811
 8405SOL     OW26113   4.251   5.842   4.052
 8405SOL    HW126114   4.278   5.783   3.977
 8405SOL    HW226115   4.251   5.937   4.021
 8406SOL     OW26116   5.478   6.809   5.312
 8406SOL    HW126117   5.569   6.770   5.299
 8406SOL    HW226118   5.486   6.905   5.336
 8407SOL     OW26119   4.788   6.933   5.064
 8407SOL    HW126120   4.708   6.910   5.119
 8407SOL    HW226121   4.871   6.907   5.113
 8408SOL     OW26122   4.835   6.781   4.824
 8408SOL    HW126123   4.795   6.825   4.905
 8408SOL    HW226124   4.794   6.818   4.741
 8409SOL     OW26125   5.362   6.685   4.803
 8409SOL    HW126126   5.367   6.766   4.862
 8409SOL    HW226127   5.276   6.687   4.752
 8410SOL     OW26128   4.639   5.675   5.126
 8410SOL    HW126129   4.664   5.655   5.031
 8410SOL    HW226130   4.711   5.731   5.168
 8411SOL     OW26131   4.704   6.702   5.443
 8411SOL    HW126132   4.605   6.708   5.453
 8411SOL    HW226133   4.727   6.622   5.387
 8412SOL     OW26134   4.429   6.636   4.092
 8412SOL    HW126135   4.415   6.643   4.191
 8412SOL    HW226136   4.513   6.585   4.074
 8413SOL     OW26137   4.134   6.399   4.975
 8413SOL    HW126138   4.220   6.411   5.025
 8413SOL    HW226139   4.092   6.312   5.002
 8414SOL     OW26140   4.998   5.972   4.986
 8414SOL    HW126141   5.019   6.046   5.050
 8414SOL    HW226142   4.909   5.989   4.943
 8415SOL     OW26143   4.091   6.686   4.225
 8415SOL    HW126144   4.084   6.769   4.169
 8415SOL    HW226145   4.095   6.606   4.165
 8416SOL     OW26146   4.290   6.123   4.589
 8416SOL    HW126147   4.302   6.189   4.515
 8416SOL    HW226148   4.336   6.157   4.672
 8417SOL     OW26149   5.306   6.225   4.196
 8417SOL    HW126150   5.275   6.286   4.269
 8417SOL    HW226151   5.356   6.277   4.127
 8418SOL     OW26152   4.126   6.337   5.322
 8418SOL    HW126153   4.194   6.392   5.275
 8418SOL    HW226154   4.166   6.249   5.349
 8419SOL     OW26155   5.311   6.365   5.394
 8419SOL    HW126156   5.219   6.403   5.389
 8419SOL    HW226157   5.371   6.412   5.329
 8420SOL     OW26158   4.737   5.691   5.494
 8420SOL    HW126159   4.743   5.776   5.442
 8420SOL    HW226160   4.769   5.615   5.437
 8421SOL     OW26161   4.228   5.636   5.464
 8421SOL    HW126162   4.186   5.579   5.394
 8421SOL    HW226163   4.162   5.705   5.496
 8422SOL     OW26164   4.297   6.456   4.753
 8422SOL    HW126165   4.341   6.545   4.744
 8422SOL    HW226166   4.234   6.456   4.830
 8423SOL     OW26167   5.084   6.448   4.769
 8423SOL    HW126168   5.009   6.448   4.703
 8423SOL    HW226169   5.121   6.356   4.778
 8424SOL     OW26170   4.933   6.111   3.999
 8424SOL    HW126171   4.946   6.027   4.053
 8424SOL    HW226172   4.904   6.185   4.059
 8425SOL     OW26173   4.031   5.799   4.955
 8425SOL    HW126174   4.008   5.836   5.045
 8425SOL    HW226175   4.001   5.704   4.949
 8426SOL     OW26176   3.761   6.896   5.006
 8426SOL    HW126177   3.814   6.847   5.074
 8426SOL    HW226178   3.783   6.994   5.011
 8427SOL     OW26179   4.456   6.220   4.788
 8427SOL    HW126180   4.515   6.194   4.712
 8427SOL    HW226181   4.428   6.316   4.777
 8428SOL     OW26182   5.452   6.521   5.578
 8428SOL    HW126183   5.406   6.514   5.489
 8428SOL    HW226184   5.390   6.565   5.644
 8429SOL     OW26185   4.031   5.649   4.342
 8429SOL    HW126186   4.020   5.743   4.375
 8429SOL    HW226187   4.026   5.586   4.419
 8430SOL     OW26188   5.346   5.953   4.098
 8430SOL    HW126189   5.348   5.877   4.162
 8430SOL    HW226190   5.298   6.030   4.138
 8431SOL     OW26191   4.747   6.352   4.690
 8431SOL    HW126192   4.762   6.373   4.786
 8431SOL    HW226193   4.717   6.257   4.681
 8432SOL     OW26194   5.583   7.104   5.329
 8432SOL    HW126195   5.597   7.131   5.234
 8432SOL    HW226196   5.666   7.126   5.382
 8433SOL     OW26197   4.074   6.484   5.528
 8433SOL    HW126198   4.150   6.528   5.576
 8433SOL    HW226199   4.109   6.437   5.446
 8434SOL     OW26200   5.264   5.860   3.849
 8434SOL    HW126201   5.203   5.785   3.872
 8434SOL    HW226202   5.286   5.912   3.932
 8435SOL     OW26203   5.027   6.424   3.766
 8435SOL    HW126204   5.061   6.331   3.781
 8435SOL    HW226205   5.045   6.451   3.671
 8436SOL     OW26206   4.043   6.396   4.673
 8436SOL    HW126207   4.136   6.432   4.678
 8436SOL    HW226208   4.037   6.311   4.725
 8437SOL     OW26209   4.063   6.095   4.730
 8437SOL    HW126210   4.011   6.012   4.713
 8437SOL    HW226211   4.140   6.100   4.666
 8438SOL     OW26212   4.862   5.966   5.402
 8438SOL    HW126213   4.817   6.029   5.466
 8438SOL    HW226214   4.955   5.997   5.385
 8439SOL     OW26215   4.884   5.793   5.201
 8439SOL    HW126216   4.884   5.857   5.278
 8439SOL    HW226217   4.912   5.841   5.118
 8440SOL     OW26218   3.732   6.912   3.924
 8440SOL    HW126219   3.639   6.933   3.893
 8440SOL    HW226220   3.742   6.813   3.937
 8441SOL     OW26221   4.726   6.382   4.962
 8441SOL    HW126222   4.767   6.350   5.048
 8441SOL    HW226223   4.630   6.355   4.959
 8442SOL     OW26224   3.764   6.130   4.838
 8442SOL    HW126225   3.849   6.097   4.797
 8442SOL    HW226226   3.777   6.145   4.936
 8443SOL     OW26227   3.913   6.106   5.446
 8443SOL    HW126228   3.972   6.066   5.376
 8443SOL    HW226229   3.855   6.177   5.405
 8444SOL     OW26230   5.093   6.536   5.384
 8444SOL    HW126231   5.132   6.625   5.404
 8444SOL    HW226232   5.103   6.516   5.287
 8445SOL     OW26233   4.539   6.158   4.049
 8445SOL    HW126234   4.546   6.069   4.003
 8445SOL    HW226235   4.445   6.192   4.041
 8446SOL     OW26236   5.381   6.190   4.930
 8446SOL    HW126237   5.343   6.121   4.992
 8446SOL    HW226238   5.463   6.154   4.886
 8447SOL     OW26239   4.395   6.050   4.993
 8447SOL    HW126240   4.361   5.961   4.963
 8447SOL    HW226241   4.421   6.104   4.913
 8448SOL     OW26242   4.197   6.086   3.915
 8448SOL    HW126243   4.258   6.166   3.919
 8448SOL    HW226244   4.102   6.117   3.922
 8449SOL     OW26245   3.883   6.723   5.190
 8449SOL    HW126246   3.905   6.662   5.266
 8449SOL    HW226247   3.893   6.674   5.104
 8450SOL     OW26248   5.071   6.645   4.958
 8450SOL    HW126249   5.095   6.582   4.884
 8450SOL    HW226250   4.981   6.685   4.940
 8451SOL     OW26251   5.026   6.441   4.033
 8451SOL    HW126252   4.940   6.410   4.075
 8451SOL    HW226253   5.022   6.427   3.934
 8452SOL     OW26254   3.807   6.844   4.746
 8452SOL    HW126255   3.802   6.843   4.846
 8452SOL    HW226256   3.724   6.803   4.708
 8453SOL     OW26257   5.450   5.721   4.247
 8453SOL    HW126258   5.523   5.704   4.180
 8453SOL    HW226259   5.419   5.634   4.285
 8454SOL     OW26260   5.004   6.513   4.396
 8454SOL    HW126261   5.064   6.432   4.398
 8454SOL    HW226262   5.044   6.582   4.336
 8455SOL     OW26263   4.554   6.859   5.146
 8455SOL    HW126264   4.549   6.892   5.241
 8455SOL    HW226265   4.468   6.878   5.100
 8456SOL     OW26266   5.565   5.761   4.687
 8456SOL    HW126267   5.604   5.676   4.651
 8456SOL    HW226268   5.467   5.763   4.668
 8457SOL     OW26269   3.987   5.912   4.444
 8457SOL    HW126270   3.908   5.963   4.410
 8457SOL    HW226271   3.978   5.897   4.542
 8458SOL     OW26272   4.918   7.198   3.755
 8458SOL    HW126273   4.924   7.105   3.792
 8458SOL    HW226274   4.859   7.198   3.675
 8459SOL     OW26275   4.546   6.588   5.096
 8459SOL    HW126276   4.586   6.587   5.004
 8459SOL    HW226277   4.556   6.680   5.136
 8460SOL     OW26278   4.640   6.496   4.015
 8460SOL    HW126279   4.703   6.534   3.947
 8460SOL    HW226280   4.680   6.413   4.054
 8461SOL     OW26281   4.096   6.874   5.214
 8461SOL    HW126282   4.083   6.967   5.180
 8461SOL    HW226283   4.012   6.822   5.201
 8462SOL     OW26284   5.338   6.878   5.013
 8462SOL    HW126285   5.398   6.881   5.093
 8462SOL    HW226286   5.263   6.942   5.026
 8463SOL     OW26287   4.763   6.684   4.420
 8463SOL    HW126288   4.693   6.637   4.474
 8463SOL    HW226289   4.822   6.616   4.377
 8464SOL     OW26290   4.738   5.822   4.695
 8464SOL    HW126291   4.730   5.786   4.602
 8464SOL    HW226292   4.736   5.746   4.760
 8465SOL     OW26293   5.433   5.971   5.105
 8465SOL    HW126294   5.506   6.040   5.109
 8465SOL    HW226295   5.461   5.896   5.046
 8466SOL     OW26296   3.829   6.599   5.450
 8466SOL    HW126297   3.752   6.566   5.504
 8466SOL    HW226298   3.914   6.569   5.492
 8467SOL     OW26299   4.396   5.789   5.213
 8467SOL    HW126300   4.486   5.773   5.173
 8467SOL    HW226301   4.404   5.794   5.312
 8468SOL     OW26302   3.799   5.931   3.757
 8468SOL    HW126303   3.707   5.903   3.728
 8468SOL    HW226304   3.830   6.008   3.701
 8469SOL     OW26305   5.164   6.442   5.122
 8469SOL    HW126306   5.107   6.494   5.059
 8469SOL    HW226307   5.260   6.454   5.098
 8470SOL     OW26308   3.796   5.752   4.042
 8470SOL    HW126309   3.779   5.835   3.988
 8470SOL    HW226310   3.886   5.715   4.020
 8471SOL     OW26311   4.337   6.428   5.155
 8471SOL    HW126312   4.393   6.509   5.138
 8471SOL    HW226313   4.396   6.348   5.158
 8472SOL     OW26314   4.440   6.151   5.432
 8472SOL    HW126315   4.459   6.216   5.506
 8472SOL    HW226316   4.500   6.071   5.441
 8473SOL     OW26317   5.174   6.806   5.357
 8473SOL    HW126318   5.165   6.796   5.456
 8473SOL    HW226319   5.270   6.799   5.331
 8474SOL     OW26320   5.398   6.469   4.978
 8474SOL    HW126321   5.371   6.380   4.941
 8474SOL    HW226322   5.399   6.537   4.905
 8475SOL     OW26323   4.949   5.911   4.173
 8475SOL    HW126324   5.014   5.837   4.162
 8475SOL    HW226325   4.969   5.961   4.257
 8476SOL     OW26326   4.318   6.331   4.376
 8476SOL    HW126327   4.368   6.416   4.357
 8476SOL    HW226328   4.230   6.333   4.328
 8477SOL     OW26329   5.501   5.928   5.366
 8477SOL    HW126330   5.484   5.959   5.272
 8477SOL    HW226331   5.417   5.891   5.404
 8478SOL     OW26332   5.454   6.520   5.241
 8478SOL    HW126333   5.492   6.611   5.256
 8478SOL    HW226334   5.446   6.503   5.142
 8479SOL     OW26335   4.583   6.542   4.585
 8479SOL    HW126336   4.637   6.473   4.633
 8479SOL    HW226337   4.551   6.611   4.651
 8480SOL     OW26338   4.807   6.570   3.811
 8480SOL    HW126339   4.784   6.623   3.729
 8480SOL    HW226340   4.888   6.514   3.792
 8481SOL     OW26341   3.945   6.900   5.568
 8481SOL    HW126342   3.880   6.827   5.547
 8481SOL    HW226343   3.949   6.914   5.666
 8482SOL     OW26344   3.803   6.826   4.377
 8482SOL    HW126345   3.802   6.779   4.465
 8482SOL    HW226346   3.885   6.798   4.326
 8483SOL     OW26347   4.396   6.977   5.348
 8483SOL    HW126348   4.318   6.927   5.386
 8483SOL    HW226349   4.393   7.072   5.379
 8484SOL     OW26350   5.548   5.778   4.951
 8484SOL    HW126351   5.544   5.688   4.995
 8484SOL    HW226352   5.551   5.767   4.852
 8485SOL     OW26353   4.152   6.010   4.244
 8485SOL    HW126354   4.182   5.938   4.182
 8485SOL    HW226355   4.113   5.970   4.327
 8486SOL     OW26356   5.429   7.073   4.828
 8486SOL    HW126357   5.336   7.048   4.801
 8486SOL    HW226358   5.455   7.023   4.910
 8487SOL     OW26359   4.041   6.133   5.004
 8487SOL    HW126360   4.079   6.074   5.076
 8487SOL    HW226361   4.081   6.107   4.916
 8488SOL     OW26362   5.148   5.800   4.836
 8488SOL    HW126363   5.200   5.735   4.891
 8488SOL    HW226364   5.099   5.863   4.897
 8489SOL     OW26365   4.725   5.620   4.878
 8489SOL    HW126366   4.662   5.548   4.847
 8489SOL    HW226367   4.818   5.584   4.878
 8490SOL     OW26368   4.494   6.916   4.025
 8490SOL    HW126369   4.448   6.829   4.042
 8490SOL    HW226370   4.585   6.913   4.066
 8491SOL     OW26371   5.076   5.638   3.892
 8491SOL    HW126372   5.111   5.597   3.808
 8491SOL    HW226373   4.986   5.600   3.912
 8492SOL     OW26374   5.024   6.039   4.415
 8492SOL    HW126375   4.965   6.119   4.419
 8492SOL    HW226376   5.039   6.004   4.508
 8493SOL     OW26377   5.317   5.807   4.606
 8493SOL    HW126378   5.233   5.806   4.660
 8493SOL    HW226379   5.319   5.890   4.550
 8494SOL     OW26380   3.763   6.663   4.024
 8494SOL    HW126381   3.862   6.652   4.015
 8494SOL    HW226382   3.723   6.577   4.056
 8495SOL     OW26383   3.954   6.214   5.699
 8495SOL    HW126384   3.861   6.212   5.736
 8495SOL    HW226385   3.955   6.175   5.607
 8496SOL     OW26386   3.949   5.861   6.582
 8496SOL    HW126387   3.984   5.844   6.674
 8496SOL    HW226388   3.861   5.816   6.570
 8497SOL     OW26389   3.743   5.954   6.233
 8497SOL    HW126390   3.661   5.997   6.272
 8497SOL    HW226391   3.715   5.881   6.170
 8498SOL     OW26392   4.293   6.861   6.751
 8498SOL    HW126393   4.200   6.854   6.714
 8498SOL    HW226394   4.304   6.950   6.795
 8499SOL     OW26395   5.279   7.097   6.289
 8499SOL    HW126396   5.222   7.081   6.370
 8499SOL    HW226397   5.220   7.107   6.209
 8500SOL     OW26398   4.859   6.289   6.303
 8500SOL    HW126399   4.916   6.367   6.278
 8500SOL    HW226400   4.799   6.315   6.379
 8501SOL     OW26401   5.479   6.193   5.817
 8501SOL    HW126402   5.467   6.180   5.718
 8501SOL    HW226403   5.449   6.112   5.866
 8502SOL     OW26404   4.492   6.730   6.609
 8502SOL    HW126405   4.414   6.747   6.669
 8502SOL    HW226406   4.526   6.817   6.573
 8503SOL     OW26407   4.409   6.598   6.251
 8503SOL    HW126408   4.478   6.582   6.321
 8503SOL    HW226409   4.336   6.655   6.289
 8504SOL     OW26410   4.059   7.021   6.647
 8504SOL    HW126411   3.981   6.990   6.594
 8504SOL    HW226412   4.117   7.079   6.590
 8505SOL     OW26413   5.327   6.033   6.323
 8505SOL    HW126414   5.253   6.079   6.273
 8505SOL    HW226415   5.378   6.101   6.376
 8506SOL     OW26416   3.964   6.677   6.472
 8506SOL    HW126417   3.978   6.593   6.524
 8506SOL    HW226418   3.909   6.741   6.527
 8507SOL     OW26419   4.330   6.550   5.709
 8507SOL    HW126420   4.337   6.634   5.655
 8507SOL    HW226421   4.376   6.563   5.797
 8508SOL     OW26422   3.846   6.229   6.149
 8508SOL    HW126423   3.801   6.141   6.166
 8508SOL    HW226424   3.845   6.283   6.233
 8509SOL     OW26425   5.413   6.508   6.198
 8509SOL    HW126426   5.508   6.479   6.206
 8509SOL    HW226427   5.405   6.573   6.123
 8510SOL     OW26428   5.365   6.694   6.018
 8510SOL    HW126429   5.451   6.696   5.966
 8510SOL    HW226430   5.379   6.741   6.106
 8511SOL     OW26431   4.533   5.590   6.088
 8511SOL    HW126432   4.573   5.681   6.079
 8511SOL    HW226433   4.433   5.598   6.094
 8512SOL     OW26434   3.921   6.562   6.850
 8512SOL    HW126435   4.010   6.517   6.836
 8512SOL    HW226436   3.848   6.497   6.831
 8513SOL     OW26437   5.249   6.585   5.776
 8513SOL    HW126438   5.186   6.509   5.789
 8513SOL    HW226439   5.297   6.603   5.862
 8514SOL     OW26440   5.190   7.003   6.539
 8514SOL    HW126441   5.131   7.009   6.619
 8514SOL    HW226442   5.175   6.915   6.493
 8515SOL     OW26443   4.322   6.315   5.856
 8515SOL    HW126444   4.346   6.384   5.788
 8515SOL    HW226445   4.244   6.348   5.910
 8516SOL     OW26446   5.005   5.931   6.530
 8516SOL    HW126447   4.919   5.881   6.517
 8516SOL    HW226448   5.067   5.877   6.586
 8517SOL     OW26449   4.531   6.191   7.051
 8517SOL    HW126450   4.484   6.188   7.140
 8517SOL    HW226451   4.480   6.136   6.985
 8518SOL     OW26452   4.715   5.996   6.828
 8518SOL    HW126453   4.638   6.030   6.882
 8518SOL    HW226454   4.681   5.945   6.749
 8519SOL     OW26455   4.765   6.287   6.015
 8519SOL    HW126456   4.791   6.283   6.111
 8519SOL    HW226457   4.680   6.236   6.001
 8520SOL     OW26458   3.800   6.397   6.375
 8520SOL    HW126459   3.899   6.385   6.384
 8520SOL    HW226460   3.776   6.492   6.396
 8521SOL     OW26461   4.589   5.934   5.781
 8521SOL    HW126462   4.648   5.997   5.732
 8521SOL    HW226463   4.608   5.840   5.752
 8522SOL     OW26464   5.086   6.730   6.131
 8522SOL    HW126465   5.169   6.701   6.083
 8522SOL    HW226466   5.037   6.797   6.075
 8523SOL     OW26467   4.274   5.782   6.471
 8523SOL    HW126468   4.269   5.777   6.571
 8523SOL    HW226469   4.276   5.878   6.442
 8524SOL     OW26470   5.519   6.652   6.459
 8524SOL    HW126471   5.457   6.637   6.383
 8524SOL    HW226472   5.467   6.663   6.544
 8525SOL     OW26473   4.045   6.529   5.828
 8525SOL    HW126474   4.127   6.568   5.786
 8525SOL    HW226475   4.018   6.447   5.779
 8526SOL     OW26476   5.182   6.321   6.314
 8526SOL    HW126477   5.177   6.256   6.389
 8526SOL    HW226478   5.262   6.380   6.327
 8527SOL     OW26479   5.356   6.963   5.667
 8527SOL    HW126480   5.324   7.057   5.657
 8527SOL    HW226481   5.280   6.900   5.655
 8528SOL     OW26482   5.124   5.693   6.012
 8528SOL    HW126483   5.100   5.656   5.922
 8528SOL    HW226484   5.223   5.709   6.016
 8529SOL     OW26485   4.106   6.286   6.066
 8529SOL    HW126486   4.151   6.196   6.063
 8529SOL    HW226487   4.012   6.275   6.099
 8530SOL     OW26488   4.338   5.708   5.703
 8530SOL    HW126489   4.436   5.686   5.710
 8530SOL    HW226490   4.307   5.691   5.610
 8531SOL     OW26491   4.646   6.089   6.485
 8531SOL    HW126492   4.621   6.080   6.389
 8531SOL    HW226493   4.694   6.007   6.516
 8532SOL     OW26494   4.263   5.650   6.098
 8532SOL    HW126495   4.182   5.651   6.156
 8532SOL    HW226496   4.266   5.733   6.043
 8533SOL     OW26497   5.158   6.774   5.627
 8533SOL    HW126498   5.190   6.698   5.684
 8533SOL    HW226499   5.066   6.801   5.657
 8534SOL     OW26500   4.021   5.621   5.757
 8534SOL    HW126501   4.070   5.705   5.736
 8534SOL    HW226502   4.083   5.556   5.802
 8535SOL     OW26503   4.659   5.822   6.066
 8535SOL    HW126504   4.611   5.863   5.988
 8535SOL    HW226505   4.758   5.820   6.047
 8536SOL     OW26506   4.951   7.156   6.379
 8536SOL    HW126507   4.972   7.230   6.314
 8536SOL    HW226508   5.019   7.156   6.452
 8537SOL     OW26509   4.183   6.738   6.327
 8537SOL    HW126510   4.112   6.711   6.392
 8537SOL    HW226511   4.157   6.710   6.234
 8538SOL     OW26512   4.756   6.135   5.602
 8538SOL    HW126513   4.715   6.217   5.563
 8538SOL    HW226514   4.820   6.161   5.675
 8539SOL     OW26515   4.285   5.808   6.733
 8539SOL    HW126516   4.323   5.724   6.770
 8539SOL    HW226517   4.197   5.827   6.777
 8540SOL     OW26518   4.590   6.040   6.228
 8540SOL    HW126519   4.558   6.112   6.166
 8540SOL    HW226520   4.614   5.959   6.175
 8541SOL     OW26521   4.741   5.625   6.339
 8541SOL    HW126522   4.669   5.630   6.270
 8541SOL    HW226523   4.717   5.556   6.408
 8542SOL     OW26524   5.153   6.759   6.453
 8542SOL    HW126525   5.098   6.675   6.446
 8542SOL    HW226526   5.179   6.788   6.361
 8543SOL     OW26527   5.190   6.176   6.578
 8543SOL    HW126528   5.160   6.081   6.585
 8543SOL    HW226529   5.263   6.192   6.644
 8544SOL     OW26530   5.581   6.419   5.963
 8544SOL    HW126531   5.623   6.355   6.027
 8544SOL    HW226532   5.543   6.368   5.885
 8545SOL     OW26533   5.388   6.866   6.243
 8545SOL    HW126534   5.487   6.874   6.257
 8545SOL    HW226535   5.343   6.950   6.274
 8546SOL     OW26536   5.114   6.161   5.664
 8546SOL    HW126537   5.060   6.140   5.745
 8546SOL    HW226538   5.205   6.120   5.673
 8547SOL     OW26539   4.251   5.842   5.914
 8547SOL    HW126540   4.278   5.783   5.839
 8547SOL    HW226541   4.251   5.937   5.883
 8548SOL     OW26542   5.478   6.809   7.174
 8548SOL    HW126543   5.569   6.770   7.161
 8548SOL    HW226544   5.486   6.905   7.198
 8549SOL     OW26545   4.788   6.933   6.926
 8549SOL    HW126546   4.708   6.910   6.981
 8549SOL    HW226547   4.871   6.907   6.975
 8550SOL     OW26548   4.835   6.781   6.686
 8550SOL    HW126549   4.795   6.825   6.767
 8550SOL    HW226550   4.794   6.818   6.603
 8551SOL     OW26551   5.362   6.685   6.665
 8551SOL    HW126552   5.367   6.766   6.724
 8551SOL    HW226553   5.276   6.687   6.614
 8552SOL     OW26554   4.429   6.636   5.954
 8552SOL    HW126555   4.415   6.643   6.053
 8552SOL    HW226556   4.513   6.585   5.936
 8553SOL     OW26557   4.134   6.399   6.837
 8553SOL    HW126558   4.220   6.411   6.887
 8553SOL    HW226559   4.092   6.312   6.864
 8554SOL     OW26560   4.998   5.972   6.848
 8554SOL    HW126561   5.019   6.046   6.912
 8554SOL    HW226562   4.909   5.989   6.805
 8555SOL     OW26563   4.091   6.686   6.087
 8555SOL    HW126564   4.084   6.769   6.031
 8555SOL    HW226565   4.095   6.606   6.027
 8556SOL     OW26566   4.290   6.123   6.451
 8556SOL    HW126567   4.302   6.189   6.377
 8556SOL    HW226568   4.336   6.157   6.534
 8557SOL     OW26569   5.306   6.225   6.058
 8557SOL    HW126570   5.275   6.286   6.131
 8557SOL    HW226571   5.356   6.277   5.989
 8558SOL     OW26572   4.297   6.456   6.615
 8558SOL    HW126573   4.341   6.545   6.606
 8558SOL    HW226574   4.234   6.456   6.692
 8559SOL     OW26575   5.084   6.448   6.631
 8559SOL    HW126576   5.009   6.448   6.565
 8559SOL    HW226577   5.121   6.356   6.640
 8560SOL     OW26578   4.933   6.111   5.861
 8560SOL    HW126579   4.946   6.027   5.915
 8560SOL    HW226580   4.904   6.185   5.921
 8561SOL     OW26581   4.031   5.799   6.817
 8561SOL    HW126582   4.008   5.836   6.907
 8561SOL    HW226583   4.001   5.704   6.811
 8562SOL     OW26584   3.761   6.896   6.868
 8562SOL    HW126585   3.814   6.847   6.936
 8562SOL    HW226586   3.783   6.994   6.873
 8563SOL     OW26587   4.456   6.220   6.650
 8563SOL    HW126588   4.515   6.194   6.574
 8563SOL    HW226589   4.428   6.316   6.639
 8564SOL     OW26590   4.031   5.649   6.204
 8564SOL    HW126591   4.020   5.743   6.237
 8564SOL    HW226592   4.026   5.586   6.281
 8565SOL     OW26593   5.346   5.953   5.960
 8565SOL    HW126594   5.348   5.877   6.024
 8565SOL    HW226595   5.298   6.030   6.000
 8566SOL     OW26596   4.747   6.352   6.552
 8566SOL    HW126597   4.762   6.373   6.648
 8566SOL    HW226598   4.717   6.257   6.543
 8567SOL     OW26599   5.264   5.860   5.711
 8567SOL    HW126600   5.203   5.785   5.734
 8567SOL    HW226601   5.286   5.912   5.794
 8568SOL     OW26602   5.027   6.424   5.628
 8568SOL    HW126603   5.061   6.331   5.643
 8568SOL    HW226604   5.045   6.451   5.533
 8569SOL     OW26605   4.043   6.396   6.535
 8569SOL    HW126606   4.136   6.432   6.540
 8569SOL    HW226607   4.037   6.311   6.587
 8570SOL     OW26608   4.063   6.095   6.592
 8570SOL    HW126609   4.011   6.012   6.575
 8570SOL    HW226610   4.140   6.100   6.528
 8571SOL     OW26611   4.884   5.793   7.063
 8571SOL    HW126612   4.884   5.857   7.140
 8571SOL    HW226613   4.912   5.841   6.980
 8572SOL     OW26614   3.732   6.912   5.786
 8572SOL    HW126615   3.639   6.933   5.755
 8572SOL    HW226616   3.742   6.813   5.799
 8573SOL     OW26617   4.726   6.382   6.824
 8573SOL    HW126618   4.767   6.350   6.910
 8573SOL    HW226619   4.630   6.355   6.821
 8574SOL     OW26620   3.764   6.130   6.700
 8574SOL    HW126621   3.849   6.097   6.659
 8574SOL    HW226622   3.777   6.145   6.798
 8575SOL     OW26623   4.539   6.158   5.911
 8575SOL    HW126624   4.546   6.069   5.865
 8575SOL    HW226625   4.445   6.192   5.903
 8576SOL     OW26626   5.381   6.190   6.792
 8576SOL    HW126627   5.343   6.121   6.854
 8576SOL    HW226628   5.463   6.154   6.748
 8577SOL     OW26629   4.395   6.050   6.855
 8577SOL    HW126630   4.361   5.961   6.825
 8577SOL    HW226631   4.421   6.104   6.775
 8578SOL     OW26632   4.197   6.086   5.777
 8578SOL    HW126633   4.258   6.166   5.781
 8578SOL    HW226634   4.102   6.117   5.784
 8579SOL     OW26635   3.883   6.723   7.052
 8579SOL    HW126636   3.905   6.662   7.128
 8579SOL    HW226637   3.893   6.674   6.966
 8580SOL     OW26638   5.071   6.645   6.820
 8580SOL    HW126639   5.095   6.582   6.746
 8580SOL    HW226640   4.981   6.685   6.802
 8581SOL     OW26641   5.026   6.441   5.895
 8581SOL    HW126642   4.940   6.410   5.937
 8581SOL    HW226643   5.022   6.427   5.796
 8582SOL     OW26644   3.807   6.844   6.608
 8582SOL    HW126645   3.802   6.843   6.708
 8582SOL    HW226646   3.724   6.803   6.570
 8583SOL     OW26647   5.450   5.721   6.109
 8583SOL    HW126648   5.523   5.704   6.042
 8583SOL    HW226649   5.419   5.634   6.147
 8584SOL     OW26650   5.004   6.513   6.258
 8584SOL    HW126651   5.064   6.432   6.260
 8584SOL    HW226652   5.044   6.582   6.198
 8585SOL     OW26653   4.554   6.859   7.008
 8585SOL    HW126654   4.549   6.892   7.103
 8585SOL    HW226655   4.468   6.878   6.962
 8586SOL     OW26656   5.565   5.761   6.549
 8586SOL    HW126657   5.604   5.676   6.513
 8586SOL    HW226658   5.467   5.763   6.530
 8587SOL     OW26659   3.987   5.912   6.306
 8587SOL    HW126660   3.908   5.963   6.272
 8587SOL    HW226661   3.978   5.897   6.404
 8588SOL     OW26662   4.918   7.198   5.617
 8588SOL    HW126663   4.924   7.105   5.654
 8588SOL    HW226664   4.859   7.198   5.537
 8589SOL     OW26665   4.546   6.588   6.958
 8589SOL    HW126666   4.586   6.587   6.866
 8589SOL    HW226667   4.556   6.680   6.998
 8590SOL     OW26668   4.640   6.496   5.877
 8590SOL    HW126669   4.703   6.534   5.809
 8590SOL    HW226670   4.680   6.413   5.916
 8591SOL     OW26671   4.096   6.874   7.076
 8591SOL    HW126672   4.083   6.967   7.042
 8591SOL    HW226673   4.012   6.822   7.063
 8592SOL     OW26674   5.338   6.878   6.875
 8592SOL    HW126675   5.398   6.881   6.955
 8592SOL    HW226676   5.263   6.942   6.888
 8593SOL     OW26677   4.763   6.684   6.282
 8593SOL    HW126678   4.693   6.637   6.336
 8593SOL    HW226679   4.822   6.616   6.239
 8594SOL     OW26680   4.738   5.822   6.557
 8594SOL    HW126681   4.730   5.786   6.464
 8594SOL    HW226682   4.736   5.746   6.622
 8595SOL     OW26683   5.433   5.971   6.967
 8595SOL    HW126684   5.506   6.040   6.971
 8595SOL    HW226685   5.461   5.896   6.908
 8596SOL     OW26686   4.396   5.789   7.075
 8596SOL    HW126687   4.486   5.773   7.035
 8596SOL    HW226688   4.404   5.794   7.174
 8597SOL     OW26689   3.799   5.931   5.619
 8597SOL    HW126690   3.707   5.903   5.590
 8597SOL    HW226691   3.830   6.008   5.563
 8598SOL     OW26692   3.796   5.752   5.904
 8598SOL    HW126693   3.779   5.835   5.850
 8598SOL    HW226694   3.886   5.715   5.882
 8599SOL     OW26695   5.174   6.806   7.219
 8599SOL    HW126696   5.165   6.796   7.318
 8599SOL    HW226697   5.270   6.799   7.193
 8600SOL     OW26698   5.398   6.469   6.840
 8600SOL    HW126699   5.371   6.380   6.803
 8600SOL    HW226700   5.399   6.537   6.767
 8601SOL     OW26701   4.949   5.911   6.035
 8601SOL    HW126702   5.014   5.837   6.024
 8601SOL    HW226703   4.969   5.961   6.119
 8602SOL     OW26704   4.318   6.331   6.238
 8602SOL    HW126705   4.368   6.416   6.219
 8602SOL    HW226706   4.230   6.333   6.190
 8603SOL     OW26707   5.454   6.520   7.103
 8603SOL    HW126708   5.492   6.611   7.118
 8603SOL    HW226709   5.446   6.503   7.004
 8604SOL     OW26710   4.583   6.542   6.447
 8604SOL    HW126711   4.637   6.473   6.495
 8604SOL    HW226712   4.551   6.611   6.513
 8605SOL     OW26713   4.807   6.570   5.673
 8605SOL    HW126714   4.784   6.623   5.591
 8605SOL    HW226715   4.888   6.514   5.654
 8606SOL     OW26716   3.803   6.826   6.239
 8606SOL    HW126717   3.802   6.779   6.327
 8606SOL    HW226718   3.885   6.798   6.188
 8607SOL     OW26719   5.548   5.778   6.813
 8607SOL    HW126720   5.544   5.688   6.857
 8607SOL    HW226721   5.551   5.767   6.714
 8608SOL     OW26722   4.152   6.010   6.106
 8608SOL    HW126723   4.182   5.938   6.044
 8608SOL    HW226724   4.113   5.970   6.189
 8609SOL     OW26725   5.429   7.073   6.690
 8609SOL    HW126726   5.336   7.048   6.663
 8609SOL    HW226727   5.455   7.023   6.772
 8610SOL     OW26728   4.041   6.133   6.866
 8610SOL    HW126729   4.079   6.074   6.938
 8610SOL    HW226730   4.081   6.107   6.778
 8611SOL     OW26731   5.148   5.800   6.698
 8611SOL    HW126732   5.200   5.735   6.753
 8611SOL    HW226733   5.099   5.863   6.759
 8612SOL     OW26734   4.725   5.620   6.740
 8612SOL    HW126735   4.662   5.548   6.709
 8612SOL    HW226736   4.818   5.584   6.740
 8613SOL     OW26737   4.494   6.916   5.887
 8613SOL    HW126738   4.448   6.829   5.904
 8613SOL    HW226739   4.585   6.913   5.928
 8614SOL     OW26740   5.076   5.638   5.754
 8614SOL    HW126741   5.111   5.597   5.670
 8614SOL    HW226742   4.986   5.600   5.774
 8615SOL     OW26743   5.024   6.039   6.277
 8615SOL    HW126744   4.965   6.119   6.281
 8615SOL    HW226745   5.039   6.004   6.370
 8616SOL     OW26746   5.317   5.807   6.468
 8616SOL    HW126747   5.233   5.806   6.522
 8616SOL    HW226748   5.319   5.890   6.412
 8617SOL     OW26749   3.763   6.663   5.886
 8617SOL    HW126750   3.862   6.652   5.877
 8617SOL    HW226751   3.723   6.577   5.918
 8618SOL     OW26752   5.816   0.628   0.113
 8618SOL    HW126753   5.723   0.626   0.150
 8618SOL    HW226754   5.817   0.589   0.021
 8619SOL     OW26755   5.811   0.275   0.996
 8619SOL    HW126756   5.846   0.258   1.088
 8619SOL    HW226757   5.723   0.230   0.984
 8620SOL     OW26758   5.605   0.368   0.647
 8620SOL    HW126759   5.523   0.411   0.686
 8620SOL    HW226760   5.577   0.295   0.584
 8621SOL     OW26761   6.155   1.275   1.165
 8621SOL    HW126762   6.062   1.268   1.128
 8621SOL    HW226763   6.166   1.364   1.209
 8622SOL     OW26764   7.141   1.511   0.703
 8622SOL    HW126765   7.084   1.495   0.784
 8622SOL    HW226766   7.082   1.521   0.623
 8623SOL     OW26767   6.721   0.703   0.717
 8623SOL    HW126768   6.778   0.781   0.692
 8623SOL    HW226769   6.661   0.729   0.793
 8624SOL     OW26770   6.354   1.144   1.023
 8624SOL    HW126771   6.276   1.161   1.083
 8624SOL    HW226772   6.388   1.231   0.987
 8625SOL     OW26773   6.436   0.798   1.823
 8625SOL    HW126774   6.432   0.874   1.888
 8625SOL    HW226775   6.458   0.834   1.732
 8626SOL     OW26776   6.271   1.012   0.665
 8626SOL    HW126777   6.340   0.996   0.735
 8626SOL    HW226778   6.198   1.069   0.703
 8627SOL     OW26779   6.272   1.161   1.803
 8627SOL    HW126780   6.332   1.240   1.817
 8627SOL    HW226781   6.186   1.192   1.762
 8628SOL     OW26782   5.921   1.435   1.061
 8628SOL    HW126783   5.843   1.404   1.008
 8628SOL    HW226784   5.979   1.493   1.004
 8629SOL     OW26785   6.024   0.392   1.499
 8629SOL    HW126786   6.106   0.336   1.508
 8629SOL    HW226787   5.943   0.334   1.503
 8630SOL     OW26788   5.817   1.713   0.483
 8630SOL    HW126789   5.851   1.790   0.537
 8630SOL    HW226790   5.861   1.713   0.393
 8631SOL     OW26791   6.713   1.341   1.690
 8631SOL    HW126792   6.760   1.341   1.778
 8631SOL    HW226793   6.665   1.254   1.679
 8632SOL     OW26794   5.816   1.434   0.538
 8632SOL    HW126795   5.790   1.530   0.538
 8632SOL    HW226796   5.745   1.380   0.583
 8633SOL     OW26797   5.826   1.091   0.886
 8633SOL    HW126798   5.840   1.007   0.938
 8633SOL    HW226799   5.771   1.155   0.941
 8634SOL     OW26800   6.206   1.786   1.439
 8634SOL    HW126801   6.114   1.769   1.474
 8634SOL    HW226802   6.234   1.878   1.465
 8635SOL     OW26803   6.192   0.964   0.123
 8635SOL    HW126804   6.199   1.048   0.069
 8635SOL    HW226805   6.238   0.977   0.211
 8636SOL     OW26806   5.708   0.643   0.563
 8636SOL    HW126807   5.663   0.555   0.580
 8636SOL    HW226808   5.707   0.697   0.647
 8637SOL     OW26809   5.613   1.596   0.117
 8637SOL    HW126810   5.594   1.500   0.138
 8637SOL    HW226811   5.580   1.654   0.192
 8638SOL     OW26812   5.699   0.737   1.597
 8638SOL    HW126813   5.787   0.724   1.642
 8638SOL    HW226814   5.686   0.834   1.575
 8639SOL     OW26815   6.199   1.365   0.726
 8639SOL    HW126816   6.150   1.278   0.735
 8639SOL    HW226817   6.176   1.408   0.639
 8640SOL     OW26818   6.879   1.228   1.423
 8640SOL    HW126819   6.916   1.155   1.365
 8640SOL    HW226820   6.931   1.233   1.508
 8641SOL     OW26821   6.395   0.004   0.502
 8641SOL    HW126822   6.435   0.095   0.493
 8641SOL    HW226823   6.295   0.012   0.508
 8642SOL     OW26824   5.783   0.976   1.264
 8642SOL    HW126825   5.872   0.931   1.250
 8642SOL    HW226826   5.710   0.911   1.245
 8643SOL     OW26827   6.773   1.792   1.616
 8643SOL    HW126828   6.797   1.852   1.540
 8643SOL    HW226829   6.780   1.697   1.586
 8644SOL     OW26830   5.903   0.251   1.801
 8644SOL    HW126831   5.974   0.322   1.807
 8644SOL    HW226832   5.815   0.290   1.829
 8645SOL     OW26833   6.184   0.729   0.270
 8645SOL    HW126834   6.208   0.798   0.202
 8645SOL    HW226835   6.106   0.762   0.324
 8646SOL     OW26836   6.867   0.345   0.944
 8646SOL    HW126837   6.781   0.295   0.931
 8646SOL    HW226838   6.929   0.291   1.000
 8647SOL     OW26839   6.393   0.605   1.465
 8647SOL    HW126840   6.346   0.602   1.554
 8647SOL    HW226841   6.342   0.550   1.399
 8648SOL     OW26842   6.980   0.469   1.674
 8648SOL    HW126843   6.960   0.512   1.762
 8648SOL    HW226844   7.058   0.407   1.683
 8649SOL     OW26845   6.559   0.890   1.572
 8649SOL    HW126846   6.605   0.806   1.543
 8649SOL    HW226847   6.503   0.924   1.497
 8650SOL     OW26848   6.577   0.410   1.242
 8650SOL    HW126849   6.500   0.444   1.296
 8650SOL    HW226850   6.543   0.359   1.163
 8651SOL     OW26851   6.627   0.701   0.429
 8651SOL    HW126852   6.653   0.697   0.525
 8651SOL    HW226853   6.542   0.650   0.415
 8652SOL     OW26854   5.662   0.811   0.789
 8652SOL    HW126855   5.761   0.799   0.798
 8652SOL    HW226856   5.638   0.906   0.810
 8653SOL     OW26857   5.716   1.821   1.571
 8653SOL    HW126858   5.706   1.806   1.670
 8653SOL    HW226859   5.630   1.857   1.535
 8654SOL     OW26860   6.451   0.348   0.195
 8654SOL    HW126861   6.510   0.411   0.146
 8654SOL    HW226862   6.470   0.254   0.166
 8655SOL     OW26863   6.948   1.144   0.545
 8655SOL    HW126864   7.031   1.115   0.497
 8655SOL    HW226865   6.899   1.211   0.489
 8656SOL     OW26866   6.136   0.196   0.885
 8656SOL    HW126867   6.131   0.191   0.985
 8656SOL    HW226868   6.138   0.292   0.856
 8657SOL     OW26869   6.594   1.456   0.477
 8657SOL    HW126870   6.548   1.528   0.425
 8657SOL    HW226871   6.590   1.476   0.575
 8658SOL     OW26872   5.937   1.801   0.853
 8658SOL    HW126873   5.987   1.715   0.859
 8658SOL    HW226874   6.002   1.878   0.850
 8659SOL     OW26875   6.813   1.550   1.506
 8659SOL    HW126876   6.819   1.473   1.570
 8659SOL    HW226877   6.761   1.524   1.426
 8660SOL     OW26878   5.907   0.943   0.242
 8660SOL    HW126879   5.989   0.982   0.200
 8660SOL    HW226880   5.880   0.861   0.193
 8661SOL     OW26881   6.047   1.266   1.727
 8661SOL    HW126882   5.997   1.267   1.641
 8661SOL    HW226883   5.984   1.248   1.803
 8662SOL     OW26884   6.697   1.776   0.237
 8662SOL    HW126885   6.637   1.714   0.287
 8662SOL    HW226886   6.728   1.732   0.152
 8663SOL     OW26887   5.788   0.285   1.498
 8663SOL    HW126888   5.708   0.345   1.485
 8663SOL    HW226889   5.778   0.236   1.584
 8664SOL     OW26890   7.218   1.377   0.081
 8664SOL    HW126891   7.186   1.471   0.071
 8664SOL    HW226892   7.142   1.314   0.069
 8665SOL     OW26893   6.050   1.743   0.323
 8665SOL    HW126894   6.083   1.782   0.409
 8665SOL    HW226895   6.126   1.736   0.258
 8666SOL     OW26896   5.835   1.785   1.241
 8666SOL    HW126897   5.892   1.720   1.291
 8666SOL    HW226898   5.819   1.752   1.148
 8667SOL     OW26899   6.526   1.698   0.904
 8667SOL    HW126900   6.606   1.641   0.925
 8667SOL    HW226901   6.477   1.658   0.827
 8668SOL     OW26902   5.968   0.700   0.480
 8668SOL    HW126903   6.013   0.610   0.477
 8668SOL    HW226904   5.874   0.689   0.513
 8669SOL     OW26905   6.200   0.122   0.117
 8669SOL    HW126906   6.298   0.100   0.124
 8669SOL    HW226907   6.169   0.105   0.024
 8670SOL     OW26908   6.367   0.264   1.749
 8670SOL    HW126909   6.434   0.203   1.792
 8670SOL    HW226910   6.294   0.283   1.814
 8671SOL     OW26911   6.474   1.514   1.195
 8671SOL    HW126912   6.451   1.489   1.101
 8671SOL    HW226913   6.535   1.445   1.234
 8672SOL     OW26914   6.389   1.402   0.924
 8672SOL    HW126915   6.479   1.416   0.882
 8672SOL    HW226916   6.318   1.404   0.853
 8673SOL     OW26917   6.508   0.503   0.899
 8673SOL    HW126918   6.483   0.494   0.803
 8673SOL    HW226919   6.556   0.421   0.930
 8674SOL     OW26920   6.125   0.064   0.512
 8674SOL    HW126921   6.044   0.065   0.570
 8674SOL    HW226922   6.128   0.147   0.457
 8675SOL     OW26923   5.883   0.035   0.171
 8675SOL    HW126924   5.932   0.119   0.150
 8675SOL    HW226925   5.945  -0.030   0.216
 8676SOL     OW26926   6.521   0.236   0.480
 8676SOL    HW126927   6.473   0.277   0.402
 8676SOL    HW226928   6.620   0.234   0.461
 8677SOL     OW26929   6.662   0.683   1.464
 8677SOL    HW126930   6.582   0.622   1.467
 8677SOL    HW226931   6.743   0.630   1.440
 8678SOL     OW26932   6.813   1.570   0.793
 8678SOL    HW126933   6.834   1.644   0.728
 8678SOL    HW226934   6.881   1.570   0.866
 8679SOL     OW26935   6.045   1.152   0.741
 8679SOL    HW126936   5.974   1.125   0.806
 8679SOL    HW226937   6.019   1.124   0.648
 8680SOL     OW26938   6.857   1.797   0.591
 8680SOL    HW126939   6.901   1.861   0.527
 8680SOL    HW226940   6.807   1.849   0.661
 8681SOL     OW26941   6.618   0.549   0.016
 8681SOL    HW126942   6.577   0.631  -0.023
 8681SOL    HW226943   6.682   0.575   0.089
 8682SOL     OW26944   5.664   0.556   1.386
 8682SOL    HW126945   5.756   0.555   1.345
 8682SOL    HW226946   5.658   0.630   1.453
 8683SOL     OW26947   6.147   0.222   1.147
 8683SOL    HW126948   6.185   0.138   1.184
 8683SOL    HW226949   6.059   0.241   1.191
 8684SOL     OW26950   6.452   0.454   0.642
 8684SOL    HW126951   6.420   0.526   0.580
 8684SOL    HW226952   6.476   0.373   0.589
 8685SOL     OW26953   6.603   0.039   0.753
 8685SOL    HW126954   6.531   0.044   0.684
 8685SOL    HW226955   6.579  -0.030   0.822
 8686SOL     OW26956   6.074   1.385   0.174
 8686SOL    HW126957   5.987   1.370   0.221
 8686SOL    HW226958   6.057   1.411   0.079
 8687SOL     OW26959   6.113   0.256   0.328
 8687SOL    HW126960   6.140   0.197   0.253
 8687SOL    HW226961   6.113   0.351   0.297
 8688SOL     OW26962   6.650   1.347   1.340
 8688SOL    HW126963   6.570   1.324   1.395
 8688SOL    HW226964   6.733   1.321   1.389
 8689SOL     OW26965   6.697   1.195   1.100
 8689SOL    HW126966   6.657   1.239   1.181
 8689SOL    HW226967   6.656   1.232   1.017
 8690SOL     OW26968   6.501   0.089   1.402
 8690SOL    HW126969   6.526   0.069   1.307
 8690SOL    HW226970   6.573   0.145   1.444
 8691SOL     OW26971   6.566   1.116   1.719
 8691SOL    HW126972   6.467   1.122   1.729
 8691SOL    HW226973   6.589   1.036   1.663
 8692SOL     OW26974   6.291   1.050   0.368
 8692SOL    HW126975   6.277   1.057   0.467
 8692SOL    HW226976   6.375   0.999   0.350
 8693SOL     OW26977   5.996   0.813   1.251
 8693SOL    HW126978   6.082   0.825   1.301
 8693SOL    HW226979   5.954   0.726   1.278
 8694SOL     OW26980   6.860   0.386   1.262
 8694SOL    HW126981   6.881   0.460   1.326
 8694SOL    HW226982   6.771   0.403   1.219
 8695SOL     OW26983   5.650   1.564   1.331
 8695SOL    HW126984   5.604   1.646   1.297
 8695SOL    HW226985   5.748   1.583   1.340
 8696SOL     OW26986   5.953   1.100   0.501
 8696SOL    HW126987   5.946   1.183   0.445
 8696SOL    HW226988   5.957   1.020   0.441
 8697SOL     OW26989   6.152   0.537   0.865
 8697SOL    HW126990   6.164   0.603   0.791
 8697SOL    HW226991   6.198   0.571   0.948
 8698SOL     OW26992   6.838   1.348   0.388
 8698SOL    HW126993   6.888   1.425   0.428
 8698SOL    HW226994   6.743   1.350   0.420
 8699SOL     OW26995   6.858   1.445   1.142
 8699SOL    HW126996   6.905   1.458   1.229
 8699SOL    HW226997   6.792   1.371   1.151
 8700SOL     OW26998   5.940   1.510   1.329
 8700SOL    HW126999   5.919   1.466   1.242
 8700SOL    HW227000   6.037   1.536   1.332
 8701SOL     OW27001   5.988   0.751   1.598
 8701SOL    HW127002   6.056   0.806   1.551
 8701SOL    HW227003   6.028   0.663   1.625
 8702SOL     OW27004   6.599   0.105   1.770
 8702SOL    HW127005   6.605   0.190   1.718
 8702SOL    HW227006   6.631   0.029   1.713
 8703SOL     OW27007   6.090   0.050   1.740
 8703SOL    HW127008   6.048  -0.007   1.670
 8703SOL    HW227009   6.024   0.119   1.772
 8704SOL     OW27010   6.159   0.870   1.029
 8704SOL    HW127011   6.203   0.959   1.020
 8704SOL    HW227012   6.096   0.870   1.106
 8705SOL     OW27013   6.946   0.862   1.045
 8705SOL    HW127014   6.871   0.862   0.979
 8705SOL    HW227015   6.983   0.770   1.054
 8706SOL     OW27016   6.795   0.525   0.275
 8706SOL    HW127017   6.808   0.441   0.329
 8706SOL    HW227018   6.766   0.599   0.335
 8707SOL     OW27019   5.893   0.213   1.231
 8707SOL    HW127020   5.870   0.250   1.321
 8707SOL    HW227021   5.863   0.118   1.225
 8708SOL     OW27022   5.623   1.310   1.282
 8708SOL    HW127023   5.676   1.261   1.350
 8708SOL    HW227024   5.645   1.408   1.287
 8709SOL     OW27025   6.318   0.634   1.064
 8709SOL    HW127026   6.377   0.608   0.988
 8709SOL    HW227027   6.290   0.730   1.053
 8710SOL     OW27028   5.893   0.063   0.618
 8710SOL    HW127029   5.882   0.157   0.651
 8710SOL    HW227030   5.888   0.000   0.695
 8711SOL     OW27031   7.208   0.367   0.374
 8711SOL    HW127032   7.210   0.291   0.438
 8711SOL    HW227033   7.160   0.444   0.414
 8712SOL     OW27034   6.609   0.766   0.966
 8712SOL    HW127035   6.624   0.787   1.062
 8712SOL    HW227036   6.579   0.671   0.957
 8713SOL     OW27037   6.566   1.573   1.700
 8713SOL    HW127038   6.546   1.617   1.612
 8713SOL    HW227039   6.605   1.482   1.684
 8714SOL     OW27040   5.936   0.898   1.804
 8714SOL    HW127041   6.012   0.942   1.852
 8714SOL    HW227042   5.971   0.851   1.722
 8715SOL     OW27043   6.889   0.838   0.042
 8715SOL    HW127044   6.923   0.745   0.057
 8715SOL    HW227045   6.907   0.865  -0.053
 8716SOL     OW27046   6.654   1.333   0.849
 8716SOL    HW127047   6.661   1.249   0.794
 8716SOL    HW227048   6.716   1.402   0.813
 8717SOL     OW27049   5.905   0.810   0.949
 8717SOL    HW127050   5.998   0.846   0.954
 8717SOL    HW227051   5.899   0.725   1.001
 8718SOL     OW27052   5.925   0.509   1.006
 8718SOL    HW127053   5.873   0.426   0.989
 8718SOL    HW227054   6.002   0.514   0.942
 8719SOL     OW27055   6.724   0.380   1.678
 8719SOL    HW127056   6.679   0.443   1.742
 8719SOL    HW227057   6.817   0.411   1.661
 8720SOL     OW27058   6.746   0.207   1.477
 8720SOL    HW127059   6.746   0.271   1.554
 8720SOL    HW227060   6.774   0.255   1.394
 8721SOL     OW27061   5.674   1.801   0.927
 8721SOL    HW127062   5.632   1.715   0.900
 8721SOL    HW227063   5.768   1.804   0.893
 8722SOL     OW27064   6.090   1.568   0.910
 8722SOL    HW127065   6.156   1.642   0.919
 8722SOL    HW227066   6.134   1.489   0.868
 8723SOL     OW27067   6.588   0.796   1.238
 8723SOL    HW127068   6.629   0.764   1.324
 8723SOL    HW227069   6.492   0.769   1.235
 8724SOL     OW27070   5.626   0.544   1.114
 8724SOL    HW127071   5.711   0.511   1.073
 8724SOL    HW227072   5.639   0.559   1.212
 8725SOL     OW27073   5.775   0.520   1.722
 8725SOL    HW127074   5.834   0.480   1.652
 8725SOL    HW227075   5.717   0.591   1.681
 8726SOL     OW27076   6.401   0.572   0.325
 8726SOL    HW127077   6.408   0.483   0.279
 8726SOL    HW227078   6.307   0.606   0.317
 8727SOL     OW27079   5.838   1.564   1.744
 8727SOL    HW127080   5.808   1.621   1.820
 8727SOL    HW227081   5.831   1.467   1.770
 8728SOL     OW27082   6.257   0.464   1.269
 8728SOL    HW127083   6.223   0.375   1.239
 8728SOL    HW227084   6.283   0.518   1.189
 8729SOL     OW27085   6.516   1.678   1.465
 8729SOL    HW127086   6.492   1.660   1.370
 8729SOL    HW227087   6.546   1.772   1.475
 8730SOL     OW27088   6.059   0.500   0.191
 8730SOL    HW127089   6.120   0.580   0.195
 8730SOL    HW227090   5.964   0.531   0.198
 8731SOL     OW27091   5.745   1.137   1.466
 8731SOL    HW127092   5.767   1.076   1.542
 8731SOL    HW227093   5.755   1.088   1.380
 8732SOL     OW27094   6.933   1.059   1.234
 8732SOL    HW127095   6.957   0.996   1.160
 8732SOL    HW227096   6.843   1.099   1.216
 8733SOL     OW27097   6.888   0.855   0.309
 8733SOL    HW127098   6.802   0.824   0.351
 8733SOL    HW227099   6.884   0.841   0.210
 8734SOL     OW27100   6.838   1.731   1.128
 8734SOL    HW127101   6.922   1.736   1.074
 8734SOL    HW227102   6.815   1.635   1.146
 8735SOL     OW27103   5.669   1.258   1.022
 8735SOL    HW127104   5.664   1.257   1.122
 8735SOL    HW227105   5.586   1.217   0.984
 8736SOL     OW27106   6.274   1.662   1.716
 8736SOL    HW127107   6.218   1.743   1.725
 8736SOL    HW227108   6.326   1.666   1.630
 8737SOL     OW27109   6.489   0.086   0.133
 8737SOL    HW127110   6.540   0.087   0.047
 8737SOL    HW227111   6.545   0.044   0.204
 8738SOL     OW27112   6.974   1.573   0.477
 8738SOL    HW127113   7.041   1.585   0.403
 8738SOL    HW227114   6.934   1.662   0.500
 8739SOL     OW27115   5.716   1.794   1.851
 8739SOL    HW127116   5.675   1.720   1.904
 8739SOL    HW227117   5.780   1.845   1.909
 8740SOL     OW27118   6.866   0.927   0.672
 8740SOL    HW127119   6.926   0.846   0.674
 8740SOL    HW227120   6.906   0.996   0.612
 8741SOL     OW27121   6.416   1.273   1.422
 8741SOL    HW127122   6.411   1.306   1.517
 8741SOL    HW227123   6.330   1.292   1.376
 8742SOL     OW27124   6.258   1.616   0.154
 8742SOL    HW127125   6.267   1.626   0.055
 8742SOL    HW227126   6.218   1.527   0.175
 8743SOL     OW27127   5.849   0.326   0.720
 8743SOL    HW127128   5.770   0.377   0.686
 8743SOL    HW227129   5.840   0.311   0.818
 8744SOL     OW27130   6.780   1.612   0.031
 8744SOL    HW127131   6.786   1.519   0.068
 8744SOL    HW227132   6.721   1.612  -0.049
 8745SOL     OW27133   6.408   1.002   1.372
 8745SOL    HW127134   6.448   1.001   1.280
 8745SOL    HW227135   6.418   1.094   1.412
 8746SOL     OW27136   6.502   0.910   0.291
 8746SOL    HW127137   6.565   0.948   0.223
 8746SOL    HW227138   6.542   0.827   0.330
 8747SOL     OW27139   5.958   1.288   1.490
 8747SOL    HW127140   5.945   1.381   1.456
 8747SOL    HW227141   5.874   1.236   1.477
 8748SOL     OW27142   6.625   1.098   0.696
 8748SOL    HW127143   6.555   1.051   0.750
 8748SOL    HW227144   6.684   1.030   0.653
 8749SOL     OW27145   6.600   0.236   0.971
 8749SOL    HW127146   6.592   0.200   0.878
 8749SOL    HW227147   6.598   0.160   1.036
 8750SOL     OW27148   6.176   1.487   0.491
 8750SOL    HW127149   6.218   1.429   0.421
 8750SOL    HW227150   6.132   1.566   0.447
 8751SOL     OW27151   5.841   1.348   0.290
 8751SOL    HW127152   5.745   1.349   0.263
 8751SOL    HW227153   5.853   1.401   0.374
 8752SOL     OW27154   5.691   1.013   1.726
 8752SOL    HW127155   5.614   0.980   1.780
 8752SOL    HW227156   5.776   0.983   1.768
 8753SOL     OW27157   6.258   0.203   1.489
 8753SOL    HW127158   6.348   0.187   1.449
 8753SOL    HW227159   6.266   0.208   1.588
 8754SOL     OW27160   5.661   0.345   0.033
 8754SOL    HW127161   5.569   0.317   0.004
 8754SOL    HW227162   5.692   0.422  -0.023
 8755SOL     OW27163   5.658   0.166   0.318
 8755SOL    HW127164   5.641   0.249   0.264
 8755SOL    HW227165   5.748   0.129   0.296
 8756SOL     OW27166   6.199   0.842   1.431
 8756SOL    HW127167   6.255   0.923   1.414
 8756SOL    HW227168   6.258   0.762   1.434
 8757SOL     OW27169   6.302   0.565   1.708
 8757SOL    HW127170   6.321   0.630   1.782
 8757SOL    HW227171   6.362   0.485   1.717
 8758SOL     OW27172   7.036   1.220   1.633
 8758SOL    HW127173   7.027   1.210   1.732
 8758SOL    HW227174   7.132   1.213   1.607
 8759SOL     OW27175   5.976   1.741   1.560
 8759SOL    HW127176   5.885   1.782   1.558
 8759SOL    HW227177   5.969   1.647   1.592
 8760SOL     OW27178   6.811   0.325   0.449
 8760SOL    HW127179   6.876   0.251   0.438
 8760SOL    HW227180   6.831   0.375   0.533
 8761SOL     OW27181   6.180   0.745   0.652
 8761SOL    HW127182   6.230   0.830   0.633
 8761SOL    HW227183   6.092   0.747   0.604
 8762SOL     OW27184   6.445   1.374   0.016
 8762SOL    HW127185   6.399   1.389   0.104
 8762SOL    HW227186   6.489   1.459  -0.014
 8763SOL     OW27187   6.247   1.790   0.953
 8763SOL    HW127188   6.201   1.878   0.940
 8763SOL    HW227189   6.346   1.802   0.946
 8764SOL     OW27190   6.445   0.956   0.861
 8764SOL    HW127191   6.499   0.887   0.909
 8764SOL    HW227192   6.413   1.025   0.927
 8765SOL     OW27193   6.669   0.984   0.087
 8765SOL    HW127194   6.646   1.037   0.005
 8765SOL    HW227195   6.750   0.928   0.068
 8766SOL     OW27196   5.807   1.314   1.844
 8766SOL    HW127197   5.742   1.241   1.823
 8766SOL    HW227198   5.811   1.328   1.942
 8767SOL     OW27199   5.665   1.240   0.653
 8767SOL    HW127200   5.664   1.193   0.741
 8767SOL    HW227201   5.747   1.212   0.602
 8768SOL     OW27202   6.258   1.391   1.624
 8768SOL    HW127203   6.180   1.341   1.662
 8768SOL    HW227204   6.255   1.486   1.655
 8769SOL     OW27205   6.014   0.424   0.520
 8769SOL    HW127206   6.044   0.352   0.458
 8769SOL    HW227207   5.975   0.384   0.603
 8770SOL     OW27208   5.903   0.547   1.280
 8770SOL    HW127209   5.941   0.488   1.352
 8770SOL    HW227210   5.943   0.521   1.192
 8771SOL     OW27211   6.398   1.586   0.687
 8771SOL    HW127212   6.430   1.596   0.593
 8771SOL    HW227213   6.319   1.524   0.689
 8772SOL     OW27214   7.010   0.214   1.112
 8772SOL    HW127215   7.062   0.149   1.167
 8772SOL    HW227216   6.961   0.277   1.173
 8773SOL     OW27217   6.587   0.034   1.154
 8773SOL    HW127218   6.524  -0.038   1.123
 8773SOL    HW227219   6.680  -0.002   1.154
 8774SOL     OW27220   6.356   1.330   0.301
 8774SOL    HW127221   6.310   1.243   0.318
 8774SOL    HW227222   6.447   1.327   0.342
 8775SOL     OW27223   6.204   1.567   1.284
 8775SOL    HW127224   6.199   1.649   1.341
 8775SOL    HW227225   6.293   1.564   1.239
 8776SOL     OW27226   5.625   1.077   0.300
 8776SOL    HW127227   5.724   1.066   0.291
 8776SOL    HW227228   5.585   0.991   0.332
 8777SOL     OW27229   6.461   1.646   0.337
 8777SOL    HW127230   6.384   1.611   0.283
 8777SOL    HW227231   6.429   1.717   0.399
 8778SOL     OW27232   5.816   0.628   1.975
 8778SOL    HW127233   5.723   0.626   2.012
 8778SOL    HW227234   5.817   0.589   1.883
 8779SOL     OW27235   5.811   0.275   2.858
 8779SOL    HW127236   5.846   0.258   2.950
 8779SOL    HW227237   5.723   0.230   2.846
 8780SOL     OW27238   5.605   0.368   2.509
 8780SOL    HW127239   5.523   0.411   2.548
 8780SOL    HW227240   5.577   0.295   2.446
 8781SOL     OW27241   6.155   1.275   3.027
 8781SOL    HW127242   6.062   1.268   2.990
 8781SOL    HW227243   6.166   1.364   3.071
 8782SOL     OW27244   7.141   1.511   2.565
 8782SOL    HW127245   7.084   1.495   2.646
 8782SOL    HW227246   7.082   1.521   2.485
 8783SOL     OW27247   6.721   0.703   2.579
 8783SOL    HW127248   6.778   0.781   2.554
 8783SOL    HW227249   6.661   0.729   2.655
 8784SOL     OW27250   6.354   1.144   2.885
 8784SOL    HW127251   6.276   1.161   2.945
 8784SOL    HW227252   6.388   1.231   2.849
 8785SOL     OW27253   6.436   0.798   3.685
 8785SOL    HW127254   6.432   0.874   3.750
 8785SOL    HW227255   6.458   0.834   3.594
 8786SOL     OW27256   6.271   1.012   2.527
 8786SOL    HW127257   6.340   0.996   2.597
 8786SOL    HW227258   6.198   1.069   2.565
 8787SOL     OW27259   6.272   1.161   3.665
 8787SOL    HW127260   6.332   1.240   3.679
 8787SOL    HW227261   6.186   1.192   3.624
 8788SOL     OW27262   5.921   1.435   2.923
 8788SOL    HW127263   5.843   1.404   2.870
 8788SOL    HW227264   5.979   1.493   2.866
 8789SOL     OW27265   6.024   0.392   3.361
 8789SOL    HW127266   6.106   0.336   3.370
 8789SOL    HW227267   5.943   0.334   3.365
 8790SOL     OW27268   5.817   1.713   2.345
 8790SOL    HW127269   5.851   1.790   2.399
 8790SOL    HW227270   5.861   1.713   2.255
 8791SOL     OW27271   6.713   1.341   3.552
 8791SOL    HW127272   6.760   1.341   3.640
 8791SOL    HW227273   6.665   1.254   3.541
 8792SOL     OW27274   5.816   1.434   2.400
 8792SOL    HW127275   5.790   1.530   2.400
 8792SOL    HW227276   5.745   1.380   2.445
 8793SOL     OW27277   5.826   1.091   2.748
 8793SOL    HW127278   5.840   1.007   2.800
 8793SOL    HW227279   5.771   1.155   2.803
 8794SOL     OW27280   6.206   1.786   3.301
 8794SOL    HW127281   6.114   1.769   3.336
 8794SOL    HW227282   6.234   1.878   3.327
 8795SOL     OW27283   6.192   0.964   1.985
 8795SOL    HW127284   6.199   1.048   1.931
 8795SOL    HW227285   6.238   0.977   2.073
 8796SOL     OW27286   5.708   0.643   2.425
 8796SOL    HW127287   5.663   0.555   2.442
 8796SOL    HW227288   5.707   0.697   2.509
 8797SOL     OW27289   5.613   1.596   1.979
 8797SOL    HW127290   5.594   1.500   2.000
 8797SOL    HW227291   5.580   1.654   2.054
 8798SOL     OW27292   5.699   0.737   3.459
 8798SOL    HW127293   5.787   0.724   3.504
 8798SOL    HW227294   5.686   0.834   3.437
 8799SOL     OW27295   6.199   1.365   2.588
 8799SOL    HW127296   6.150   1.278   2.597
 8799SOL    HW227297   6.176   1.408   2.501
 8800SOL     OW27298   6.879   1.228   3.285
 8800SOL    HW127299   6.916   1.155   3.227
 8800SOL    HW227300   6.931   1.233   3.370
 8801SOL     OW27301   6.395   0.004   2.364
 8801SOL    HW127302   6.435   0.095   2.355
 8801SOL    HW227303   6.295   0.012   2.370
 8802SOL     OW27304   5.783   0.976   3.126
 8802SOL    HW127305   5.872   0.931   3.112
 8802SOL    HW227306   5.710   0.911   3.107
 8803SOL     OW27307   6.773   1.792   3.478
 8803SOL    HW127308   6.797   1.852   3.402
 8803SOL    HW227309   6.780   1.697   3.448
 8804SOL     OW27310   5.903   0.251   3.663
 8804SOL    HW127311   5.974   0.322   3.669
 8804SOL    HW227312   5.815   0.290   3.691
 8805SOL     OW27313   6.184   0.729   2.132
 8805SOL    HW127314   6.208   0.798   2.064
 8805SOL    HW227315   6.106   0.762   2.186
 8806SOL     OW27316   6.867   0.345   2.806
 8806SOL    HW127317   6.781   0.295   2.793
 8806SOL    HW227318   6.929   0.291   2.862
 8807SOL     OW27319   6.393   0.605   3.327
 8807SOL    HW127320   6.346   0.602   3.416
 8807SOL    HW227321   6.342   0.550   3.261
 8808SOL     OW27322   6.980   0.469   3.536
 8808SOL    HW127323   6.960   0.512   3.624
 8808SOL    HW227324   7.058   0.407   3.545
 8809SOL     OW27325   6.559   0.890   3.434
 8809SOL    HW127326   6.605   0.806   3.405
 8809SOL    HW227327   6.503   0.924   3.359
 8810SOL     OW27328   6.577   0.410   3.104
 8810SOL    HW127329   6.500   0.444   3.158
 8810SOL    HW227330   6.543   0.359   3.025
 8811SOL     OW27331   6.627   0.701   2.291
 8811SOL    HW127332   6.653   0.697   2.387
 8811SOL    HW227333   6.542   0.650   2.277
 8812SOL     OW27334   5.662   0.811   2.651
 8812SOL    HW127335   5.761   0.799   2.660
 8812SOL    HW227336   5.638   0.906   2.672
 8813SOL     OW27337   5.716   1.821   3.433
 8813SOL    HW127338   5.706   1.806   3.532
 8813SOL    HW227339   5.630   1.857   3.397
 8814SOL     OW27340   6.451   0.348   2.057
 8814SOL    HW127341   6.510   0.411   2.008
 8814SOL    HW227342   6.470   0.254   2.028
 8815SOL     OW27343   6.948   1.144   2.407
 8815SOL    HW127344   7.031   1.115   2.359
 8815SOL    HW227345   6.899   1.211   2.351
 8816SOL     OW27346   6.136   0.196   2.747
 8816SOL    HW127347   6.131   0.191   2.847
 8816SOL    HW227348   6.138   0.292   2.718
 8817SOL     OW27349   6.594   1.456   2.339
 8817SOL    HW127350   6.548   1.528   2.287
 8817SOL    HW227351   6.590   1.476   2.437
 8818SOL     OW27352   5.937   1.801   2.715
 8818SOL    HW127353   5.987   1.715   2.721
 8818SOL    HW227354   6.002   1.878   2.712
 8819SOL     OW27355   6.813   1.550   3.368
 8819SOL    HW127356   6.819   1.473   3.432
 8819SOL    HW227357   6.761   1.524   3.288
 8820SOL     OW27358   5.907   0.943   2.104
 8820SOL    HW127359   5.989   0.982   2.062
 8820SOL    HW227360   5.880   0.861   2.055
 8821SOL     OW27361   6.047   1.266   3.589
 8821SOL    HW127362   5.997   1.267   3.503
 8821SOL    HW227363   5.984   1.248   3.665
 8822SOL     OW27364   6.697   1.776   2.099
 8822SOL    HW127365   6.637   1.714   2.149
 8822SOL    HW227366   6.728   1.732   2.014
 8823SOL     OW27367   5.788   0.285   3.360
 8823SOL    HW127368   5.708   0.345   3.347
 8823SOL    HW227369   5.778   0.236   3.446
 8824SOL     OW27370   6.050   1.743   2.185
 8824SOL    HW127371   6.083   1.782   2.271
 8824SOL    HW227372   6.126   1.736   2.120
 8825SOL     OW27373   5.835   1.785   3.103
 8825SOL    HW127374   5.892   1.720   3.153
 8825SOL    HW227375   5.819   1.752   3.010
 8826SOL     OW27376   6.526   1.698   2.766
 8826SOL    HW127377   6.606   1.641   2.787
 8826SOL    HW227378   6.477   1.658   2.689
 8827SOL     OW27379   5.968   0.700   2.342
 8827SOL    HW127380   6.013   0.610   2.339
 8827SOL    HW227381   5.874   0.689   2.375
 8828SOL     OW27382   6.200   0.122   1.979
 8828SOL    HW127383   6.298   0.100   1.986
 8828SOL    HW227384   6.169   0.105   1.886
 8829SOL     OW27385   6.367   0.264   3.611
 8829SOL    HW127386   6.434   0.203   3.654
 8829SOL    HW227387   6.294   0.283   3.676
 8830SOL     OW27388   6.474   1.514   3.057
 8830SOL    HW127389   6.451   1.489   2.963
 8830SOL    HW227390   6.535   1.445   3.096
 8831SOL     OW27391   6.389   1.402   2.786
 8831SOL    HW127392   6.479   1.416   2.744
 8831SOL    HW227393   6.318   1.404   2.715
 8832SOL     OW27394   6.508   0.503   2.761
 8832SOL    HW127395   6.483   0.494   2.665
 8832SOL    HW227396   6.556   0.421   2.792
 8833SOL     OW27397   6.125   0.064   2.374
 8833SOL    HW127398   6.044   0.065   2.432
 8833SOL    HW227399   6.128   0.147   2.319
 8834SOL     OW27400   7.020   1.188   1.903
 8834SOL    HW127401   7.052   1.112   1.960
 8834SOL    HW227402   6.928   1.215   1.933
 8835SOL     OW27403   5.883   0.035   2.033
 8835SOL    HW127404   5.932   0.119   2.012
 8835SOL    HW227405   5.945  -0.030   2.078
 8836SOL     OW27406   6.521   0.236   2.342
 8836SOL    HW127407   6.473   0.277   2.264
 8836SOL    HW227408   6.620   0.234   2.323
 8837SOL     OW27409   6.662   0.683   3.326
 8837SOL    HW127410   6.582   0.622   3.329
 8837SOL    HW227411   6.743   0.630   3.302
 8838SOL     OW27412   6.813   1.570   2.655
 8838SOL    HW127413   6.834   1.644   2.590
 8838SOL    HW227414   6.881   1.570   2.728
 8839SOL     OW27415   6.045   1.152   2.603
 8839SOL    HW127416   5.974   1.125   2.668
 8839SOL    HW227417   6.019   1.124   2.510
 8840SOL     OW27418   6.857   1.797   2.453
 8840SOL    HW127419   6.901   1.861   2.389
 8840SOL    HW227420   6.807   1.849   2.523
 8841SOL     OW27421   6.618   0.549   1.878
 8841SOL    HW127422   6.577   0.631   1.839
 8841SOL    HW227423   6.682   0.575   1.951
 8842SOL     OW27424   5.664   0.556   3.248
 8842SOL    HW127425   5.756   0.555   3.207
 8842SOL    HW227426   5.658   0.630   3.315
 8843SOL     OW27427   6.147   0.222   3.009
 8843SOL    HW127428   6.185   0.138   3.046
 8843SOL    HW227429   6.059   0.241   3.053
 8844SOL     OW27430   6.452   0.454   2.504
 8844SOL    HW127431   6.420   0.526   2.442
 8844SOL    HW227432   6.476   0.373   2.451
 8845SOL     OW27433   6.603   0.039   2.615
 8845SOL    HW127434   6.531   0.044   2.546
 8845SOL    HW227435   6.579  -0.030   2.684
 8846SOL     OW27436   6.074   1.385   2.036
 8846SOL    HW127437   5.987   1.370   2.083
 8846SOL    HW227438   6.057   1.411   1.941
 8847SOL     OW27439   6.113   0.256   2.190
 8847SOL    HW127440   6.140   0.197   2.115
 8847SOL    HW227441   6.113   0.351   2.159
 8848SOL     OW27442   6.650   1.347   3.202
 8848SOL    HW127443   6.570   1.324   3.257
 8848SOL    HW227444   6.733   1.321   3.251
 8849SOL     OW27445   6.697   1.195   2.962
 8849SOL    HW127446   6.657   1.239   3.043
 8849SOL    HW227447   6.656   1.232   2.879
 8850SOL     OW27448   6.501   0.089   3.264
 8850SOL    HW127449   6.526   0.069   3.169
 8850SOL    HW227450   6.573   0.145   3.306
 8851SOL     OW27451   6.566   1.116   3.581
 8851SOL    HW127452   6.467   1.122   3.591
 8851SOL    HW227453   6.589   1.036   3.525
 8852SOL     OW27454   6.291   1.050   2.230
 8852SOL    HW127455   6.277   1.057   2.329
 8852SOL    HW227456   6.375   0.999   2.212
 8853SOL     OW27457   5.996   0.813   3.113
 8853SOL    HW127458   6.082   0.825   3.163
 8853SOL    HW227459   5.954   0.726   3.140
 8854SOL     OW27460   6.860   0.386   3.124
 8854SOL    HW127461   6.881   0.460   3.188
 8854SOL    HW227462   6.771   0.403   3.081
 8855SOL     OW27463   5.650   1.564   3.193
 8855SOL    HW127464   5.604   1.646   3.159
 8855SOL    HW227465   5.748   1.583   3.202
 8856SOL     OW27466   5.953   1.100   2.363
 8856SOL    HW127467   5.946   1.183   2.307
 8856SOL    HW227468   5.957   1.020   2.303
 8857SOL     OW27469   6.152   0.537   2.727
 8857SOL    HW127470   6.164   0.603   2.653
 8857SOL    HW227471   6.198   0.571   2.810
 8858SOL     OW27472   6.838   1.348   2.250
 8858SOL    HW127473   6.888   1.425   2.290
 8858SOL    HW227474   6.743   1.350   2.282
 8859SOL     OW27475   6.858   1.445   3.004
 8859SOL    HW127476   6.905   1.458   3.091
 8859SOL    HW227477   6.792   1.371   3.013
 8860SOL     OW27478   5.940   1.510   3.191
 8860SOL    HW127479   5.919   1.466   3.104
 8860SOL    HW227480   6.037   1.536   3.194
 8861SOL     OW27481   5.988   0.751   3.460
 8861SOL    HW127482   6.056   0.806   3.413
 8861SOL    HW227483   6.028   0.663   3.487
 8862SOL     OW27484   6.599   0.105   3.632
 8862SOL    HW127485   6.605   0.190   3.580
 8862SOL    HW227486   6.631   0.029   3.575
 8863SOL     OW27487   6.090   0.050   3.602
 8863SOL    HW127488   6.048  -0.007   3.532
 8863SOL    HW227489   6.024   0.119   3.634
 8864SOL     OW27490   6.159   0.870   2.891
 8864SOL    HW127491   6.203   0.959   2.882
 8864SOL    HW227492   6.096   0.870   2.968
 8865SOL     OW27493   6.946   0.862   2.907
 8865SOL    HW127494   6.871   0.862   2.841
 8865SOL    HW227495   6.983   0.770   2.916
 8866SOL     OW27496   6.795   0.525   2.137
 8866SOL    HW127497   6.808   0.441   2.191
 8866SOL    HW227498   6.766   0.599   2.197
 8867SOL     OW27499   5.893   0.213   3.093
 8867SOL    HW127500   5.870   0.250   3.183
 8867SOL    HW227501   5.863   0.118   3.087
 8868SOL     OW27502   5.623   1.310   3.144
 8868SOL    HW127503   5.676   1.261   3.212
 8868SOL    HW227504   5.645   1.408   3.149
 8869SOL     OW27505   6.318   0.634   2.926
 8869SOL    HW127506   6.377   0.608   2.850
 8869SOL    HW227507   6.290   0.730   2.915
 8870SOL     OW27508   5.893   0.063   2.480
 8870SOL    HW127509   5.882   0.157   2.513
 8870SOL    HW227510   5.888   0.000   2.557
 8871SOL     OW27511   7.208   0.367   2.236
 8871SOL    HW127512   7.210   0.291   2.300
 8871SOL    HW227513   7.160   0.444   2.276
 8872SOL     OW27514   6.609   0.766   2.828
 8872SOL    HW127515   6.624   0.787   2.924
 8872SOL    HW227516   6.579   0.671   2.819
 8873SOL     OW27517   6.566   1.573   3.562
 8873SOL    HW127518   6.546   1.617   3.474
 8873SOL    HW227519   6.605   1.482   3.546
 8874SOL     OW27520   5.936   0.898   3.666
 8874SOL    HW127521   6.012   0.942   3.714
 8874SOL    HW227522   5.971   0.851   3.584
 8875SOL     OW27523   6.889   0.838   1.904
 8875SOL    HW127524   6.923   0.745   1.919
 8875SOL    HW227525   6.907   0.865   1.809
 8876SOL     OW27526   6.654   1.333   2.711
 8876SOL    HW127527   6.661   1.249   2.656
 8876SOL    HW227528   6.716   1.402   2.675
 8877SOL     OW27529   5.905   0.810   2.811
 8877SOL    HW127530   5.998   0.846   2.816
 8877SOL    HW227531   5.899   0.725   2.863
 8878SOL     OW27532   5.925   0.509   2.868
 8878SOL    HW127533   5.873   0.426   2.851
 8878SOL    HW227534   6.002   0.514   2.804
 8879SOL     OW27535   6.724   0.380   3.540
 8879SOL    HW127536   6.679   0.443   3.604
 8879SOL    HW227537   6.817   0.411   3.523
 8880SOL     OW27538   6.746   0.207   3.339
 8880SOL    HW127539   6.746   0.271   3.416
 8880SOL    HW227540   6.774   0.255   3.256
 8881SOL     OW27541   5.594   1.326   2.062
 8881SOL    HW127542   5.501   1.347   2.031
 8881SOL    HW227543   5.604   1.227   2.075
 8882SOL     OW27544   5.674   1.801   2.789
 8882SOL    HW127545   5.632   1.715   2.762
 8882SOL    HW227546   5.768   1.804   2.755
 8883SOL     OW27547   6.090   1.568   2.772
 8883SOL    HW127548   6.156   1.642   2.781
 8883SOL    HW227549   6.134   1.489   2.730
 8884SOL     OW27550   6.588   0.796   3.100
 8884SOL    HW127551   6.629   0.764   3.186
 8884SOL    HW227552   6.492   0.769   3.097
 8885SOL     OW27553   5.626   0.544   2.976
 8885SOL    HW127554   5.711   0.511   2.935
 8885SOL    HW227555   5.639   0.559   3.074
 8886SOL     OW27556   5.775   0.520   3.584
 8886SOL    HW127557   5.834   0.480   3.514
 8886SOL    HW227558   5.717   0.591   3.543
 8887SOL     OW27559   6.401   0.572   2.187
 8887SOL    HW127560   6.408   0.483   2.141
 8887SOL    HW227561   6.307   0.606   2.179
 8888SOL     OW27562   5.838   1.564   3.606
 8888SOL    HW127563   5.808   1.621   3.682
 8888SOL    HW227564   5.831   1.467   3.632
 8889SOL     OW27565   6.257   0.464   3.131
 8889SOL    HW127566   6.223   0.375   3.101
 8889SOL    HW227567   6.283   0.518   3.051
 8890SOL     OW27568   6.516   1.678   3.327
 8890SOL    HW127569   6.492   1.660   3.232
 8890SOL    HW227570   6.546   1.772   3.337
 8891SOL     OW27571   6.059   0.500   2.053
 8891SOL    HW127572   6.120   0.580   2.057
 8891SOL    HW227573   5.964   0.531   2.060
 8892SOL     OW27574   5.745   1.137   3.328
 8892SOL    HW127575   5.767   1.076   3.404
 8892SOL    HW227576   5.755   1.088   3.242
 8893SOL     OW27577   6.933   1.059   3.096
 8893SOL    HW127578   6.957   0.996   3.022
 8893SOL    HW227579   6.843   1.099   3.078
 8894SOL     OW27580   6.888   0.855   2.171
 8894SOL    HW127581   6.802   0.824   2.213
 8894SOL    HW227582   6.884   0.841   2.072
 8895SOL     OW27583   6.838   1.731   2.990
 8895SOL    HW127584   6.922   1.736   2.936
 8895SOL    HW227585   6.815   1.635   3.008
 8896SOL     OW27586   5.669   1.258   2.884
 8896SOL    HW127587   5.664   1.257   2.984
 8896SOL    HW227588   5.586   1.217   2.846
 8897SOL     OW27589   6.274   1.662   3.578
 8897SOL    HW127590   6.218   1.743   3.587
 8897SOL    HW227591   6.326   1.666   3.492
 8898SOL     OW27592   6.974   1.573   2.339
 8898SOL    HW127593   7.041   1.585   2.265
 8898SOL    HW227594   6.934   1.662   2.362
 8899SOL     OW27595   5.716   1.794   3.713
 8899SOL    HW127596   5.675   1.720   3.766
 8899SOL    HW227597   5.780   1.845   3.771
 8900SOL     OW27598   6.866   0.927   2.534
 8900SOL    HW127599   6.926   0.846   2.536
 8900SOL    HW227600   6.906   0.996   2.474
 8901SOL     OW27601   6.416   1.273   3.284
 8901SOL    HW127602   6.411   1.306   3.379
 8901SOL    HW227603   6.330   1.292   3.238
 8902SOL     OW27604   6.258   1.616   2.016
 8902SOL    HW127605   6.267   1.626   1.917
 8902SOL    HW227606   6.218   1.527   2.037
 8903SOL     OW27607   5.849   0.326   2.582
 8903SOL    HW127608   5.770   0.377   2.548
 8903SOL    HW227609   5.840   0.311   2.680
 8904SOL     OW27610   6.780   1.612   1.893
 8904SOL    HW127611   6.786   1.519   1.930
 8904SOL    HW227612   6.721   1.612   1.813
 8905SOL     OW27613   6.408   1.002   3.234
 8905SOL    HW127614   6.448   1.001   3.142
 8905SOL    HW227615   6.418   1.094   3.274
 8906SOL     OW27616   6.502   0.910   2.153
 8906SOL    HW127617   6.565   0.948   2.085
 8906SOL    HW227618   6.542   0.827   2.192
 8907SOL     OW27619   5.958   1.288   3.352
 8907SOL    HW127620   5.945   1.381   3.318
 8907SOL    HW227621   5.874   1.236   3.339
 8908SOL     OW27622   6.625   1.098   2.558
 8908SOL    HW127623   6.555   1.051   2.612
 8908SOL    HW227624   6.684   1.030   2.515
 8909SOL     OW27625   6.600   0.236   2.833
 8909SOL    HW127626   6.592   0.200   2.740
 8909SOL    HW227627   6.598   0.160   2.898
 8910SOL     OW27628   6.176   1.487   2.353
 8910SOL    HW127629   6.218   1.429   2.283
 8910SOL    HW227630   6.132   1.566   2.309
 8911SOL     OW27631   5.841   1.348   2.152
 8911SOL    HW127632   5.745   1.349   2.125
 8911SOL    HW227633   5.853   1.401   2.236
 8912SOL     OW27634   5.691   1.013   3.588
 8912SOL    HW127635   5.614   0.980   3.642
 8912SOL    HW227636   5.776   0.983   3.630
 8913SOL     OW27637   6.258   0.203   3.351
 8913SOL    HW127638   6.348   0.187   3.311
 8913SOL    HW227639   6.266   0.208   3.450
 8914SOL     OW27640   5.661   0.345   1.895
 8914SOL    HW127641   5.569   0.317   1.866
 8914SOL    HW227642   5.692   0.422   1.839
 8915SOL     OW27643   5.658   0.166   2.180
 8915SOL    HW127644   5.641   0.249   2.126
 8915SOL    HW227645   5.748   0.129   2.158
 8916SOL     OW27646   6.199   0.842   3.293
 8916SOL    HW127647   6.255   0.923   3.276
 8916SOL    HW227648   6.258   0.762   3.296
 8917SOL     OW27649   6.302   0.565   3.570
 8917SOL    HW127650   6.321   0.630   3.644
 8917SOL    HW227651   6.362   0.485   3.579
 8918SOL     OW27652   7.036   1.220   3.495
 8918SOL    HW127653   7.027   1.210   3.594
 8918SOL    HW227654   7.132   1.213   3.469
 8919SOL     OW27655   5.976   1.741   3.422
 8919SOL    HW127656   5.885   1.782   3.420
 8919SOL    HW227657   5.969   1.647   3.454
 8920SOL     OW27658   6.811   0.325   2.311
 8920SOL    HW127659   6.876   0.251   2.300
 8920SOL    HW227660   6.831   0.375   2.395
 8921SOL     OW27661   6.180   0.745   2.514
 8921SOL    HW127662   6.230   0.830   2.495
 8921SOL    HW227663   6.092   0.747   2.466
 8922SOL     OW27664   6.445   1.374   1.878
 8922SOL    HW127665   6.399   1.389   1.966
 8922SOL    HW227666   6.489   1.459   1.848
 8923SOL     OW27667   6.247   1.790   2.815
 8923SOL    HW127668   6.201   1.878   2.802
 8923SOL    HW227669   6.346   1.802   2.808
 8924SOL     OW27670   6.445   0.956   2.723
 8924SOL    HW127671   6.499   0.887   2.771
 8924SOL    HW227672   6.413   1.025   2.789
 8925SOL     OW27673   6.669   0.984   1.949
 8925SOL    HW127674   6.646   1.037   1.867
 8925SOL    HW227675   6.750   0.928   1.930
 8926SOL     OW27676   5.807   1.314   3.706
 8926SOL    HW127677   5.742   1.241   3.685
 8926SOL    HW227678   5.811   1.328   3.804
 8927SOL     OW27679   5.665   1.240   2.515
 8927SOL    HW127680   5.664   1.193   2.603
 8927SOL    HW227681   5.747   1.212   2.464
 8928SOL     OW27682   6.258   1.391   3.486
 8928SOL    HW127683   6.180   1.341   3.524
 8928SOL    HW227684   6.255   1.486   3.517
 8929SOL     OW27685   6.014   0.424   2.382
 8929SOL    HW127686   6.044   0.352   2.320
 8929SOL    HW227687   5.975   0.384   2.465
 8930SOL     OW27688   5.903   0.547   3.142
 8930SOL    HW127689   5.941   0.488   3.214
 8930SOL    HW227690   5.943   0.521   3.054
 8931SOL     OW27691   6.398   1.586   2.549
 8931SOL    HW127692   6.430   1.596   2.455
 8931SOL    HW227693   6.319   1.524   2.551
 8932SOL     OW27694   7.010   0.214   2.974
 8932SOL    HW127695   7.062   0.149   3.029
 8932SOL    HW227696   6.961   0.277   3.035
 8933SOL     OW27697   6.587   0.034   3.016
 8933SOL    HW127698   6.524  -0.038   2.985
 8933SOL    HW227699   6.680  -0.002   3.016
 8934SOL     OW27700   6.356   1.330   2.163
 8934SOL    HW127701   6.310   1.243   2.180
 8934SOL    HW227702   6.447   1.327   2.204
 8935SOL     OW27703   6.204   1.567   3.146
 8935SOL    HW127704   6.199   1.649   3.203
 8935SOL    HW227705   6.293   1.564   3.101
 8936SOL     OW27706   5.625   1.077   2.162
 8936SOL    HW127707   5.724   1.066   2.153
 8936SOL    HW227708   5.585   0.991   2.194
 8937SOL     OW27709   6.461   1.646   2.199
 8937SOL    HW127710   6.384   1.611   2.145
 8937SOL    HW227711   6.429   1.717   2.261
 8938SOL     OW27712   5.816   0.628   3.837
 8938SOL    HW127713   5.723   0.626   3.874
 8938SOL    HW227714   5.817   0.589   3.745
 8939SOL     OW27715   5.811   0.275   4.720
 8939SOL    HW127716   5.846   0.258   4.812
 8939SOL    HW227717   5.723   0.230   4.708
 8940SOL     OW27718   5.605   0.368   4.371
 8940SOL    HW127719   5.523   0.411   4.410
 8940SOL    HW227720   5.577   0.295   4.308
 8941SOL     OW27721   6.155   1.275   4.889
 8941SOL    HW127722   6.062   1.268   4.852
 8941SOL    HW227723   6.166   1.364   4.933
 8942SOL     OW27724   7.141   1.511   4.427
 8942SOL    HW127725   7.084   1.495   4.508
 8942SOL    HW227726   7.082   1.521   4.347
 8943SOL     OW27727   6.721   0.703   4.441
 8943SOL    HW127728   6.778   0.781   4.416
 8943SOL    HW227729   6.661   0.729   4.517
 8944SOL     OW27730   6.354   1.144   4.747
 8944SOL    HW127731   6.276   1.161   4.807
 8944SOL    HW227732   6.388   1.231   4.711
 8945SOL     OW27733   6.436   0.798   5.547
 8945SOL    HW127734   6.432   0.874   5.612
 8945SOL    HW227735   6.458   0.834   5.456
 8946SOL     OW27736   6.271   1.012   4.389
 8946SOL    HW127737   6.340   0.996   4.459
 8946SOL    HW227738   6.198   1.069   4.427
 8947SOL     OW27739   6.272   1.161   5.527
 8947SOL    HW127740   6.332   1.240   5.541
 8947SOL    HW227741   6.186   1.192   5.486
 8948SOL     OW27742   5.921   1.435   4.785
 8948SOL    HW127743   5.843   1.404   4.732
 8948SOL    HW227744   5.979   1.493   4.728
 8949SOL     OW27745   6.024   0.392   5.223
 8949SOL    HW127746   6.106   0.336   5.232
 8949SOL    HW227747   5.943   0.334   5.227
 8950SOL     OW27748   5.817   1.713   4.207
 8950SOL    HW127749   5.851   1.790   4.261
 8950SOL    HW227750   5.861   1.713   4.117
 8951SOL     OW27751   6.713   1.341   5.414
 8951SOL    HW127752   6.760   1.341   5.502
 8951SOL    HW227753   6.665   1.254   5.403
 8952SOL     OW27754   5.816   1.434   4.262
 8952SOL    HW127755   5.790   1.530   4.262
 8952SOL    HW227756   5.745   1.380   4.307
 8953SOL     OW27757   5.826   1.091   4.610
 8953SOL    HW127758   5.840   1.007   4.662
 8953SOL    HW227759   5.771   1.155   4.665
 8954SOL     OW27760   6.206   1.786   5.163
 8954SOL    HW127761   6.114   1.769   5.198
 8954SOL    HW227762   6.234   1.878   5.189
 8955SOL     OW27763   6.192   0.964   3.847
 8955SOL    HW127764   6.199   1.048   3.793
 8955SOL    HW227765   6.238   0.977   3.935
 8956SOL     OW27766   5.708   0.643   4.287
 8956SOL    HW127767   5.663   0.555   4.304
 8956SOL    HW227768   5.707   0.697   4.371
 8957SOL     OW27769   5.613   1.596   3.841
 8957SOL    HW127770   5.594   1.500   3.862
 8957SOL    HW227771   5.580   1.654   3.916
 8958SOL     OW27772   5.699   0.737   5.321
 8958SOL    HW127773   5.787   0.724   5.366
 8958SOL    HW227774   5.686   0.834   5.299
 8959SOL     OW27775   6.199   1.365   4.450
 8959SOL    HW127776   6.150   1.278   4.459
 8959SOL    HW227777   6.176   1.408   4.363
 8960SOL     OW27778   6.879   1.228   5.147
 8960SOL    HW127779   6.916   1.155   5.089
 8960SOL    HW227780   6.931   1.233   5.232
 8961SOL     OW27781   6.395   0.004   4.226
 8961SOL    HW127782   6.435   0.095   4.217
 8961SOL    HW227783   6.295   0.012   4.232
 8962SOL     OW27784   5.783   0.976   4.988
 8962SOL    HW127785   5.872   0.931   4.974
 8962SOL    HW227786   5.710   0.911   4.969
 8963SOL     OW27787   6.773   1.792   5.340
 8963SOL    HW127788   6.797   1.852   5.264
 8963SOL    HW227789   6.780   1.697   5.310
 8964SOL     OW27790   5.903   0.251   5.525
 8964SOL    HW127791   5.974   0.322   5.531
 8964SOL    HW227792   5.815   0.290   5.553
 8965SOL     OW27793   6.184   0.729   3.994
 8965SOL    HW127794   6.208   0.798   3.926
 8965SOL    HW227795   6.106   0.762   4.048
 8966SOL     OW27796   6.867   0.345   4.668
 8966SOL    HW127797   6.781   0.295   4.655
 8966SOL    HW227798   6.929   0.291   4.724
 8967SOL     OW27799   6.393   0.605   5.189
 8967SOL    HW127800   6.346   0.602   5.278
 8967SOL    HW227801   6.342   0.550   5.123
 8968SOL     OW27802   6.980   0.469   5.398
 8968SOL    HW127803   6.960   0.512   5.486
 8968SOL    HW227804   7.058   0.407   5.407
 8969SOL     OW27805   6.559   0.890   5.296
 8969SOL    HW127806   6.605   0.806   5.267
 8969SOL    HW227807   6.503   0.924   5.221
 8970SOL     OW27808   6.577   0.410   4.966
 8970SOL    HW127809   6.500   0.444   5.020
 8970SOL    HW227810   6.543   0.359   4.887
 8971SOL     OW27811   6.627   0.701   4.153
 8971SOL    HW127812   6.653   0.697   4.249
 8971SOL    HW227813   6.542   0.650   4.139
 8972SOL     OW27814   5.662   0.811   4.513
 8972SOL    HW127815   5.761   0.799   4.522
 8972SOL    HW227816   5.638   0.906   4.534
 8973SOL     OW27817   5.716   1.821   5.295
 8973SOL    HW127818   5.706   1.806   5.394
 8973SOL    HW227819   5.630   1.857   5.259
 8974SOL     OW27820   6.451   0.348   3.919
 8974SOL    HW127821   6.510   0.411   3.870
 8974SOL    HW227822   6.470   0.254   3.890
 8975SOL     OW27823   6.948   1.144   4.269
 8975SOL    HW127824   7.031   1.115   4.221
 8975SOL    HW227825   6.899   1.211   4.213
 8976SOL     OW27826   6.136   0.196   4.609
 8976SOL    HW127827   6.131   0.191   4.709
 8976SOL    HW227828   6.138   0.292   4.580
 8977SOL     OW27829   6.594   1.456   4.201
 8977SOL    HW127830   6.548   1.528   4.149
 8977SOL    HW227831   6.590   1.476   4.299
 8978SOL     OW27832   5.937   1.801   4.577
 8978SOL    HW127833   5.987   1.715   4.583
 8978SOL    HW227834   6.002   1.878   4.574
 8979SOL     OW27835   6.813   1.550   5.230
 8979SOL    HW127836   6.819   1.473   5.294
 8979SOL    HW227837   6.761   1.524   5.150
 8980SOL     OW27838   5.907   0.943   3.966
 8980SOL    HW127839   5.989   0.982   3.924
 8980SOL    HW227840   5.880   0.861   3.917
 8981SOL     OW27841   6.047   1.266   5.451
 8981SOL    HW127842   5.997   1.267   5.365
 8981SOL    HW227843   5.984   1.248   5.527
 8982SOL     OW27844   6.697   1.776   3.961
 8982SOL    HW127845   6.637   1.714   4.011
 8982SOL    HW227846   6.728   1.732   3.876
 8983SOL     OW27847   5.788   0.285   5.222
 8983SOL    HW127848   5.708   0.345   5.209
 8983SOL    HW227849   5.778   0.236   5.308
 8984SOL     OW27850   6.050   1.743   4.047
 8984SOL    HW127851   6.083   1.782   4.133
 8984SOL    HW227852   6.126   1.736   3.982
 8985SOL     OW27853   5.835   1.785   4.965
 8985SOL    HW127854   5.892   1.720   5.015
 8985SOL    HW227855   5.819   1.752   4.872
 8986SOL     OW27856   6.526   1.698   4.628
 8986SOL    HW127857   6.606   1.641   4.649
 8986SOL    HW227858   6.477   1.658   4.551
 8987SOL     OW27859   5.968   0.700   4.204
 8987SOL    HW127860   6.013   0.610   4.201
 8987SOL    HW227861   5.874   0.689   4.237
 8988SOL     OW27862   6.200   0.122   3.841
 8988SOL    HW127863   6.298   0.100   3.848
 8988SOL    HW227864   6.169   0.105   3.748
 8989SOL     OW27865   6.367   0.264   5.473
 8989SOL    HW127866   6.434   0.203   5.516
 8989SOL    HW227867   6.294   0.283   5.538
 8990SOL     OW27868   6.474   1.514   4.919
 8990SOL    HW127869   6.451   1.489   4.825
 8990SOL    HW227870   6.535   1.445   4.958
 8991SOL     OW27871   6.389   1.402   4.648
 8991SOL    HW127872   6.479   1.416   4.606
 8991SOL    HW227873   6.318   1.404   4.577
 8992SOL     OW27874   6.508   0.503   4.623
 8992SOL    HW127875   6.483   0.494   4.527
 8992SOL    HW227876   6.556   0.421   4.654
 8993SOL     OW27877   6.125   0.064   4.236
 8993SOL    HW127878   6.044   0.065   4.294
 8993SOL    HW227879   6.128   0.147   4.181
 8994SOL     OW27880   7.020   1.188   3.765
 8994SOL    HW127881   7.052   1.112   3.822
 8994SOL    HW227882   6.928   1.215   3.795
 8995SOL     OW27883   5.883   0.035   3.895
 8995SOL    HW127884   5.932   0.119   3.874
 8995SOL    HW227885   5.945  -0.030   3.940
 8996SOL     OW27886   6.521   0.236   4.204
 8996SOL    HW127887   6.473   0.277   4.126
 8996SOL    HW227888   6.620   0.234   4.185
 8997SOL     OW27889   6.662   0.683   5.188
 8997SOL    HW127890   6.582   0.622   5.191
 8997SOL    HW227891   6.743   0.630   5.164
 8998SOL     OW27892   6.813   1.570   4.517
 8998SOL    HW127893   6.834   1.644   4.452
 8998SOL    HW227894   6.881   1.570   4.590
 8999SOL     OW27895   6.045   1.152   4.465
 8999SOL    HW127896   5.974   1.125   4.530
 8999SOL    HW227897   6.019   1.124   4.372
 9000SOL     OW27898   6.857   1.797   4.315
 9000SOL    HW127899   6.901   1.861   4.251
 9000SOL    HW227900   6.807   1.849   4.385
 9001SOL     OW27901   6.618   0.549   3.740
 9001SOL    HW127902   6.577   0.631   3.701
 9001SOL    HW227903   6.682   0.575   3.813
 9002SOL     OW27904   5.664   0.556   5.110
 9002SOL    HW127905   5.756   0.555   5.069
 9002SOL    HW227906   5.658   0.630   5.177
 9003SOL     OW27907   6.147   0.222   4.871
 9003SOL    HW127908   6.185   0.138   4.908
 9003SOL    HW227909   6.059   0.241   4.915
 9004SOL     OW27910   6.452   0.454   4.366
 9004SOL    HW127911   6.420   0.526   4.304
 9004SOL    HW227912   6.476   0.373   4.313
 9005SOL     OW27913   6.603   0.039   4.477
 9005SOL    HW127914   6.531   0.044   4.408
 9005SOL    HW227915   6.579  -0.030   4.546
 9006SOL     OW27916   6.074   1.385   3.898
 9006SOL    HW127917   5.987   1.370   3.945
 9006SOL    HW227918   6.057   1.411   3.803
 9007SOL     OW27919   6.113   0.256   4.052
 9007SOL    HW127920   6.140   0.197   3.977
 9007SOL    HW227921   6.113   0.351   4.021
 9008SOL     OW27922   6.650   1.347   5.064
 9008SOL    HW127923   6.570   1.324   5.119
 9008SOL    HW227924   6.733   1.321   5.113
 9009SOL     OW27925   6.697   1.195   4.824
 9009SOL    HW127926   6.657   1.239   4.905
 9009SOL    HW227927   6.656   1.232   4.741
 9010SOL     OW27928   6.501   0.089   5.126
 9010SOL    HW127929   6.526   0.069   5.031
 9010SOL    HW227930   6.573   0.145   5.168
 9011SOL     OW27931   6.566   1.116   5.443
 9011SOL    HW127932   6.467   1.122   5.453
 9011SOL    HW227933   6.589   1.036   5.387
 9012SOL     OW27934   6.291   1.050   4.092
 9012SOL    HW127935   6.277   1.057   4.191
 9012SOL    HW227936   6.375   0.999   4.074
 9013SOL     OW27937   5.996   0.813   4.975
 9013SOL    HW127938   6.082   0.825   5.025
 9013SOL    HW227939   5.954   0.726   5.002
 9014SOL     OW27940   6.860   0.386   4.986
 9014SOL    HW127941   6.881   0.460   5.050
 9014SOL    HW227942   6.771   0.403   4.943
 9015SOL     OW27943   5.650   1.564   5.055
 9015SOL    HW127944   5.604   1.646   5.021
 9015SOL    HW227945   5.748   1.583   5.064
 9016SOL     OW27946   5.953   1.100   4.225
 9016SOL    HW127947   5.946   1.183   4.169
 9016SOL    HW227948   5.957   1.020   4.165
 9017SOL     OW27949   6.152   0.537   4.589
 9017SOL    HW127950   6.164   0.603   4.515
 9017SOL    HW227951   6.198   0.571   4.672
 9018SOL     OW27952   6.838   1.348   4.112
 9018SOL    HW127953   6.888   1.425   4.152
 9018SOL    HW227954   6.743   1.350   4.144
 9019SOL     OW27955   6.858   1.445   4.866
 9019SOL    HW127956   6.905   1.458   4.953
 9019SOL    HW227957   6.792   1.371   4.875
 9020SOL     OW27958   5.940   1.510   5.053
 9020SOL    HW127959   5.919   1.466   4.966
 9020SOL    HW227960   6.037   1.536   5.056
 9021SOL     OW27961   5.988   0.751   5.322
 9021SOL    HW127962   6.056   0.806   5.275
 9021SOL    HW227963   6.028   0.663   5.349
 9022SOL     OW27964   6.599   0.105   5.494
 9022SOL    HW127965   6.605   0.190   5.442
 9022SOL    HW227966   6.631   0.029   5.437
 9023SOL     OW27967   6.090   0.050   5.464
 9023SOL    HW127968   6.048  -0.007   5.394
 9023SOL    HW227969   6.024   0.119   5.496
 9024SOL     OW27970   6.159   0.870   4.753
 9024SOL    HW127971   6.203   0.959   4.744
 9024SOL    HW227972   6.096   0.870   4.830
 9025SOL     OW27973   6.946   0.862   4.769
 9025SOL    HW127974   6.871   0.862   4.703
 9025SOL    HW227975   6.983   0.770   4.778
 9026SOL     OW27976   6.795   0.525   3.999
 9026SOL    HW127977   6.808   0.441   4.053
 9026SOL    HW227978   6.766   0.599   4.059
 9027SOL     OW27979   5.893   0.213   4.955
 9027SOL    HW127980   5.870   0.250   5.045
 9027SOL    HW227981   5.863   0.118   4.949
 9028SOL     OW27982   5.623   1.310   5.006
 9028SOL    HW127983   5.676   1.261   5.074
 9028SOL    HW227984   5.645   1.408   5.011
 9029SOL     OW27985   6.318   0.634   4.788
 9029SOL    HW127986   6.377   0.608   4.712
 9029SOL    HW227987   6.290   0.730   4.777
 9030SOL     OW27988   5.893   0.063   4.342
 9030SOL    HW127989   5.882   0.157   4.375
 9030SOL    HW227990   5.888   0.000   4.419
 9031SOL     OW27991   7.208   0.367   4.098
 9031SOL    HW127992   7.210   0.291   4.162
 9031SOL    HW227993   7.160   0.444   4.138
 9032SOL     OW27994   6.609   0.766   4.690
 9032SOL    HW127995   6.624   0.787   4.786
 9032SOL    HW227996   6.579   0.671   4.681
 9033SOL     OW27997   6.566   1.573   5.424
 9033SOL    HW127998   6.546   1.617   5.336
 9033SOL    HW227999   6.605   1.482   5.408
 9034SOL     OW28000   5.936   0.898   5.528
 9034SOL    HW128001   6.012   0.942   5.576
 9034SOL    HW228002   5.971   0.851   5.446
 9035SOL     OW28003   6.889   0.838   3.766
 9035SOL    HW128004   6.923   0.745   3.781
 9035SOL    HW228005   6.907   0.865   3.671
 9036SOL     OW28006   6.654   1.333   4.573
 9036SOL    HW128007   6.661   1.249   4.518
 9036SOL    HW228008   6.716   1.402   4.537
 9037SOL     OW28009   5.905   0.810   4.673
 9037SOL    HW128010   5.998   0.846   4.678
 9037SOL    HW228011   5.899   0.725   4.725
 9038SOL     OW28012   5.925   0.509   4.730
 9038SOL    HW128013   5.873   0.426   4.713
 9038SOL    HW228014   6.002   0.514   4.666
 9039SOL     OW28015   6.724   0.380   5.402
 9039SOL    HW128016   6.679   0.443   5.466
 9039SOL    HW228017   6.817   0.411   5.385
 9040SOL     OW28018   6.746   0.207   5.201
 9040SOL    HW128019   6.746   0.271   5.278
 9040SOL    HW228020   6.774   0.255   5.118
 9041SOL     OW28021   5.594   1.326   3.924
 9041SOL    HW128022   5.501   1.347   3.893
 9041SOL    HW228023   5.604   1.227   3.937
 9042SOL     OW28024   5.674   1.801   4.651
 9042SOL    HW128025   5.632   1.715   4.624
 9042SOL    HW228026   5.768   1.804   4.617
 9043SOL     OW28027   6.090   1.568   4.634
 9043SOL    HW128028   6.156   1.642   4.643
 9043SOL    HW228029   6.134   1.489   4.592
 9044SOL     OW28030   6.588   0.796   4.962
 9044SOL    HW128031   6.629   0.764   5.048
 9044SOL    HW228032   6.492   0.769   4.959
 9045SOL     OW28033   5.626   0.544   4.838
 9045SOL    HW128034   5.711   0.511   4.797
 9045SOL    HW228035   5.639   0.559   4.936
 9046SOL     OW28036   5.775   0.520   5.446
 9046SOL    HW128037   5.834   0.480   5.376
 9046SOL    HW228038   5.717   0.591   5.405
 9047SOL     OW28039   6.401   0.572   4.049
 9047SOL    HW128040   6.408   0.483   4.003
 9047SOL    HW228041   6.307   0.606   4.041
 9048SOL     OW28042   5.838   1.564   5.468
 9048SOL    HW128043   5.808   1.621   5.544
 9048SOL    HW228044   5.831   1.467   5.494
 9049SOL     OW28045   6.257   0.464   4.993
 9049SOL    HW128046   6.223   0.375   4.963
 9049SOL    HW228047   6.283   0.518   4.913
 9050SOL     OW28048   6.516   1.678   5.189
 9050SOL    HW128049   6.492   1.660   5.094
 9050SOL    HW228050   6.546   1.772   5.199
 9051SOL     OW28051   6.059   0.500   3.915
 9051SOL    HW128052   6.120   0.580   3.919
 9051SOL    HW228053   5.964   0.531   3.922
 9052SOL     OW28054   5.745   1.137   5.190
 9052SOL    HW128055   5.767   1.076   5.266
 9052SOL    HW228056   5.755   1.088   5.104
 9053SOL     OW28057   6.933   1.059   4.958
 9053SOL    HW128058   6.957   0.996   4.884
 9053SOL    HW228059   6.843   1.099   4.940
 9054SOL     OW28060   6.888   0.855   4.033
 9054SOL    HW128061   6.802   0.824   4.075
 9054SOL    HW228062   6.884   0.841   3.934
 9055SOL     OW28063   6.838   1.731   4.852
 9055SOL    HW128064   6.922   1.736   4.798
 9055SOL    HW228065   6.815   1.635   4.870
 9056SOL     OW28066   5.669   1.258   4.746
 9056SOL    HW128067   5.664   1.257   4.846
 9056SOL    HW228068   5.586   1.217   4.708
 9057SOL     OW28069   6.274   1.662   5.440
 9057SOL    HW128070   6.218   1.743   5.449
 9057SOL    HW228071   6.326   1.666   5.354
 9058SOL     OW28072   6.974   1.573   4.201
 9058SOL    HW128073   7.041   1.585   4.127
 9058SOL    HW228074   6.934   1.662   4.224
 9059SOL     OW28075   5.716   1.794   5.575
 9059SOL    HW128076   5.675   1.720   5.628
 9059SOL    HW228077   5.780   1.845   5.633
 9060SOL     OW28078   6.866   0.927   4.396
 9060SOL    HW128079   6.926   0.846   4.398
 9060SOL    HW228080   6.906   0.996   4.336
 9061SOL     OW28081   6.416   1.273   5.146
 9061SOL    HW128082   6.411   1.306   5.241
 9061SOL    HW228083   6.330   1.292   5.100
 9062SOL     OW28084   6.258   1.616   3.878
 9062SOL    HW128085   6.267   1.626   3.779
 9062SOL    HW228086   6.218   1.527   3.899
 9063SOL     OW28087   5.849   0.326   4.444
 9063SOL    HW128088   5.770   0.377   4.410
 9063SOL    HW228089   5.840   0.311   4.542
 9064SOL     OW28090   6.780   1.612   3.755
 9064SOL    HW128091   6.786   1.519   3.792
 9064SOL    HW228092   6.721   1.612   3.675
 9065SOL     OW28093   6.408   1.002   5.096
 9065SOL    HW128094   6.448   1.001   5.004
 9065SOL    HW228095   6.418   1.094   5.136
 9066SOL     OW28096   6.502   0.910   4.015
 9066SOL    HW128097   6.565   0.948   3.947
 9066SOL    HW228098   6.542   0.827   4.054
 9067SOL     OW28099   5.958   1.288   5.214
 9067SOL    HW128100   5.945   1.381   5.180
 9067SOL    HW228101   5.874   1.236   5.201
 9068SOL     OW28102   6.625   1.098   4.420
 9068SOL    HW128103   6.555   1.051   4.474
 9068SOL    HW228104   6.684   1.030   4.377
 9069SOL     OW28105   6.600   0.236   4.695
 9069SOL    HW128106   6.592   0.200   4.602
 9069SOL    HW228107   6.598   0.160   4.760
 9070SOL     OW28108   6.176   1.487   4.215
 9070SOL    HW128109   6.218   1.429   4.145
 9070SOL    HW228110   6.132   1.566   4.171
 9071SOL     OW28111   5.841   1.348   4.014
 9071SOL    HW128112   5.745   1.349   3.987
 9071SOL    HW228113   5.853   1.401   4.098
 9072SOL     OW28114   5.691   1.013   5.450
 9072SOL    HW128115   5.614   0.980   5.504
 9072SOL    HW228116   5.776   0.983   5.492
 9073SOL     OW28117   6.258   0.203   5.213
 9073SOL    HW128118   6.348   0.187   5.173
 9073SOL    HW228119   6.266   0.208   5.312
 9074SOL     OW28120   5.661   0.345   3.757
 9074SOL    HW128121   5.569   0.317   3.728
 9074SOL    HW228122   5.692   0.422   3.701
 9075SOL     OW28123   5.658   0.166   4.042
 9075SOL    HW128124   5.641   0.249   3.988
 9075SOL    HW228125   5.748   0.129   4.020
 9076SOL     OW28126   6.199   0.842   5.155
 9076SOL    HW128127   6.255   0.923   5.138
 9076SOL    HW228128   6.258   0.762   5.158
 9077SOL     OW28129   6.302   0.565   5.432
 9077SOL    HW128130   6.321   0.630   5.506
 9077SOL    HW228131   6.362   0.485   5.441
 9078SOL     OW28132   7.036   1.220   5.357
 9078SOL    HW128133   7.027   1.210   5.456
 9078SOL    HW228134   7.132   1.213   5.331
 9079SOL     OW28135   5.976   1.741   5.284
 9079SOL    HW128136   5.885   1.782   5.282
 9079SOL    HW228137   5.969   1.647   5.316
 9080SOL     OW28138   6.811   0.325   4.173
 9080SOL    HW128139   6.876   0.251   4.162
 9080SOL    HW228140   6.831   0.375   4.257
 9081SOL     OW28141   6.180   0.745   4.376
 9081SOL    HW128142   6.230   0.830   4.357
 9081SOL    HW228143   6.092   0.747   4.328
 9082SOL     OW28144   6.445   1.374   3.740
 9082SOL    HW128145   6.399   1.389   3.828
 9082SOL    HW228146   6.489   1.459   3.710
 9083SOL     OW28147   6.247   1.790   4.677
 9083SOL    HW128148   6.201   1.878   4.664
 9083SOL    HW228149   6.346   1.802   4.670
 9084SOL     OW28150   6.445   0.956   4.585
 9084SOL    HW128151   6.499   0.887   4.633
 9084SOL    HW228152   6.413   1.025   4.651
 9085SOL     OW28153   6.669   0.984   3.811
 9085SOL    HW128154   6.646   1.037   3.729
 9085SOL    HW228155   6.750   0.928   3.792
 9086SOL     OW28156   5.807   1.314   5.568
 9086SOL    HW128157   5.742   1.241   5.547
 9086SOL    HW228158   5.811   1.328   5.666
 9087SOL     OW28159   5.665   1.240   4.377
 9087SOL    HW128160   5.664   1.193   4.465
 9087SOL    HW228161   5.747   1.212   4.326
 9088SOL     OW28162   6.258   1.391   5.348
 9088SOL    HW128163   6.180   1.341   5.386
 9088SOL    HW228164   6.255   1.486   5.379
 9089SOL     OW28165   6.014   0.424   4.244
 9089SOL    HW128166   6.044   0.352   4.182
 9089SOL    HW228167   5.975   0.384   4.327
 9090SOL     OW28168   5.903   0.547   5.004
 9090SOL    HW128169   5.941   0.488   5.076
 9090SOL    HW228170   5.943   0.521   4.916
 9091SOL     OW28171   6.398   1.586   4.411
 9091SOL    HW128172   6.430   1.596   4.317
 9091SOL    HW228173   6.319   1.524   4.413
 9092SOL     OW28174   7.010   0.214   4.836
 9092SOL    HW128175   7.062   0.149   4.891
 9092SOL    HW228176   6.961   0.277   4.897
 9093SOL     OW28177   6.587   0.034   4.878
 9093SOL    HW128178   6.524  -0.038   4.847
 9093SOL    HW228179   6.680  -0.002   4.878
 9094SOL     OW28180   6.356   1.330   4.025
 9094SOL    HW128181   6.310   1.243   4.042
 9094SOL    HW228182   6.447   1.327   4.066
 9095SOL     OW28183   6.204   1.567   5.008
 9095SOL    HW128184   6.199   1.649   5.065
 9095SOL    HW228185   6.293   1.564   4.963
 9096SOL     OW28186   5.625   1.077   4.024
 9096SOL    HW128187   5.724   1.066   4.015
 9096SOL    HW228188   5.585   0.991   4.056
 9097SOL     OW28189   6.461   1.646   4.061
 9097SOL    HW128190   6.384   1.611   4.007
 9097SOL    HW228191   6.429   1.717   4.123
 9098SOL     OW28192   5.816   0.628   5.699
 9098SOL    HW128193   5.723   0.626   5.736
 9098SOL    HW228194   5.817   0.589   5.607
 9099SOL     OW28195   5.811   0.275   6.582
 9099SOL    HW128196   5.846   0.258   6.674
 9099SOL    HW228197   5.723   0.230   6.570
 9100SOL     OW28198   5.605   0.368   6.233
 9100SOL    HW128199   5.523   0.411   6.272
 9100SOL    HW228200   5.577   0.295   6.170
 9101SOL     OW28201   6.155   1.275   6.751
 9101SOL    HW128202   6.062   1.268   6.714
 9101SOL    HW228203   6.166   1.364   6.795
 9102SOL     OW28204   7.141   1.511   6.289
 9102SOL    HW128205   7.084   1.495   6.370
 9102SOL    HW228206   7.082   1.521   6.209
 9103SOL     OW28207   6.721   0.703   6.303
 9103SOL    HW128208   6.778   0.781   6.278
 9103SOL    HW228209   6.661   0.729   6.379
 9104SOL     OW28210   6.354   1.144   6.609
 9104SOL    HW128211   6.276   1.161   6.669
 9104SOL    HW228212   6.388   1.231   6.573
 9105SOL     OW28213   6.271   1.012   6.251
 9105SOL    HW128214   6.340   0.996   6.321
 9105SOL    HW228215   6.198   1.069   6.289
 9106SOL     OW28216   5.921   1.435   6.647
 9106SOL    HW128217   5.843   1.404   6.594
 9106SOL    HW228218   5.979   1.493   6.590
 9107SOL     OW28219   5.817   1.713   6.069
 9107SOL    HW128220   5.851   1.790   6.123
 9107SOL    HW228221   5.861   1.713   5.979
 9108SOL     OW28222   5.816   1.434   6.124
 9108SOL    HW128223   5.790   1.530   6.124
 9108SOL    HW228224   5.745   1.380   6.169
 9109SOL     OW28225   5.826   1.091   6.472
 9109SOL    HW128226   5.840   1.007   6.524
 9109SOL    HW228227   5.771   1.155   6.527
 9110SOL     OW28228   6.206   1.786   7.025
 9110SOL    HW128229   6.114   1.769   7.060
 9110SOL    HW228230   6.234   1.878   7.051
 9111SOL     OW28231   6.192   0.964   5.709
 9111SOL    HW128232   6.199   1.048   5.655
 9111SOL    HW228233   6.238   0.977   5.797
 9112SOL     OW28234   5.708   0.643   6.149
 9112SOL    HW128235   5.663   0.555   6.166
 9112SOL    HW228236   5.707   0.697   6.233
 9113SOL     OW28237   5.613   1.596   5.703
 9113SOL    HW128238   5.594   1.500   5.724
 9113SOL    HW228239   5.580   1.654   5.778
 9114SOL     OW28240   6.199   1.365   6.312
 9114SOL    HW128241   6.150   1.278   6.321
 9114SOL    HW228242   6.176   1.408   6.225
 9115SOL     OW28243   6.879   1.228   7.009
 9115SOL    HW128244   6.916   1.155   6.951
 9115SOL    HW228245   6.931   1.233   7.094
 9116SOL     OW28246   6.395   0.004   6.088
 9116SOL    HW128247   6.435   0.095   6.079
 9116SOL    HW228248   6.295   0.012   6.094
 9117SOL     OW28249   5.783   0.976   6.850
 9117SOL    HW128250   5.872   0.931   6.836
 9117SOL    HW228251   5.710   0.911   6.831
 9118SOL     OW28252   6.184   0.729   5.856
 9118SOL    HW128253   6.208   0.798   5.788
 9118SOL    HW228254   6.106   0.762   5.910
 9119SOL     OW28255   6.867   0.345   6.530
 9119SOL    HW128256   6.781   0.295   6.517
 9119SOL    HW228257   6.929   0.291   6.586
 9120SOL     OW28258   6.393   0.605   7.051
 9120SOL    HW128259   6.346   0.602   7.140
 9120SOL    HW228260   6.342   0.550   6.985
 9121SOL     OW28261   6.577   0.410   6.828
 9121SOL    HW128262   6.500   0.444   6.882
 9121SOL    HW228263   6.543   0.359   6.749
 9122SOL     OW28264   6.627   0.701   6.015
 9122SOL    HW128265   6.653   0.697   6.111
 9122SOL    HW228266   6.542   0.650   6.001
 9123SOL     OW28267   5.662   0.811   6.375
 9123SOL    HW128268   5.761   0.799   6.384
 9123SOL    HW228269   5.638   0.906   6.396
 9124SOL     OW28270   5.716   1.821   7.157
 9124SOL    HW128271   5.706   1.806   7.256
 9124SOL    HW228272   5.630   1.857   7.121
 9125SOL     OW28273   6.451   0.348   5.781
 9125SOL    HW128274   6.510   0.411   5.732
 9125SOL    HW228275   6.470   0.254   5.752
 9126SOL     OW28276   6.948   1.144   6.131
 9126SOL    HW128277   7.031   1.115   6.083
 9126SOL    HW228278   6.899   1.211   6.075
 9127SOL     OW28279   6.136   0.196   6.471
 9127SOL    HW128280   6.131   0.191   6.571
 9127SOL    HW228281   6.138   0.292   6.442
 9128SOL     OW28282   6.594   1.456   6.063
 9128SOL    HW128283   6.548   1.528   6.011
 9128SOL    HW228284   6.590   1.476   6.161
 9129SOL     OW28285   5.937   1.801   6.439
 9129SOL    HW128286   5.987   1.715   6.445
 9129SOL    HW228287   6.002   1.878   6.436
 9130SOL     OW28288   5.907   0.943   5.828
 9130SOL    HW128289   5.989   0.982   5.786
 9130SOL    HW228290   5.880   0.861   5.779
 9131SOL     OW28291   6.697   1.776   5.823
 9131SOL    HW128292   6.637   1.714   5.873
 9131SOL    HW228293   6.728   1.732   5.738
 9132SOL     OW28294   6.050   1.743   5.909
 9132SOL    HW128295   6.083   1.782   5.995
 9132SOL    HW228296   6.126   1.736   5.844
 9133SOL     OW28297   5.835   1.785   6.827
 9133SOL    HW128298   5.892   1.720   6.877
 9133SOL    HW228299   5.819   1.752   6.734
 9134SOL     OW28300   6.526   1.698   6.490
 9134SOL    HW128301   6.606   1.641   6.511
 9134SOL    HW228302   6.477   1.658   6.413
 9135SOL     OW28303   5.968   0.700   6.066
 9135SOL    HW128304   6.013   0.610   6.063
 9135SOL    HW228305   5.874   0.689   6.099
 9136SOL     OW28306   6.200   0.122   5.703
 9136SOL    HW128307   6.298   0.100   5.710
 9136SOL    HW228308   6.169   0.105   5.610
 9137SOL     OW28309   6.474   1.514   6.781
 9137SOL    HW128310   6.451   1.489   6.687
 9137SOL    HW228311   6.535   1.445   6.820
 9138SOL     OW28312   6.389   1.402   6.510
 9138SOL    HW128313   6.479   1.416   6.468
 9138SOL    HW228314   6.318   1.404   6.439
 9139SOL     OW28315   6.508   0.503   6.485
 9139SOL    HW128316   6.483   0.494   6.389
 9139SOL    HW228317   6.556   0.421   6.516
 9140SOL     OW28318   6.125   0.064   6.098
 9140SOL    HW128319   6.044   0.065   6.156
 9140SOL    HW228320   6.128   0.147   6.043
 9141SOL     OW28321   7.020   1.188   5.627
 9141SOL    HW128322   7.052   1.112   5.684
 9141SOL    HW228323   6.928   1.215   5.657
 9142SOL     OW28324   5.883   0.035   5.757
 9142SOL    HW128325   5.932   0.119   5.736
 9142SOL    HW228326   5.945  -0.030   5.802
 9143SOL     OW28327   6.521   0.236   6.066
 9143SOL    HW128328   6.473   0.277   5.988
 9143SOL    HW228329   6.620   0.234   6.047
 9144SOL     OW28330   6.813   1.570   6.379
 9144SOL    HW128331   6.834   1.644   6.314
 9144SOL    HW228332   6.881   1.570   6.452
 9145SOL     OW28333   6.045   1.152   6.327
 9145SOL    HW128334   5.974   1.125   6.392
 9145SOL    HW228335   6.019   1.124   6.234
 9146SOL     OW28336   6.857   1.797   6.177
 9146SOL    HW128337   6.901   1.861   6.113
 9146SOL    HW228338   6.807   1.849   6.247
 9147SOL     OW28339   6.618   0.549   5.602
 9147SOL    HW128340   6.577   0.631   5.563
 9147SOL    HW228341   6.682   0.575   5.675
 9148SOL     OW28342   6.147   0.222   6.733
 9148SOL    HW128343   6.185   0.138   6.770
 9148SOL    HW228344   6.059   0.241   6.777
 9149SOL     OW28345   6.452   0.454   6.228
 9149SOL    HW128346   6.420   0.526   6.166
 9149SOL    HW228347   6.476   0.373   6.175
 9150SOL     OW28348   6.603   0.039   6.339
 9150SOL    HW128349   6.531   0.044   6.270
 9150SOL    HW228350   6.579  -0.030   6.408
 9151SOL     OW28351   6.074   1.385   5.760
 9151SOL    HW128352   5.987   1.370   5.807
 9151SOL    HW228353   6.057   1.411   5.665
 9152SOL     OW28354   6.113   0.256   5.914
 9152SOL    HW128355   6.140   0.197   5.839
 9152SOL    HW228356   6.113   0.351   5.883
 9153SOL     OW28357   7.178   1.629   7.211
 9153SOL    HW128358   7.205   1.663   7.121
 9153SOL    HW228359   7.257   1.591   7.257
 9154SOL     OW28360   6.697   1.195   6.686
 9154SOL    HW128361   6.657   1.239   6.767
 9154SOL    HW228362   6.656   1.232   6.603
 9155SOL     OW28363   6.291   1.050   5.954
 9155SOL    HW128364   6.277   1.057   6.053
 9155SOL    HW228365   6.375   0.999   5.936
 9156SOL     OW28366   5.996   0.813   6.837
 9156SOL    HW128367   6.082   0.825   6.887
 9156SOL    HW228368   5.954   0.726   6.864
 9157SOL     OW28369   6.860   0.386   6.848
 9157SOL    HW128370   6.881   0.460   6.912
 9157SOL    HW228371   6.771   0.403   6.805
 9158SOL     OW28372   5.650   1.564   6.917
 9158SOL    HW128373   5.604   1.646   6.883
 9158SOL    HW228374   5.748   1.583   6.926
 9159SOL     OW28375   5.953   1.100   6.087
 9159SOL    HW128376   5.946   1.183   6.031
 9159SOL    HW228377   5.957   1.020   6.027
 9160SOL     OW28378   6.152   0.537   6.451
 9160SOL    HW128379   6.164   0.603   6.377
 9160SOL    HW228380   6.198   0.571   6.534
 9161SOL     OW28381   6.838   1.348   5.974
 9161SOL    HW128382   6.888   1.425   6.014
 9161SOL    HW228383   6.743   1.350   6.006
 9162SOL     OW28384   6.858   1.445   6.728
 9162SOL    HW128385   6.905   1.458   6.815
 9162SOL    HW228386   6.792   1.371   6.737
 9163SOL     OW28387   5.940   1.510   6.915
 9163SOL    HW128388   5.919   1.466   6.828
 9163SOL    HW228389   6.037   1.536   6.918
 9164SOL     OW28390   6.159   0.870   6.615
 9164SOL    HW128391   6.203   0.959   6.606
 9164SOL    HW228392   6.096   0.870   6.692
 9165SOL     OW28393   6.946   0.862   6.631
 9165SOL    HW128394   6.871   0.862   6.565
 9165SOL    HW228395   6.983   0.770   6.640
 9166SOL     OW28396   6.795   0.525   5.861
 9166SOL    HW128397   6.808   0.441   5.915
 9166SOL    HW228398   6.766   0.599   5.921
 9167SOL     OW28399   5.893   0.213   6.817
 9167SOL    HW128400   5.870   0.250   6.907
 9167SOL    HW228401   5.863   0.118   6.811
 9168SOL     OW28402   5.623   1.310   6.868
 9168SOL    HW128403   5.676   1.261   6.936
 9168SOL    HW228404   5.645   1.408   6.873
 9169SOL     OW28405   6.318   0.634   6.650
 9169SOL    HW128406   6.377   0.608   6.574
 9169SOL    HW228407   6.290   0.730   6.639
 9170SOL     OW28408   5.893   0.063   6.204
 9170SOL    HW128409   5.882   0.157   6.237
 9170SOL    HW228410   5.888   0.000   6.281
 9171SOL     OW28411   7.208   0.367   5.960
 9171SOL    HW128412   7.210   0.291   6.024
 9171SOL    HW228413   7.160   0.444   6.000
 9172SOL     OW28414   6.609   0.766   6.552
 9172SOL    HW128415   6.624   0.787   6.648
 9172SOL    HW228416   6.579   0.671   6.543
 9173SOL     OW28417   6.889   0.838   5.628
 9173SOL    HW128418   6.923   0.745   5.643
 9173SOL    HW228419   6.907   0.865   5.533
 9174SOL     OW28420   6.654   1.333   6.435
 9174SOL    HW128421   6.661   1.249   6.380
 9174SOL    HW228422   6.716   1.402   6.399
 9175SOL     OW28423   5.905   0.810   6.535
 9175SOL    HW128424   5.998   0.846   6.540
 9175SOL    HW228425   5.899   0.725   6.587
 9176SOL     OW28426   5.925   0.509   6.592
 9176SOL    HW128427   5.873   0.426   6.575
 9176SOL    HW228428   6.002   0.514   6.528
 9177SOL     OW28429   6.746   0.207   7.063
 9177SOL    HW128430   6.746   0.271   7.140
 9177SOL    HW228431   6.774   0.255   6.980
 9178SOL     OW28432   5.594   1.326   5.786
 9178SOL    HW128433   5.501   1.347   5.755
 9178SOL    HW228434   5.604   1.227   5.799
 9179SOL     OW28435   5.674   1.801   6.513
 9179SOL    HW128436   5.632   1.715   6.486
 9179SOL    HW228437   5.768   1.804   6.479
 9180SOL     OW28438   6.090   1.568   6.496
 9180SOL    HW128439   6.156   1.642   6.505
 9180SOL    HW228440   6.134   1.489   6.454
 9181SOL     OW28441   6.588   0.796   6.824
 9181SOL    HW128442   6.629   0.764   6.910
 9181SOL    HW228443   6.492   0.769   6.821
 9182SOL     OW28444   5.626   0.544   6.700
 9182SOL    HW128445   5.711   0.511   6.659
 9182SOL    HW228446   5.639   0.559   6.798
 9183SOL     OW28447   6.401   0.572   5.911
 9183SOL    HW128448   6.408   0.483   5.865
 9183SOL    HW228449   6.307   0.606   5.903
 9184SOL     OW28450   6.257   0.464   6.855
 9184SOL    HW128451   6.223   0.375   6.825
 9184SOL    HW228452   6.283   0.518   6.775
 9185SOL     OW28453   6.516   1.678   7.051
 9185SOL    HW128454   6.492   1.660   6.956
 9185SOL    HW228455   6.546   1.772   7.061
 9186SOL     OW28456   6.059   0.500   5.777
 9186SOL    HW128457   6.120   0.580   5.781
 9186SOL    HW228458   5.964   0.531   5.784
 9187SOL     OW28459   5.745   1.137   7.052
 9187SOL    HW128460   5.767   1.076   7.128
 9187SOL    HW228461   5.755   1.088   6.966
 9188SOL     OW28462   6.933   1.059   6.820
 9188SOL    HW128463   6.957   0.996   6.746
 9188SOL    HW228464   6.843   1.099   6.802
 9189SOL     OW28465   6.888   0.855   5.895
 9189SOL    HW128466   6.802   0.824   5.937
 9189SOL    HW228467   6.884   0.841   5.796
 9190SOL     OW28468   6.838   1.731   6.714
 9190SOL    HW128469   6.922   1.736   6.660
 9190SOL    HW228470   6.815   1.635   6.732
 9191SOL     OW28471   5.669   1.258   6.608
 9191SOL    HW128472   5.664   1.257   6.708
 9191SOL    HW228473   5.586   1.217   6.570
 9192SOL     OW28474   6.974   1.573   6.063
 9192SOL    HW128475   7.041   1.585   5.989
 9192SOL    HW228476   6.934   1.662   6.086
 9193SOL     OW28477   6.866   0.927   6.258
 9193SOL    HW128478   6.926   0.846   6.260
 9193SOL    HW228479   6.906   0.996   6.198
 9194SOL     OW28480   6.258   1.616   5.740
 9194SOL    HW128481   6.267   1.626   5.641
 9194SOL    HW228482   6.218   1.527   5.761
 9195SOL     OW28483   5.849   0.326   6.306
 9195SOL    HW128484   5.770   0.377   6.272
 9195SOL    HW228485   5.840   0.311   6.404
 9196SOL     OW28486   6.780   1.612   5.617
 9196SOL    HW128487   6.786   1.519   5.654
 9196SOL    HW228488   6.721   1.612   5.537
 9197SOL     OW28489   6.408   1.002   6.958
 9197SOL    HW128490   6.448   1.001   6.866
 9197SOL    HW228491   6.418   1.094   6.998
 9198SOL     OW28492   6.502   0.910   5.877
 9198SOL    HW128493   6.565   0.948   5.809
 9198SOL    HW228494   6.542   0.827   5.916
 9199SOL     OW28495   6.625   1.098   6.282
 9199SOL    HW128496   6.555   1.051   6.336
 9199SOL    HW228497   6.684   1.030   6.239
 9200SOL     OW28498   6.600   0.236   6.557
 9200SOL    HW128499   6.592   0.200   6.464
 9200SOL    HW228500   6.598   0.160   6.622
 9201SOL     OW28501   6.176   1.487   6.077
 9201SOL    HW128502   6.218   1.429   6.007
 9201SOL    HW228503   6.132   1.566   6.033
 9202SOL     OW28504   5.841   1.348   5.876
 9202SOL    HW128505   5.745   1.349   5.849
 9202SOL    HW228506   5.853   1.401   5.960
 9203SOL     OW28507   5.661   0.345   5.619
 9203SOL    HW128508   5.569   0.317   5.590
 9203SOL    HW228509   5.692   0.422   5.563
 9204SOL     OW28510   5.658   0.166   5.904
 9204SOL    HW128511   5.641   0.249   5.850
 9204SOL    HW228512   5.748   0.129   5.882
 9205SOL     OW28513   5.976   1.741   7.146
 9205SOL    HW128514   5.885   1.782   7.144
 9205SOL    HW228515   5.969   1.647   7.178
 9206SOL     OW28516   6.811   0.325   6.035
 9206SOL    HW128517   6.876   0.251   6.024
 9206SOL    HW228518   6.831   0.375   6.119
 9207SOL     OW28519   6.180   0.745   6.238
 9207SOL    HW128520   6.230   0.830   6.219
 9207SOL    HW228521   6.092   0.747   6.190
 9208SOL     OW28522   6.445   1.374   5.602
 9208SOL    HW128523   6.399   1.389   5.690
 9208SOL    HW228524   6.489   1.459   5.572
 9209SOL     OW28525   6.247   1.790   6.539
 9209SOL    HW128526   6.201   1.878   6.526
 9209SOL    HW228527   6.346   1.802   6.532
 9210SOL     OW28528   6.445   0.956   6.447
 9210SOL    HW128529   6.499   0.887   6.495
 9210SOL    HW228530   6.413   1.025   6.513
 9211SOL     OW28531   6.669   0.984   5.673
 9211SOL    HW128532   6.646   1.037   5.591
 9211SOL    HW228533   6.750   0.928   5.654
 9212SOL     OW28534   5.665   1.240   6.239
 9212SOL    HW128535   5.664   1.193   6.327
 9212SOL    HW228536   5.747   1.212   6.188
 9213SOL     OW28537   6.014   0.424   6.106
 9213SOL    HW128538   6.044   0.352   6.044
 9213SOL    HW228539   5.975   0.384   6.189
 9214SOL     OW28540   5.903   0.547   6.866
 9214SOL    HW128541   5.941   0.488   6.938
 9214SOL    HW228542   5.943   0.521   6.778
 9215SOL     OW28543   6.398   1.586   6.273
 9215SOL    HW128544   6.430   1.596   6.179
 9215SOL    HW228545   6.319   1.524   6.275
 9216SOL     OW28546   7.010   0.214   6.698
 9216SOL    HW128547   7.062   0.149   6.753
 9216SOL    HW228548   6.961   0.277   6.759
 9217SOL     OW28549   6.587   0.034   6.740
 9217SOL    HW128550   6.524  -0.038   6.709
 9217SOL    HW228551   6.680  -0.002   6.740
 9218SOL     OW28552   6.356   1.330   5.887
 9218SOL    HW128553   6.310   1.243   5.904
 9218SOL    HW228554   6.447   1.327   5.928
 9219SOL     OW28555   6.204   1.567   6.870
 9219SOL    HW128556   6.199   1.649   6.927
 9219SOL    HW228557   6.293   1.564   6.825
 9220SOL     OW28558   5.625   1.077   5.886
 9220SOL    HW128559   5.724   1.066   5.877
 9220SOL    HW228560   5.585   0.991   5.918
 9221SOL     OW28561   6.461   1.646   5.923
 9221SOL    HW128562   6.384   1.611   5.869
 9221SOL    HW228563   6.429   1.717   5.985
 9222SOL     OW28564   5.816   2.490   0.113
 9222SOL    HW128565   5.723   2.488   0.150
 9222SOL    HW228566   5.817   2.451   0.021
 9223SOL     OW28567   5.811   2.137   0.996
 9223SOL    HW128568   5.846   2.120   1.088
 9223SOL    HW228569   5.723   2.092   0.984
 9224SOL     OW28570   5.605   2.230   0.647
 9224SOL    HW128571   5.523   2.273   0.686
 9224SOL    HW228572   5.577   2.157   0.584
 9225SOL     OW28573   6.155   3.137   1.165
 9225SOL    HW128574   6.062   3.130   1.128
 9225SOL    HW228575   6.166   3.226   1.209
 9226SOL     OW28576   7.141   3.373   0.703
 9226SOL    HW128577   7.084   3.357   0.784
 9226SOL    HW228578   7.082   3.383   0.623
 9227SOL     OW28579   6.721   2.565   0.717
 9227SOL    HW128580   6.778   2.643   0.692
 9227SOL    HW228581   6.661   2.591   0.793
 9228SOL     OW28582   6.354   3.006   1.023
 9228SOL    HW128583   6.276   3.023   1.083
 9228SOL    HW228584   6.388   3.093   0.987
 9229SOL     OW28585   6.436   2.660   1.823
 9229SOL    HW128586   6.432   2.736   1.888
 9229SOL    HW228587   6.458   2.696   1.732
 9230SOL     OW28588   6.271   2.874   0.665
 9230SOL    HW128589   6.340   2.858   0.735
 9230SOL    HW228590   6.198   2.931   0.703
 9231SOL     OW28591   6.272   3.023   1.803
 9231SOL    HW128592   6.332   3.102   1.817
 9231SOL    HW228593   6.186   3.054   1.762
 9232SOL     OW28594   5.921   3.297   1.061
 9232SOL    HW128595   5.843   3.266   1.008
 9232SOL    HW228596   5.979   3.355   1.004
 9233SOL     OW28597   6.024   2.254   1.499
 9233SOL    HW128598   6.106   2.198   1.508
 9233SOL    HW228599   5.943   2.196   1.503
 9234SOL     OW28600   5.817   3.575   0.483
 9234SOL    HW128601   5.851   3.652   0.537
 9234SOL    HW228602   5.861   3.575   0.393
 9235SOL     OW28603   6.713   3.203   1.690
 9235SOL    HW128604   6.760   3.203   1.778
 9235SOL    HW228605   6.665   3.116   1.679
 9236SOL     OW28606   5.816   3.296   0.538
 9236SOL    HW128607   5.790   3.392   0.538
 9236SOL    HW228608   5.745   3.242   0.583
 9237SOL     OW28609   5.826   2.953   0.886
 9237SOL    HW128610   5.840   2.869   0.938
 9237SOL    HW228611   5.771   3.017   0.941
 9238SOL     OW28612   6.206   3.648   1.439
 9238SOL    HW128613   6.114   3.631   1.474
 9238SOL    HW228614   6.234   3.740   1.465
 9239SOL     OW28615   6.192   2.826   0.123
 9239SOL    HW128616   6.199   2.910   0.069
 9239SOL    HW228617   6.238   2.839   0.211
 9240SOL     OW28618   5.708   2.505   0.563
 9240SOL    HW128619   5.663   2.417   0.580
 9240SOL    HW228620   5.707   2.559   0.647
 9241SOL     OW28621   5.613   3.458   0.117
 9241SOL    HW128622   5.594   3.362   0.138
 9241SOL    HW228623   5.580   3.516   0.192
 9242SOL     OW28624   5.699   2.599   1.597
 9242SOL    HW128625   5.787   2.586   1.642
 9242SOL    HW228626   5.686   2.696   1.575
 9243SOL     OW28627   6.199   3.227   0.726
 9243SOL    HW128628   6.150   3.140   0.735
 9243SOL    HW228629   6.176   3.270   0.639
 9244SOL     OW28630   6.879   3.090   1.423
 9244SOL    HW128631   6.916   3.017   1.365
 9244SOL    HW228632   6.931   3.095   1.508
 9245SOL     OW28633   6.395   1.866   0.502
 9245SOL    HW128634   6.435   1.957   0.493
 9245SOL    HW228635   6.295   1.874   0.508
 9246SOL     OW28636   5.783   2.838   1.264
 9246SOL    HW128637   5.872   2.793   1.250
 9246SOL    HW228638   5.710   2.773   1.245
 9247SOL     OW28639   6.773   3.654   1.616
 9247SOL    HW128640   6.797   3.714   1.540
 9247SOL    HW228641   6.780   3.559   1.586
 9248SOL     OW28642   5.903   2.113   1.801
 9248SOL    HW128643   5.974   2.184   1.807
 9248SOL    HW228644   5.815   2.152   1.829
 9249SOL     OW28645   6.184   2.591   0.270
 9249SOL    HW128646   6.208   2.660   0.202
 9249SOL    HW228647   6.106   2.624   0.324
 9250SOL     OW28648   6.867   2.207   0.944
 9250SOL    HW128649   6.781   2.157   0.931
 9250SOL    HW228650   6.929   2.153   1.000
 9251SOL     OW28651   6.393   2.467   1.465
 9251SOL    HW128652   6.346   2.464   1.554
 9251SOL    HW228653   6.342   2.412   1.399
 9252SOL     OW28654   6.980   2.331   1.674
 9252SOL    HW128655   6.960   2.374   1.762
 9252SOL    HW228656   7.058   2.269   1.683
 9253SOL     OW28657   6.559   2.752   1.572
 9253SOL    HW128658   6.605   2.668   1.543
 9253SOL    HW228659   6.503   2.786   1.497
 9254SOL     OW28660   6.577   2.272   1.242
 9254SOL    HW128661   6.500   2.306   1.296
 9254SOL    HW228662   6.543   2.221   1.163
 9255SOL     OW28663   6.627   2.563   0.429
 9255SOL    HW128664   6.653   2.559   0.525
 9255SOL    HW228665   6.542   2.512   0.415
 9256SOL     OW28666   5.662   2.673   0.789
 9256SOL    HW128667   5.761   2.661   0.798
 9256SOL    HW228668   5.638   2.768   0.810
 9257SOL     OW28669   5.716   3.683   1.571
 9257SOL    HW128670   5.706   3.668   1.670
 9257SOL    HW228671   5.630   3.719   1.535
 9258SOL     OW28672   6.451   2.210   0.195
 9258SOL    HW128673   6.510   2.273   0.146
 9258SOL    HW228674   6.470   2.116   0.166
 9259SOL     OW28675   6.948   3.006   0.545
 9259SOL    HW128676   7.031   2.977   0.497
 9259SOL    HW228677   6.899   3.073   0.489
 9260SOL     OW28678   6.136   2.058   0.885
 9260SOL    HW128679   6.131   2.053   0.985
 9260SOL    HW228680   6.138   2.154   0.856
 9261SOL     OW28681   6.594   3.318   0.477
 9261SOL    HW128682   6.548   3.390   0.425
 9261SOL    HW228683   6.590   3.338   0.575
 9262SOL     OW28684   5.937   3.663   0.853
 9262SOL    HW128685   5.987   3.577   0.859
 9262SOL    HW228686   6.002   3.740   0.850
 9263SOL     OW28687   6.813   3.412   1.506
 9263SOL    HW128688   6.819   3.335   1.570
 9263SOL    HW228689   6.761   3.386   1.426
 9264SOL     OW28690   5.907   2.805   0.242
 9264SOL    HW128691   5.989   2.844   0.200
 9264SOL    HW228692   5.880   2.723   0.193
 9265SOL     OW28693   6.047   3.128   1.727
 9265SOL    HW128694   5.997   3.129   1.641
 9265SOL    HW228695   5.984   3.110   1.803
 9266SOL     OW28696   6.697   3.638   0.237
 9266SOL    HW128697   6.637   3.576   0.287
 9266SOL    HW228698   6.728   3.594   0.152
 9267SOL     OW28699   5.788   2.147   1.498
 9267SOL    HW128700   5.708   2.207   1.485
 9267SOL    HW228701   5.778   2.098   1.584
 9268SOL     OW28702   7.218   3.239   0.081
 9268SOL    HW128703   7.186   3.333   0.071
 9268SOL    HW228704   7.142   3.176   0.069
 9269SOL     OW28705   6.050   3.605   0.323
 9269SOL    HW128706   6.083   3.644   0.409
 9269SOL    HW228707   6.126   3.598   0.258
 9270SOL     OW28708   5.835   3.647   1.241
 9270SOL    HW128709   5.892   3.582   1.291
 9270SOL    HW228710   5.819   3.614   1.148
 9271SOL     OW28711   6.526   3.560   0.904
 9271SOL    HW128712   6.606   3.503   0.925
 9271SOL    HW228713   6.477   3.520   0.827
 9272SOL     OW28714   5.968   2.562   0.480
 9272SOL    HW128715   6.013   2.472   0.477
 9272SOL    HW228716   5.874   2.551   0.513
 9273SOL     OW28717   6.367   2.126   1.749
 9273SOL    HW128718   6.434   2.065   1.792
 9273SOL    HW228719   6.294   2.145   1.814
 9274SOL     OW28720   6.474   3.376   1.195
 9274SOL    HW128721   6.451   3.351   1.101
 9274SOL    HW228722   6.535   3.307   1.234
 9275SOL     OW28723   6.389   3.264   0.924
 9275SOL    HW128724   6.479   3.278   0.882
 9275SOL    HW228725   6.318   3.266   0.853
 9276SOL     OW28726   6.508   2.365   0.899
 9276SOL    HW128727   6.483   2.356   0.803
 9276SOL    HW228728   6.556   2.283   0.930
 9277SOL     OW28729   6.125   1.926   0.512
 9277SOL    HW128730   6.044   1.927   0.570
 9277SOL    HW228731   6.128   2.009   0.457
 9278SOL     OW28732   6.521   2.098   0.480
 9278SOL    HW128733   6.473   2.139   0.402
 9278SOL    HW228734   6.620   2.096   0.461
 9279SOL     OW28735   6.662   2.545   1.464
 9279SOL    HW128736   6.582   2.484   1.467
 9279SOL    HW228737   6.743   2.492   1.440
 9280SOL     OW28738   6.813   3.432   0.793
 9280SOL    HW128739   6.834   3.506   0.728
 9280SOL    HW228740   6.881   3.432   0.866
 9281SOL     OW28741   6.045   3.014   0.741
 9281SOL    HW128742   5.974   2.987   0.806
 9281SOL    HW228743   6.019   2.986   0.648
 9282SOL     OW28744   6.857   3.659   0.591
 9282SOL    HW128745   6.901   3.723   0.527
 9282SOL    HW228746   6.807   3.711   0.661
 9283SOL     OW28747   6.618   2.411   0.016
 9283SOL    HW128748   6.577   2.493  -0.023
 9283SOL    HW228749   6.682   2.437   0.089
 9284SOL     OW28750   5.664   2.418   1.386
 9284SOL    HW128751   5.756   2.417   1.345
 9284SOL    HW228752   5.658   2.492   1.453
 9285SOL     OW28753   6.147   2.084   1.147
 9285SOL    HW128754   6.185   2.000   1.184
 9285SOL    HW228755   6.059   2.103   1.191
 9286SOL     OW28756   6.452   2.316   0.642
 9286SOL    HW128757   6.420   2.388   0.580
 9286SOL    HW228758   6.476   2.235   0.589
 9287SOL     OW28759   6.603   1.901   0.753
 9287SOL    HW128760   6.531   1.906   0.684
 9287SOL    HW228761   6.579   1.832   0.822
 9288SOL     OW28762   6.074   3.247   0.174
 9288SOL    HW128763   5.987   3.232   0.221
 9288SOL    HW228764   6.057   3.273   0.079
 9289SOL     OW28765   6.113   2.118   0.328
 9289SOL    HW128766   6.140   2.059   0.253
 9289SOL    HW228767   6.113   2.213   0.297
 9290SOL     OW28768   6.650   3.209   1.340
 9290SOL    HW128769   6.570   3.186   1.395
 9290SOL    HW228770   6.733   3.183   1.389
 9291SOL     OW28771   6.697   3.057   1.100
 9291SOL    HW128772   6.657   3.101   1.181
 9291SOL    HW228773   6.656   3.094   1.017
 9292SOL     OW28774   6.501   1.951   1.402
 9292SOL    HW128775   6.526   1.931   1.307
 9292SOL    HW228776   6.573   2.007   1.444
 9293SOL     OW28777   6.566   2.978   1.719
 9293SOL    HW128778   6.467   2.984   1.729
 9293SOL    HW228779   6.589   2.898   1.663
 9294SOL     OW28780   6.291   2.912   0.368
 9294SOL    HW128781   6.277   2.919   0.467
 9294SOL    HW228782   6.375   2.861   0.350
 9295SOL     OW28783   5.996   2.675   1.251
 9295SOL    HW128784   6.082   2.687   1.301
 9295SOL    HW228785   5.954   2.588   1.278
 9296SOL     OW28786   6.860   2.248   1.262
 9296SOL    HW128787   6.881   2.322   1.326
 9296SOL    HW228788   6.771   2.265   1.219
 9297SOL     OW28789   5.650   3.426   1.331
 9297SOL    HW128790   5.604   3.508   1.297
 9297SOL    HW228791   5.748   3.445   1.340
 9298SOL     OW28792   5.953   2.962   0.501
 9298SOL    HW128793   5.946   3.045   0.445
 9298SOL    HW228794   5.957   2.882   0.441
 9299SOL     OW28795   6.152   2.399   0.865
 9299SOL    HW128796   6.164   2.465   0.791
 9299SOL    HW228797   6.198   2.433   0.948
 9300SOL     OW28798   6.838   3.210   0.388
 9300SOL    HW128799   6.888   3.287   0.428
 9300SOL    HW228800   6.743   3.212   0.420
 9301SOL     OW28801   6.858   3.307   1.142
 9301SOL    HW128802   6.905   3.320   1.229
 9301SOL    HW228803   6.792   3.233   1.151
 9302SOL     OW28804   5.940   3.372   1.329
 9302SOL    HW128805   5.919   3.328   1.242
 9302SOL    HW228806   6.037   3.398   1.332
 9303SOL     OW28807   5.988   2.613   1.598
 9303SOL    HW128808   6.056   2.668   1.551
 9303SOL    HW228809   6.028   2.525   1.625
 9304SOL     OW28810   6.599   1.967   1.770
 9304SOL    HW128811   6.605   2.052   1.718
 9304SOL    HW228812   6.631   1.891   1.713
 9305SOL     OW28813   6.090   1.912   1.740
 9305SOL    HW128814   6.048   1.855   1.670
 9305SOL    HW228815   6.024   1.981   1.772
 9306SOL     OW28816   6.159   2.732   1.029
 9306SOL    HW128817   6.203   2.821   1.020
 9306SOL    HW228818   6.096   2.732   1.106
 9307SOL     OW28819   6.946   2.724   1.045
 9307SOL    HW128820   6.871   2.724   0.979
 9307SOL    HW228821   6.983   2.632   1.054
 9308SOL     OW28822   6.795   2.387   0.275
 9308SOL    HW128823   6.808   2.303   0.329
 9308SOL    HW228824   6.766   2.461   0.335
 9309SOL     OW28825   5.893   2.075   1.231
 9309SOL    HW128826   5.870   2.112   1.321
 9309SOL    HW228827   5.863   1.980   1.225
 9310SOL     OW28828   5.623   3.172   1.282
 9310SOL    HW128829   5.676   3.123   1.350
 9310SOL    HW228830   5.645   3.270   1.287
 9311SOL     OW28831   6.318   2.496   1.064
 9311SOL    HW128832   6.377   2.470   0.988
 9311SOL    HW228833   6.290   2.592   1.053
 9312SOL     OW28834   5.893   1.925   0.618
 9312SOL    HW128835   5.882   2.019   0.651
 9312SOL    HW228836   5.888   1.862   0.695
 9313SOL     OW28837   7.208   2.229   0.374
 9313SOL    HW128838   7.210   2.153   0.438
 9313SOL    HW228839   7.160   2.306   0.414
 9314SOL     OW28840   6.609   2.628   0.966
 9314SOL    HW128841   6.624   2.649   1.062
 9314SOL    HW228842   6.579   2.533   0.957
 9315SOL     OW28843   6.566   3.435   1.700
 9315SOL    HW128844   6.546   3.479   1.612
 9315SOL    HW228845   6.605   3.344   1.684
 9316SOL     OW28846   5.936   2.760   1.804
 9316SOL    HW128847   6.012   2.804   1.852
 9316SOL    HW228848   5.971   2.713   1.722
 9317SOL     OW28849   6.889   2.700   0.042
 9317SOL    HW128850   6.923   2.607   0.057
 9317SOL    HW228851   6.907   2.727  -0.053
 9318SOL     OW28852   6.654   3.195   0.849
 9318SOL    HW128853   6.661   3.111   0.794
 9318SOL    HW228854   6.716   3.264   0.813
 9319SOL     OW28855   5.905   2.672   0.949
 9319SOL    HW128856   5.998   2.708   0.954
 9319SOL    HW228857   5.899   2.587   1.001
 9320SOL     OW28858   5.925   2.371   1.006
 9320SOL    HW128859   5.873   2.288   0.989
 9320SOL    HW228860   6.002   2.376   0.942
 9321SOL     OW28861   6.724   2.242   1.678
 9321SOL    HW128862   6.679   2.305   1.742
 9321SOL    HW228863   6.817   2.273   1.661
 9322SOL     OW28864   6.746   2.069   1.477
 9322SOL    HW128865   6.746   2.133   1.554
 9322SOL    HW228866   6.774   2.117   1.394
 9323SOL     OW28867   5.674   3.663   0.927
 9323SOL    HW128868   5.632   3.577   0.900
 9323SOL    HW228869   5.768   3.666   0.893
 9324SOL     OW28870   6.090   3.430   0.910
 9324SOL    HW128871   6.156   3.504   0.919
 9324SOL    HW228872   6.134   3.351   0.868
 9325SOL     OW28873   6.588   2.658   1.238
 9325SOL    HW128874   6.629   2.626   1.324
 9325SOL    HW228875   6.492   2.631   1.235
 9326SOL     OW28876   5.626   2.406   1.114
 9326SOL    HW128877   5.711   2.373   1.073
 9326SOL    HW228878   5.639   2.421   1.212
 9327SOL     OW28879   5.775   2.382   1.722
 9327SOL    HW128880   5.834   2.342   1.652
 9327SOL    HW228881   5.717   2.453   1.681
 9328SOL     OW28882   6.401   2.434   0.325
 9328SOL    HW128883   6.408   2.345   0.279
 9328SOL    HW228884   6.307   2.468   0.317
 9329SOL     OW28885   5.838   3.426   1.744
 9329SOL    HW128886   5.808   3.483   1.820
 9329SOL    HW228887   5.831   3.329   1.770
 9330SOL     OW28888   6.257   2.326   1.269
 9330SOL    HW128889   6.223   2.237   1.239
 9330SOL    HW228890   6.283   2.380   1.189
 9331SOL     OW28891   6.516   3.540   1.465
 9331SOL    HW128892   6.492   3.522   1.370
 9331SOL    HW228893   6.546   3.634   1.475
 9332SOL     OW28894   6.059   2.362   0.191
 9332SOL    HW128895   6.120   2.442   0.195
 9332SOL    HW228896   5.964   2.393   0.198
 9333SOL     OW28897   5.745   2.999   1.466
 9333SOL    HW128898   5.767   2.938   1.542
 9333SOL    HW228899   5.755   2.950   1.380
 9334SOL     OW28900   6.933   2.921   1.234
 9334SOL    HW128901   6.957   2.858   1.160
 9334SOL    HW228902   6.843   2.961   1.216
 9335SOL     OW28903   6.888   2.717   0.309
 9335SOL    HW128904   6.802   2.686   0.351
 9335SOL    HW228905   6.884   2.703   0.210
 9336SOL     OW28906   6.838   3.593   1.128
 9336SOL    HW128907   6.922   3.598   1.074
 9336SOL    HW228908   6.815   3.497   1.146
 9337SOL     OW28909   5.669   3.120   1.022
 9337SOL    HW128910   5.664   3.119   1.122
 9337SOL    HW228911   5.586   3.079   0.984
 9338SOL     OW28912   6.274   3.524   1.716
 9338SOL    HW128913   6.218   3.605   1.725
 9338SOL    HW228914   6.326   3.528   1.630
 9339SOL     OW28915   6.489   1.948   0.133
 9339SOL    HW128916   6.540   1.949   0.047
 9339SOL    HW228917   6.545   1.906   0.204
 9340SOL     OW28918   6.974   3.435   0.477
 9340SOL    HW128919   7.041   3.447   0.403
 9340SOL    HW228920   6.934   3.524   0.500
 9341SOL     OW28921   5.716   3.656   1.851
 9341SOL    HW128922   5.675   3.582   1.904
 9341SOL    HW228923   5.780   3.707   1.909
 9342SOL     OW28924   6.866   2.789   0.672
 9342SOL    HW128925   6.926   2.708   0.674
 9342SOL    HW228926   6.906   2.858   0.612
 9343SOL     OW28927   6.416   3.135   1.422
 9343SOL    HW128928   6.411   3.168   1.517
 9343SOL    HW228929   6.330   3.154   1.376
 9344SOL     OW28930   6.258   3.478   0.154
 9344SOL    HW128931   6.267   3.488   0.055
 9344SOL    HW228932   6.218   3.389   0.175
 9345SOL     OW28933   5.849   2.188   0.720
 9345SOL    HW128934   5.770   2.239   0.686
 9345SOL    HW228935   5.840   2.173   0.818
 9346SOL     OW28936   6.780   3.474   0.031
 9346SOL    HW128937   6.786   3.381   0.068
 9346SOL    HW228938   6.721   3.474  -0.049
 9347SOL     OW28939   6.408   2.864   1.372
 9347SOL    HW128940   6.448   2.863   1.280
 9347SOL    HW228941   6.418   2.956   1.412
 9348SOL     OW28942   6.502   2.772   0.291
 9348SOL    HW128943   6.565   2.810   0.223
 9348SOL    HW228944   6.542   2.689   0.330
 9349SOL     OW28945   5.958   3.150   1.490
 9349SOL    HW128946   5.945   3.243   1.456
 9349SOL    HW228947   5.874   3.098   1.477
 9350SOL     OW28948   6.625   2.960   0.696
 9350SOL    HW128949   6.555   2.913   0.750
 9350SOL    HW228950   6.684   2.892   0.653
 9351SOL     OW28951   6.600   2.098   0.971
 9351SOL    HW128952   6.592   2.062   0.878
 9351SOL    HW228953   6.598   2.022   1.036
 9352SOL     OW28954   6.176   3.349   0.491
 9352SOL    HW128955   6.218   3.291   0.421
 9352SOL    HW228956   6.132   3.428   0.447
 9353SOL     OW28957   5.841   3.210   0.290
 9353SOL    HW128958   5.745   3.211   0.263
 9353SOL    HW228959   5.853   3.263   0.374
 9354SOL     OW28960   5.691   2.875   1.726
 9354SOL    HW128961   5.614   2.842   1.780
 9354SOL    HW228962   5.776   2.845   1.768
 9355SOL     OW28963   6.258   2.065   1.489
 9355SOL    HW128964   6.348   2.049   1.449
 9355SOL    HW228965   6.266   2.070   1.588
 9356SOL     OW28966   5.661   2.207   0.033
 9356SOL    HW128967   5.569   2.179   0.004
 9356SOL    HW228968   5.692   2.284  -0.023
 9357SOL     OW28969   5.658   2.028   0.318
 9357SOL    HW128970   5.641   2.111   0.264
 9357SOL    HW228971   5.748   1.991   0.296
 9358SOL     OW28972   6.199   2.704   1.431
 9358SOL    HW128973   6.255   2.785   1.414
 9358SOL    HW228974   6.258   2.624   1.434
 9359SOL     OW28975   6.302   2.427   1.708
 9359SOL    HW128976   6.321   2.492   1.782
 9359SOL    HW228977   6.362   2.347   1.717
 9360SOL     OW28978   7.036   3.082   1.633
 9360SOL    HW128979   7.027   3.072   1.732
 9360SOL    HW228980   7.132   3.075   1.607
 9361SOL     OW28981   5.976   3.603   1.560
 9361SOL    HW128982   5.885   3.644   1.558
 9361SOL    HW228983   5.969   3.509   1.592
 9362SOL     OW28984   6.811   2.187   0.449
 9362SOL    HW128985   6.876   2.113   0.438
 9362SOL    HW228986   6.831   2.237   0.533
 9363SOL     OW28987   6.180   2.607   0.652
 9363SOL    HW128988   6.230   2.692   0.633
 9363SOL    HW228989   6.092   2.609   0.604
 9364SOL     OW28990   6.445   3.236   0.016
 9364SOL    HW128991   6.399   3.251   0.104
 9364SOL    HW228992   6.489   3.321  -0.014
 9365SOL     OW28993   6.247   3.652   0.953
 9365SOL    HW128994   6.201   3.740   0.940
 9365SOL    HW228995   6.346   3.664   0.946
 9366SOL     OW28996   6.445   2.818   0.861
 9366SOL    HW128997   6.499   2.749   0.909
 9366SOL    HW228998   6.413   2.887   0.927
 9367SOL     OW28999   6.669   2.846   0.087
 9367SOL    HW129000   6.646   2.899   0.005
 9367SOL    HW229001   6.750   2.790   0.068
 9368SOL     OW29002   5.807   3.176   1.844
 9368SOL    HW129003   5.742   3.103   1.823
 9368SOL    HW229004   5.811   3.190   1.942
 9369SOL     OW29005   5.665   3.102   0.653
 9369SOL    HW129006   5.664   3.055   0.741
 9369SOL    HW229007   5.747   3.074   0.602
 9370SOL     OW29008   6.258   3.253   1.624
 9370SOL    HW129009   6.180   3.203   1.662
 9370SOL    HW229010   6.255   3.348   1.655
 9371SOL     OW29011   6.014   2.286   0.520
 9371SOL    HW129012   6.044   2.214   0.458
 9371SOL    HW229013   5.975   2.246   0.603
 9372SOL     OW29014   5.903   2.409   1.280
 9372SOL    HW129015   5.941   2.350   1.352
 9372SOL    HW229016   5.943   2.383   1.192
 9373SOL     OW29017   6.398   3.448   0.687
 9373SOL    HW129018   6.430   3.458   0.593
 9373SOL    HW229019   6.319   3.386   0.689
 9374SOL     OW29020   7.010   2.076   1.112
 9374SOL    HW129021   7.062   2.011   1.167
 9374SOL    HW229022   6.961   2.139   1.173
 9375SOL     OW29023   6.587   1.896   1.154
 9375SOL    HW129024   6.524   1.824   1.123
 9375SOL    HW229025   6.680   1.860   1.154
 9376SOL     OW29026   6.356   3.192   0.301
 9376SOL    HW129027   6.310   3.105   0.318
 9376SOL    HW229028   6.447   3.189   0.342
 9377SOL     OW29029   6.204   3.429   1.284
 9377SOL    HW129030   6.199   3.511   1.341
 9377SOL    HW229031   6.293   3.426   1.239
 9378SOL     OW29032   5.625   2.939   0.300
 9378SOL    HW129033   5.724   2.928   0.291
 9378SOL    HW229034   5.585   2.853   0.332
 9379SOL     OW29035   6.461   3.508   0.337
 9379SOL    HW129036   6.384   3.473   0.283
 9379SOL    HW229037   6.429   3.579   0.399
 9380SOL     OW29038   5.816   2.490   1.975
 9380SOL    HW129039   5.723   2.488   2.012
 9380SOL    HW229040   5.817   2.451   1.883
 9381SOL     OW29041   5.811   2.137   2.858
 9381SOL    HW129042   5.846   2.120   2.950
 9381SOL    HW229043   5.723   2.092   2.846
 9382SOL     OW29044   5.605   2.230   2.509
 9382SOL    HW129045   5.523   2.273   2.548
 9382SOL    HW229046   5.577   2.157   2.446
 9383SOL     OW29047   6.155   3.137   3.027
 9383SOL    HW129048   6.062   3.130   2.990
 9383SOL    HW229049   6.166   3.226   3.071
 9384SOL     OW29050   7.141   3.373   2.565
 9384SOL    HW129051   7.084   3.357   2.646
 9384SOL    HW229052   7.082   3.383   2.485
 9385SOL     OW29053   6.721   2.565   2.579
 9385SOL    HW129054   6.778   2.643   2.554
 9385SOL    HW229055   6.661   2.591   2.655
 9386SOL     OW29056   6.354   3.006   2.885
 9386SOL    HW129057   6.276   3.023   2.945
 9386SOL    HW229058   6.388   3.093   2.849
 9387SOL     OW29059   6.436   2.660   3.685
 9387SOL    HW129060   6.432   2.736   3.750
 9387SOL    HW229061   6.458   2.696   3.594
 9388SOL     OW29062   6.271   2.874   2.527
 9388SOL    HW129063   6.340   2.858   2.597
 9388SOL    HW229064   6.198   2.931   2.565
 9389SOL     OW29065   6.272   3.023   3.665
 9389SOL    HW129066   6.332   3.102   3.679
 9389SOL    HW229067   6.186   3.054   3.624
 9390SOL     OW29068   5.921   3.297   2.923
 9390SOL    HW129069   5.843   3.266   2.870
 9390SOL    HW229070   5.979   3.355   2.866
 9391SOL     OW29071   6.024   2.254   3.361
 9391SOL    HW129072   6.106   2.198   3.370
 9391SOL    HW229073   5.943   2.196   3.365
 9392SOL     OW29074   5.817   3.575   2.345
 9392SOL    HW129075   5.851   3.652   2.399
 9392SOL    HW229076   5.861   3.575   2.255
 9393SOL     OW29077   6.713   3.203   3.552
 9393SOL    HW129078   6.760   3.203   3.640
 9393SOL    HW229079   6.665   3.116   3.541
 9394SOL     OW29080   5.816   3.296   2.400
 9394SOL    HW129081   5.790   3.392   2.400
 9394SOL    HW229082   5.745   3.242   2.445
 9395SOL     OW29083   5.826   2.953   2.748
 9395SOL    HW129084   5.840   2.869   2.800
 9395SOL    HW229085   5.771   3.017   2.803
 9396SOL     OW29086   6.206   3.648   3.301
 9396SOL    HW129087   6.114   3.631   3.336
 9396SOL    HW229088   6.234   3.740   3.327
 9397SOL     OW29089   6.192   2.826   1.985
 9397SOL    HW129090   6.199   2.910   1.931
 9397SOL    HW229091   6.238   2.839   2.073
 9398SOL     OW29092   5.708   2.505   2.425
 9398SOL    HW129093   5.663   2.417   2.442
 9398SOL    HW229094   5.707   2.559   2.509
 9399SOL     OW29095   5.613   3.458   1.979
 9399SOL    HW129096   5.594   3.362   2.000
 9399SOL    HW229097   5.580   3.516   2.054
 9400SOL     OW29098   5.699   2.599   3.459
 9400SOL    HW129099   5.787   2.586   3.504
 9400SOL    HW229100   5.686   2.696   3.437
 9401SOL     OW29101   6.199   3.227   2.588
 9401SOL    HW129102   6.150   3.140   2.597
 9401SOL    HW229103   6.176   3.270   2.501
 9402SOL     OW29104   6.879   3.090   3.285
 9402SOL    HW129105   6.916   3.017   3.227
 9402SOL    HW229106   6.931   3.095   3.370
 9403SOL     OW29107   6.395   1.866   2.364
 9403SOL    HW129108   6.435   1.957   2.355
 9403SOL    HW229109   6.295   1.874   2.370
 9404SOL     OW29110   5.783   2.838   3.126
 9404SOL    HW129111   5.872   2.793   3.112
 9404SOL    HW229112   5.710   2.773   3.107
 9405SOL     OW29113   6.773   3.654   3.478
 9405SOL    HW129114   6.797   3.714   3.402
 9405SOL    HW229115   6.780   3.559   3.448
 9406SOL     OW29116   5.903   2.113   3.663
 9406SOL    HW129117   5.974   2.184   3.669
 9406SOL    HW229118   5.815   2.152   3.691
 9407SOL     OW29119   6.184   2.591   2.132
 9407SOL    HW129120   6.208   2.660   2.064
 9407SOL    HW229121   6.106   2.624   2.186
 9408SOL     OW29122   6.867   2.207   2.806
 9408SOL    HW129123   6.781   2.157   2.793
 9408SOL    HW229124   6.929   2.153   2.862
 9409SOL     OW29125   6.393   2.467   3.327
 9409SOL    HW129126   6.346   2.464   3.416
 9409SOL    HW229127   6.342   2.412   3.261
 9410SOL     OW29128   6.980   2.331   3.536
 9410SOL    HW129129   6.960   2.374   3.624
 9410SOL    HW229130   7.058   2.269   3.545
 9411SOL     OW29131   6.559   2.752   3.434
 9411SOL    HW129132   6.605   2.668   3.405
 9411SOL    HW229133   6.503   2.786   3.359
 9412SOL     OW29134   6.577   2.272   3.104
 9412SOL    HW129135   6.500   2.306   3.158
 9412SOL    HW229136   6.543   2.221   3.025
 9413SOL     OW29137   6.627   2.563   2.291
 9413SOL    HW129138   6.653   2.559   2.387
 9413SOL    HW229139   6.542   2.512   2.277
 9414SOL     OW29140   5.662   2.673   2.651
 9414SOL    HW129141   5.761   2.661   2.660
 9414SOL    HW229142   5.638   2.768   2.672
 9415SOL     OW29143   5.716   3.683   3.433
 9415SOL    HW129144   5.706   3.668   3.532
 9415SOL    HW229145   5.630   3.719   3.397
 9416SOL     OW29146   6.451   2.210   2.057
 9416SOL    HW129147   6.510   2.273   2.008
 9416SOL    HW229148   6.470   2.116   2.028
 9417SOL     OW29149   6.948   3.006   2.407
 9417SOL    HW129150   7.031   2.977   2.359
 9417SOL    HW229151   6.899   3.073   2.351
 9418SOL     OW29152   6.136   2.058   2.747
 9418SOL    HW129153   6.131   2.053   2.847
 9418SOL    HW229154   6.138   2.154   2.718
 9419SOL     OW29155   6.594   3.318   2.339
 9419SOL    HW129156   6.548   3.390   2.287
 9419SOL    HW229157   6.590   3.338   2.437
 9420SOL     OW29158   5.937   3.663   2.715
 9420SOL    HW129159   5.987   3.577   2.721
 9420SOL    HW229160   6.002   3.740   2.712
 9421SOL     OW29161   6.813   3.412   3.368
 9421SOL    HW129162   6.819   3.335   3.432
 9421SOL    HW229163   6.761   3.386   3.288
 9422SOL     OW29164   5.907   2.805   2.104
 9422SOL    HW129165   5.989   2.844   2.062
 9422SOL    HW229166   5.880   2.723   2.055
 9423SOL     OW29167   6.047   3.128   3.589
 9423SOL    HW129168   5.997   3.129   3.503
 9423SOL    HW229169   5.984   3.110   3.665
 9424SOL     OW29170   6.697   3.638   2.099
 9424SOL    HW129171   6.637   3.576   2.149
 9424SOL    HW229172   6.728   3.594   2.014
 9425SOL     OW29173   5.788   2.147   3.360
 9425SOL    HW129174   5.708   2.207   3.347
 9425SOL    HW229175   5.778   2.098   3.446
 9426SOL     OW29176   6.050   3.605   2.185
 9426SOL    HW129177   6.083   3.644   2.271
 9426SOL    HW229178   6.126   3.598   2.120
 9427SOL     OW29179   5.835   3.647   3.103
 9427SOL    HW129180   5.892   3.582   3.153
 9427SOL    HW229181   5.819   3.614   3.010
 9428SOL     OW29182   6.526   3.560   2.766
 9428SOL    HW129183   6.606   3.503   2.787
 9428SOL    HW229184   6.477   3.520   2.689
 9429SOL     OW29185   5.968   2.562   2.342
 9429SOL    HW129186   6.013   2.472   2.339
 9429SOL    HW229187   5.874   2.551   2.375
 9430SOL     OW29188   6.200   1.984   1.979
 9430SOL    HW129189   6.298   1.962   1.986
 9430SOL    HW229190   6.169   1.967   1.886
 9431SOL     OW29191   6.367   2.126   3.611
 9431SOL    HW129192   6.434   2.065   3.654
 9431SOL    HW229193   6.294   2.145   3.676
 9432SOL     OW29194   6.474   3.376   3.057
 9432SOL    HW129195   6.451   3.351   2.963
 9432SOL    HW229196   6.535   3.307   3.096
 9433SOL     OW29197   6.389   3.264   2.786
 9433SOL    HW129198   6.479   3.278   2.744
 9433SOL    HW229199   6.318   3.266   2.715
 9434SOL     OW29200   6.508   2.365   2.761
 9434SOL    HW129201   6.483   2.356   2.665
 9434SOL    HW229202   6.556   2.283   2.792
 9435SOL     OW29203   6.125   1.926   2.374
 9435SOL    HW129204   6.044   1.927   2.432
 9435SOL    HW229205   6.128   2.009   2.319
 9436SOL     OW29206   7.020   3.050   1.903
 9436SOL    HW129207   7.052   2.974   1.960
 9436SOL    HW229208   6.928   3.077   1.933
 9437SOL     OW29209   5.883   1.897   2.033
 9437SOL    HW129210   5.932   1.981   2.012
 9437SOL    HW229211   5.945   1.832   2.078
 9438SOL     OW29212   6.521   2.098   2.342
 9438SOL    HW129213   6.473   2.139   2.264
 9438SOL    HW229214   6.620   2.096   2.323
 9439SOL     OW29215   6.662   2.545   3.326
 9439SOL    HW129216   6.582   2.484   3.329
 9439SOL    HW229217   6.743   2.492   3.302
 9440SOL     OW29218   6.813   3.432   2.655
 9440SOL    HW129219   6.834   3.506   2.590
 9440SOL    HW229220   6.881   3.432   2.728
 9441SOL     OW29221   6.045   3.014   2.603
 9441SOL    HW129222   5.974   2.987   2.668
 9441SOL    HW229223   6.019   2.986   2.510
 9442SOL     OW29224   6.857   3.659   2.453
 9442SOL    HW129225   6.901   3.723   2.389
 9442SOL    HW229226   6.807   3.711   2.523
 9443SOL     OW29227   6.618   2.411   1.878
 9443SOL    HW129228   6.577   2.493   1.839
 9443SOL    HW229229   6.682   2.437   1.951
 9444SOL     OW29230   5.664   2.418   3.248
 9444SOL    HW129231   5.756   2.417   3.207
 9444SOL    HW229232   5.658   2.492   3.315
 9445SOL     OW29233   6.147   2.084   3.009
 9445SOL    HW129234   6.185   2.000   3.046
 9445SOL    HW229235   6.059   2.103   3.053
 9446SOL     OW29236   6.452   2.316   2.504
 9446SOL    HW129237   6.420   2.388   2.442
 9446SOL    HW229238   6.476   2.235   2.451
 9447SOL     OW29239   6.603   1.901   2.615
 9447SOL    HW129240   6.531   1.906   2.546
 9447SOL    HW229241   6.579   1.832   2.684
 9448SOL     OW29242   6.074   3.247   2.036
 9448SOL    HW129243   5.987   3.232   2.083
 9448SOL    HW229244   6.057   3.273   1.941
 9449SOL     OW29245   6.113   2.118   2.190
 9449SOL    HW129246   6.140   2.059   2.115
 9449SOL    HW229247   6.113   2.213   2.159
 9450SOL     OW29248   6.650   3.209   3.202
 9450SOL    HW129249   6.570   3.186   3.257
 9450SOL    HW229250   6.733   3.183   3.251
 9451SOL     OW29251   6.697   3.057   2.962
 9451SOL    HW129252   6.657   3.101   3.043
 9451SOL    HW229253   6.656   3.094   2.879
 9452SOL     OW29254   6.501   1.951   3.264
 9452SOL    HW129255   6.526   1.931   3.169
 9452SOL    HW229256   6.573   2.007   3.306
 9453SOL     OW29257   6.566   2.978   3.581
 9453SOL    HW129258   6.467   2.984   3.591
 9453SOL    HW229259   6.589   2.898   3.525
 9454SOL     OW29260   6.291   2.912   2.230
 9454SOL    HW129261   6.277   2.919   2.329
 9454SOL    HW229262   6.375   2.861   2.212
 9455SOL     OW29263   5.996   2.675   3.113
 9455SOL    HW129264   6.082   2.687   3.163
 9455SOL    HW229265   5.954   2.588   3.140
 9456SOL     OW29266   6.860   2.248   3.124
 9456SOL    HW129267   6.881   2.322   3.188
 9456SOL    HW229268   6.771   2.265   3.081
 9457SOL     OW29269   5.650   3.426   3.193
 9457SOL    HW129270   5.604   3.508   3.159
 9457SOL    HW229271   5.748   3.445   3.202
 9458SOL     OW29272   5.953   2.962   2.363
 9458SOL    HW129273   5.946   3.045   2.307
 9458SOL    HW229274   5.957   2.882   2.303
 9459SOL     OW29275   6.152   2.399   2.727
 9459SOL    HW129276   6.164   2.465   2.653
 9459SOL    HW229277   6.198   2.433   2.810
 9460SOL     OW29278   6.838   3.210   2.250
 9460SOL    HW129279   6.888   3.287   2.290
 9460SOL    HW229280   6.743   3.212   2.282
 9461SOL     OW29281   6.858   3.307   3.004
 9461SOL    HW129282   6.905   3.320   3.091
 9461SOL    HW229283   6.792   3.233   3.013
 9462SOL     OW29284   5.940   3.372   3.191
 9462SOL    HW129285   5.919   3.328   3.104
 9462SOL    HW229286   6.037   3.398   3.194
 9463SOL     OW29287   5.988   2.613   3.460
 9463SOL    HW129288   6.056   2.668   3.413
 9463SOL    HW229289   6.028   2.525   3.487
 9464SOL     OW29290   6.599   1.967   3.632
 9464SOL    HW129291   6.605   2.052   3.580
 9464SOL    HW229292   6.631   1.891   3.575
 9465SOL     OW29293   6.090   1.912   3.602
 9465SOL    HW129294   6.048   1.855   3.532
 9465SOL    HW229295   6.024   1.981   3.634
 9466SOL     OW29296   6.159   2.732   2.891
 9466SOL    HW129297   6.203   2.821   2.882
 9466SOL    HW229298   6.096   2.732   2.968
 9467SOL     OW29299   6.946   2.724   2.907
 9467SOL    HW129300   6.871   2.724   2.841
 9467SOL    HW229301   6.983   2.632   2.916
 9468SOL     OW29302   6.795   2.387   2.137
 9468SOL    HW129303   6.808   2.303   2.191
 9468SOL    HW229304   6.766   2.461   2.197
 9469SOL     OW29305   5.893   2.075   3.093
 9469SOL    HW129306   5.870   2.112   3.183
 9469SOL    HW229307   5.863   1.980   3.087
 9470SOL     OW29308   5.623   3.172   3.144
 9470SOL    HW129309   5.676   3.123   3.212
 9470SOL    HW229310   5.645   3.270   3.149
 9471SOL     OW29311   6.318   2.496   2.926
 9471SOL    HW129312   6.377   2.470   2.850
 9471SOL    HW229313   6.290   2.592   2.915
 9472SOL     OW29314   5.893   1.925   2.480
 9472SOL    HW129315   5.882   2.019   2.513
 9472SOL    HW229316   5.888   1.862   2.557
 9473SOL     OW29317   7.208   2.229   2.236
 9473SOL    HW129318   7.210   2.153   2.300
 9473SOL    HW229319   7.160   2.306   2.276
 9474SOL     OW29320   6.609   2.628   2.828
 9474SOL    HW129321   6.624   2.649   2.924
 9474SOL    HW229322   6.579   2.533   2.819
 9475SOL     OW29323   6.566   3.435   3.562
 9475SOL    HW129324   6.546   3.479   3.474
 9475SOL    HW229325   6.605   3.344   3.546
 9476SOL     OW29326   5.936   2.760   3.666
 9476SOL    HW129327   6.012   2.804   3.714
 9476SOL    HW229328   5.971   2.713   3.584
 9477SOL     OW29329   6.889   2.700   1.904
 9477SOL    HW129330   6.923   2.607   1.919
 9477SOL    HW229331   6.907   2.727   1.809
 9478SOL     OW29332   6.654   3.195   2.711
 9478SOL    HW129333   6.661   3.111   2.656
 9478SOL    HW229334   6.716   3.264   2.675
 9479SOL     OW29335   5.905   2.672   2.811
 9479SOL    HW129336   5.998   2.708   2.816
 9479SOL    HW229337   5.899   2.587   2.863
 9480SOL     OW29338   5.925   2.371   2.868
 9480SOL    HW129339   5.873   2.288   2.851
 9480SOL    HW229340   6.002   2.376   2.804
 9481SOL     OW29341   6.724   2.242   3.540
 9481SOL    HW129342   6.679   2.305   3.604
 9481SOL    HW229343   6.817   2.273   3.523
 9482SOL     OW29344   6.746   2.069   3.339
 9482SOL    HW129345   6.746   2.133   3.416
 9482SOL    HW229346   6.774   2.117   3.256
 9483SOL     OW29347   5.594   3.188   2.062
 9483SOL    HW129348   5.501   3.209   2.031
 9483SOL    HW229349   5.604   3.089   2.075
 9484SOL     OW29350   5.674   3.663   2.789
 9484SOL    HW129351   5.632   3.577   2.762
 9484SOL    HW229352   5.768   3.666   2.755
 9485SOL     OW29353   6.090   3.430   2.772
 9485SOL    HW129354   6.156   3.504   2.781
 9485SOL    HW229355   6.134   3.351   2.730
 9486SOL     OW29356   6.588   2.658   3.100
 9486SOL    HW129357   6.629   2.626   3.186
 9486SOL    HW229358   6.492   2.631   3.097
 9487SOL     OW29359   5.626   2.406   2.976
 9487SOL    HW129360   5.711   2.373   2.935
 9487SOL    HW229361   5.639   2.421   3.074
 9488SOL     OW29362   5.775   2.382   3.584
 9488SOL    HW129363   5.834   2.342   3.514
 9488SOL    HW229364   5.717   2.453   3.543
 9489SOL     OW29365   6.401   2.434   2.187
 9489SOL    HW129366   6.408   2.345   2.141
 9489SOL    HW229367   6.307   2.468   2.179
 9490SOL     OW29368   5.838   3.426   3.606
 9490SOL    HW129369   5.808   3.483   3.682
 9490SOL    HW229370   5.831   3.329   3.632
 9491SOL     OW29371   6.257   2.326   3.131
 9491SOL    HW129372   6.223   2.237   3.101
 9491SOL    HW229373   6.283   2.380   3.051
 9492SOL     OW29374   6.516   3.540   3.327
 9492SOL    HW129375   6.492   3.522   3.232
 9492SOL    HW229376   6.546   3.634   3.337
 9493SOL     OW29377   6.059   2.362   2.053
 9493SOL    HW129378   6.120   2.442   2.057
 9493SOL    HW229379   5.964   2.393   2.060
 9494SOL     OW29380   5.745   2.999   3.328
 9494SOL    HW129381   5.767   2.938   3.404
 9494SOL    HW229382   5.755   2.950   3.242
 9495SOL     OW29383   6.933   2.921   3.096
 9495SOL    HW129384   6.957   2.858   3.022
 9495SOL    HW229385   6.843   2.961   3.078
 9496SOL     OW29386   6.888   2.717   2.171
 9496SOL    HW129387   6.802   2.686   2.213
 9496SOL    HW229388   6.884   2.703   2.072
 9497SOL     OW29389   6.838   3.593   2.990
 9497SOL    HW129390   6.922   3.598   2.936
 9497SOL    HW229391   6.815   3.497   3.008
 9498SOL     OW29392   5.669   3.120   2.884
 9498SOL    HW129393   5.664   3.119   2.984
 9498SOL    HW229394   5.586   3.079   2.846
 9499SOL     OW29395   6.274   3.524   3.578
 9499SOL    HW129396   6.218   3.605   3.587
 9499SOL    HW229397   6.326   3.528   3.492
 9500SOL     OW29398   6.974   3.435   2.339
 9500SOL    HW129399   7.041   3.447   2.265
 9500SOL    HW229400   6.934   3.524   2.362
 9501SOL     OW29401   5.716   3.656   3.713
 9501SOL    HW129402   5.675   3.582   3.766
 9501SOL    HW229403   5.780   3.707   3.771
 9502SOL     OW29404   6.866   2.789   2.534
 9502SOL    HW129405   6.926   2.708   2.536
 9502SOL    HW229406   6.906   2.858   2.474
 9503SOL     OW29407   6.416   3.135   3.284
 9503SOL    HW129408   6.411   3.168   3.379
 9503SOL    HW229409   6.330   3.154   3.238
 9504SOL     OW29410   6.258   3.478   2.016
 9504SOL    HW129411   6.267   3.488   1.917
 9504SOL    HW229412   6.218   3.389   2.037
 9505SOL     OW29413   5.849   2.188   2.582
 9505SOL    HW129414   5.770   2.239   2.548
 9505SOL    HW229415   5.840   2.173   2.680
 9506SOL     OW29416   6.780   3.474   1.893
 9506SOL    HW129417   6.786   3.381   1.930
 9506SOL    HW229418   6.721   3.474   1.813
 9507SOL     OW29419   6.408   2.864   3.234
 9507SOL    HW129420   6.448   2.863   3.142
 9507SOL    HW229421   6.418   2.956   3.274
 9508SOL     OW29422   6.502   2.772   2.153
 9508SOL    HW129423   6.565   2.810   2.085
 9508SOL    HW229424   6.542   2.689   2.192
 9509SOL     OW29425   5.958   3.150   3.352
 9509SOL    HW129426   5.945   3.243   3.318
 9509SOL    HW229427   5.874   3.098   3.339
 9510SOL     OW29428   6.625   2.960   2.558
 9510SOL    HW129429   6.555   2.913   2.612
 9510SOL    HW229430   6.684   2.892   2.515
 9511SOL     OW29431   6.600   2.098   2.833
 9511SOL    HW129432   6.592   2.062   2.740
 9511SOL    HW229433   6.598   2.022   2.898
 9512SOL     OW29434   6.176   3.349   2.353
 9512SOL    HW129435   6.218   3.291   2.283
 9512SOL    HW229436   6.132   3.428   2.309
 9513SOL     OW29437   5.841   3.210   2.152
 9513SOL    HW129438   5.745   3.211   2.125
 9513SOL    HW229439   5.853   3.263   2.236
 9514SOL     OW29440   5.691   2.875   3.588
 9514SOL    HW129441   5.614   2.842   3.642
 9514SOL    HW229442   5.776   2.845   3.630
 9515SOL     OW29443   6.258   2.065   3.351
 9515SOL    HW129444   6.348   2.049   3.311
 9515SOL    HW229445   6.266   2.070   3.450
 9516SOL     OW29446   5.661   2.207   1.895
 9516SOL    HW129447   5.569   2.179   1.866
 9516SOL    HW229448   5.692   2.284   1.839
 9517SOL     OW29449   5.658   2.028   2.180
 9517SOL    HW129450   5.641   2.111   2.126
 9517SOL    HW229451   5.748   1.991   2.158
 9518SOL     OW29452   6.199   2.704   3.293
 9518SOL    HW129453   6.255   2.785   3.276
 9518SOL    HW229454   6.258   2.624   3.296
 9519SOL     OW29455   6.302   2.427   3.570
 9519SOL    HW129456   6.321   2.492   3.644
 9519SOL    HW229457   6.362   2.347   3.579
 9520SOL     OW29458   7.036   3.082   3.495
 9520SOL    HW129459   7.027   3.072   3.594
 9520SOL    HW229460   7.132   3.075   3.469
 9521SOL     OW29461   5.976   3.603   3.422
 9521SOL    HW129462   5.885   3.644   3.420
 9521SOL    HW229463   5.969   3.509   3.454
 9522SOL     OW29464   6.811   2.187   2.311
 9522SOL    HW129465   6.876   2.113   2.300
 9522SOL    HW229466   6.831   2.237   2.395
 9523SOL     OW29467   6.180   2.607   2.514
 9523SOL    HW129468   6.230   2.692   2.495
 9523SOL    HW229469   6.092   2.609   2.466
 9524SOL     OW29470   6.445   3.236   1.878
 9524SOL    HW129471   6.399   3.251   1.966
 9524SOL    HW229472   6.489   3.321   1.848
 9525SOL     OW29473   6.247   3.652   2.815
 9525SOL    HW129474   6.201   3.740   2.802
 9525SOL    HW229475   6.346   3.664   2.808
 9526SOL     OW29476   6.445   2.818   2.723
 9526SOL    HW129477   6.499   2.749   2.771
 9526SOL    HW229478   6.413   2.887   2.789
 9527SOL     OW29479   6.669   2.846   1.949
 9527SOL    HW129480   6.646   2.899   1.867
 9527SOL    HW229481   6.750   2.790   1.930
 9528SOL     OW29482   5.807   3.176   3.706
 9528SOL    HW129483   5.742   3.103   3.685
 9528SOL    HW229484   5.811   3.190   3.804
 9529SOL     OW29485   5.665   3.102   2.515
 9529SOL    HW129486   5.664   3.055   2.603
 9529SOL    HW229487   5.747   3.074   2.464
 9530SOL     OW29488   6.258   3.253   3.486
 9530SOL    HW129489   6.180   3.203   3.524
 9530SOL    HW229490   6.255   3.348   3.517
 9531SOL     OW29491   6.014   2.286   2.382
 9531SOL    HW129492   6.044   2.214   2.320
 9531SOL    HW229493   5.975   2.246   2.465
 9532SOL     OW29494   5.903   2.409   3.142
 9532SOL    HW129495   5.941   2.350   3.214
 9532SOL    HW229496   5.943   2.383   3.054
 9533SOL     OW29497   6.398   3.448   2.549
 9533SOL    HW129498   6.430   3.458   2.455
 9533SOL    HW229499   6.319   3.386   2.551
 9534SOL     OW29500   7.010   2.076   2.974
 9534SOL    HW129501   7.062   2.011   3.029
 9534SOL    HW229502   6.961   2.139   3.035
 9535SOL     OW29503   6.587   1.896   3.016
 9535SOL    HW129504   6.524   1.824   2.985
 9535SOL    HW229505   6.680   1.860   3.016
 9536SOL     OW29506   6.356   3.192   2.163
 9536SOL    HW129507   6.310   3.105   2.180
 9536SOL    HW229508   6.447   3.189   2.204
 9537SOL     OW29509   6.204   3.429   3.146
 9537SOL    HW129510   6.199   3.511   3.203
 9537SOL    HW229511   6.293   3.426   3.101
 9538SOL     OW29512   6.938   1.914   2.030
 9538SOL    HW129513   6.973   1.873   1.946
 9538SOL    HW229514   6.848   1.876   2.050
 9539SOL     OW29515   5.625   2.939   2.162
 9539SOL    HW129516   5.724   2.928   2.153
 9539SOL    HW229517   5.585   2.853   2.194
 9540SOL     OW29518   6.461   3.508   2.199
 9540SOL    HW129519   6.384   3.473   2.145
 9540SOL    HW229520   6.429   3.579   2.261
 9541SOL     OW29521   5.816   2.490   3.837
 9541SOL    HW129522   5.723   2.488   3.874
 9541SOL    HW229523   5.817   2.451   3.745
 9542SOL     OW29524   5.811   2.137   4.720
 9542SOL    HW129525   5.846   2.120   4.812
 9542SOL    HW229526   5.723   2.092   4.708
 9543SOL     OW29527   5.605   2.230   4.371
 9543SOL    HW129528   5.523   2.273   4.410
 9543SOL    HW229529   5.577   2.157   4.308
 9544SOL     OW29530   6.155   3.137   4.889
 9544SOL    HW129531   6.062   3.130   4.852
 9544SOL    HW229532   6.166   3.226   4.933
 9545SOL     OW29533   7.141   3.373   4.427
 9545SOL    HW129534   7.084   3.357   4.508
 9545SOL    HW229535   7.082   3.383   4.347
 9546SOL     OW29536   6.721   2.565   4.441
 9546SOL    HW129537   6.778   2.643   4.416
 9546SOL    HW229538   6.661   2.591   4.517
 9547SOL     OW29539   6.354   3.006   4.747
 9547SOL    HW129540   6.276   3.023   4.807
 9547SOL    HW229541   6.388   3.093   4.711
 9548SOL     OW29542   6.436   2.660   5.547
 9548SOL    HW129543   6.432   2.736   5.612
 9548SOL    HW229544   6.458   2.696   5.456
 9549SOL     OW29545   6.271   2.874   4.389
 9549SOL    HW129546   6.340   2.858   4.459
 9549SOL    HW229547   6.198   2.931   4.427
 9550SOL     OW29548   6.272   3.023   5.527
 9550SOL    HW129549   6.332   3.102   5.541
 9550SOL    HW229550   6.186   3.054   5.486
 9551SOL     OW29551   5.921   3.297   4.785
 9551SOL    HW129552   5.843   3.266   4.732
 9551SOL    HW229553   5.979   3.355   4.728
 9552SOL     OW29554   6.024   2.254   5.223
 9552SOL    HW129555   6.106   2.198   5.232
 9552SOL    HW229556   5.943   2.196   5.227
 9553SOL     OW29557   5.817   3.575   4.207
 9553SOL    HW129558   5.851   3.652   4.261
 9553SOL    HW229559   5.861   3.575   4.117
 9554SOL     OW29560   6.713   3.203   5.414
 9554SOL    HW129561   6.760   3.203   5.502
 9554SOL    HW229562   6.665   3.116   5.403
 9555SOL     OW29563   5.816   3.296   4.262
 9555SOL    HW129564   5.790   3.392   4.262
 9555SOL    HW229565   5.745   3.242   4.307
 9556SOL     OW29566   5.826   2.953   4.610
 9556SOL    HW129567   5.840   2.869   4.662
 9556SOL    HW229568   5.771   3.017   4.665
 9557SOL     OW29569   6.206   3.648   5.163
 9557SOL    HW129570   6.114   3.631   5.198
 9557SOL    HW229571   6.234   3.740   5.189
 9558SOL     OW29572   6.192   2.826   3.847
 9558SOL    HW129573   6.199   2.910   3.793
 9558SOL    HW229574   6.238   2.839   3.935
 9559SOL     OW29575   5.708   2.505   4.287
 9559SOL    HW129576   5.663   2.417   4.304
 9559SOL    HW229577   5.707   2.559   4.371
 9560SOL     OW29578   5.613   3.458   3.841
 9560SOL    HW129579   5.594   3.362   3.862
 9560SOL    HW229580   5.580   3.516   3.916
 9561SOL     OW29581   5.699   2.599   5.321
 9561SOL    HW129582   5.787   2.586   5.366
 9561SOL    HW229583   5.686   2.696   5.299
 9562SOL     OW29584   6.199   3.227   4.450
 9562SOL    HW129585   6.150   3.140   4.459
 9562SOL    HW229586   6.176   3.270   4.363
 9563SOL     OW29587   6.879   3.090   5.147
 9563SOL    HW129588   6.916   3.017   5.089
 9563SOL    HW229589   6.931   3.095   5.232
 9564SOL     OW29590   6.395   1.866   4.226
 9564SOL    HW129591   6.435   1.957   4.217
 9564SOL    HW229592   6.295   1.874   4.232
 9565SOL     OW29593   5.783   2.838   4.988
 9565SOL    HW129594   5.872   2.793   4.974
 9565SOL    HW229595   5.710   2.773   4.969
 9566SOL     OW29596   6.773   3.654   5.340
 9566SOL    HW129597   6.797   3.714   5.264
 9566SOL    HW229598   6.780   3.559   5.310
 9567SOL     OW29599   5.903   2.113   5.525
 9567SOL    HW129600   5.974   2.184   5.531
 9567SOL    HW229601   5.815   2.152   5.553
 9568SOL     OW29602   6.184   2.591   3.994
 9568SOL    HW129603   6.208   2.660   3.926
 9568SOL    HW229604   6.106   2.624   4.048
 9569SOL     OW29605   6.867   2.207   4.668
 9569SOL    HW129606   6.781   2.157   4.655
 9569SOL    HW229607   6.929   2.153   4.724
 9570SOL     OW29608   6.393   2.467   5.189
 9570SOL    HW129609   6.346   2.464   5.278
 9570SOL    HW229610   6.342   2.412   5.123
 9571SOL     OW29611   6.980   2.331   5.398
 9571SOL    HW129612   6.960   2.374   5.486
 9571SOL    HW229613   7.058   2.269   5.407
 9572SOL     OW29614   6.559   2.752   5.296
 9572SOL    HW129615   6.605   2.668   5.267
 9572SOL    HW229616   6.503   2.786   5.221
 9573SOL     OW29617   6.577   2.272   4.966
 9573SOL    HW129618   6.500   2.306   5.020
 9573SOL    HW229619   6.543   2.221   4.887
 9574SOL     OW29620   6.627   2.563   4.153
 9574SOL    HW129621   6.653   2.559   4.249
 9574SOL    HW229622   6.542   2.512   4.139
 9575SOL     OW29623   5.662   2.673   4.513
 9575SOL    HW129624   5.761   2.661   4.522
 9575SOL    HW229625   5.638   2.768   4.534
 9576SOL     OW29626   5.716   3.683   5.295
 9576SOL    HW129627   5.706   3.668   5.394
 9576SOL    HW229628   5.630   3.719   5.259
 9577SOL     OW29629   6.451   2.210   3.919
 9577SOL    HW129630   6.510   2.273   3.870
 9577SOL    HW229631   6.470   2.116   3.890
 9578SOL     OW29632   6.948   3.006   4.269
 9578SOL    HW129633   7.031   2.977   4.221
 9578SOL    HW229634   6.899   3.073   4.213
 9579SOL     OW29635   6.136   2.058   4.609
 9579SOL    HW129636   6.131   2.053   4.709
 9579SOL    HW229637   6.138   2.154   4.580
 9580SOL     OW29638   6.594   3.318   4.201
 9580SOL    HW129639   6.548   3.390   4.149
 9580SOL    HW229640   6.590   3.338   4.299
 9581SOL     OW29641   5.937   3.663   4.577
 9581SOL    HW129642   5.987   3.577   4.583
 9581SOL    HW229643   6.002   3.740   4.574
 9582SOL     OW29644   6.813   3.412   5.230
 9582SOL    HW129645   6.819   3.335   5.294
 9582SOL    HW229646   6.761   3.386   5.150
 9583SOL     OW29647   5.907   2.805   3.966
 9583SOL    HW129648   5.989   2.844   3.924
 9583SOL    HW229649   5.880   2.723   3.917
 9584SOL     OW29650   6.047   3.128   5.451
 9584SOL    HW129651   5.997   3.129   5.365
 9584SOL    HW229652   5.984   3.110   5.527
 9585SOL     OW29653   6.697   3.638   3.961
 9585SOL    HW129654   6.637   3.576   4.011
 9585SOL    HW229655   6.728   3.594   3.876
 9586SOL     OW29656   5.788   2.147   5.222
 9586SOL    HW129657   5.708   2.207   5.209
 9586SOL    HW229658   5.778   2.098   5.308
 9587SOL     OW29659   6.050   3.605   4.047
 9587SOL    HW129660   6.083   3.644   4.133
 9587SOL    HW229661   6.126   3.598   3.982
 9588SOL     OW29662   5.835   3.647   4.965
 9588SOL    HW129663   5.892   3.582   5.015
 9588SOL    HW229664   5.819   3.614   4.872
 9589SOL     OW29665   6.526   3.560   4.628
 9589SOL    HW129666   6.606   3.503   4.649
 9589SOL    HW229667   6.477   3.520   4.551
 9590SOL     OW29668   5.968   2.562   4.204
 9590SOL    HW129669   6.013   2.472   4.201
 9590SOL    HW229670   5.874   2.551   4.237
 9591SOL     OW29671   6.200   1.984   3.841
 9591SOL    HW129672   6.298   1.962   3.848
 9591SOL    HW229673   6.169   1.967   3.748
 9592SOL     OW29674   6.367   2.126   5.473
 9592SOL    HW129675   6.434   2.065   5.516
 9592SOL    HW229676   6.294   2.145   5.538
 9593SOL     OW29677   6.474   3.376   4.919
 9593SOL    HW129678   6.451   3.351   4.825
 9593SOL    HW229679   6.535   3.307   4.958
 9594SOL     OW29680   6.389   3.264   4.648
 9594SOL    HW129681   6.479   3.278   4.606
 9594SOL    HW229682   6.318   3.266   4.577
 9595SOL     OW29683   6.508   2.365   4.623
 9595SOL    HW129684   6.483   2.356   4.527
 9595SOL    HW229685   6.556   2.283   4.654
 9596SOL     OW29686   6.125   1.926   4.236
 9596SOL    HW129687   6.044   1.927   4.294
 9596SOL    HW229688   6.128   2.009   4.181
 9597SOL     OW29689   7.020   3.050   3.765
 9597SOL    HW129690   7.052   2.974   3.822
 9597SOL    HW229691   6.928   3.077   3.795
 9598SOL     OW29692   5.883   1.897   3.895
 9598SOL    HW129693   5.932   1.981   3.874
 9598SOL    HW229694   5.945   1.832   3.940
 9599SOL     OW29695   6.521   2.098   4.204
 9599SOL    HW129696   6.473   2.139   4.126
 9599SOL    HW229697   6.620   2.096   4.185
 9600SOL     OW29698   6.662   2.545   5.188
 9600SOL    HW129699   6.582   2.484   5.191
 9600SOL    HW229700   6.743   2.492   5.164
 9601SOL     OW29701   6.813   3.432   4.517
 9601SOL    HW129702   6.834   3.506   4.452
 9601SOL    HW229703   6.881   3.432   4.590
 9602SOL     OW29704   6.045   3.014   4.465
 9602SOL    HW129705   5.974   2.987   4.530
 9602SOL    HW229706   6.019   2.986   4.372
 9603SOL     OW29707   6.857   3.659   4.315
 9603SOL    HW129708   6.901   3.723   4.251
 9603SOL    HW229709   6.807   3.711   4.385
 9604SOL     OW29710   6.618   2.411   3.740
 9604SOL    HW129711   6.577   2.493   3.701
 9604SOL    HW229712   6.682   2.437   3.813
 9605SOL     OW29713   5.664   2.418   5.110
 9605SOL    HW129714   5.756   2.417   5.069
 9605SOL    HW229715   5.658   2.492   5.177
 9606SOL     OW29716   6.147   2.084   4.871
 9606SOL    HW129717   6.185   2.000   4.908
 9606SOL    HW229718   6.059   2.103   4.915
 9607SOL     OW29719   6.452   2.316   4.366
 9607SOL    HW129720   6.420   2.388   4.304
 9607SOL    HW229721   6.476   2.235   4.313
 9608SOL     OW29722   6.603   1.901   4.477
 9608SOL    HW129723   6.531   1.906   4.408
 9608SOL    HW229724   6.579   1.832   4.546
 9609SOL     OW29725   6.074   3.247   3.898
 9609SOL    HW129726   5.987   3.232   3.945
 9609SOL    HW229727   6.057   3.273   3.803
 9610SOL     OW29728   6.113   2.118   4.052
 9610SOL    HW129729   6.140   2.059   3.977
 9610SOL    HW229730   6.113   2.213   4.021
 9611SOL     OW29731   6.650   3.209   5.064
 9611SOL    HW129732   6.570   3.186   5.119
 9611SOL    HW229733   6.733   3.183   5.113
 9612SOL     OW29734   6.697   3.057   4.824
 9612SOL    HW129735   6.657   3.101   4.905
 9612SOL    HW229736   6.656   3.094   4.741
 9613SOL     OW29737   6.501   1.951   5.126
 9613SOL    HW129738   6.526   1.931   5.031
 9613SOL    HW229739   6.573   2.007   5.168
 9614SOL     OW29740   6.566   2.978   5.443
 9614SOL    HW129741   6.467   2.984   5.453
 9614SOL    HW229742   6.589   2.898   5.387
 9615SOL     OW29743   6.291   2.912   4.092
 9615SOL    HW129744   6.277   2.919   4.191
 9615SOL    HW229745   6.375   2.861   4.074
 9616SOL     OW29746   5.996   2.675   4.975
 9616SOL    HW129747   6.082   2.687   5.025
 9616SOL    HW229748   5.954   2.588   5.002
 9617SOL     OW29749   6.860   2.248   4.986
 9617SOL    HW129750   6.881   2.322   5.050
 9617SOL    HW229751   6.771   2.265   4.943
 9618SOL     OW29752   5.650   3.426   5.055
 9618SOL    HW129753   5.604   3.508   5.021
 9618SOL    HW229754   5.748   3.445   5.064
 9619SOL     OW29755   5.953   2.962   4.225
 9619SOL    HW129756   5.946   3.045   4.169
 9619SOL    HW229757   5.957   2.882   4.165
 9620SOL     OW29758   6.152   2.399   4.589
 9620SOL    HW129759   6.164   2.465   4.515
 9620SOL    HW229760   6.198   2.433   4.672
 9621SOL     OW29761   6.838   3.210   4.112
 9621SOL    HW129762   6.888   3.287   4.152
 9621SOL    HW229763   6.743   3.212   4.144
 9622SOL     OW29764   6.858   3.307   4.866
 9622SOL    HW129765   6.905   3.320   4.953
 9622SOL    HW229766   6.792   3.233   4.875
 9623SOL     OW29767   5.940   3.372   5.053
 9623SOL    HW129768   5.919   3.328   4.966
 9623SOL    HW229769   6.037   3.398   5.056
 9624SOL     OW29770   5.988   2.613   5.322
 9624SOL    HW129771   6.056   2.668   5.275
 9624SOL    HW229772   6.028   2.525   5.349
 9625SOL     OW29773   6.599   1.967   5.494
 9625SOL    HW129774   6.605   2.052   5.442
 9625SOL    HW229775   6.631   1.891   5.437
 9626SOL     OW29776   6.090   1.912   5.464
 9626SOL    HW129777   6.048   1.855   5.394
 9626SOL    HW229778   6.024   1.981   5.496
 9627SOL     OW29779   6.159   2.732   4.753
 9627SOL    HW129780   6.203   2.821   4.744
 9627SOL    HW229781   6.096   2.732   4.830
 9628SOL     OW29782   6.946   2.724   4.769
 9628SOL    HW129783   6.871   2.724   4.703
 9628SOL    HW229784   6.983   2.632   4.778
 9629SOL     OW29785   6.795   2.387   3.999
 9629SOL    HW129786   6.808   2.303   4.053
 9629SOL    HW229787   6.766   2.461   4.059
 9630SOL     OW29788   5.893   2.075   4.955
 9630SOL    HW129789   5.870   2.112   5.045
 9630SOL    HW229790   5.863   1.980   4.949
 9631SOL     OW29791   5.623   3.172   5.006
 9631SOL    HW129792   5.676   3.123   5.074
 9631SOL    HW229793   5.645   3.270   5.011
 9632SOL     OW29794   6.318   2.496   4.788
 9632SOL    HW129795   6.377   2.470   4.712
 9632SOL    HW229796   6.290   2.592   4.777
 9633SOL     OW29797   5.893   1.925   4.342
 9633SOL    HW129798   5.882   2.019   4.375
 9633SOL    HW229799   5.888   1.862   4.419
 9634SOL     OW29800   7.208   2.229   4.098
 9634SOL    HW129801   7.210   2.153   4.162
 9634SOL    HW229802   7.160   2.306   4.138
 9635SOL     OW29803   6.609   2.628   4.690
 9635SOL    HW129804   6.624   2.649   4.786
 9635SOL    HW229805   6.579   2.533   4.681
 9636SOL     OW29806   6.566   3.435   5.424
 9636SOL    HW129807   6.546   3.479   5.336
 9636SOL    HW229808   6.605   3.344   5.408
 9637SOL     OW29809   5.936   2.760   5.528
 9637SOL    HW129810   6.012   2.804   5.576
 9637SOL    HW229811   5.971   2.713   5.446
 9638SOL     OW29812   6.889   2.700   3.766
 9638SOL    HW129813   6.923   2.607   3.781
 9638SOL    HW229814   6.907   2.727   3.671
 9639SOL     OW29815   6.654   3.195   4.573
 9639SOL    HW129816   6.661   3.111   4.518
 9639SOL    HW229817   6.716   3.264   4.537
 9640SOL     OW29818   5.905   2.672   4.673
 9640SOL    HW129819   5.998   2.708   4.678
 9640SOL    HW229820   5.899   2.587   4.725
 9641SOL     OW29821   5.925   2.371   4.730
 9641SOL    HW129822   5.873   2.288   4.713
 9641SOL    HW229823   6.002   2.376   4.666
 9642SOL     OW29824   6.724   2.242   5.402
 9642SOL    HW129825   6.679   2.305   5.466
 9642SOL    HW229826   6.817   2.273   5.385
 9643SOL     OW29827   6.746   2.069   5.201
 9643SOL    HW129828   6.746   2.133   5.278
 9643SOL    HW229829   6.774   2.117   5.118
 9644SOL     OW29830   5.594   3.188   3.924
 9644SOL    HW129831   5.501   3.209   3.893
 9644SOL    HW229832   5.604   3.089   3.937
 9645SOL     OW29833   5.674   3.663   4.651
 9645SOL    HW129834   5.632   3.577   4.624
 9645SOL    HW229835   5.768   3.666   4.617
 9646SOL     OW29836   6.090   3.430   4.634
 9646SOL    HW129837   6.156   3.504   4.643
 9646SOL    HW229838   6.134   3.351   4.592
 9647SOL     OW29839   6.588   2.658   4.962
 9647SOL    HW129840   6.629   2.626   5.048
 9647SOL    HW229841   6.492   2.631   4.959
 9648SOL     OW29842   5.626   2.406   4.838
 9648SOL    HW129843   5.711   2.373   4.797
 9648SOL    HW229844   5.639   2.421   4.936
 9649SOL     OW29845   5.775   2.382   5.446
 9649SOL    HW129846   5.834   2.342   5.376
 9649SOL    HW229847   5.717   2.453   5.405
 9650SOL     OW29848   6.401   2.434   4.049
 9650SOL    HW129849   6.408   2.345   4.003
 9650SOL    HW229850   6.307   2.468   4.041
 9651SOL     OW29851   5.838   3.426   5.468
 9651SOL    HW129852   5.808   3.483   5.544
 9651SOL    HW229853   5.831   3.329   5.494
 9652SOL     OW29854   6.257   2.326   4.993
 9652SOL    HW129855   6.223   2.237   4.963
 9652SOL    HW229856   6.283   2.380   4.913
 9653SOL     OW29857   6.516   3.540   5.189
 9653SOL    HW129858   6.492   3.522   5.094
 9653SOL    HW229859   6.546   3.634   5.199
 9654SOL     OW29860   6.059   2.362   3.915
 9654SOL    HW129861   6.120   2.442   3.919
 9654SOL    HW229862   5.964   2.393   3.922
 9655SOL     OW29863   5.745   2.999   5.190
 9655SOL    HW129864   5.767   2.938   5.266
 9655SOL    HW229865   5.755   2.950   5.104
 9656SOL     OW29866   6.933   2.921   4.958
 9656SOL    HW129867   6.957   2.858   4.884
 9656SOL    HW229868   6.843   2.961   4.940
 9657SOL     OW29869   6.888   2.717   4.033
 9657SOL    HW129870   6.802   2.686   4.075
 9657SOL    HW229871   6.884   2.703   3.934
 9658SOL     OW29872   6.838   3.593   4.852
 9658SOL    HW129873   6.922   3.598   4.798
 9658SOL    HW229874   6.815   3.497   4.870
 9659SOL     OW29875   5.669   3.120   4.746
 9659SOL    HW129876   5.664   3.119   4.846
 9659SOL    HW229877   5.586   3.079   4.708
 9660SOL     OW29878   6.274   3.524   5.440
 9660SOL    HW129879   6.218   3.605   5.449
 9660SOL    HW229880   6.326   3.528   5.354
 9661SOL     OW29881   6.974   3.435   4.201
 9661SOL    HW129882   7.041   3.447   4.127
 9661SOL    HW229883   6.934   3.524   4.224
 9662SOL     OW29884   5.716   3.656   5.575
 9662SOL    HW129885   5.675   3.582   5.628
 9662SOL    HW229886   5.780   3.707   5.633
 9663SOL     OW29887   6.866   2.789   4.396
 9663SOL    HW129888   6.926   2.708   4.398
 9663SOL    HW229889   6.906   2.858   4.336
 9664SOL     OW29890   6.416   3.135   5.146
 9664SOL    HW129891   6.411   3.168   5.241
 9664SOL    HW229892   6.330   3.154   5.100
 9665SOL     OW29893   6.258   3.478   3.878
 9665SOL    HW129894   6.267   3.488   3.779
 9665SOL    HW229895   6.218   3.389   3.899
 9666SOL     OW29896   5.849   2.188   4.444
 9666SOL    HW129897   5.770   2.239   4.410
 9666SOL    HW229898   5.840   2.173   4.542
 9667SOL     OW29899   6.780   3.474   3.755
 9667SOL    HW129900   6.786   3.381   3.792
 9667SOL    HW229901   6.721   3.474   3.675
 9668SOL     OW29902   6.408   2.864   5.096
 9668SOL    HW129903   6.448   2.863   5.004
 9668SOL    HW229904   6.418   2.956   5.136
 9669SOL     OW29905   6.502   2.772   4.015
 9669SOL    HW129906   6.565   2.810   3.947
 9669SOL    HW229907   6.542   2.689   4.054
 9670SOL     OW29908   5.958   3.150   5.214
 9670SOL    HW129909   5.945   3.243   5.180
 9670SOL    HW229910   5.874   3.098   5.201
 9671SOL     OW29911   6.625   2.960   4.420
 9671SOL    HW129912   6.555   2.913   4.474
 9671SOL    HW229913   6.684   2.892   4.377
 9672SOL     OW29914   6.600   2.098   4.695
 9672SOL    HW129915   6.592   2.062   4.602
 9672SOL    HW229916   6.598   2.022   4.760
 9673SOL     OW29917   6.176   3.349   4.215
 9673SOL    HW129918   6.218   3.291   4.145
 9673SOL    HW229919   6.132   3.428   4.171
 9674SOL     OW29920   5.841   3.210   4.014
 9674SOL    HW129921   5.745   3.211   3.987
 9674SOL    HW229922   5.853   3.263   4.098
 9675SOL     OW29923   5.691   2.875   5.450
 9675SOL    HW129924   5.614   2.842   5.504
 9675SOL    HW229925   5.776   2.845   5.492
 9676SOL     OW29926   6.258   2.065   5.213
 9676SOL    HW129927   6.348   2.049   5.173
 9676SOL    HW229928   6.266   2.070   5.312
 9677SOL     OW29929   5.661   2.207   3.757
 9677SOL    HW129930   5.569   2.179   3.728
 9677SOL    HW229931   5.692   2.284   3.701
 9678SOL     OW29932   5.658   2.028   4.042
 9678SOL    HW129933   5.641   2.111   3.988
 9678SOL    HW229934   5.748   1.991   4.020
 9679SOL     OW29935   6.199   2.704   5.155
 9679SOL    HW129936   6.255   2.785   5.138
 9679SOL    HW229937   6.258   2.624   5.158
 9680SOL     OW29938   6.302   2.427   5.432
 9680SOL    HW129939   6.321   2.492   5.506
 9680SOL    HW229940   6.362   2.347   5.441
 9681SOL     OW29941   7.036   3.082   5.357
 9681SOL    HW129942   7.027   3.072   5.456
 9681SOL    HW229943   7.132   3.075   5.331
 9682SOL     OW29944   5.976   3.603   5.284
 9682SOL    HW129945   5.885   3.644   5.282
 9682SOL    HW229946   5.969   3.509   5.316
 9683SOL     OW29947   6.811   2.187   4.173
 9683SOL    HW129948   6.876   2.113   4.162
 9683SOL    HW229949   6.831   2.237   4.257
 9684SOL     OW29950   6.180   2.607   4.376
 9684SOL    HW129951   6.230   2.692   4.357
 9684SOL    HW229952   6.092   2.609   4.328
 9685SOL     OW29953   6.445   3.236   3.740
 9685SOL    HW129954   6.399   3.251   3.828
 9685SOL    HW229955   6.489   3.321   3.710
 9686SOL     OW29956   6.247   3.652   4.677
 9686SOL    HW129957   6.201   3.740   4.664
 9686SOL    HW229958   6.346   3.664   4.670
 9687SOL     OW29959   6.445   2.818   4.585
 9687SOL    HW129960   6.499   2.749   4.633
 9687SOL    HW229961   6.413   2.887   4.651
 9688SOL     OW29962   6.669   2.846   3.811
 9688SOL    HW129963   6.646   2.899   3.729
 9688SOL    HW229964   6.750   2.790   3.792
 9689SOL     OW29965   5.807   3.176   5.568
 9689SOL    HW129966   5.742   3.103   5.547
 9689SOL    HW229967   5.811   3.190   5.666
 9690SOL     OW29968   5.665   3.102   4.377
 9690SOL    HW129969   5.664   3.055   4.465
 9690SOL    HW229970   5.747   3.074   4.326
 9691SOL     OW29971   6.258   3.253   5.348
 9691SOL    HW129972   6.180   3.203   5.386
 9691SOL    HW229973   6.255   3.348   5.379
 9692SOL     OW29974   6.014   2.286   4.244
 9692SOL    HW129975   6.044   2.214   4.182
 9692SOL    HW229976   5.975   2.246   4.327
 9693SOL     OW29977   5.903   2.409   5.004
 9693SOL    HW129978   5.941   2.350   5.076
 9693SOL    HW229979   5.943   2.383   4.916
 9694SOL     OW29980   6.398   3.448   4.411
 9694SOL    HW129981   6.430   3.458   4.317
 9694SOL    HW229982   6.319   3.386   4.413
 9695SOL     OW29983   7.010   2.076   4.836
 9695SOL    HW129984   7.062   2.011   4.891
 9695SOL    HW229985   6.961   2.139   4.897
 9696SOL     OW29986   6.587   1.896   4.878
 9696SOL    HW129987   6.524   1.824   4.847
 9696SOL    HW229988   6.680   1.860   4.878
 9697SOL     OW29989   6.356   3.192   4.025
 9697SOL    HW129990   6.310   3.105   4.042
 9697SOL    HW229991   6.447   3.189   4.066
 9698SOL     OW29992   6.204   3.429   5.008
 9698SOL    HW129993   6.199   3.511   5.065
 9698SOL    HW229994   6.293   3.426   4.963
 9699SOL     OW29995   6.938   1.914   3.892
 9699SOL    HW129996   6.973   1.873   3.808
 9699SOL    HW229997   6.848   1.876   3.912
 9700SOL     OW29998   5.625   2.939   4.024
 9700SOL    HW129999   5.724   2.928   4.015
 9700SOL    HW230000   5.585   2.853   4.056
 9701SOL     OW30001   6.461   3.508   4.061
 9701SOL    HW130002   6.384   3.473   4.007
 9701SOL    HW230003   6.429   3.579   4.123
 9702SOL     OW30004   5.816   2.490   5.699
 9702SOL    HW130005   5.723   2.488   5.736
 9702SOL    HW230006   5.817   2.451   5.607
 9703SOL     OW30007   5.811   2.137   6.582
 9703SOL    HW130008   5.846   2.120   6.674
 9703SOL    HW230009   5.723   2.092   6.570
 9704SOL     OW30010   5.605   2.230   6.233
 9704SOL    HW130011   5.523   2.273   6.272
 9704SOL    HW230012   5.577   2.157   6.170
 9705SOL     OW30013   6.155   3.137   6.751
 9705SOL    HW130014   6.062   3.130   6.714
 9705SOL    HW230015   6.166   3.226   6.795
 9706SOL     OW30016   7.141   3.373   6.289
 9706SOL    HW130017   7.084   3.357   6.370
 9706SOL    HW230018   7.082   3.383   6.209
 9707SOL     OW30019   6.721   2.565   6.303
 9707SOL    HW130020   6.778   2.643   6.278
 9707SOL    HW230021   6.661   2.591   6.379
 9708SOL     OW30022   6.354   3.006   6.609
 9708SOL    HW130023   6.276   3.023   6.669
 9708SOL    HW230024   6.388   3.093   6.573
 9709SOL     OW30025   6.271   2.874   6.251
 9709SOL    HW130026   6.340   2.858   6.321
 9709SOL    HW230027   6.198   2.931   6.289
 9710SOL     OW30028   5.921   3.297   6.647
 9710SOL    HW130029   5.843   3.266   6.594
 9710SOL    HW230030   5.979   3.355   6.590
 9711SOL     OW30031   5.817   3.575   6.069
 9711SOL    HW130032   5.851   3.652   6.123
 9711SOL    HW230033   5.861   3.575   5.979
 9712SOL     OW30034   5.816   3.296   6.124
 9712SOL    HW130035   5.790   3.392   6.124
 9712SOL    HW230036   5.745   3.242   6.169
 9713SOL     OW30037   5.826   2.953   6.472
 9713SOL    HW130038   5.840   2.869   6.524
 9713SOL    HW230039   5.771   3.017   6.527
 9714SOL     OW30040   6.206   3.648   7.025
 9714SOL    HW130041   6.114   3.631   7.060
 9714SOL    HW230042   6.234   3.740   7.051
 9715SOL     OW30043   6.192   2.826   5.709
 9715SOL    HW130044   6.199   2.910   5.655
 9715SOL    HW230045   6.238   2.839   5.797
 9716SOL     OW30046   7.180   1.976   7.066
 9716SOL    HW130047   7.162   2.043   6.994
 9716SOL    HW230048   7.177   2.022   7.155
 9717SOL     OW30049   5.708   2.505   6.149
 9717SOL    HW130050   5.663   2.417   6.166
 9717SOL    HW230051   5.707   2.559   6.233
 9718SOL     OW30052   5.613   3.458   5.703
 9718SOL    HW130053   5.594   3.362   5.724
 9718SOL    HW230054   5.580   3.516   5.778
 9719SOL     OW30055   6.199   3.227   6.312
 9719SOL    HW130056   6.150   3.140   6.321
 9719SOL    HW230057   6.176   3.270   6.225
 9720SOL     OW30058   6.879   3.090   7.009
 9720SOL    HW130059   6.916   3.017   6.951
 9720SOL    HW230060   6.931   3.095   7.094
 9721SOL     OW30061   6.395   1.866   6.088
 9721SOL    HW130062   6.435   1.957   6.079
 9721SOL    HW230063   6.295   1.874   6.094
 9722SOL     OW30064   5.783   2.838   6.850
 9722SOL    HW130065   5.872   2.793   6.836
 9722SOL    HW230066   5.710   2.773   6.831
 9723SOL     OW30067   6.184   2.591   5.856
 9723SOL    HW130068   6.208   2.660   5.788
 9723SOL    HW230069   6.106   2.624   5.910
 9724SOL     OW30070   6.867   2.207   6.530
 9724SOL    HW130071   6.781   2.157   6.517
 9724SOL    HW230072   6.929   2.153   6.586
 9725SOL     OW30073   6.393   2.467   7.051
 9725SOL    HW130074   6.346   2.464   7.140
 9725SOL    HW230075   6.342   2.412   6.985
 9726SOL     OW30076   6.577   2.272   6.828
 9726SOL    HW130077   6.500   2.306   6.882
 9726SOL    HW230078   6.543   2.221   6.749
 9727SOL     OW30079   6.627   2.563   6.015
 9727SOL    HW130080   6.653   2.559   6.111
 9727SOL    HW230081   6.542   2.512   6.001
 9728SOL     OW30082   5.662   2.673   6.375
 9728SOL    HW130083   5.761   2.661   6.384
 9728SOL    HW230084   5.638   2.768   6.396
 9729SOL     OW30085   5.716   3.683   7.157
 9729SOL    HW130086   5.706   3.668   7.256
 9729SOL    HW230087   5.630   3.719   7.121
 9730SOL     OW30088   6.451   2.210   5.781
 9730SOL    HW130089   6.510   2.273   5.732
 9730SOL    HW230090   6.470   2.116   5.752
 9731SOL     OW30091   6.948   3.006   6.131
 9731SOL    HW130092   7.031   2.977   6.083
 9731SOL    HW230093   6.899   3.073   6.075
 9732SOL     OW30094   6.136   2.058   6.471
 9732SOL    HW130095   6.131   2.053   6.571
 9732SOL    HW230096   6.138   2.154   6.442
 9733SOL     OW30097   6.594   3.318   6.063
 9733SOL    HW130098   6.548   3.390   6.011
 9733SOL    HW230099   6.590   3.338   6.161
 9734SOL     OW30100   5.937   3.663   6.439
 9734SOL    HW130101   5.987   3.577   6.445
 9734SOL    HW230102   6.002   3.740   6.436
 9735SOL     OW30103   5.907   2.805   5.828
 9735SOL    HW130104   5.989   2.844   5.786
 9735SOL    HW230105   5.880   2.723   5.779
 9736SOL     OW30106   6.697   3.638   5.823
 9736SOL    HW130107   6.637   3.576   5.873
 9736SOL    HW230108   6.728   3.594   5.738
 9737SOL     OW30109   6.050   3.605   5.909
 9737SOL    HW130110   6.083   3.644   5.995
 9737SOL    HW230111   6.126   3.598   5.844
 9738SOL     OW30112   5.835   3.647   6.827
 9738SOL    HW130113   5.892   3.582   6.877
 9738SOL    HW230114   5.819   3.614   6.734
 9739SOL     OW30115   6.526   3.560   6.490
 9739SOL    HW130116   6.606   3.503   6.511
 9739SOL    HW230117   6.477   3.520   6.413
 9740SOL     OW30118   5.968   2.562   6.066
 9740SOL    HW130119   6.013   2.472   6.063
 9740SOL    HW230120   5.874   2.551   6.099
 9741SOL     OW30121   6.200   1.984   5.703
 9741SOL    HW130122   6.298   1.962   5.710
 9741SOL    HW230123   6.169   1.967   5.610
 9742SOL     OW30124   6.474   3.376   6.781
 9742SOL    HW130125   6.451   3.351   6.687
 9742SOL    HW230126   6.535   3.307   6.820
 9743SOL     OW30127   6.389   3.264   6.510
 9743SOL    HW130128   6.479   3.278   6.468
 9743SOL    HW230129   6.318   3.266   6.439
 9744SOL     OW30130   6.508   2.365   6.485
 9744SOL    HW130131   6.483   2.356   6.389
 9744SOL    HW230132   6.556   2.283   6.516
 9745SOL     OW30133   6.125   1.926   6.098
 9745SOL    HW130134   6.044   1.927   6.156
 9745SOL    HW230135   6.128   2.009   6.043
 9746SOL     OW30136   7.020   3.050   5.627
 9746SOL    HW130137   7.052   2.974   5.684
 9746SOL    HW230138   6.928   3.077   5.657
 9747SOL     OW30139   5.883   1.897   5.757
 9747SOL    HW130140   5.932   1.981   5.736
 9747SOL    HW230141   5.945   1.832   5.802
 9748SOL     OW30142   6.521   2.098   6.066
 9748SOL    HW130143   6.473   2.139   5.988
 9748SOL    HW230144   6.620   2.096   6.047
 9749SOL     OW30145   6.813   3.432   6.379
 9749SOL    HW130146   6.834   3.506   6.314
 9749SOL    HW230147   6.881   3.432   6.452
 9750SOL     OW30148   6.045   3.014   6.327
 9750SOL    HW130149   5.974   2.987   6.392
 9750SOL    HW230150   6.019   2.986   6.234
 9751SOL     OW30151   6.857   3.659   6.177
 9751SOL    HW130152   6.901   3.723   6.113
 9751SOL    HW230153   6.807   3.711   6.247
 9752SOL     OW30154   6.618   2.411   5.602
 9752SOL    HW130155   6.577   2.493   5.563
 9752SOL    HW230156   6.682   2.437   5.675
 9753SOL     OW30157   6.147   2.084   6.733
 9753SOL    HW130158   6.185   2.000   6.770
 9753SOL    HW230159   6.059   2.103   6.777
 9754SOL     OW30160   6.452   2.316   6.228
 9754SOL    HW130161   6.420   2.388   6.166
 9754SOL    HW230162   6.476   2.235   6.175
 9755SOL     OW30163   6.603   1.901   6.339
 9755SOL    HW130164   6.531   1.906   6.270
 9755SOL    HW230165   6.579   1.832   6.408
 9756SOL     OW30166   6.074   3.247   5.760
 9756SOL    HW130167   5.987   3.232   5.807
 9756SOL    HW230168   6.057   3.273   5.665
 9757SOL     OW30169   6.113   2.118   5.914
 9757SOL    HW130170   6.140   2.059   5.839
 9757SOL    HW230171   6.113   2.213   5.883
 9758SOL     OW30172   7.178   3.491   7.211
 9758SOL    HW130173   7.205   3.525   7.121
 9758SOL    HW230174   7.257   3.453   7.257
 9759SOL     OW30175   6.697   3.057   6.686
 9759SOL    HW130176   6.657   3.101   6.767
 9759SOL    HW230177   6.656   3.094   6.603
 9760SOL     OW30178   6.291   2.912   5.954
 9760SOL    HW130179   6.277   2.919   6.053
 9760SOL    HW230180   6.375   2.861   5.936
 9761SOL     OW30181   5.996   2.675   6.837
 9761SOL    HW130182   6.082   2.687   6.887
 9761SOL    HW230183   5.954   2.588   6.864
 9762SOL     OW30184   6.860   2.248   6.848
 9762SOL    HW130185   6.881   2.322   6.912
 9762SOL    HW230186   6.771   2.265   6.805
 9763SOL     OW30187   5.650   3.426   6.917
 9763SOL    HW130188   5.604   3.508   6.883
 9763SOL    HW230189   5.748   3.445   6.926
 9764SOL     OW30190   5.953   2.962   6.087
 9764SOL    HW130191   5.946   3.045   6.031
 9764SOL    HW230192   5.957   2.882   6.027
 9765SOL     OW30193   6.152   2.399   6.451
 9765SOL    HW130194   6.164   2.465   6.377
 9765SOL    HW230195   6.198   2.433   6.534
 9766SOL     OW30196   6.838   3.210   5.974
 9766SOL    HW130197   6.888   3.287   6.014
 9766SOL    HW230198   6.743   3.212   6.006
 9767SOL     OW30199   6.858   3.307   6.728
 9767SOL    HW130200   6.905   3.320   6.815
 9767SOL    HW230201   6.792   3.233   6.737
 9768SOL     OW30202   5.940   3.372   6.915
 9768SOL    HW130203   5.919   3.328   6.828
 9768SOL    HW230204   6.037   3.398   6.918
 9769SOL     OW30205   6.159   2.732   6.615
 9769SOL    HW130206   6.203   2.821   6.606
 9769SOL    HW230207   6.096   2.732   6.692
 9770SOL     OW30208   6.946   2.724   6.631
 9770SOL    HW130209   6.871   2.724   6.565
 9770SOL    HW230210   6.983   2.632   6.640
 9771SOL     OW30211   6.795   2.387   5.861
 9771SOL    HW130212   6.808   2.303   5.915
 9771SOL    HW230213   6.766   2.461   5.921
 9772SOL     OW30214   5.893   2.075   6.817
 9772SOL    HW130215   5.870   2.112   6.907
 9772SOL    HW230216   5.863   1.980   6.811
 9773SOL     OW30217   5.623   3.172   6.868
 9773SOL    HW130218   5.676   3.123   6.936
 9773SOL    HW230219   5.645   3.270   6.873
 9774SOL     OW30220   6.318   2.496   6.650
 9774SOL    HW130221   6.377   2.470   6.574
 9774SOL    HW230222   6.290   2.592   6.639
 9775SOL     OW30223   5.893   1.925   6.204
 9775SOL    HW130224   5.882   2.019   6.237
 9775SOL    HW230225   5.888   1.862   6.281
 9776SOL     OW30226   7.208   2.229   5.960
 9776SOL    HW130227   7.210   2.153   6.024
 9776SOL    HW230228   7.160   2.306   6.000
 9777SOL     OW30229   6.609   2.628   6.552
 9777SOL    HW130230   6.624   2.649   6.648
 9777SOL    HW230231   6.579   2.533   6.543
 9778SOL     OW30232   6.889   2.700   5.628
 9778SOL    HW130233   6.923   2.607   5.643
 9778SOL    HW230234   6.907   2.727   5.533
 9779SOL     OW30235   6.654   3.195   6.435
 9779SOL    HW130236   6.661   3.111   6.380
 9779SOL    HW230237   6.716   3.264   6.399
 9780SOL     OW30238   5.905   2.672   6.535
 9780SOL    HW130239   5.998   2.708   6.540
 9780SOL    HW230240   5.899   2.587   6.587
 9781SOL     OW30241   5.925   2.371   6.592
 9781SOL    HW130242   5.873   2.288   6.575
 9781SOL    HW230243   6.002   2.376   6.528
 9782SOL     OW30244   6.746   2.069   7.063
 9782SOL    HW130245   6.746   2.133   7.140
 9782SOL    HW230246   6.774   2.117   6.980
 9783SOL     OW30247   5.594   3.188   5.786
 9783SOL    HW130248   5.501   3.209   5.755
 9783SOL    HW230249   5.604   3.089   5.799
 9784SOL     OW30250   5.674   3.663   6.513
 9784SOL    HW130251   5.632   3.577   6.486
 9784SOL    HW230252   5.768   3.666   6.479
 9785SOL     OW30253   6.090   3.430   6.496
 9785SOL    HW130254   6.156   3.504   6.505
 9785SOL    HW230255   6.134   3.351   6.454
 9786SOL     OW30256   6.588   2.658   6.824
 9786SOL    HW130257   6.629   2.626   6.910
 9786SOL    HW230258   6.492   2.631   6.821
 9787SOL     OW30259   5.626   2.406   6.700
 9787SOL    HW130260   5.711   2.373   6.659
 9787SOL    HW230261   5.639   2.421   6.798
 9788SOL     OW30262   6.401   2.434   5.911
 9788SOL    HW130263   6.408   2.345   5.865
 9788SOL    HW230264   6.307   2.468   5.903
 9789SOL     OW30265   6.257   2.326   6.855
 9789SOL    HW130266   6.223   2.237   6.825
 9789SOL    HW230267   6.283   2.380   6.775
 9790SOL     OW30268   6.516   3.540   7.051
 9790SOL    HW130269   6.492   3.522   6.956
 9790SOL    HW230270   6.546   3.634   7.061
 9791SOL     OW30271   6.059   2.362   5.777
 9791SOL    HW130272   6.120   2.442   5.781
 9791SOL    HW230273   5.964   2.393   5.784
 9792SOL     OW30274   5.745   2.999   7.052
 9792SOL    HW130275   5.767   2.938   7.128
 9792SOL    HW230276   5.755   2.950   6.966
 9793SOL     OW30277   6.933   2.921   6.820
 9793SOL    HW130278   6.957   2.858   6.746
 9793SOL    HW230279   6.843   2.961   6.802
 9794SOL     OW30280   6.888   2.717   5.895
 9794SOL    HW130281   6.802   2.686   5.937
 9794SOL    HW230282   6.884   2.703   5.796
 9795SOL     OW30283   6.838   3.593   6.714
 9795SOL    HW130284   6.922   3.598   6.660
 9795SOL    HW230285   6.815   3.497   6.732
 9796SOL     OW30286   5.669   3.120   6.608
 9796SOL    HW130287   5.664   3.119   6.708
 9796SOL    HW230288   5.586   3.079   6.570
 9797SOL     OW30289   6.974   3.435   6.063
 9797SOL    HW130290   7.041   3.447   5.989
 9797SOL    HW230291   6.934   3.524   6.086
 9798SOL     OW30292   6.866   2.789   6.258
 9798SOL    HW130293   6.926   2.708   6.260
 9798SOL    HW230294   6.906   2.858   6.198
 9799SOL     OW30295   6.258   3.478   5.740
 9799SOL    HW130296   6.267   3.488   5.641
 9799SOL    HW230297   6.218   3.389   5.761
 9800SOL     OW30298   5.849   2.188   6.306
 9800SOL    HW130299   5.770   2.239   6.272
 9800SOL    HW230300   5.840   2.173   6.404
 9801SOL     OW30301   6.780   3.474   5.617
 9801SOL    HW130302   6.786   3.381   5.654
 9801SOL    HW230303   6.721   3.474   5.537
 9802SOL     OW30304   6.408   2.864   6.958
 9802SOL    HW130305   6.448   2.863   6.866
 9802SOL    HW230306   6.418   2.956   6.998
 9803SOL     OW30307   6.502   2.772   5.877
 9803SOL    HW130308   6.565   2.810   5.809
 9803SOL    HW230309   6.542   2.689   5.916
 9804SOL     OW30310   6.625   2.960   6.282
 9804SOL    HW130311   6.555   2.913   6.336
 9804SOL    HW230312   6.684   2.892   6.239
 9805SOL     OW30313   6.600   2.098   6.557
 9805SOL    HW130314   6.592   2.062   6.464
 9805SOL    HW230315   6.598   2.022   6.622
 9806SOL     OW30316   6.176   3.349   6.077
 9806SOL    HW130317   6.218   3.291   6.007
 9806SOL    HW230318   6.132   3.428   6.033
 9807SOL     OW30319   5.841   3.210   5.876
 9807SOL    HW130320   5.745   3.211   5.849
 9807SOL    HW230321   5.853   3.263   5.960
 9808SOL     OW30322   6.258   2.065   7.075
 9808SOL    HW130323   6.348   2.049   7.035
 9808SOL    HW230324   6.266   2.070   7.174
 9809SOL     OW30325   5.661   2.207   5.619
 9809SOL    HW130326   5.569   2.179   5.590
 9809SOL    HW230327   5.692   2.284   5.563
 9810SOL     OW30328   5.658   2.028   5.904
 9810SOL    HW130329   5.641   2.111   5.850
 9810SOL    HW230330   5.748   1.991   5.882
 9811SOL     OW30331   5.976   3.603   7.146
 9811SOL    HW130332   5.885   3.644   7.144
 9811SOL    HW230333   5.969   3.509   7.178
 9812SOL     OW30334   6.811   2.187   6.035
 9812SOL    HW130335   6.876   2.113   6.024
 9812SOL    HW230336   6.831   2.237   6.119
 9813SOL     OW30337   6.180   2.607   6.238
 9813SOL    HW130338   6.230   2.692   6.219
 9813SOL    HW230339   6.092   2.609   6.190
 9814SOL     OW30340   6.445   3.236   5.602
 9814SOL    HW130341   6.399   3.251   5.690
 9814SOL    HW230342   6.489   3.321   5.572
 9815SOL     OW30343   6.247   3.652   6.539
 9815SOL    HW130344   6.201   3.740   6.526
 9815SOL    HW230345   6.346   3.664   6.532
 9816SOL     OW30346   6.445   2.818   6.447
 9816SOL    HW130347   6.499   2.749   6.495
 9816SOL    HW230348   6.413   2.887   6.513
 9817SOL     OW30349   6.669   2.846   5.673
 9817SOL    HW130350   6.646   2.899   5.591
 9817SOL    HW230351   6.750   2.790   5.654
 9818SOL     OW30352   5.665   3.102   6.239
 9818SOL    HW130353   5.664   3.055   6.327
 9818SOL    HW230354   5.747   3.074   6.188
 9819SOL     OW30355   6.014   2.286   6.106
 9819SOL    HW130356   6.044   2.214   6.044
 9819SOL    HW230357   5.975   2.246   6.189
 9820SOL     OW30358   5.903   2.409   6.866
 9820SOL    HW130359   5.941   2.350   6.938
 9820SOL    HW230360   5.943   2.383   6.778
 9821SOL     OW30361   6.398   3.448   6.273
 9821SOL    HW130362   6.430   3.458   6.179
 9821SOL    HW230363   6.319   3.386   6.275
 9822SOL     OW30364   7.010   2.076   6.698
 9822SOL    HW130365   7.062   2.011   6.753
 9822SOL    HW230366   6.961   2.139   6.759
 9823SOL     OW30367   6.587   1.896   6.740
 9823SOL    HW130368   6.524   1.824   6.709
 9823SOL    HW230369   6.680   1.860   6.740
 9824SOL     OW30370   6.356   3.192   5.887
 9824SOL    HW130371   6.310   3.105   5.904
 9824SOL    HW230372   6.447   3.189   5.928
 9825SOL     OW30373   6.204   3.429   6.870
 9825SOL    HW130374   6.199   3.511   6.927
 9825SOL    HW230375   6.293   3.426   6.825
 9826SOL     OW30376   6.938   1.914   5.754
 9826SOL    HW130377   6.973   1.873   5.670
 9826SOL    HW230378   6.848   1.876   5.774
 9827SOL     OW30379   5.625   2.939   5.886
 9827SOL    HW130380   5.724   2.928   5.877
 9827SOL    HW230381   5.585   2.853   5.918
 9828SOL     OW30382   6.461   3.508   5.923
 9828SOL    HW130383   6.384   3.473   5.869
 9828SOL    HW230384   6.429   3.579   5.985
 9829SOL     OW30385   5.816   4.352   0.113
 9829SOL    HW130386   5.723   4.350   0.150
 9829SOL    HW230387   5.817   4.313   0.021
 9830SOL     OW30388   5.811   3.999   0.996
 9830SOL    HW130389   5.846   3.982   1.088
 9830SOL    HW230390   5.723   3.954   0.984
 9831SOL     OW30391   5.605   4.092   0.647
 9831SOL    HW130392   5.523   4.135   0.686
 9831SOL    HW230393   5.577   4.019   0.584
 9832SOL     OW30394   6.155   4.999   1.165
 9832SOL    HW130395   6.062   4.992   1.128
 9832SOL    HW230396   6.166   5.088   1.209
 9833SOL     OW30397   7.141   5.235   0.703
 9833SOL    HW130398   7.084   5.219   0.784
 9833SOL    HW230399   7.082   5.245   0.623
 9834SOL     OW30400   6.721   4.427   0.717
 9834SOL    HW130401   6.778   4.505   0.692
 9834SOL    HW230402   6.661   4.453   0.793
 9835SOL     OW30403   6.354   4.868   1.023
 9835SOL    HW130404   6.276   4.885   1.083
 9835SOL    HW230405   6.388   4.955   0.987
 9836SOL     OW30406   6.436   4.522   1.823
 9836SOL    HW130407   6.432   4.598   1.888
 9836SOL    HW230408   6.458   4.558   1.732
 9837SOL     OW30409   6.271   4.736   0.665
 9837SOL    HW130410   6.340   4.720   0.735
 9837SOL    HW230411   6.198   4.793   0.703
 9838SOL     OW30412   6.272   4.885   1.803
 9838SOL    HW130413   6.332   4.964   1.817
 9838SOL    HW230414   6.186   4.916   1.762
 9839SOL     OW30415   5.921   5.159   1.061
 9839SOL    HW130416   5.843   5.128   1.008
 9839SOL    HW230417   5.979   5.217   1.004
 9840SOL     OW30418   6.024   4.116   1.499
 9840SOL    HW130419   6.106   4.060   1.508
 9840SOL    HW230420   5.943   4.058   1.503
 9841SOL     OW30421   5.817   5.437   0.483
 9841SOL    HW130422   5.851   5.514   0.537
 9841SOL    HW230423   5.861   5.437   0.393
 9842SOL     OW30424   6.713   5.065   1.690
 9842SOL    HW130425   6.760   5.065   1.778
 9842SOL    HW230426   6.665   4.978   1.679
 9843SOL     OW30427   5.816   5.158   0.538
 9843SOL    HW130428   5.790   5.254   0.538
 9843SOL    HW230429   5.745   5.104   0.583
 9844SOL     OW30430   5.826   4.815   0.886
 9844SOL    HW130431   5.840   4.731   0.938
 9844SOL    HW230432   5.771   4.879   0.941
 9845SOL     OW30433   6.206   5.510   1.439
 9845SOL    HW130434   6.114   5.493   1.474
 9845SOL    HW230435   6.234   5.602   1.465
 9846SOL     OW30436   6.192   4.688   0.123
 9846SOL    HW130437   6.199   4.772   0.069
 9846SOL    HW230438   6.238   4.701   0.211
 9847SOL     OW30439   5.708   4.367   0.563
 9847SOL    HW130440   5.663   4.279   0.580
 9847SOL    HW230441   5.707   4.421   0.647
 9848SOL     OW30442   5.613   5.320   0.117
 9848SOL    HW130443   5.594   5.224   0.138
 9848SOL    HW230444   5.580   5.378   0.192
 9849SOL     OW30445   5.699   4.461   1.597
 9849SOL    HW130446   5.787   4.448   1.642
 9849SOL    HW230447   5.686   4.558   1.575
 9850SOL     OW30448   6.199   5.089   0.726
 9850SOL    HW130449   6.150   5.002   0.735
 9850SOL    HW230450   6.176   5.132   0.639
 9851SOL     OW30451   6.879   4.952   1.423
 9851SOL    HW130452   6.916   4.879   1.365
 9851SOL    HW230453   6.931   4.957   1.508
 9852SOL     OW30454   6.395   3.728   0.502
 9852SOL    HW130455   6.435   3.819   0.493
 9852SOL    HW230456   6.295   3.736   0.508
 9853SOL     OW30457   5.783   4.700   1.264
 9853SOL    HW130458   5.872   4.655   1.250
 9853SOL    HW230459   5.710   4.635   1.245
 9854SOL     OW30460   6.773   5.516   1.616
 9854SOL    HW130461   6.797   5.576   1.540
 9854SOL    HW230462   6.780   5.421   1.586
 9855SOL     OW30463   5.903   3.975   1.801
 9855SOL    HW130464   5.974   4.046   1.807
 9855SOL    HW230465   5.815   4.014   1.829
 9856SOL     OW30466   6.184   4.453   0.270
 9856SOL    HW130467   6.208   4.522   0.202
 9856SOL    HW230468   6.106   4.486   0.324
 9857SOL     OW30469   6.867   4.069   0.944
 9857SOL    HW130470   6.781   4.019   0.931
 9857SOL    HW230471   6.929   4.015   1.000
 9858SOL     OW30472   6.393   4.329   1.465
 9858SOL    HW130473   6.346   4.326   1.554
 9858SOL    HW230474   6.342   4.274   1.399
 9859SOL     OW30475   6.980   4.193   1.674
 9859SOL    HW130476   6.960   4.236   1.762
 9859SOL    HW230477   7.058   4.131   1.683
 9860SOL     OW30478   6.559   4.614   1.572
 9860SOL    HW130479   6.605   4.530   1.543
 9860SOL    HW230480   6.503   4.648   1.497
 9861SOL     OW30481   6.577   4.134   1.242
 9861SOL    HW130482   6.500   4.168   1.296
 9861SOL    HW230483   6.543   4.083   1.163
 9862SOL     OW30484   6.627   4.425   0.429
 9862SOL    HW130485   6.653   4.421   0.525
 9862SOL    HW230486   6.542   4.374   0.415
 9863SOL     OW30487   5.662   4.535   0.789
 9863SOL    HW130488   5.761   4.523   0.798
 9863SOL    HW230489   5.638   4.630   0.810
 9864SOL     OW30490   5.716   5.545   1.571
 9864SOL    HW130491   5.706   5.530   1.670
 9864SOL    HW230492   5.630   5.581   1.535
 9865SOL     OW30493   6.451   4.072   0.195
 9865SOL    HW130494   6.510   4.135   0.146
 9865SOL    HW230495   6.470   3.978   0.166
 9866SOL     OW30496   6.948   4.868   0.545
 9866SOL    HW130497   7.031   4.839   0.497
 9866SOL    HW230498   6.899   4.935   0.489
 9867SOL     OW30499   6.136   3.920   0.885
 9867SOL    HW130500   6.131   3.915   0.985
 9867SOL    HW230501   6.138   4.016   0.856
 9868SOL     OW30502   6.594   5.180   0.477
 9868SOL    HW130503   6.548   5.252   0.425
 9868SOL    HW230504   6.590   5.200   0.575
 9869SOL     OW30505   5.937   5.525   0.853
 9869SOL    HW130506   5.987   5.439   0.859
 9869SOL    HW230507   6.002   5.602   0.850
 9870SOL     OW30508   6.813   5.274   1.506
 9870SOL    HW130509   6.819   5.197   1.570
 9870SOL    HW230510   6.761   5.248   1.426
 9871SOL     OW30511   5.907   4.667   0.242
 9871SOL    HW130512   5.989   4.706   0.200
 9871SOL    HW230513   5.880   4.585   0.193
 9872SOL     OW30514   6.047   4.990   1.727
 9872SOL    HW130515   5.997   4.991   1.641
 9872SOL    HW230516   5.984   4.972   1.803
 9873SOL     OW30517   6.697   5.500   0.237
 9873SOL    HW130518   6.637   5.438   0.287
 9873SOL    HW230519   6.728   5.456   0.152
 9874SOL     OW30520   5.788   4.009   1.498
 9874SOL    HW130521   5.708   4.069   1.485
 9874SOL    HW230522   5.778   3.960   1.584
 9875SOL     OW30523   7.218   5.101   0.081
 9875SOL    HW130524   7.186   5.195   0.071
 9875SOL    HW230525   7.142   5.038   0.069
 9876SOL     OW30526   6.050   5.467   0.323
 9876SOL    HW130527   6.083   5.506   0.409
 9876SOL    HW230528   6.126   5.460   0.258
 9877SOL     OW30529   5.835   5.509   1.241
 9877SOL    HW130530   5.892   5.444   1.291
 9877SOL    HW230531   5.819   5.476   1.148
 9878SOL     OW30532   6.526   5.422   0.904
 9878SOL    HW130533   6.606   5.365   0.925
 9878SOL    HW230534   6.477   5.382   0.827
 9879SOL     OW30535   5.968   4.424   0.480
 9879SOL    HW130536   6.013   4.334   0.477
 9879SOL    HW230537   5.874   4.413   0.513
 9880SOL     OW30538   6.367   3.988   1.749
 9880SOL    HW130539   6.434   3.927   1.792
 9880SOL    HW230540   6.294   4.007   1.814
 9881SOL     OW30541   6.474   5.238   1.195
 9881SOL    HW130542   6.451   5.213   1.101
 9881SOL    HW230543   6.535   5.169   1.234
 9882SOL     OW30544   6.389   5.126   0.924
 9882SOL    HW130545   6.479   5.140   0.882
 9882SOL    HW230546   6.318   5.128   0.853
 9883SOL     OW30547   6.508   4.227   0.899
 9883SOL    HW130548   6.483   4.218   0.803
 9883SOL    HW230549   6.556   4.145   0.930
 9884SOL     OW30550   6.125   3.788   0.512
 9884SOL    HW130551   6.044   3.789   0.570
 9884SOL    HW230552   6.128   3.871   0.457
 9885SOL     OW30553   6.521   3.960   0.480
 9885SOL    HW130554   6.473   4.001   0.402
 9885SOL    HW230555   6.620   3.958   0.461
 9886SOL     OW30556   6.662   4.407   1.464
 9886SOL    HW130557   6.582   4.346   1.467
 9886SOL    HW230558   6.743   4.354   1.440
 9887SOL     OW30559   6.813   5.294   0.793
 9887SOL    HW130560   6.834   5.368   0.728
 9887SOL    HW230561   6.881   5.294   0.866
 9888SOL     OW30562   6.045   4.876   0.741
 9888SOL    HW130563   5.974   4.849   0.806
 9888SOL    HW230564   6.019   4.848   0.648
 9889SOL     OW30565   6.857   5.521   0.591
 9889SOL    HW130566   6.901   5.585   0.527
 9889SOL    HW230567   6.807   5.573   0.661
 9890SOL     OW30568   6.618   4.273   0.016
 9890SOL    HW130569   6.577   4.355  -0.023
 9890SOL    HW230570   6.682   4.299   0.089
 9891SOL     OW30571   5.664   4.280   1.386
 9891SOL    HW130572   5.756   4.279   1.345
 9891SOL    HW230573   5.658   4.354   1.453
 9892SOL     OW30574   6.147   3.946   1.147
 9892SOL    HW130575   6.185   3.862   1.184
 9892SOL    HW230576   6.059   3.965   1.191
 9893SOL     OW30577   6.452   4.178   0.642
 9893SOL    HW130578   6.420   4.250   0.580
 9893SOL    HW230579   6.476   4.097   0.589
 9894SOL     OW30580   6.603   3.763   0.753
 9894SOL    HW130581   6.531   3.768   0.684
 9894SOL    HW230582   6.579   3.694   0.822
 9895SOL     OW30583   6.074   5.109   0.174
 9895SOL    HW130584   5.987   5.094   0.221
 9895SOL    HW230585   6.057   5.135   0.079
 9896SOL     OW30586   6.113   3.980   0.328
 9896SOL    HW130587   6.140   3.921   0.253
 9896SOL    HW230588   6.113   4.075   0.297
 9897SOL     OW30589   6.650   5.071   1.340
 9897SOL    HW130590   6.570   5.048   1.395
 9897SOL    HW230591   6.733   5.045   1.389
 9898SOL     OW30592   6.697   4.919   1.100
 9898SOL    HW130593   6.657   4.963   1.181
 9898SOL    HW230594   6.656   4.956   1.017
 9899SOL     OW30595   6.501   3.813   1.402
 9899SOL    HW130596   6.526   3.793   1.307
 9899SOL    HW230597   6.573   3.869   1.444
 9900SOL     OW30598   6.566   4.840   1.719
 9900SOL    HW130599   6.467   4.846   1.729
 9900SOL    HW230600   6.589   4.760   1.663
 9901SOL     OW30601   6.291   4.774   0.368
 9901SOL    HW130602   6.277   4.781   0.467
 9901SOL    HW230603   6.375   4.723   0.350
 9902SOL     OW30604   5.996   4.537   1.251
 9902SOL    HW130605   6.082   4.549   1.301
 9902SOL    HW230606   5.954   4.450   1.278
 9903SOL     OW30607   6.860   4.110   1.262
 9903SOL    HW130608   6.881   4.184   1.326
 9903SOL    HW230609   6.771   4.127   1.219
 9904SOL     OW30610   5.650   5.288   1.331
 9904SOL    HW130611   5.604   5.370   1.297
 9904SOL    HW230612   5.748   5.307   1.340
 9905SOL     OW30613   5.953   4.824   0.501
 9905SOL    HW130614   5.946   4.907   0.445
 9905SOL    HW230615   5.957   4.744   0.441
 9906SOL     OW30616   6.152   4.261   0.865
 9906SOL    HW130617   6.164   4.327   0.791
 9906SOL    HW230618   6.198   4.295   0.948
 9907SOL     OW30619   6.838   5.072   0.388
 9907SOL    HW130620   6.888   5.149   0.428
 9907SOL    HW230621   6.743   5.074   0.420
 9908SOL     OW30622   6.858   5.169   1.142
 9908SOL    HW130623   6.905   5.182   1.229
 9908SOL    HW230624   6.792   5.095   1.151
 9909SOL     OW30625   5.940   5.234   1.329
 9909SOL    HW130626   5.919   5.190   1.242
 9909SOL    HW230627   6.037   5.260   1.332
 9910SOL     OW30628   5.988   4.475   1.598
 9910SOL    HW130629   6.056   4.530   1.551
 9910SOL    HW230630   6.028   4.387   1.625
 9911SOL     OW30631   6.599   3.829   1.770
 9911SOL    HW130632   6.605   3.914   1.718
 9911SOL    HW230633   6.631   3.753   1.713
 9912SOL     OW30634   6.090   3.774   1.740
 9912SOL    HW130635   6.048   3.717   1.670
 9912SOL    HW230636   6.024   3.843   1.772
 9913SOL     OW30637   6.159   4.594   1.029
 9913SOL    HW130638   6.203   4.683   1.020
 9913SOL    HW230639   6.096   4.594   1.106
 9914SOL     OW30640   6.946   4.586   1.045
 9914SOL    HW130641   6.871   4.586   0.979
 9914SOL    HW230642   6.983   4.494   1.054
 9915SOL     OW30643   6.795   4.249   0.275
 9915SOL    HW130644   6.808   4.165   0.329
 9915SOL    HW230645   6.766   4.323   0.335
 9916SOL     OW30646   5.893   3.937   1.231
 9916SOL    HW130647   5.870   3.974   1.321
 9916SOL    HW230648   5.863   3.842   1.225
 9917SOL     OW30649   5.623   5.034   1.282
 9917SOL    HW130650   5.676   4.985   1.350
 9917SOL    HW230651   5.645   5.132   1.287
 9918SOL     OW30652   6.318   4.358   1.064
 9918SOL    HW130653   6.377   4.332   0.988
 9918SOL    HW230654   6.290   4.454   1.053
 9919SOL     OW30655   5.893   3.787   0.618
 9919SOL    HW130656   5.882   3.881   0.651
 9919SOL    HW230657   5.888   3.724   0.695
 9920SOL     OW30658   7.208   4.091   0.374
 9920SOL    HW130659   7.210   4.015   0.438
 9920SOL    HW230660   7.160   4.168   0.414
 9921SOL     OW30661   6.609   4.490   0.966
 9921SOL    HW130662   6.624   4.511   1.062
 9921SOL    HW230663   6.579   4.395   0.957
 9922SOL     OW30664   6.566   5.297   1.700
 9922SOL    HW130665   6.546   5.341   1.612
 9922SOL    HW230666   6.605   5.206   1.684
 9923SOL     OW30667   5.936   4.622   1.804
 9923SOL    HW130668   6.012   4.666   1.852
 9923SOL    HW230669   5.971   4.575   1.722
 9924SOL     OW30670   6.889   4.562   0.042
 9924SOL    HW130671   6.923   4.469   0.057
 9924SOL    HW230672   6.907   4.589  -0.053
 9925SOL     OW30673   6.654   5.057   0.849
 9925SOL    HW130674   6.661   4.973   0.794
 9925SOL    HW230675   6.716   5.126   0.813
 9926SOL     OW30676   5.905   4.534   0.949
 9926SOL    HW130677   5.998   4.570   0.954
 9926SOL    HW230678   5.899   4.449   1.001
 9927SOL     OW30679   5.925   4.233   1.006
 9927SOL    HW130680   5.873   4.150   0.989
 9927SOL    HW230681   6.002   4.238   0.942
 9928SOL     OW30682   6.724   4.104   1.678
 9928SOL    HW130683   6.679   4.167   1.742
 9928SOL    HW230684   6.817   4.135   1.661
 9929SOL     OW30685   6.746   3.931   1.477
 9929SOL    HW130686   6.746   3.995   1.554
 9929SOL    HW230687   6.774   3.979   1.394
 9930SOL     OW30688   5.674   5.525   0.927
 9930SOL    HW130689   5.632   5.439   0.900
 9930SOL    HW230690   5.768   5.528   0.893
 9931SOL     OW30691   6.090   5.292   0.910
 9931SOL    HW130692   6.156   5.366   0.919
 9931SOL    HW230693   6.134   5.213   0.868
 9932SOL     OW30694   6.588   4.520   1.238
 9932SOL    HW130695   6.629   4.488   1.324
 9932SOL    HW230696   6.492   4.493   1.235
 9933SOL     OW30697   5.626   4.268   1.114
 9933SOL    HW130698   5.711   4.235   1.073
 9933SOL    HW230699   5.639   4.283   1.212
 9934SOL     OW30700   5.775   4.244   1.722
 9934SOL    HW130701   5.834   4.204   1.652
 9934SOL    HW230702   5.717   4.315   1.681
 9935SOL     OW30703   6.401   4.296   0.325
 9935SOL    HW130704   6.408   4.207   0.279
 9935SOL    HW230705   6.307   4.330   0.317
 9936SOL     OW30706   5.838   5.288   1.744
 9936SOL    HW130707   5.808   5.345   1.820
 9936SOL    HW230708   5.831   5.191   1.770
 9937SOL     OW30709   6.257   4.188   1.269
 9937SOL    HW130710   6.223   4.099   1.239
 9937SOL    HW230711   6.283   4.242   1.189
 9938SOL     OW30712   6.516   5.402   1.465
 9938SOL    HW130713   6.492   5.384   1.370
 9938SOL    HW230714   6.546   5.496   1.475
 9939SOL     OW30715   6.059   4.224   0.191
 9939SOL    HW130716   6.120   4.304   0.195
 9939SOL    HW230717   5.964   4.255   0.198
 9940SOL     OW30718   5.745   4.861   1.466
 9940SOL    HW130719   5.767   4.800   1.542
 9940SOL    HW230720   5.755   4.812   1.380
 9941SOL     OW30721   6.933   4.783   1.234
 9941SOL    HW130722   6.957   4.720   1.160
 9941SOL    HW230723   6.843   4.823   1.216
 9942SOL     OW30724   6.888   4.579   0.309
 9942SOL    HW130725   6.802   4.548   0.351
 9942SOL    HW230726   6.884   4.565   0.210
 9943SOL     OW30727   6.838   5.455   1.128
 9943SOL    HW130728   6.922   5.460   1.074
 9943SOL    HW230729   6.815   5.359   1.146
 9944SOL     OW30730   5.669   4.982   1.022
 9944SOL    HW130731   5.664   4.981   1.122
 9944SOL    HW230732   5.586   4.941   0.984
 9945SOL     OW30733   6.274   5.386   1.716
 9945SOL    HW130734   6.218   5.467   1.725
 9945SOL    HW230735   6.326   5.390   1.630
 9946SOL     OW30736   6.489   3.810   0.133
 9946SOL    HW130737   6.540   3.811   0.047
 9946SOL    HW230738   6.545   3.768   0.204
 9947SOL     OW30739   6.974   5.297   0.477
 9947SOL    HW130740   7.041   5.309   0.403
 9947SOL    HW230741   6.934   5.386   0.500
 9948SOL     OW30742   5.716   5.518   1.851
 9948SOL    HW130743   5.675   5.444   1.904
 9948SOL    HW230744   5.780   5.569   1.909
 9949SOL     OW30745   6.866   4.651   0.672
 9949SOL    HW130746   6.926   4.570   0.674
 9949SOL    HW230747   6.906   4.720   0.612
 9950SOL     OW30748   6.416   4.997   1.422
 9950SOL    HW130749   6.411   5.030   1.517
 9950SOL    HW230750   6.330   5.016   1.376
 9951SOL     OW30751   6.258   5.340   0.154
 9951SOL    HW130752   6.267   5.350   0.055
 9951SOL    HW230753   6.218   5.251   0.175
 9952SOL     OW30754   5.849   4.050   0.720
 9952SOL    HW130755   5.770   4.101   0.686
 9952SOL    HW230756   5.840   4.035   0.818
 9953SOL     OW30757   6.780   5.336   0.031
 9953SOL    HW130758   6.786   5.243   0.068
 9953SOL    HW230759   6.721   5.336  -0.049
 9954SOL     OW30760   6.408   4.726   1.372
 9954SOL    HW130761   6.448   4.725   1.280
 9954SOL    HW230762   6.418   4.818   1.412
 9955SOL     OW30763   6.502   4.634   0.291
 9955SOL    HW130764   6.565   4.672   0.223
 9955SOL    HW230765   6.542   4.551   0.330
 9956SOL     OW30766   5.958   5.012   1.490
 9956SOL    HW130767   5.945   5.105   1.456
 9956SOL    HW230768   5.874   4.960   1.477
 9957SOL     OW30769   6.625   4.822   0.696
 9957SOL    HW130770   6.555   4.775   0.750
 9957SOL    HW230771   6.684   4.754   0.653
 9958SOL     OW30772   6.600   3.960   0.971
 9958SOL    HW130773   6.592   3.924   0.878
 9958SOL    HW230774   6.598   3.884   1.036
 9959SOL     OW30775   6.176   5.211   0.491
 9959SOL    HW130776   6.218   5.153   0.421
 9959SOL    HW230777   6.132   5.290   0.447
 9960SOL     OW30778   5.841   5.072   0.290
 9960SOL    HW130779   5.745   5.073   0.263
 9960SOL    HW230780   5.853   5.125   0.374
 9961SOL     OW30781   5.691   4.737   1.726
 9961SOL    HW130782   5.614   4.704   1.780
 9961SOL    HW230783   5.776   4.707   1.768
 9962SOL     OW30784   6.258   3.927   1.489
 9962SOL    HW130785   6.348   3.911   1.449
 9962SOL    HW230786   6.266   3.932   1.588
 9963SOL     OW30787   5.661   4.069   0.033
 9963SOL    HW130788   5.569   4.041   0.004
 9963SOL    HW230789   5.692   4.146  -0.023
 9964SOL     OW30790   5.658   3.890   0.318
 9964SOL    HW130791   5.641   3.973   0.264
 9964SOL    HW230792   5.748   3.853   0.296
 9965SOL     OW30793   6.199   4.566   1.431
 9965SOL    HW130794   6.255   4.647   1.414
 9965SOL    HW230795   6.258   4.486   1.434
 9966SOL     OW30796   6.302   4.289   1.708
 9966SOL    HW130797   6.321   4.354   1.782
 9966SOL    HW230798   6.362   4.209   1.717
 9967SOL     OW30799   7.036   4.944   1.633
 9967SOL    HW130800   7.027   4.934   1.732
 9967SOL    HW230801   7.132   4.937   1.607
 9968SOL     OW30802   5.976   5.465   1.560
 9968SOL    HW130803   5.885   5.506   1.558
 9968SOL    HW230804   5.969   5.371   1.592
 9969SOL     OW30805   6.811   4.049   0.449
 9969SOL    HW130806   6.876   3.975   0.438
 9969SOL    HW230807   6.831   4.099   0.533
 9970SOL     OW30808   6.180   4.469   0.652
 9970SOL    HW130809   6.230   4.554   0.633
 9970SOL    HW230810   6.092   4.471   0.604
 9971SOL     OW30811   6.445   5.098   0.016
 9971SOL    HW130812   6.399   5.113   0.104
 9971SOL    HW230813   6.489   5.183  -0.014
 9972SOL     OW30814   6.247   5.514   0.953
 9972SOL    HW130815   6.201   5.602   0.940
 9972SOL    HW230816   6.346   5.526   0.946
 9973SOL     OW30817   6.445   4.680   0.861
 9973SOL    HW130818   6.499   4.611   0.909
 9973SOL    HW230819   6.413   4.749   0.927
 9974SOL     OW30820   6.669   4.708   0.087
 9974SOL    HW130821   6.646   4.761   0.005
 9974SOL    HW230822   6.750   4.652   0.068
 9975SOL     OW30823   5.807   5.038   1.844
 9975SOL    HW130824   5.742   4.965   1.823
 9975SOL    HW230825   5.811   5.052   1.942
 9976SOL     OW30826   5.665   4.964   0.653
 9976SOL    HW130827   5.664   4.917   0.741
 9976SOL    HW230828   5.747   4.936   0.602
 9977SOL     OW30829   6.258   5.115   1.624
 9977SOL    HW130830   6.180   5.065   1.662
 9977SOL    HW230831   6.255   5.210   1.655
 9978SOL     OW30832   6.014   4.148   0.520
 9978SOL    HW130833   6.044   4.076   0.458
 9978SOL    HW230834   5.975   4.108   0.603
 9979SOL     OW30835   5.903   4.271   1.280
 9979SOL    HW130836   5.941   4.212   1.352
 9979SOL    HW230837   5.943   4.245   1.192
 9980SOL     OW30838   6.398   5.310   0.687
 9980SOL    HW130839   6.430   5.320   0.593
 9980SOL    HW230840   6.319   5.248   0.689
 9981SOL     OW30841   7.010   3.938   1.112
 9981SOL    HW130842   7.062   3.873   1.167
 9981SOL    HW230843   6.961   4.001   1.173
 9982SOL     OW30844   6.587   3.758   1.154
 9982SOL    HW130845   6.524   3.686   1.123
 9982SOL    HW230846   6.680   3.722   1.154
 9983SOL     OW30847   6.356   5.054   0.301
 9983SOL    HW130848   6.310   4.967   0.318
 9983SOL    HW230849   6.447   5.051   0.342
 9984SOL     OW30850   6.204   5.291   1.284
 9984SOL    HW130851   6.199   5.373   1.341
 9984SOL    HW230852   6.293   5.288   1.239
 9985SOL     OW30853   5.625   4.801   0.300
 9985SOL    HW130854   5.724   4.790   0.291
 9985SOL    HW230855   5.585   4.715   0.332
 9986SOL     OW30856   6.461   5.370   0.337
 9986SOL    HW130857   6.384   5.335   0.283
 9986SOL    HW230858   6.429   5.441   0.399
 9987SOL     OW30859   5.816   4.352   1.975
 9987SOL    HW130860   5.723   4.350   2.012
 9987SOL    HW230861   5.817   4.313   1.883
 9988SOL     OW30862   5.811   3.999   2.858
 9988SOL    HW130863   5.846   3.982   2.950
 9988SOL    HW230864   5.723   3.954   2.846
 9989SOL     OW30865   5.605   4.092   2.509
 9989SOL    HW130866   5.523   4.135   2.548
 9989SOL    HW230867   5.577   4.019   2.446
 9990SOL     OW30868   6.155   4.999   3.027
 9990SOL    HW130869   6.062   4.992   2.990
 9990SOL    HW230870   6.166   5.088   3.071
 9991SOL     OW30871   7.141   5.235   2.565
 9991SOL    HW130872   7.084   5.219   2.646
 9991SOL    HW230873   7.082   5.245   2.485
 9992SOL     OW30874   6.721   4.427   2.579
 9992SOL    HW130875   6.778   4.505   2.554
 9992SOL    HW230876   6.661   4.453   2.655
 9993SOL     OW30877   6.354   4.868   2.885
 9993SOL    HW130878   6.276   4.885   2.945
 9993SOL    HW230879   6.388   4.955   2.849
 9994SOL     OW30880   6.436   4.522   3.685
 9994SOL    HW130881   6.432   4.598   3.750
 9994SOL    HW230882   6.458   4.558   3.594
 9995SOL     OW30883   6.271   4.736   2.527
 9995SOL    HW130884   6.340   4.720   2.597
 9995SOL    HW230885   6.198   4.793   2.565
 9996SOL     OW30886   6.272   4.885   3.665
 9996SOL    HW130887   6.332   4.964   3.679
 9996SOL    HW230888   6.186   4.916   3.624
 9997SOL     OW30889   5.921   5.159   2.923
 9997SOL    HW130890   5.843   5.128   2.870
 9997SOL    HW230891   5.979   5.217   2.866
 9998SOL     OW30892   6.024   4.116   3.361
 9998SOL    HW130893   6.106   4.060   3.370
 9998SOL    HW230894   5.943   4.058   3.365
 9999SOL     OW30895   5.817   5.437   2.345
 9999SOL    HW130896   5.851   5.514   2.399
 9999SOL    HW230897   5.861   5.437   2.255
10000SOL     OW30898   6.713   5.065   3.552
10000SOL    HW130899   6.760   5.065   3.640
10000SOL    HW230900   6.665   4.978   3.541
10001SOL     OW30901   5.816   5.158   2.400
10001SOL    HW130902   5.790   5.254   2.400
10001SOL    HW230903   5.745   5.104   2.445
10002SOL     OW30904   5.826   4.815   2.748
10002SOL    HW130905   5.840   4.731   2.800
10002SOL    HW230906   5.771   4.879   2.803
10003SOL     OW30907   6.206   5.510   3.301
10003SOL    HW130908   6.114   5.493   3.336
10003SOL    HW230909   6.234   5.602   3.327
10004SOL     OW30910   6.192   4.688   1.985
10004SOL    HW130911   6.199   4.772   1.931
10004SOL    HW230912   6.238   4.701   2.073
10005SOL     OW30913   5.708   4.367   2.425
10005SOL    HW130914   5.663   4.279   2.442
10005SOL    HW230915   5.707   4.421   2.509
10006SOL     OW30916   5.613   5.320   1.979
10006SOL    HW130917   5.594   5.224   2.000
10006SOL    HW230918   5.580   5.378   2.054
10007SOL     OW30919   5.699   4.461   3.459
10007SOL    HW130920   5.787   4.448   3.504
10007SOL    HW230921   5.686   4.558   3.437
10008SOL     OW30922   6.199   5.089   2.588
10008SOL    HW130923   6.150   5.002   2.597
10008SOL    HW230924   6.176   5.132   2.501
10009SOL     OW30925   6.879   4.952   3.285
10009SOL    HW130926   6.916   4.879   3.227
10009SOL    HW230927   6.931   4.957   3.370
10010SOL     OW30928   6.395   3.728   2.364
10010SOL    HW130929   6.435   3.819   2.355
10010SOL    HW230930   6.295   3.736   2.370
10011SOL     OW30931   5.783   4.700   3.126
10011SOL    HW130932   5.872   4.655   3.112
10011SOL    HW230933   5.710   4.635   3.107
10012SOL     OW30934   6.773   5.516   3.478
10012SOL    HW130935   6.797   5.576   3.402
10012SOL    HW230936   6.780   5.421   3.448
10013SOL     OW30937   5.903   3.975   3.663
10013SOL    HW130938   5.974   4.046   3.669
10013SOL    HW230939   5.815   4.014   3.691
10014SOL     OW30940   6.184   4.453   2.132
10014SOL    HW130941   6.208   4.522   2.064
10014SOL    HW230942   6.106   4.486   2.186
10015SOL     OW30943   6.867   4.069   2.806
10015SOL    HW130944   6.781   4.019   2.793
10015SOL    HW230945   6.929   4.015   2.862
10016SOL     OW30946   6.393   4.329   3.327
10016SOL    HW130947   6.346   4.326   3.416
10016SOL    HW230948   6.342   4.274   3.261
10017SOL     OW30949   6.980   4.193   3.536
10017SOL    HW130950   6.960   4.236   3.624
10017SOL    HW230951   7.058   4.131   3.545
10018SOL     OW30952   6.559   4.614   3.434
10018SOL    HW130953   6.605   4.530   3.405
10018SOL    HW230954   6.503   4.648   3.359
10019SOL     OW30955   6.577   4.134   3.104
10019SOL    HW130956   6.500   4.168   3.158
10019SOL    HW230957   6.543   4.083   3.025
10020SOL     OW30958   6.627   4.425   2.291
10020SOL    HW130959   6.653   4.421   2.387
10020SOL    HW230960   6.542   4.374   2.277
10021SOL     OW30961   5.662   4.535   2.651
10021SOL    HW130962   5.761   4.523   2.660
10021SOL    HW230963   5.638   4.630   2.672
10022SOL     OW30964   5.716   5.545   3.433
10022SOL    HW130965   5.706   5.530   3.532
10022SOL    HW230966   5.630   5.581   3.397
10023SOL     OW30967   6.451   4.072   2.057
10023SOL    HW130968   6.510   4.135   2.008
10023SOL    HW230969   6.470   3.978   2.028
10024SOL     OW30970   6.948   4.868   2.407
10024SOL    HW130971   7.031   4.839   2.359
10024SOL    HW230972   6.899   4.935   2.351
10025SOL     OW30973   6.136   3.920   2.747
10025SOL    HW130974   6.131   3.915   2.847
10025SOL    HW230975   6.138   4.016   2.718
10026SOL     OW30976   6.594   5.180   2.339
10026SOL    HW130977   6.548   5.252   2.287
10026SOL    HW230978   6.590   5.200   2.437
10027SOL     OW30979   5.937   5.525   2.715
10027SOL    HW130980   5.987   5.439   2.721
10027SOL    HW230981   6.002   5.602   2.712
10028SOL     OW30982   6.813   5.274   3.368
10028SOL    HW130983   6.819   5.197   3.432
10028SOL    HW230984   6.761   5.248   3.288
10029SOL     OW30985   5.907   4.667   2.104
10029SOL    HW130986   5.989   4.706   2.062
10029SOL    HW230987   5.880   4.585   2.055
10030SOL     OW30988   6.047   4.990   3.589
10030SOL    HW130989   5.997   4.991   3.503
10030SOL    HW230990   5.984   4.972   3.665
10031SOL     OW30991   6.697   5.500   2.099
10031SOL    HW130992   6.637   5.438   2.149
10031SOL    HW230993   6.728   5.456   2.014
10032SOL     OW30994   5.788   4.009   3.360
10032SOL    HW130995   5.708   4.069   3.347
10032SOL    HW230996   5.778   3.960   3.446
10033SOL     OW30997   6.050   5.467   2.185
10033SOL    HW130998   6.083   5.506   2.271
10033SOL    HW230999   6.126   5.460   2.120
10034SOL     OW31000   5.835   5.509   3.103
10034SOL    HW131001   5.892   5.444   3.153
10034SOL    HW231002   5.819   5.476   3.010
10035SOL     OW31003   6.526   5.422   2.766
10035SOL    HW131004   6.606   5.365   2.787
10035SOL    HW231005   6.477   5.382   2.689
10036SOL     OW31006   5.968   4.424   2.342
10036SOL    HW131007   6.013   4.334   2.339
10036SOL    HW231008   5.874   4.413   2.375
10037SOL     OW31009   6.200   3.846   1.979
10037SOL    HW131010   6.298   3.824   1.986
10037SOL    HW231011   6.169   3.829   1.886
10038SOL     OW31012   6.367   3.988   3.611
10038SOL    HW131013   6.434   3.927   3.654
10038SOL    HW231014   6.294   4.007   3.676
10039SOL     OW31015   6.474   5.238   3.057
10039SOL    HW131016   6.451   5.213   2.963
10039SOL    HW231017   6.535   5.169   3.096
10040SOL     OW31018   6.389   5.126   2.786
10040SOL    HW131019   6.479   5.140   2.744
10040SOL    HW231020   6.318   5.128   2.715
10041SOL     OW31021   6.508   4.227   2.761
10041SOL    HW131022   6.483   4.218   2.665
10041SOL    HW231023   6.556   4.145   2.792
10042SOL     OW31024   6.125   3.788   2.374
10042SOL    HW131025   6.044   3.789   2.432
10042SOL    HW231026   6.128   3.871   2.319
10043SOL     OW31027   7.020   4.912   1.903
10043SOL    HW131028   7.052   4.836   1.960
10043SOL    HW231029   6.928   4.939   1.933
10044SOL     OW31030   5.883   3.759   2.033
10044SOL    HW131031   5.932   3.843   2.012
10044SOL    HW231032   5.945   3.694   2.078
10045SOL     OW31033   6.521   3.960   2.342
10045SOL    HW131034   6.473   4.001   2.264
10045SOL    HW231035   6.620   3.958   2.323
10046SOL     OW31036   6.662   4.407   3.326
10046SOL    HW131037   6.582   4.346   3.329
10046SOL    HW231038   6.743   4.354   3.302
10047SOL     OW31039   6.813   5.294   2.655
10047SOL    HW131040   6.834   5.368   2.590
10047SOL    HW231041   6.881   5.294   2.728
10048SOL     OW31042   6.045   4.876   2.603
10048SOL    HW131043   5.974   4.849   2.668
10048SOL    HW231044   6.019   4.848   2.510
10049SOL     OW31045   6.857   5.521   2.453
10049SOL    HW131046   6.901   5.585   2.389
10049SOL    HW231047   6.807   5.573   2.523
10050SOL     OW31048   6.618   4.273   1.878
10050SOL    HW131049   6.577   4.355   1.839
10050SOL    HW231050   6.682   4.299   1.951
10051SOL     OW31051   5.664   4.280   3.248
10051SOL    HW131052   5.756   4.279   3.207
10051SOL    HW231053   5.658   4.354   3.315
10052SOL     OW31054   6.147   3.946   3.009
10052SOL    HW131055   6.185   3.862   3.046
10052SOL    HW231056   6.059   3.965   3.053
10053SOL     OW31057   6.452   4.178   2.504
10053SOL    HW131058   6.420   4.250   2.442
10053SOL    HW231059   6.476   4.097   2.451
10054SOL     OW31060   6.603   3.763   2.615
10054SOL    HW131061   6.531   3.768   2.546
10054SOL    HW231062   6.579   3.694   2.684
10055SOL     OW31063   6.074   5.109   2.036
10055SOL    HW131064   5.987   5.094   2.083
10055SOL    HW231065   6.057   5.135   1.941
10056SOL     OW31066   6.113   3.980   2.190
10056SOL    HW131067   6.140   3.921   2.115
10056SOL    HW231068   6.113   4.075   2.159
10057SOL     OW31069   6.650   5.071   3.202
10057SOL    HW131070   6.570   5.048   3.257
10057SOL    HW231071   6.733   5.045   3.251
10058SOL     OW31072   6.697   4.919   2.962
10058SOL    HW131073   6.657   4.963   3.043
10058SOL    HW231074   6.656   4.956   2.879
10059SOL     OW31075   6.501   3.813   3.264
10059SOL    HW131076   6.526   3.793   3.169
10059SOL    HW231077   6.573   3.869   3.306
10060SOL     OW31078   6.566   4.840   3.581
10060SOL    HW131079   6.467   4.846   3.591
10060SOL    HW231080   6.589   4.760   3.525
10061SOL     OW31081   6.291   4.774   2.230
10061SOL    HW131082   6.277   4.781   2.329
10061SOL    HW231083   6.375   4.723   2.212
10062SOL     OW31084   5.996   4.537   3.113
10062SOL    HW131085   6.082   4.549   3.163
10062SOL    HW231086   5.954   4.450   3.140
10063SOL     OW31087   6.860   4.110   3.124
10063SOL    HW131088   6.881   4.184   3.188
10063SOL    HW231089   6.771   4.127   3.081
10064SOL     OW31090   5.650   5.288   3.193
10064SOL    HW131091   5.604   5.370   3.159
10064SOL    HW231092   5.748   5.307   3.202
10065SOL     OW31093   5.953   4.824   2.363
10065SOL    HW131094   5.946   4.907   2.307
10065SOL    HW231095   5.957   4.744   2.303
10066SOL     OW31096   6.152   4.261   2.727
10066SOL    HW131097   6.164   4.327   2.653
10066SOL    HW231098   6.198   4.295   2.810
10067SOL     OW31099   6.838   5.072   2.250
10067SOL    HW131100   6.888   5.149   2.290
10067SOL    HW231101   6.743   5.074   2.282
10068SOL     OW31102   6.858   5.169   3.004
10068SOL    HW131103   6.905   5.182   3.091
10068SOL    HW231104   6.792   5.095   3.013
10069SOL     OW31105   5.940   5.234   3.191
10069SOL    HW131106   5.919   5.190   3.104
10069SOL    HW231107   6.037   5.260   3.194
10070SOL     OW31108   5.988   4.475   3.460
10070SOL    HW131109   6.056   4.530   3.413
10070SOL    HW231110   6.028   4.387   3.487
10071SOL     OW31111   6.599   3.829   3.632
10071SOL    HW131112   6.605   3.914   3.580
10071SOL    HW231113   6.631   3.753   3.575
10072SOL     OW31114   6.090   3.774   3.602
10072SOL    HW131115   6.048   3.717   3.532
10072SOL    HW231116   6.024   3.843   3.634
10073SOL     OW31117   6.159   4.594   2.891
10073SOL    HW131118   6.203   4.683   2.882
10073SOL    HW231119   6.096   4.594   2.968
10074SOL     OW31120   6.946   4.586   2.907
10074SOL    HW131121   6.871   4.586   2.841
10074SOL    HW231122   6.983   4.494   2.916
10075SOL     OW31123   6.795   4.249   2.137
10075SOL    HW131124   6.808   4.165   2.191
10075SOL    HW231125   6.766   4.323   2.197
10076SOL     OW31126   5.893   3.937   3.093
10076SOL    HW131127   5.870   3.974   3.183
10076SOL    HW231128   5.863   3.842   3.087
10077SOL     OW31129   5.623   5.034   3.144
10077SOL    HW131130   5.676   4.985   3.212
10077SOL    HW231131   5.645   5.132   3.149
10078SOL     OW31132   6.318   4.358   2.926
10078SOL    HW131133   6.377   4.332   2.850
10078SOL    HW231134   6.290   4.454   2.915
10079SOL     OW31135   5.893   3.787   2.480
10079SOL    HW131136   5.882   3.881   2.513
10079SOL    HW231137   5.888   3.724   2.557
10080SOL     OW31138   7.208   4.091   2.236
10080SOL    HW131139   7.210   4.015   2.300
10080SOL    HW231140   7.160   4.168   2.276
10081SOL     OW31141   6.609   4.490   2.828
10081SOL    HW131142   6.624   4.511   2.924
10081SOL    HW231143   6.579   4.395   2.819
10082SOL     OW31144   6.566   5.297   3.562
10082SOL    HW131145   6.546   5.341   3.474
10082SOL    HW231146   6.605   5.206   3.546
10083SOL     OW31147   5.936   4.622   3.666
10083SOL    HW131148   6.012   4.666   3.714
10083SOL    HW231149   5.971   4.575   3.584
10084SOL     OW31150   6.889   4.562   1.904
10084SOL    HW131151   6.923   4.469   1.919
10084SOL    HW231152   6.907   4.589   1.809
10085SOL     OW31153   6.654   5.057   2.711
10085SOL    HW131154   6.661   4.973   2.656
10085SOL    HW231155   6.716   5.126   2.675
10086SOL     OW31156   5.905   4.534   2.811
10086SOL    HW131157   5.998   4.570   2.816
10086SOL    HW231158   5.899   4.449   2.863
10087SOL     OW31159   5.925   4.233   2.868
10087SOL    HW131160   5.873   4.150   2.851
10087SOL    HW231161   6.002   4.238   2.804
10088SOL     OW31162   6.724   4.104   3.540
10088SOL    HW131163   6.679   4.167   3.604
10088SOL    HW231164   6.817   4.135   3.523
10089SOL     OW31165   6.746   3.931   3.339
10089SOL    HW131166   6.746   3.995   3.416
10089SOL    HW231167   6.774   3.979   3.256
10090SOL     OW31168   5.594   5.050   2.062
10090SOL    HW131169   5.501   5.071   2.031
10090SOL    HW231170   5.604   4.951   2.075
10091SOL     OW31171   5.674   5.525   2.789
10091SOL    HW131172   5.632   5.439   2.762
10091SOL    HW231173   5.768   5.528   2.755
10092SOL     OW31174   6.090   5.292   2.772
10092SOL    HW131175   6.156   5.366   2.781
10092SOL    HW231176   6.134   5.213   2.730
10093SOL     OW31177   6.588   4.520   3.100
10093SOL    HW131178   6.629   4.488   3.186
10093SOL    HW231179   6.492   4.493   3.097
10094SOL     OW31180   5.626   4.268   2.976
10094SOL    HW131181   5.711   4.235   2.935
10094SOL    HW231182   5.639   4.283   3.074
10095SOL     OW31183   5.775   4.244   3.584
10095SOL    HW131184   5.834   4.204   3.514
10095SOL    HW231185   5.717   4.315   3.543
10096SOL     OW31186   6.401   4.296   2.187
10096SOL    HW131187   6.408   4.207   2.141
10096SOL    HW231188   6.307   4.330   2.179
10097SOL     OW31189   5.838   5.288   3.606
10097SOL    HW131190   5.808   5.345   3.682
10097SOL    HW231191   5.831   5.191   3.632
10098SOL     OW31192   6.257   4.188   3.131
10098SOL    HW131193   6.223   4.099   3.101
10098SOL    HW231194   6.283   4.242   3.051
10099SOL     OW31195   6.516   5.402   3.327
10099SOL    HW131196   6.492   5.384   3.232
10099SOL    HW231197   6.546   5.496   3.337
10100SOL     OW31198   6.059   4.224   2.053
10100SOL    HW131199   6.120   4.304   2.057
10100SOL    HW231200   5.964   4.255   2.060
10101SOL     OW31201   5.745   4.861   3.328
10101SOL    HW131202   5.767   4.800   3.404
10101SOL    HW231203   5.755   4.812   3.242
10102SOL     OW31204   6.933   4.783   3.096
10102SOL    HW131205   6.957   4.720   3.022
10102SOL    HW231206   6.843   4.823   3.078
10103SOL     OW31207   6.888   4.579   2.171
10103SOL    HW131208   6.802   4.548   2.213
10103SOL    HW231209   6.884   4.565   2.072
10104SOL     OW31210   6.838   5.455   2.990
10104SOL    HW131211   6.922   5.460   2.936
10104SOL    HW231212   6.815   5.359   3.008
10105SOL     OW31213   5.669   4.982   2.884
10105SOL    HW131214   5.664   4.981   2.984
10105SOL    HW231215   5.586   4.941   2.846
10106SOL     OW31216   6.274   5.386   3.578
10106SOL    HW131217   6.218   5.467   3.587
10106SOL    HW231218   6.326   5.390   3.492
10107SOL     OW31219   6.974   5.297   2.339
10107SOL    HW131220   7.041   5.309   2.265
10107SOL    HW231221   6.934   5.386   2.362
10108SOL     OW31222   5.716   5.518   3.713
10108SOL    HW131223   5.675   5.444   3.766
10108SOL    HW231224   5.780   5.569   3.771
10109SOL     OW31225   6.866   4.651   2.534
10109SOL    HW131226   6.926   4.570   2.536
10109SOL    HW231227   6.906   4.720   2.474
10110SOL     OW31228   6.416   4.997   3.284
10110SOL    HW131229   6.411   5.030   3.379
10110SOL    HW231230   6.330   5.016   3.238
10111SOL     OW31231   6.258   5.340   2.016
10111SOL    HW131232   6.267   5.350   1.917
10111SOL    HW231233   6.218   5.251   2.037
10112SOL     OW31234   5.849   4.050   2.582
10112SOL    HW131235   5.770   4.101   2.548
10112SOL    HW231236   5.840   4.035   2.680
10113SOL     OW31237   6.780   5.336   1.893
10113SOL    HW131238   6.786   5.243   1.930
10113SOL    HW231239   6.721   5.336   1.813
10114SOL     OW31240   6.408   4.726   3.234
10114SOL    HW131241   6.448   4.725   3.142
10114SOL    HW231242   6.418   4.818   3.274
10115SOL     OW31243   6.502   4.634   2.153
10115SOL    HW131244   6.565   4.672   2.085
10115SOL    HW231245   6.542   4.551   2.192
10116SOL     OW31246   5.958   5.012   3.352
10116SOL    HW131247   5.945   5.105   3.318
10116SOL    HW231248   5.874   4.960   3.339
10117SOL     OW31249   6.625   4.822   2.558
10117SOL    HW131250   6.555   4.775   2.612
10117SOL    HW231251   6.684   4.754   2.515
10118SOL     OW31252   6.600   3.960   2.833
10118SOL    HW131253   6.592   3.924   2.740
10118SOL    HW231254   6.598   3.884   2.898
10119SOL     OW31255   6.176   5.211   2.353
10119SOL    HW131256   6.218   5.153   2.283
10119SOL    HW231257   6.132   5.290   2.309
10120SOL     OW31258   5.841   5.072   2.152
10120SOL    HW131259   5.745   5.073   2.125
10120SOL    HW231260   5.853   5.125   2.236
10121SOL     OW31261   5.691   4.737   3.588
10121SOL    HW131262   5.614   4.704   3.642
10121SOL    HW231263   5.776   4.707   3.630
10122SOL     OW31264   6.258   3.927   3.351
10122SOL    HW131265   6.348   3.911   3.311
10122SOL    HW231266   6.266   3.932   3.450
10123SOL     OW31267   5.661   4.069   1.895
10123SOL    HW131268   5.569   4.041   1.866
10123SOL    HW231269   5.692   4.146   1.839
10124SOL     OW31270   5.658   3.890   2.180
10124SOL    HW131271   5.641   3.973   2.126
10124SOL    HW231272   5.748   3.853   2.158
10125SOL     OW31273   6.199   4.566   3.293
10125SOL    HW131274   6.255   4.647   3.276
10125SOL    HW231275   6.258   4.486   3.296
10126SOL     OW31276   6.302   4.289   3.570
10126SOL    HW131277   6.321   4.354   3.644
10126SOL    HW231278   6.362   4.209   3.579
10127SOL     OW31279   7.036   4.944   3.495
10127SOL    HW131280   7.027   4.934   3.594
10127SOL    HW231281   7.132   4.937   3.469
10128SOL     OW31282   5.976   5.465   3.422
10128SOL    HW131283   5.885   5.506   3.420
10128SOL    HW231284   5.969   5.371   3.454
10129SOL     OW31285   6.811   4.049   2.311
10129SOL    HW131286   6.876   3.975   2.300
10129SOL    HW231287   6.831   4.099   2.395
10130SOL     OW31288   6.180   4.469   2.514
10130SOL    HW131289   6.230   4.554   2.495
10130SOL    HW231290   6.092   4.471   2.466
10131SOL     OW31291   6.445   5.098   1.878
10131SOL    HW131292   6.399   5.113   1.966
10131SOL    HW231293   6.489   5.183   1.848
10132SOL     OW31294   6.247   5.514   2.815
10132SOL    HW131295   6.201   5.602   2.802
10132SOL    HW231296   6.346   5.526   2.808
10133SOL     OW31297   6.445   4.680   2.723
10133SOL    HW131298   6.499   4.611   2.771
10133SOL    HW231299   6.413   4.749   2.789
10134SOL     OW31300   6.669   4.708   1.949
10134SOL    HW131301   6.646   4.761   1.867
10134SOL    HW231302   6.750   4.652   1.930
10135SOL     OW31303   5.807   5.038   3.706
10135SOL    HW131304   5.742   4.965   3.685
10135SOL    HW231305   5.811   5.052   3.804
10136SOL     OW31306   5.665   4.964   2.515
10136SOL    HW131307   5.664   4.917   2.603
10136SOL    HW231308   5.747   4.936   2.464
10137SOL     OW31309   6.258   5.115   3.486
10137SOL    HW131310   6.180   5.065   3.524
10137SOL    HW231311   6.255   5.210   3.517
10138SOL     OW31312   6.014   4.148   2.382
10138SOL    HW131313   6.044   4.076   2.320
10138SOL    HW231314   5.975   4.108   2.465
10139SOL     OW31315   5.903   4.271   3.142
10139SOL    HW131316   5.941   4.212   3.214
10139SOL    HW231317   5.943   4.245   3.054
10140SOL     OW31318   6.398   5.310   2.549
10140SOL    HW131319   6.430   5.320   2.455
10140SOL    HW231320   6.319   5.248   2.551
10141SOL     OW31321   7.010   3.938   2.974
10141SOL    HW131322   7.062   3.873   3.029
10141SOL    HW231323   6.961   4.001   3.035
10142SOL     OW31324   6.587   3.758   3.016
10142SOL    HW131325   6.524   3.686   2.985
10142SOL    HW231326   6.680   3.722   3.016
10143SOL     OW31327   6.356   5.054   2.163
10143SOL    HW131328   6.310   4.967   2.180
10143SOL    HW231329   6.447   5.051   2.204
10144SOL     OW31330   6.204   5.291   3.146
10144SOL    HW131331   6.199   5.373   3.203
10144SOL    HW231332   6.293   5.288   3.101
10145SOL     OW31333   6.938   3.776   2.030
10145SOL    HW131334   6.973   3.735   1.946
10145SOL    HW231335   6.848   3.738   2.050
10146SOL     OW31336   5.625   4.801   2.162
10146SOL    HW131337   5.724   4.790   2.153
10146SOL    HW231338   5.585   4.715   2.194
10147SOL     OW31339   6.461   5.370   2.199
10147SOL    HW131340   6.384   5.335   2.145
10147SOL    HW231341   6.429   5.441   2.261
10148SOL     OW31342   5.816   4.352   3.837
10148SOL    HW131343   5.723   4.350   3.874
10148SOL    HW231344   5.817   4.313   3.745
10149SOL     OW31345   5.811   3.999   4.720
10149SOL    HW131346   5.846   3.982   4.812
10149SOL    HW231347   5.723   3.954   4.708
10150SOL     OW31348   5.605   4.092   4.371
10150SOL    HW131349   5.523   4.135   4.410
10150SOL    HW231350   5.577   4.019   4.308
10151SOL     OW31351   6.155   4.999   4.889
10151SOL    HW131352   6.062   4.992   4.852
10151SOL    HW231353   6.166   5.088   4.933
10152SOL     OW31354   7.141   5.235   4.427
10152SOL    HW131355   7.084   5.219   4.508
10152SOL    HW231356   7.082   5.245   4.347
10153SOL     OW31357   6.721   4.427   4.441
10153SOL    HW131358   6.778   4.505   4.416
10153SOL    HW231359   6.661   4.453   4.517
10154SOL     OW31360   6.354   4.868   4.747
10154SOL    HW131361   6.276   4.885   4.807
10154SOL    HW231362   6.388   4.955   4.711
10155SOL     OW31363   6.436   4.522   5.547
10155SOL    HW131364   6.432   4.598   5.612
10155SOL    HW231365   6.458   4.558   5.456
10156SOL     OW31366   6.271   4.736   4.389
10156SOL    HW131367   6.340   4.720   4.459
10156SOL    HW231368   6.198   4.793   4.427
10157SOL     OW31369   6.272   4.885   5.527
10157SOL    HW131370   6.332   4.964   5.541
10157SOL    HW231371   6.186   4.916   5.486
10158SOL     OW31372   5.921   5.159   4.785
10158SOL    HW131373   5.843   5.128   4.732
10158SOL    HW231374   5.979   5.217   4.728
10159SOL     OW31375   6.024   4.116   5.223
10159SOL    HW131376   6.106   4.060   5.232
10159SOL    HW231377   5.943   4.058   5.227
10160SOL     OW31378   5.817   5.437   4.207
10160SOL    HW131379   5.851   5.514   4.261
10160SOL    HW231380   5.861   5.437   4.117
10161SOL     OW31381   6.713   5.065   5.414
10161SOL    HW131382   6.760   5.065   5.502
10161SOL    HW231383   6.665   4.978   5.403
10162SOL     OW31384   5.816   5.158   4.262
10162SOL    HW131385   5.790   5.254   4.262
10162SOL    HW231386   5.745   5.104   4.307
10163SOL     OW31387   5.826   4.815   4.610
10163SOL    HW131388   5.840   4.731   4.662
10163SOL    HW231389   5.771   4.879   4.665
10164SOL     OW31390   6.206   5.510   5.163
10164SOL    HW131391   6.114   5.493   5.198
10164SOL    HW231392   6.234   5.602   5.189
10165SOL     OW31393   6.192   4.688   3.847
10165SOL    HW131394   6.199   4.772   3.793
10165SOL    HW231395   6.238   4.701   3.935
10166SOL     OW31396   5.708   4.367   4.287
10166SOL    HW131397   5.663   4.279   4.304
10166SOL    HW231398   5.707   4.421   4.371
10167SOL     OW31399   5.613   5.320   3.841
10167SOL    HW131400   5.594   5.224   3.862
10167SOL    HW231401   5.580   5.378   3.916
10168SOL     OW31402   5.699   4.461   5.321
10168SOL    HW131403   5.787   4.448   5.366
10168SOL    HW231404   5.686   4.558   5.299
10169SOL     OW31405   6.199   5.089   4.450
10169SOL    HW131406   6.150   5.002   4.459
10169SOL    HW231407   6.176   5.132   4.363
10170SOL     OW31408   6.879   4.952   5.147
10170SOL    HW131409   6.916   4.879   5.089
10170SOL    HW231410   6.931   4.957   5.232
10171SOL     OW31411   6.395   3.728   4.226
10171SOL    HW131412   6.435   3.819   4.217
10171SOL    HW231413   6.295   3.736   4.232
10172SOL     OW31414   5.783   4.700   4.988
10172SOL    HW131415   5.872   4.655   4.974
10172SOL    HW231416   5.710   4.635   4.969
10173SOL     OW31417   6.773   5.516   5.340
10173SOL    HW131418   6.797   5.576   5.264
10173SOL    HW231419   6.780   5.421   5.310
10174SOL     OW31420   5.903   3.975   5.525
10174SOL    HW131421   5.974   4.046   5.531
10174SOL    HW231422   5.815   4.014   5.553
10175SOL     OW31423   6.184   4.453   3.994
10175SOL    HW131424   6.208   4.522   3.926
10175SOL    HW231425   6.106   4.486   4.048
10176SOL     OW31426   6.867   4.069   4.668
10176SOL    HW131427   6.781   4.019   4.655
10176SOL    HW231428   6.929   4.015   4.724
10177SOL     OW31429   6.393   4.329   5.189
10177SOL    HW131430   6.346   4.326   5.278
10177SOL    HW231431   6.342   4.274   5.123
10178SOL     OW31432   6.980   4.193   5.398
10178SOL    HW131433   6.960   4.236   5.486
10178SOL    HW231434   7.058   4.131   5.407
10179SOL     OW31435   6.559   4.614   5.296
10179SOL    HW131436   6.605   4.530   5.267
10179SOL    HW231437   6.503   4.648   5.221
10180SOL     OW31438   6.577   4.134   4.966
10180SOL    HW131439   6.500   4.168   5.020
10180SOL    HW231440   6.543   4.083   4.887
10181SOL     OW31441   6.627   4.425   4.153
10181SOL    HW131442   6.653   4.421   4.249
10181SOL    HW231443   6.542   4.374   4.139
10182SOL     OW31444   5.662   4.535   4.513
10182SOL    HW131445   5.761   4.523   4.522
10182SOL    HW231446   5.638   4.630   4.534
10183SOL     OW31447   5.716   5.545   5.295
10183SOL    HW131448   5.706   5.530   5.394
10183SOL    HW231449   5.630   5.581   5.259
10184SOL     OW31450   6.451   4.072   3.919
10184SOL    HW131451   6.510   4.135   3.870
10184SOL    HW231452   6.470   3.978   3.890
10185SOL     OW31453   6.948   4.868   4.269
10185SOL    HW131454   7.031   4.839   4.221
10185SOL    HW231455   6.899   4.935   4.213
10186SOL     OW31456   6.136   3.920   4.609
10186SOL    HW131457   6.131   3.915   4.709
10186SOL    HW231458   6.138   4.016   4.580
10187SOL     OW31459   6.594   5.180   4.201
10187SOL    HW131460   6.548   5.252   4.149
10187SOL    HW231461   6.590   5.200   4.299
10188SOL     OW31462   5.937   5.525   4.577
10188SOL    HW131463   5.987   5.439   4.583
10188SOL    HW231464   6.002   5.602   4.574
10189SOL     OW31465   6.813   5.274   5.230
10189SOL    HW131466   6.819   5.197   5.294
10189SOL    HW231467   6.761   5.248   5.150
10190SOL     OW31468   5.907   4.667   3.966
10190SOL    HW131469   5.989   4.706   3.924
10190SOL    HW231470   5.880   4.585   3.917
10191SOL     OW31471   6.047   4.990   5.451
10191SOL    HW131472   5.997   4.991   5.365
10191SOL    HW231473   5.984   4.972   5.527
10192SOL     OW31474   6.697   5.500   3.961
10192SOL    HW131475   6.637   5.438   4.011
10192SOL    HW231476   6.728   5.456   3.876
10193SOL     OW31477   5.788   4.009   5.222
10193SOL    HW131478   5.708   4.069   5.209
10193SOL    HW231479   5.778   3.960   5.308
10194SOL     OW31480   6.050   5.467   4.047
10194SOL    HW131481   6.083   5.506   4.133
10194SOL    HW231482   6.126   5.460   3.982
10195SOL     OW31483   5.835   5.509   4.965
10195SOL    HW131484   5.892   5.444   5.015
10195SOL    HW231485   5.819   5.476   4.872
10196SOL     OW31486   6.526   5.422   4.628
10196SOL    HW131487   6.606   5.365   4.649
10196SOL    HW231488   6.477   5.382   4.551
10197SOL     OW31489   5.968   4.424   4.204
10197SOL    HW131490   6.013   4.334   4.201
10197SOL    HW231491   5.874   4.413   4.237
10198SOL     OW31492   6.200   3.846   3.841
10198SOL    HW131493   6.298   3.824   3.848
10198SOL    HW231494   6.169   3.829   3.748
10199SOL     OW31495   6.367   3.988   5.473
10199SOL    HW131496   6.434   3.927   5.516
10199SOL    HW231497   6.294   4.007   5.538
10200SOL     OW31498   6.474   5.238   4.919
10200SOL    HW131499   6.451   5.213   4.825
10200SOL    HW231500   6.535   5.169   4.958
10201SOL     OW31501   6.389   5.126   4.648
10201SOL    HW131502   6.479   5.140   4.606
10201SOL    HW231503   6.318   5.128   4.577
10202SOL     OW31504   6.508   4.227   4.623
10202SOL    HW131505   6.483   4.218   4.527
10202SOL    HW231506   6.556   4.145   4.654
10203SOL     OW31507   6.125   3.788   4.236
10203SOL    HW131508   6.044   3.789   4.294
10203SOL    HW231509   6.128   3.871   4.181
10204SOL     OW31510   7.020   4.912   3.765
10204SOL    HW131511   7.052   4.836   3.822
10204SOL    HW231512   6.928   4.939   3.795
10205SOL     OW31513   5.883   3.759   3.895
10205SOL    HW131514   5.932   3.843   3.874
10205SOL    HW231515   5.945   3.694   3.940
10206SOL     OW31516   6.521   3.960   4.204
10206SOL    HW131517   6.473   4.001   4.126
10206SOL    HW231518   6.620   3.958   4.185
10207SOL     OW31519   6.662   4.407   5.188
10207SOL    HW131520   6.582   4.346   5.191
10207SOL    HW231521   6.743   4.354   5.164
10208SOL     OW31522   6.813   5.294   4.517
10208SOL    HW131523   6.834   5.368   4.452
10208SOL    HW231524   6.881   5.294   4.590
10209SOL     OW31525   6.045   4.876   4.465
10209SOL    HW131526   5.974   4.849   4.530
10209SOL    HW231527   6.019   4.848   4.372
10210SOL     OW31528   6.857   5.521   4.315
10210SOL    HW131529   6.901   5.585   4.251
10210SOL    HW231530   6.807   5.573   4.385
10211SOL     OW31531   6.618   4.273   3.740
10211SOL    HW131532   6.577   4.355   3.701
10211SOL    HW231533   6.682   4.299   3.813
10212SOL     OW31534   5.664   4.280   5.110
10212SOL    HW131535   5.756   4.279   5.069
10212SOL    HW231536   5.658   4.354   5.177
10213SOL     OW31537   6.147   3.946   4.871
10213SOL    HW131538   6.185   3.862   4.908
10213SOL    HW231539   6.059   3.965   4.915
10214SOL     OW31540   6.452   4.178   4.366
10214SOL    HW131541   6.420   4.250   4.304
10214SOL    HW231542   6.476   4.097   4.313
10215SOL     OW31543   6.603   3.763   4.477
10215SOL    HW131544   6.531   3.768   4.408
10215SOL    HW231545   6.579   3.694   4.546
10216SOL     OW31546   6.074   5.109   3.898
10216SOL    HW131547   5.987   5.094   3.945
10216SOL    HW231548   6.057   5.135   3.803
10217SOL     OW31549   6.113   3.980   4.052
10217SOL    HW131550   6.140   3.921   3.977
10217SOL    HW231551   6.113   4.075   4.021
10218SOL     OW31552   6.650   5.071   5.064
10218SOL    HW131553   6.570   5.048   5.119
10218SOL    HW231554   6.733   5.045   5.113
10219SOL     OW31555   6.697   4.919   4.824
10219SOL    HW131556   6.657   4.963   4.905
10219SOL    HW231557   6.656   4.956   4.741
10220SOL     OW31558   6.501   3.813   5.126
10220SOL    HW131559   6.526   3.793   5.031
10220SOL    HW231560   6.573   3.869   5.168
10221SOL     OW31561   6.566   4.840   5.443
10221SOL    HW131562   6.467   4.846   5.453
10221SOL    HW231563   6.589   4.760   5.387
10222SOL     OW31564   6.291   4.774   4.092
10222SOL    HW131565   6.277   4.781   4.191
10222SOL    HW231566   6.375   4.723   4.074
10223SOL     OW31567   5.996   4.537   4.975
10223SOL    HW131568   6.082   4.549   5.025
10223SOL    HW231569   5.954   4.450   5.002
10224SOL     OW31570   6.860   4.110   4.986
10224SOL    HW131571   6.881   4.184   5.050
10224SOL    HW231572   6.771   4.127   4.943
10225SOL     OW31573   5.650   5.288   5.055
10225SOL    HW131574   5.604   5.370   5.021
10225SOL    HW231575   5.748   5.307   5.064
10226SOL     OW31576   5.953   4.824   4.225
10226SOL    HW131577   5.946   4.907   4.169
10226SOL    HW231578   5.957   4.744   4.165
10227SOL     OW31579   6.152   4.261   4.589
10227SOL    HW131580   6.164   4.327   4.515
10227SOL    HW231581   6.198   4.295   4.672
10228SOL     OW31582   6.838   5.072   4.112
10228SOL    HW131583   6.888   5.149   4.152
10228SOL    HW231584   6.743   5.074   4.144
10229SOL     OW31585   6.858   5.169   4.866
10229SOL    HW131586   6.905   5.182   4.953
10229SOL    HW231587   6.792   5.095   4.875
10230SOL     OW31588   5.940   5.234   5.053
10230SOL    HW131589   5.919   5.190   4.966
10230SOL    HW231590   6.037   5.260   5.056
10231SOL     OW31591   5.988   4.475   5.322
10231SOL    HW131592   6.056   4.530   5.275
10231SOL    HW231593   6.028   4.387   5.349
10232SOL     OW31594   6.599   3.829   5.494
10232SOL    HW131595   6.605   3.914   5.442
10232SOL    HW231596   6.631   3.753   5.437
10233SOL     OW31597   6.090   3.774   5.464
10233SOL    HW131598   6.048   3.717   5.394
10233SOL    HW231599   6.024   3.843   5.496
10234SOL     OW31600   6.159   4.594   4.753
10234SOL    HW131601   6.203   4.683   4.744
10234SOL    HW231602   6.096   4.594   4.830
10235SOL     OW31603   6.946   4.586   4.769
10235SOL    HW131604   6.871   4.586   4.703
10235SOL    HW231605   6.983   4.494   4.778
10236SOL     OW31606   6.795   4.249   3.999
10236SOL    HW131607   6.808   4.165   4.053
10236SOL    HW231608   6.766   4.323   4.059
10237SOL     OW31609   5.893   3.937   4.955
10237SOL    HW131610   5.870   3.974   5.045
10237SOL    HW231611   5.863   3.842   4.949
10238SOL     OW31612   5.623   5.034   5.006
10238SOL    HW131613   5.676   4.985   5.074
10238SOL    HW231614   5.645   5.132   5.011
10239SOL     OW31615   6.318   4.358   4.788
10239SOL    HW131616   6.377   4.332   4.712
10239SOL    HW231617   6.290   4.454   4.777
10240SOL     OW31618   5.893   3.787   4.342
10240SOL    HW131619   5.882   3.881   4.375
10240SOL    HW231620   5.888   3.724   4.419
10241SOL     OW31621   7.208   4.091   4.098
10241SOL    HW131622   7.210   4.015   4.162
10241SOL    HW231623   7.160   4.168   4.138
10242SOL     OW31624   6.609   4.490   4.690
10242SOL    HW131625   6.624   4.511   4.786
10242SOL    HW231626   6.579   4.395   4.681
10243SOL     OW31627   6.566   5.297   5.424
10243SOL    HW131628   6.546   5.341   5.336
10243SOL    HW231629   6.605   5.206   5.408
10244SOL     OW31630   5.936   4.622   5.528
10244SOL    HW131631   6.012   4.666   5.576
10244SOL    HW231632   5.971   4.575   5.446
10245SOL     OW31633   6.889   4.562   3.766
10245SOL    HW131634   6.923   4.469   3.781
10245SOL    HW231635   6.907   4.589   3.671
10246SOL     OW31636   6.654   5.057   4.573
10246SOL    HW131637   6.661   4.973   4.518
10246SOL    HW231638   6.716   5.126   4.537
10247SOL     OW31639   5.905   4.534   4.673
10247SOL    HW131640   5.998   4.570   4.678
10247SOL    HW231641   5.899   4.449   4.725
10248SOL     OW31642   5.925   4.233   4.730
10248SOL    HW131643   5.873   4.150   4.713
10248SOL    HW231644   6.002   4.238   4.666
10249SOL     OW31645   6.724   4.104   5.402
10249SOL    HW131646   6.679   4.167   5.466
10249SOL    HW231647   6.817   4.135   5.385
10250SOL     OW31648   6.746   3.931   5.201
10250SOL    HW131649   6.746   3.995   5.278
10250SOL    HW231650   6.774   3.979   5.118
10251SOL     OW31651   5.594   5.050   3.924
10251SOL    HW131652   5.501   5.071   3.893
10251SOL    HW231653   5.604   4.951   3.937
10252SOL     OW31654   5.674   5.525   4.651
10252SOL    HW131655   5.632   5.439   4.624
10252SOL    HW231656   5.768   5.528   4.617
10253SOL     OW31657   6.090   5.292   4.634
10253SOL    HW131658   6.156   5.366   4.643
10253SOL    HW231659   6.134   5.213   4.592
10254SOL     OW31660   6.588   4.520   4.962
10254SOL    HW131661   6.629   4.488   5.048
10254SOL    HW231662   6.492   4.493   4.959
10255SOL     OW31663   5.626   4.268   4.838
10255SOL    HW131664   5.711   4.235   4.797
10255SOL    HW231665   5.639   4.283   4.936
10256SOL     OW31666   5.775   4.244   5.446
10256SOL    HW131667   5.834   4.204   5.376
10256SOL    HW231668   5.717   4.315   5.405
10257SOL     OW31669   6.401   4.296   4.049
10257SOL    HW131670   6.408   4.207   4.003
10257SOL    HW231671   6.307   4.330   4.041
10258SOL     OW31672   5.838   5.288   5.468
10258SOL    HW131673   5.808   5.345   5.544
10258SOL    HW231674   5.831   5.191   5.494
10259SOL     OW31675   6.257   4.188   4.993
10259SOL    HW131676   6.223   4.099   4.963
10259SOL    HW231677   6.283   4.242   4.913
10260SOL     OW31678   6.516   5.402   5.189
10260SOL    HW131679   6.492   5.384   5.094
10260SOL    HW231680   6.546   5.496   5.199
10261SOL     OW31681   6.059   4.224   3.915
10261SOL    HW131682   6.120   4.304   3.919
10261SOL    HW231683   5.964   4.255   3.922
10262SOL     OW31684   5.745   4.861   5.190
10262SOL    HW131685   5.767   4.800   5.266
10262SOL    HW231686   5.755   4.812   5.104
10263SOL     OW31687   6.933   4.783   4.958
10263SOL    HW131688   6.957   4.720   4.884
10263SOL    HW231689   6.843   4.823   4.940
10264SOL     OW31690   6.888   4.579   4.033
10264SOL    HW131691   6.802   4.548   4.075
10264SOL    HW231692   6.884   4.565   3.934
10265SOL     OW31693   6.838   5.455   4.852
10265SOL    HW131694   6.922   5.460   4.798
10265SOL    HW231695   6.815   5.359   4.870
10266SOL     OW31696   5.669   4.982   4.746
10266SOL    HW131697   5.664   4.981   4.846
10266SOL    HW231698   5.586   4.941   4.708
10267SOL     OW31699   6.274   5.386   5.440
10267SOL    HW131700   6.218   5.467   5.449
10267SOL    HW231701   6.326   5.390   5.354
10268SOL     OW31702   6.974   5.297   4.201
10268SOL    HW131703   7.041   5.309   4.127
10268SOL    HW231704   6.934   5.386   4.224
10269SOL     OW31705   5.716   5.518   5.575
10269SOL    HW131706   5.675   5.444   5.628
10269SOL    HW231707   5.780   5.569   5.633
10270SOL     OW31708   6.866   4.651   4.396
10270SOL    HW131709   6.926   4.570   4.398
10270SOL    HW231710   6.906   4.720   4.336
10271SOL     OW31711   6.416   4.997   5.146
10271SOL    HW131712   6.411   5.030   5.241
10271SOL    HW231713   6.330   5.016   5.100
10272SOL     OW31714   6.258   5.340   3.878
10272SOL    HW131715   6.267   5.350   3.779
10272SOL    HW231716   6.218   5.251   3.899
10273SOL     OW31717   5.849   4.050   4.444
10273SOL    HW131718   5.770   4.101   4.410
10273SOL    HW231719   5.840   4.035   4.542
10274SOL     OW31720   6.780   5.336   3.755
10274SOL    HW131721   6.786   5.243   3.792
10274SOL    HW231722   6.721   5.336   3.675
10275SOL     OW31723   6.408   4.726   5.096
10275SOL    HW131724   6.448   4.725   5.004
10275SOL    HW231725   6.418   4.818   5.136
10276SOL     OW31726   6.502   4.634   4.015
10276SOL    HW131727   6.565   4.672   3.947
10276SOL    HW231728   6.542   4.551   4.054
10277SOL     OW31729   5.958   5.012   5.214
10277SOL    HW131730   5.945   5.105   5.180
10277SOL    HW231731   5.874   4.960   5.201
10278SOL     OW31732   6.625   4.822   4.420
10278SOL    HW131733   6.555   4.775   4.474
10278SOL    HW231734   6.684   4.754   4.377
10279SOL     OW31735   6.600   3.960   4.695
10279SOL    HW131736   6.592   3.924   4.602
10279SOL    HW231737   6.598   3.884   4.760
10280SOL     OW31738   6.176   5.211   4.215
10280SOL    HW131739   6.218   5.153   4.145
10280SOL    HW231740   6.132   5.290   4.171
10281SOL     OW31741   5.841   5.072   4.014
10281SOL    HW131742   5.745   5.073   3.987
10281SOL    HW231743   5.853   5.125   4.098
10282SOL     OW31744   5.691   4.737   5.450
10282SOL    HW131745   5.614   4.704   5.504
10282SOL    HW231746   5.776   4.707   5.492
10283SOL     OW31747   6.258   3.927   5.213
10283SOL    HW131748   6.348   3.911   5.173
10283SOL    HW231749   6.266   3.932   5.312
10284SOL     OW31750   5.661   4.069   3.757
10284SOL    HW131751   5.569   4.041   3.728
10284SOL    HW231752   5.692   4.146   3.701
10285SOL     OW31753   5.658   3.890   4.042
10285SOL    HW131754   5.641   3.973   3.988
10285SOL    HW231755   5.748   3.853   4.020
10286SOL     OW31756   6.199   4.566   5.155
10286SOL    HW131757   6.255   4.647   5.138
10286SOL    HW231758   6.258   4.486   5.158
10287SOL     OW31759   6.302   4.289   5.432
10287SOL    HW131760   6.321   4.354   5.506
10287SOL    HW231761   6.362   4.209   5.441
10288SOL     OW31762   7.036   4.944   5.357
10288SOL    HW131763   7.027   4.934   5.456
10288SOL    HW231764   7.132   4.937   5.331
10289SOL     OW31765   5.976   5.465   5.284
10289SOL    HW131766   5.885   5.506   5.282
10289SOL    HW231767   5.969   5.371   5.316
10290SOL     OW31768   6.811   4.049   4.173
10290SOL    HW131769   6.876   3.975   4.162
10290SOL    HW231770   6.831   4.099   4.257
10291SOL     OW31771   6.180   4.469   4.376
10291SOL    HW131772   6.230   4.554   4.357
10291SOL    HW231773   6.092   4.471   4.328
10292SOL     OW31774   6.445   5.098   3.740
10292SOL    HW131775   6.399   5.113   3.828
10292SOL    HW231776   6.489   5.183   3.710
10293SOL     OW31777   6.247   5.514   4.677
10293SOL    HW131778   6.201   5.602   4.664
10293SOL    HW231779   6.346   5.526   4.670
10294SOL     OW31780   6.445   4.680   4.585
10294SOL    HW131781   6.499   4.611   4.633
10294SOL    HW231782   6.413   4.749   4.651
10295SOL     OW31783   6.669   4.708   3.811
10295SOL    HW131784   6.646   4.761   3.729
10295SOL    HW231785   6.750   4.652   3.792
10296SOL     OW31786   5.807   5.038   5.568
10296SOL    HW131787   5.742   4.965   5.547
10296SOL    HW231788   5.811   5.052   5.666
10297SOL     OW31789   5.665   4.964   4.377
10297SOL    HW131790   5.664   4.917   4.465
10297SOL    HW231791   5.747   4.936   4.326
10298SOL     OW31792   6.258   5.115   5.348
10298SOL    HW131793   6.180   5.065   5.386
10298SOL    HW231794   6.255   5.210   5.379
10299SOL     OW31795   6.014   4.148   4.244
10299SOL    HW131796   6.044   4.076   4.182
10299SOL    HW231797   5.975   4.108   4.327
10300SOL     OW31798   5.903   4.271   5.004
10300SOL    HW131799   5.941   4.212   5.076
10300SOL    HW231800   5.943   4.245   4.916
10301SOL     OW31801   6.398   5.310   4.411
10301SOL    HW131802   6.430   5.320   4.317
10301SOL    HW231803   6.319   5.248   4.413
10302SOL     OW31804   7.010   3.938   4.836
10302SOL    HW131805   7.062   3.873   4.891
10302SOL    HW231806   6.961   4.001   4.897
10303SOL     OW31807   6.587   3.758   4.878
10303SOL    HW131808   6.524   3.686   4.847
10303SOL    HW231809   6.680   3.722   4.878
10304SOL     OW31810   6.356   5.054   4.025
10304SOL    HW131811   6.310   4.967   4.042
10304SOL    HW231812   6.447   5.051   4.066
10305SOL     OW31813   6.204   5.291   5.008
10305SOL    HW131814   6.199   5.373   5.065
10305SOL    HW231815   6.293   5.288   4.963
10306SOL     OW31816   6.938   3.776   3.892
10306SOL    HW131817   6.973   3.735   3.808
10306SOL    HW231818   6.848   3.738   3.912
10307SOL     OW31819   5.625   4.801   4.024
10307SOL    HW131820   5.724   4.790   4.015
10307SOL    HW231821   5.585   4.715   4.056
10308SOL     OW31822   6.461   5.370   4.061
10308SOL    HW131823   6.384   5.335   4.007
10308SOL    HW231824   6.429   5.441   4.123
10309SOL     OW31825   5.816   4.352   5.699
10309SOL    HW131826   5.723   4.350   5.736
10309SOL    HW231827   5.817   4.313   5.607
10310SOL     OW31828   5.811   3.999   6.582
10310SOL    HW131829   5.846   3.982   6.674
10310SOL    HW231830   5.723   3.954   6.570
10311SOL     OW31831   5.605   4.092   6.233
10311SOL    HW131832   5.523   4.135   6.272
10311SOL    HW231833   5.577   4.019   6.170
10312SOL     OW31834   6.155   4.999   6.751
10312SOL    HW131835   6.062   4.992   6.714
10312SOL    HW231836   6.166   5.088   6.795
10313SOL     OW31837   7.141   5.235   6.289
10313SOL    HW131838   7.084   5.219   6.370
10313SOL    HW231839   7.082   5.245   6.209
10314SOL     OW31840   6.721   4.427   6.303
10314SOL    HW131841   6.778   4.505   6.278
10314SOL    HW231842   6.661   4.453   6.379
10315SOL     OW31843   6.354   4.868   6.609
10315SOL    HW131844   6.276   4.885   6.669
10315SOL    HW231845   6.388   4.955   6.573
10316SOL     OW31846   6.271   4.736   6.251
10316SOL    HW131847   6.340   4.720   6.321
10316SOL    HW231848   6.198   4.793   6.289
10317SOL     OW31849   5.921   5.159   6.647
10317SOL    HW131850   5.843   5.128   6.594
10317SOL    HW231851   5.979   5.217   6.590
10318SOL     OW31852   5.817   5.437   6.069
10318SOL    HW131853   5.851   5.514   6.123
10318SOL    HW231854   5.861   5.437   5.979
10319SOL     OW31855   5.816   5.158   6.124
10319SOL    HW131856   5.790   5.254   6.124
10319SOL    HW231857   5.745   5.104   6.169
10320SOL     OW31858   5.826   4.815   6.472
10320SOL    HW131859   5.840   4.731   6.524
10320SOL    HW231860   5.771   4.879   6.527
10321SOL     OW31861   6.206   5.510   7.025
10321SOL    HW131862   6.114   5.493   7.060
10321SOL    HW231863   6.234   5.602   7.051
10322SOL     OW31864   6.192   4.688   5.709
10322SOL    HW131865   6.199   4.772   5.655
10322SOL    HW231866   6.238   4.701   5.797
10323SOL     OW31867   7.180   3.838   7.066
10323SOL    HW131868   7.162   3.905   6.994
10323SOL    HW231869   7.177   3.884   7.155
10324SOL     OW31870   5.708   4.367   6.149
10324SOL    HW131871   5.663   4.279   6.166
10324SOL    HW231872   5.707   4.421   6.233
10325SOL     OW31873   5.613   5.320   5.703
10325SOL    HW131874   5.594   5.224   5.724
10325SOL    HW231875   5.580   5.378   5.778
10326SOL     OW31876   6.199   5.089   6.312
10326SOL    HW131877   6.150   5.002   6.321
10326SOL    HW231878   6.176   5.132   6.225
10327SOL     OW31879   6.879   4.952   7.009
10327SOL    HW131880   6.916   4.879   6.951
10327SOL    HW231881   6.931   4.957   7.094
10328SOL     OW31882   6.395   3.728   6.088
10328SOL    HW131883   6.435   3.819   6.079
10328SOL    HW231884   6.295   3.736   6.094
10329SOL     OW31885   5.783   4.700   6.850
10329SOL    HW131886   5.872   4.655   6.836
10329SOL    HW231887   5.710   4.635   6.831
10330SOL     OW31888   6.184   4.453   5.856
10330SOL    HW131889   6.208   4.522   5.788
10330SOL    HW231890   6.106   4.486   5.910
10331SOL     OW31891   6.867   4.069   6.530
10331SOL    HW131892   6.781   4.019   6.517
10331SOL    HW231893   6.929   4.015   6.586
10332SOL     OW31894   6.393   4.329   7.051
10332SOL    HW131895   6.346   4.326   7.140
10332SOL    HW231896   6.342   4.274   6.985
10333SOL     OW31897   6.577   4.134   6.828
10333SOL    HW131898   6.500   4.168   6.882
10333SOL    HW231899   6.543   4.083   6.749
10334SOL     OW31900   6.627   4.425   6.015
10334SOL    HW131901   6.653   4.421   6.111
10334SOL    HW231902   6.542   4.374   6.001
10335SOL     OW31903   5.662   4.535   6.375
10335SOL    HW131904   5.761   4.523   6.384
10335SOL    HW231905   5.638   4.630   6.396
10336SOL     OW31906   5.716   5.545   7.157
10336SOL    HW131907   5.706   5.530   7.256
10336SOL    HW231908   5.630   5.581   7.121
10337SOL     OW31909   6.451   4.072   5.781
10337SOL    HW131910   6.510   4.135   5.732
10337SOL    HW231911   6.470   3.978   5.752
10338SOL     OW31912   6.948   4.868   6.131
10338SOL    HW131913   7.031   4.839   6.083
10338SOL    HW231914   6.899   4.935   6.075
10339SOL     OW31915   6.136   3.920   6.471
10339SOL    HW131916   6.131   3.915   6.571
10339SOL    HW231917   6.138   4.016   6.442
10340SOL     OW31918   6.594   5.180   6.063
10340SOL    HW131919   6.548   5.252   6.011
10340SOL    HW231920   6.590   5.200   6.161
10341SOL     OW31921   5.937   5.525   6.439
10341SOL    HW131922   5.987   5.439   6.445
10341SOL    HW231923   6.002   5.602   6.436
10342SOL     OW31924   5.907   4.667   5.828
10342SOL    HW131925   5.989   4.706   5.786
10342SOL    HW231926   5.880   4.585   5.779
10343SOL     OW31927   6.697   5.500   5.823
10343SOL    HW131928   6.637   5.438   5.873
10343SOL    HW231929   6.728   5.456   5.738
10344SOL     OW31930   6.050   5.467   5.909
10344SOL    HW131931   6.083   5.506   5.995
10344SOL    HW231932   6.126   5.460   5.844
10345SOL     OW31933   5.835   5.509   6.827
10345SOL    HW131934   5.892   5.444   6.877
10345SOL    HW231935   5.819   5.476   6.734
10346SOL     OW31936   6.526   5.422   6.490
10346SOL    HW131937   6.606   5.365   6.511
10346SOL    HW231938   6.477   5.382   6.413
10347SOL     OW31939   5.968   4.424   6.066
10347SOL    HW131940   6.013   4.334   6.063
10347SOL    HW231941   5.874   4.413   6.099
10348SOL     OW31942   6.200   3.846   5.703
10348SOL    HW131943   6.298   3.824   5.710
10348SOL    HW231944   6.169   3.829   5.610
10349SOL     OW31945   6.474   5.238   6.781
10349SOL    HW131946   6.451   5.213   6.687
10349SOL    HW231947   6.535   5.169   6.820
10350SOL     OW31948   6.389   5.126   6.510
10350SOL    HW131949   6.479   5.140   6.468
10350SOL    HW231950   6.318   5.128   6.439
10351SOL     OW31951   6.508   4.227   6.485
10351SOL    HW131952   6.483   4.218   6.389
10351SOL    HW231953   6.556   4.145   6.516
10352SOL     OW31954   6.125   3.788   6.098
10352SOL    HW131955   6.044   3.789   6.156
10352SOL    HW231956   6.128   3.871   6.043
10353SOL     OW31957   7.020   4.912   5.627
10353SOL    HW131958   7.052   4.836   5.684
10353SOL    HW231959   6.928   4.939   5.657
10354SOL     OW31960   5.883   3.759   5.757
10354SOL    HW131961   5.932   3.843   5.736
10354SOL    HW231962   5.945   3.694   5.802
10355SOL     OW31963   6.521   3.960   6.066
10355SOL    HW131964   6.473   4.001   5.988
10355SOL    HW231965   6.620   3.958   6.047
10356SOL     OW31966   6.813   5.294   6.379
10356SOL    HW131967   6.834   5.368   6.314
10356SOL    HW231968   6.881   5.294   6.452
10357SOL     OW31969   6.045   4.876   6.327
10357SOL    HW131970   5.974   4.849   6.392
10357SOL    HW231971   6.019   4.848   6.234
10358SOL     OW31972   6.857   5.521   6.177
10358SOL    HW131973   6.901   5.585   6.113
10358SOL    HW231974   6.807   5.573   6.247
10359SOL     OW31975   6.618   4.273   5.602
10359SOL    HW131976   6.577   4.355   5.563
10359SOL    HW231977   6.682   4.299   5.675
10360SOL     OW31978   6.147   3.946   6.733
10360SOL    HW131979   6.185   3.862   6.770
10360SOL    HW231980   6.059   3.965   6.777
10361SOL     OW31981   6.452   4.178   6.228
10361SOL    HW131982   6.420   4.250   6.166
10361SOL    HW231983   6.476   4.097   6.175
10362SOL     OW31984   6.603   3.763   6.339
10362SOL    HW131985   6.531   3.768   6.270
10362SOL    HW231986   6.579   3.694   6.408
10363SOL     OW31987   6.074   5.109   5.760
10363SOL    HW131988   5.987   5.094   5.807
10363SOL    HW231989   6.057   5.135   5.665
10364SOL     OW31990   6.113   3.980   5.914
10364SOL    HW131991   6.140   3.921   5.839
10364SOL    HW231992   6.113   4.075   5.883
10365SOL     OW31993   7.178   5.353   7.211
10365SOL    HW131994   7.205   5.387   7.121
10365SOL    HW231995   7.257   5.315   7.257
10366SOL     OW31996   6.697   4.919   6.686
10366SOL    HW131997   6.657   4.963   6.767
10366SOL    HW231998   6.656   4.956   6.603
10367SOL     OW31999   6.291   4.774   5.954
10367SOL    HW132000   6.277   4.781   6.053
10367SOL    HW232001   6.375   4.723   5.936
10368SOL     OW32002   5.996   4.537   6.837
10368SOL    HW132003   6.082   4.549   6.887
10368SOL    HW232004   5.954   4.450   6.864
10369SOL     OW32005   6.860   4.110   6.848
10369SOL    HW132006   6.881   4.184   6.912
10369SOL    HW232007   6.771   4.127   6.805
10370SOL     OW32008   5.650   5.288   6.917
10370SOL    HW132009   5.604   5.370   6.883
10370SOL    HW232010   5.748   5.307   6.926
10371SOL     OW32011   5.953   4.824   6.087
10371SOL    HW132012   5.946   4.907   6.031
10371SOL    HW232013   5.957   4.744   6.027
10372SOL     OW32014   6.152   4.261   6.451
10372SOL    HW132015   6.164   4.327   6.377
10372SOL    HW232016   6.198   4.295   6.534
10373SOL     OW32017   6.838   5.072   5.974
10373SOL    HW132018   6.888   5.149   6.014
10373SOL    HW232019   6.743   5.074   6.006
10374SOL     OW32020   6.858   5.169   6.728
10374SOL    HW132021   6.905   5.182   6.815
10374SOL    HW232022   6.792   5.095   6.737
10375SOL     OW32023   5.940   5.234   6.915
10375SOL    HW132024   5.919   5.190   6.828
10375SOL    HW232025   6.037   5.260   6.918
10376SOL     OW32026   6.159   4.594   6.615
10376SOL    HW132027   6.203   4.683   6.606
10376SOL    HW232028   6.096   4.594   6.692
10377SOL     OW32029   6.946   4.586   6.631
10377SOL    HW132030   6.871   4.586   6.565
10377SOL    HW232031   6.983   4.494   6.640
10378SOL     OW32032   6.795   4.249   5.861
10378SOL    HW132033   6.808   4.165   5.915
10378SOL    HW232034   6.766   4.323   5.921
10379SOL     OW32035   5.893   3.937   6.817
10379SOL    HW132036   5.870   3.974   6.907
10379SOL    HW232037   5.863   3.842   6.811
10380SOL     OW32038   5.623   5.034   6.868
10380SOL    HW132039   5.676   4.985   6.936
10380SOL    HW232040   5.645   5.132   6.873
10381SOL     OW32041   6.318   4.358   6.650
10381SOL    HW132042   6.377   4.332   6.574
10381SOL    HW232043   6.290   4.454   6.639
10382SOL     OW32044   5.893   3.787   6.204
10382SOL    HW132045   5.882   3.881   6.237
10382SOL    HW232046   5.888   3.724   6.281
10383SOL     OW32047   7.208   4.091   5.960
10383SOL    HW132048   7.210   4.015   6.024
10383SOL    HW232049   7.160   4.168   6.000
10384SOL     OW32050   6.609   4.490   6.552
10384SOL    HW132051   6.624   4.511   6.648
10384SOL    HW232052   6.579   4.395   6.543
10385SOL     OW32053   6.889   4.562   5.628
10385SOL    HW132054   6.923   4.469   5.643
10385SOL    HW232055   6.907   4.589   5.533
10386SOL     OW32056   6.654   5.057   6.435
10386SOL    HW132057   6.661   4.973   6.380
10386SOL    HW232058   6.716   5.126   6.399
10387SOL     OW32059   5.905   4.534   6.535
10387SOL    HW132060   5.998   4.570   6.540
10387SOL    HW232061   5.899   4.449   6.587
10388SOL     OW32062   5.925   4.233   6.592
10388SOL    HW132063   5.873   4.150   6.575
10388SOL    HW232064   6.002   4.238   6.528
10389SOL     OW32065   6.746   3.931   7.063
10389SOL    HW132066   6.746   3.995   7.140
10389SOL    HW232067   6.774   3.979   6.980
10390SOL     OW32068   5.594   5.050   5.786
10390SOL    HW132069   5.501   5.071   5.755
10390SOL    HW232070   5.604   4.951   5.799
10391SOL     OW32071   5.674   5.525   6.513
10391SOL    HW132072   5.632   5.439   6.486
10391SOL    HW232073   5.768   5.528   6.479
10392SOL     OW32074   6.090   5.292   6.496
10392SOL    HW132075   6.156   5.366   6.505
10392SOL    HW232076   6.134   5.213   6.454
10393SOL     OW32077   6.588   4.520   6.824
10393SOL    HW132078   6.629   4.488   6.910
10393SOL    HW232079   6.492   4.493   6.821
10394SOL     OW32080   5.626   4.268   6.700
10394SOL    HW132081   5.711   4.235   6.659
10394SOL    HW232082   5.639   4.283   6.798
10395SOL     OW32083   6.401   4.296   5.911
10395SOL    HW132084   6.408   4.207   5.865
10395SOL    HW232085   6.307   4.330   5.903
10396SOL     OW32086   6.257   4.188   6.855
10396SOL    HW132087   6.223   4.099   6.825
10396SOL    HW232088   6.283   4.242   6.775
10397SOL     OW32089   6.516   5.402   7.051
10397SOL    HW132090   6.492   5.384   6.956
10397SOL    HW232091   6.546   5.496   7.061
10398SOL     OW32092   6.059   4.224   5.777
10398SOL    HW132093   6.120   4.304   5.781
10398SOL    HW232094   5.964   4.255   5.784
10399SOL     OW32095   5.745   4.861   7.052
10399SOL    HW132096   5.767   4.800   7.128
10399SOL    HW232097   5.755   4.812   6.966
10400SOL     OW32098   6.933   4.783   6.820
10400SOL    HW132099   6.957   4.720   6.746
10400SOL    HW232100   6.843   4.823   6.802
10401SOL     OW32101   6.888   4.579   5.895
10401SOL    HW132102   6.802   4.548   5.937
10401SOL    HW232103   6.884   4.565   5.796
10402SOL     OW32104   6.838   5.455   6.714
10402SOL    HW132105   6.922   5.460   6.660
10402SOL    HW232106   6.815   5.359   6.732
10403SOL     OW32107   5.669   4.982   6.608
10403SOL    HW132108   5.664   4.981   6.708
10403SOL    HW232109   5.586   4.941   6.570
10404SOL     OW32110   6.974   5.297   6.063
10404SOL    HW132111   7.041   5.309   5.989
10404SOL    HW232112   6.934   5.386   6.086
10405SOL     OW32113   6.866   4.651   6.258
10405SOL    HW132114   6.926   4.570   6.260
10405SOL    HW232115   6.906   4.720   6.198
10406SOL     OW32116   6.258   5.340   5.740
10406SOL    HW132117   6.267   5.350   5.641
10406SOL    HW232118   6.218   5.251   5.761
10407SOL     OW32119   5.849   4.050   6.306
10407SOL    HW132120   5.770   4.101   6.272
10407SOL    HW232121   5.840   4.035   6.404
10408SOL     OW32122   6.780   5.336   5.617
10408SOL    HW132123   6.786   5.243   5.654
10408SOL    HW232124   6.721   5.336   5.537
10409SOL     OW32125   6.408   4.726   6.958
10409SOL    HW132126   6.448   4.725   6.866
10409SOL    HW232127   6.418   4.818   6.998
10410SOL     OW32128   6.502   4.634   5.877
10410SOL    HW132129   6.565   4.672   5.809
10410SOL    HW232130   6.542   4.551   5.916
10411SOL     OW32131   6.625   4.822   6.282
10411SOL    HW132132   6.555   4.775   6.336
10411SOL    HW232133   6.684   4.754   6.239
10412SOL     OW32134   6.600   3.960   6.557
10412SOL    HW132135   6.592   3.924   6.464
10412SOL    HW232136   6.598   3.884   6.622
10413SOL     OW32137   6.176   5.211   6.077
10413SOL    HW132138   6.218   5.153   6.007
10413SOL    HW232139   6.132   5.290   6.033
10414SOL     OW32140   5.841   5.072   5.876
10414SOL    HW132141   5.745   5.073   5.849
10414SOL    HW232142   5.853   5.125   5.960
10415SOL     OW32143   6.258   3.927   7.075
10415SOL    HW132144   6.348   3.911   7.035
10415SOL    HW232145   6.266   3.932   7.174
10416SOL     OW32146   5.661   4.069   5.619
10416SOL    HW132147   5.569   4.041   5.590
10416SOL    HW232148   5.692   4.146   5.563
10417SOL     OW32149   5.658   3.890   5.904
10417SOL    HW132150   5.641   3.973   5.850
10417SOL    HW232151   5.748   3.853   5.882
10418SOL     OW32152   5.976   5.465   7.146
10418SOL    HW132153   5.885   5.506   7.144
10418SOL    HW232154   5.969   5.371   7.178
10419SOL     OW32155   6.811   4.049   6.035
10419SOL    HW132156   6.876   3.975   6.024
10419SOL    HW232157   6.831   4.099   6.119
10420SOL     OW32158   6.180   4.469   6.238
10420SOL    HW132159   6.230   4.554   6.219
10420SOL    HW232160   6.092   4.471   6.190
10421SOL     OW32161   6.445   5.098   5.602
10421SOL    HW132162   6.399   5.113   5.690
10421SOL    HW232163   6.489   5.183   5.572
10422SOL     OW32164   6.247   5.514   6.539
10422SOL    HW132165   6.201   5.602   6.526
10422SOL    HW232166   6.346   5.526   6.532
10423SOL     OW32167   6.445   4.680   6.447
10423SOL    HW132168   6.499   4.611   6.495
10423SOL    HW232169   6.413   4.749   6.513
10424SOL     OW32170   6.669   4.708   5.673
10424SOL    HW132171   6.646   4.761   5.591
10424SOL    HW232172   6.750   4.652   5.654
10425SOL     OW32173   5.665   4.964   6.239
10425SOL    HW132174   5.664   4.917   6.327
10425SOL    HW232175   5.747   4.936   6.188
10426SOL     OW32176   6.014   4.148   6.106
10426SOL    HW132177   6.044   4.076   6.044
10426SOL    HW232178   5.975   4.108   6.189
10427SOL     OW32179   5.903   4.271   6.866
10427SOL    HW132180   5.941   4.212   6.938
10427SOL    HW232181   5.943   4.245   6.778
10428SOL     OW32182   6.398   5.310   6.273
10428SOL    HW132183   6.430   5.320   6.179
10428SOL    HW232184   6.319   5.248   6.275
10429SOL     OW32185   7.010   3.938   6.698
10429SOL    HW132186   7.062   3.873   6.753
10429SOL    HW232187   6.961   4.001   6.759
10430SOL     OW32188   6.587   3.758   6.740
10430SOL    HW132189   6.524   3.686   6.709
10430SOL    HW232190   6.680   3.722   6.740
10431SOL     OW32191   6.356   5.054   5.887
10431SOL    HW132192   6.310   4.967   5.904
10431SOL    HW232193   6.447   5.051   5.928
10432SOL     OW32194   6.204   5.291   6.870
10432SOL    HW132195   6.199   5.373   6.927
10432SOL    HW232196   6.293   5.288   6.825
10433SOL     OW32197   6.938   3.776   5.754
10433SOL    HW132198   6.973   3.735   5.670
10433SOL    HW232199   6.848   3.738   5.774
10434SOL     OW32200   5.625   4.801   5.886
10434SOL    HW132201   5.724   4.790   5.877
10434SOL    HW232202   5.585   4.715   5.918
10435SOL     OW32203   6.461   5.370   5.923
10435SOL    HW132204   6.384   5.335   5.869
10435SOL    HW232205   6.429   5.441   5.985
10436SOL     OW32206   5.816   6.214   0.113
10436SOL    HW132207   5.723   6.212   0.150
10436SOL    HW232208   5.817   6.175   0.021
10437SOL     OW32209   5.811   5.861   0.996
10437SOL    HW132210   5.846   5.844   1.088
10437SOL    HW232211   5.723   5.816   0.984
10438SOL     OW32212   5.605   5.954   0.647
10438SOL    HW132213   5.523   5.997   0.686
10438SOL    HW232214   5.577   5.881   0.584
10439SOL     OW32215   6.155   6.861   1.165
10439SOL    HW132216   6.062   6.854   1.128
10439SOL    HW232217   6.166   6.950   1.209
10440SOL     OW32218   7.141   7.097   0.703
10440SOL    HW132219   7.084   7.081   0.784
10440SOL    HW232220   7.082   7.107   0.623
10441SOL     OW32221   6.721   6.289   0.717
10441SOL    HW132222   6.778   6.367   0.692
10441SOL    HW232223   6.661   6.315   0.793
10442SOL     OW32224   6.354   6.730   1.023
10442SOL    HW132225   6.276   6.747   1.083
10442SOL    HW232226   6.388   6.817   0.987
10443SOL     OW32227   6.436   6.384   1.823
10443SOL    HW132228   6.432   6.460   1.888
10443SOL    HW232229   6.458   6.420   1.732
10444SOL     OW32230   6.271   6.598   0.665
10444SOL    HW132231   6.340   6.582   0.735
10444SOL    HW232232   6.198   6.655   0.703
10445SOL     OW32233   6.272   6.747   1.803
10445SOL    HW132234   6.332   6.826   1.817
10445SOL    HW232235   6.186   6.778   1.762
10446SOL     OW32236   5.921   7.021   1.061
10446SOL    HW132237   5.843   6.990   1.008
10446SOL    HW232238   5.979   7.079   1.004
10447SOL     OW32239   6.024   5.978   1.499
10447SOL    HW132240   6.106   5.922   1.508
10447SOL    HW232241   5.943   5.920   1.503
10448SOL     OW32242   5.826   6.677   0.886
10448SOL    HW132243   5.840   6.593   0.938
10448SOL    HW232244   5.771   6.741   0.941
10449SOL     OW32245   6.192   6.550   0.123
10449SOL    HW132246   6.199   6.634   0.069
10449SOL    HW232247   6.238   6.563   0.211
10450SOL     OW32248   5.708   6.229   0.563
10450SOL    HW132249   5.663   6.141   0.580
10450SOL    HW232250   5.707   6.283   0.647
10451SOL     OW32251   5.699   6.323   1.597
10451SOL    HW132252   5.787   6.310   1.642
10451SOL    HW232253   5.686   6.420   1.575
10452SOL     OW32254   6.879   6.814   1.423
10452SOL    HW132255   6.916   6.741   1.365
10452SOL    HW232256   6.931   6.819   1.508
10453SOL     OW32257   6.395   5.590   0.502
10453SOL    HW132258   6.435   5.681   0.493
10453SOL    HW232259   6.295   5.598   0.508
10454SOL     OW32260   5.783   6.562   1.264
10454SOL    HW132261   5.872   6.517   1.250
10454SOL    HW232262   5.710   6.497   1.245
10455SOL     OW32263   5.903   5.837   1.801
10455SOL    HW132264   5.974   5.908   1.807
10455SOL    HW232265   5.815   5.876   1.829
10456SOL     OW32266   6.184   6.315   0.270
10456SOL    HW132267   6.208   6.384   0.202
10456SOL    HW232268   6.106   6.348   0.324
10457SOL     OW32269   6.867   5.931   0.944
10457SOL    HW132270   6.781   5.881   0.931
10457SOL    HW232271   6.929   5.877   1.000
10458SOL     OW32272   6.393   6.191   1.465
10458SOL    HW132273   6.346   6.188   1.554
10458SOL    HW232274   6.342   6.136   1.399
10459SOL     OW32275   6.980   6.055   1.674
10459SOL    HW132276   6.960   6.098   1.762
10459SOL    HW232277   7.058   5.993   1.683
10460SOL     OW32278   6.559   6.476   1.572
10460SOL    HW132279   6.605   6.392   1.543
10460SOL    HW232280   6.503   6.510   1.497
10461SOL     OW32281   6.577   5.996   1.242
10461SOL    HW132282   6.500   6.030   1.296
10461SOL    HW232283   6.543   5.945   1.163
10462SOL     OW32284   6.627   6.287   0.429
10462SOL    HW132285   6.653   6.283   0.525
10462SOL    HW232286   6.542   6.236   0.415
10463SOL     OW32287   5.662   6.397   0.789
10463SOL    HW132288   5.761   6.385   0.798
10463SOL    HW232289   5.638   6.492   0.810
10464SOL     OW32290   6.451   5.934   0.195
10464SOL    HW132291   6.510   5.997   0.146
10464SOL    HW232292   6.470   5.840   0.166
10465SOL     OW32293   6.948   6.730   0.545
10465SOL    HW132294   7.031   6.701   0.497
10465SOL    HW232295   6.899   6.797   0.489
10466SOL     OW32296   6.136   5.782   0.885
10466SOL    HW132297   6.131   5.777   0.985
10466SOL    HW232298   6.138   5.878   0.856
10467SOL     OW32299   5.907   6.529   0.242
10467SOL    HW132300   5.989   6.568   0.200
10467SOL    HW232301   5.880   6.447   0.193
10468SOL     OW32302   5.788   5.871   1.498
10468SOL    HW132303   5.708   5.931   1.485
10468SOL    HW232304   5.778   5.822   1.584
10469SOL     OW32305   5.968   6.286   0.480
10469SOL    HW132306   6.013   6.196   0.477
10469SOL    HW232307   5.874   6.275   0.513
10470SOL     OW32308   6.367   5.850   1.749
10470SOL    HW132309   6.434   5.789   1.792
10470SOL    HW232310   6.294   5.869   1.814
10471SOL     OW32311   6.508   6.089   0.899
10471SOL    HW132312   6.483   6.080   0.803
10471SOL    HW232313   6.556   6.007   0.930
10472SOL     OW32314   6.125   5.650   0.512
10472SOL    HW132315   6.044   5.651   0.570
10472SOL    HW232316   6.128   5.733   0.457
10473SOL     OW32317   6.521   5.822   0.480
10473SOL    HW132318   6.473   5.863   0.402
10473SOL    HW232319   6.620   5.820   0.461
10474SOL     OW32320   6.662   6.269   1.464
10474SOL    HW132321   6.582   6.208   1.467
10474SOL    HW232322   6.743   6.216   1.440
10475SOL     OW32323   6.813   7.156   0.793
10475SOL    HW132324   6.834   7.230   0.728
10475SOL    HW232325   6.881   7.156   0.866
10476SOL     OW32326   6.045   6.738   0.741
10476SOL    HW132327   5.974   6.711   0.806
10476SOL    HW232328   6.019   6.710   0.648
10477SOL     OW32329   6.618   6.135   0.016
10477SOL    HW132330   6.577   6.217  -0.023
10477SOL    HW232331   6.682   6.161   0.089
10478SOL     OW32332   5.664   6.142   1.386
10478SOL    HW132333   5.756   6.141   1.345
10478SOL    HW232334   5.658   6.216   1.453
10479SOL     OW32335   6.147   5.808   1.147
10479SOL    HW132336   6.185   5.724   1.184
10479SOL    HW232337   6.059   5.827   1.191
10480SOL     OW32338   6.452   6.040   0.642
10480SOL    HW132339   6.420   6.112   0.580
10480SOL    HW232340   6.476   5.959   0.589
10481SOL     OW32341   6.603   5.625   0.753
10481SOL    HW132342   6.531   5.630   0.684
10481SOL    HW232343   6.579   5.556   0.822
10482SOL     OW32344   6.113   5.842   0.328
10482SOL    HW132345   6.140   5.783   0.253
10482SOL    HW232346   6.113   5.937   0.297
10483SOL     OW32347   6.650   6.933   1.340
10483SOL    HW132348   6.570   6.910   1.395
10483SOL    HW232349   6.733   6.907   1.389
10484SOL     OW32350   6.697   6.781   1.100
10484SOL    HW132351   6.657   6.825   1.181
10484SOL    HW232352   6.656   6.818   1.017
10485SOL     OW32353   6.501   5.675   1.402
10485SOL    HW132354   6.526   5.655   1.307
10485SOL    HW232355   6.573   5.731   1.444
10486SOL     OW32356   6.566   6.702   1.719
10486SOL    HW132357   6.467   6.708   1.729
10486SOL    HW232358   6.589   6.622   1.663
10487SOL     OW32359   6.291   6.636   0.368
10487SOL    HW132360   6.277   6.643   0.467
10487SOL    HW232361   6.375   6.585   0.350
10488SOL     OW32362   5.996   6.399   1.251
10488SOL    HW132363   6.082   6.411   1.301
10488SOL    HW232364   5.954   6.312   1.278
10489SOL     OW32365   6.860   5.972   1.262
10489SOL    HW132366   6.881   6.046   1.326
10489SOL    HW232367   6.771   5.989   1.219
10490SOL     OW32368   5.953   6.686   0.501
10490SOL    HW132369   5.946   6.769   0.445
10490SOL    HW232370   5.957   6.606   0.441
10491SOL     OW32371   6.152   6.123   0.865
10491SOL    HW132372   6.164   6.189   0.791
10491SOL    HW232373   6.198   6.157   0.948
10492SOL     OW32374   6.838   6.934   0.388
10492SOL    HW132375   6.888   7.011   0.428
10492SOL    HW232376   6.743   6.936   0.420
10493SOL     OW32377   5.988   6.337   1.598
10493SOL    HW132378   6.056   6.392   1.551
10493SOL    HW232379   6.028   6.249   1.625
10494SOL     OW32380   6.599   5.691   1.770
10494SOL    HW132381   6.605   5.776   1.718
10494SOL    HW232382   6.631   5.615   1.713
10495SOL     OW32383   6.090   5.636   1.740
10495SOL    HW132384   6.048   5.579   1.670
10495SOL    HW232385   6.024   5.705   1.772
10496SOL     OW32386   6.159   6.456   1.029
10496SOL    HW132387   6.203   6.545   1.020
10496SOL    HW232388   6.096   6.456   1.106
10497SOL     OW32389   6.946   6.448   1.045
10497SOL    HW132390   6.871   6.448   0.979
10497SOL    HW232391   6.983   6.356   1.054
10498SOL     OW32392   6.795   6.111   0.275
10498SOL    HW132393   6.808   6.027   0.329
10498SOL    HW232394   6.766   6.185   0.335
10499SOL     OW32395   5.893   5.799   1.231
10499SOL    HW132396   5.870   5.836   1.321
10499SOL    HW232397   5.863   5.704   1.225
10500SOL     OW32398   5.623   6.896   1.282
10500SOL    HW132399   5.676   6.847   1.350
10500SOL    HW232400   5.645   6.994   1.287
10501SOL     OW32401   6.318   6.220   1.064
10501SOL    HW132402   6.377   6.194   0.988
10501SOL    HW232403   6.290   6.316   1.053
10502SOL     OW32404   5.893   5.649   0.618
10502SOL    HW132405   5.882   5.743   0.651
10502SOL    HW232406   5.888   5.586   0.695
10503SOL     OW32407   7.208   5.953   0.374
10503SOL    HW132408   7.210   5.877   0.438
10503SOL    HW232409   7.160   6.030   0.414
10504SOL     OW32410   6.609   6.352   0.966
10504SOL    HW132411   6.624   6.373   1.062
10504SOL    HW232412   6.579   6.257   0.957
10505SOL     OW32413   5.936   6.484   1.804
10505SOL    HW132414   6.012   6.528   1.852
10505SOL    HW232415   5.971   6.437   1.722
10506SOL     OW32416   6.889   6.424   0.042
10506SOL    HW132417   6.923   6.331   0.057
10506SOL    HW232418   6.907   6.451  -0.053
10507SOL     OW32419   5.905   6.396   0.949
10507SOL    HW132420   5.998   6.432   0.954
10507SOL    HW232421   5.899   6.311   1.001
10508SOL     OW32422   5.925   6.095   1.006
10508SOL    HW132423   5.873   6.012   0.989
10508SOL    HW232424   6.002   6.100   0.942
10509SOL     OW32425   6.724   5.966   1.678
10509SOL    HW132426   6.679   6.029   1.742
10509SOL    HW232427   6.817   5.997   1.661
10510SOL     OW32428   6.746   5.793   1.477
10510SOL    HW132429   6.746   5.857   1.554
10510SOL    HW232430   6.774   5.841   1.394
10511SOL     OW32431   6.588   6.382   1.238
10511SOL    HW132432   6.629   6.350   1.324
10511SOL    HW232433   6.492   6.355   1.235
10512SOL     OW32434   5.626   6.130   1.114
10512SOL    HW132435   5.711   6.097   1.073
10512SOL    HW232436   5.639   6.145   1.212
10513SOL     OW32437   5.775   6.106   1.722
10513SOL    HW132438   5.834   6.066   1.652
10513SOL    HW232439   5.717   6.177   1.681
10514SOL     OW32440   6.401   6.158   0.325
10514SOL    HW132441   6.408   6.069   0.279
10514SOL    HW232442   6.307   6.192   0.317
10515SOL     OW32443   6.257   6.050   1.269
10515SOL    HW132444   6.223   5.961   1.239
10515SOL    HW232445   6.283   6.104   1.189
10516SOL     OW32446   6.059   6.086   0.191
10516SOL    HW132447   6.120   6.166   0.195
10516SOL    HW232448   5.964   6.117   0.198
10517SOL     OW32449   5.745   6.723   1.466
10517SOL    HW132450   5.767   6.662   1.542
10517SOL    HW232451   5.755   6.674   1.380
10518SOL     OW32452   6.933   6.645   1.234
10518SOL    HW132453   6.957   6.582   1.160
10518SOL    HW232454   6.843   6.685   1.216
10519SOL     OW32455   6.888   6.441   0.309
10519SOL    HW132456   6.802   6.410   0.351
10519SOL    HW232457   6.884   6.427   0.210
10520SOL     OW32458   5.669   6.844   1.022
10520SOL    HW132459   5.664   6.843   1.122
10520SOL    HW232460   5.586   6.803   0.984
10521SOL     OW32461   6.489   5.672   0.133
10521SOL    HW132462   6.540   5.673   0.047
10521SOL    HW232463   6.545   5.630   0.204
10522SOL     OW32464   6.866   6.513   0.672
10522SOL    HW132465   6.926   6.432   0.674
10522SOL    HW232466   6.906   6.582   0.612
10523SOL     OW32467   6.416   6.859   1.422
10523SOL    HW132468   6.411   6.892   1.517
10523SOL    HW232469   6.330   6.878   1.376
10524SOL     OW32470   5.849   5.912   0.720
10524SOL    HW132471   5.770   5.963   0.686
10524SOL    HW232472   5.840   5.897   0.818
10525SOL     OW32473   6.408   6.588   1.372
10525SOL    HW132474   6.448   6.587   1.280
10525SOL    HW232475   6.418   6.680   1.412
10526SOL     OW32476   6.502   6.496   0.291
10526SOL    HW132477   6.565   6.534   0.223
10526SOL    HW232478   6.542   6.413   0.330
10527SOL     OW32479   5.958   6.874   1.490
10527SOL    HW132480   5.945   6.967   1.456
10527SOL    HW232481   5.874   6.822   1.477
10528SOL     OW32482   6.625   6.684   0.696
10528SOL    HW132483   6.555   6.637   0.750
10528SOL    HW232484   6.684   6.616   0.653
10529SOL     OW32485   6.600   5.822   0.971
10529SOL    HW132486   6.592   5.786   0.878
10529SOL    HW232487   6.598   5.746   1.036
10530SOL     OW32488   5.691   6.599   1.726
10530SOL    HW132489   5.614   6.566   1.780
10530SOL    HW232490   5.776   6.569   1.768
10531SOL     OW32491   6.258   5.789   1.489
10531SOL    HW132492   6.348   5.773   1.449
10531SOL    HW232493   6.266   5.794   1.588
10532SOL     OW32494   5.661   5.931   0.033
10532SOL    HW132495   5.569   5.903   0.004
10532SOL    HW232496   5.692   6.008  -0.023
10533SOL     OW32497   5.658   5.752   0.318
10533SOL    HW132498   5.641   5.835   0.264
10533SOL    HW232499   5.748   5.715   0.296
10534SOL     OW32500   6.199   6.428   1.431
10534SOL    HW132501   6.255   6.509   1.414
10534SOL    HW232502   6.258   6.348   1.434
10535SOL     OW32503   6.302   6.151   1.708
10535SOL    HW132504   6.321   6.216   1.782
10535SOL    HW232505   6.362   6.071   1.717
10536SOL     OW32506   7.036   6.806   1.633
10536SOL    HW132507   7.027   6.796   1.732
10536SOL    HW232508   7.132   6.799   1.607
10537SOL     OW32509   6.811   5.911   0.449
10537SOL    HW132510   6.876   5.837   0.438
10537SOL    HW232511   6.831   5.961   0.533
10538SOL     OW32512   6.180   6.331   0.652
10538SOL    HW132513   6.230   6.416   0.633
10538SOL    HW232514   6.092   6.333   0.604
10539SOL     OW32515   6.445   6.542   0.861
10539SOL    HW132516   6.499   6.473   0.909
10539SOL    HW232517   6.413   6.611   0.927
10540SOL     OW32518   6.669   6.570   0.087
10540SOL    HW132519   6.646   6.623   0.005
10540SOL    HW232520   6.750   6.514   0.068
10541SOL     OW32521   5.807   6.900   1.844
10541SOL    HW132522   5.742   6.827   1.823
10541SOL    HW232523   5.811   6.914   1.942
10542SOL     OW32524   5.665   6.826   0.653
10542SOL    HW132525   5.664   6.779   0.741
10542SOL    HW232526   5.747   6.798   0.602
10543SOL     OW32527   6.258   6.977   1.624
10543SOL    HW132528   6.180   6.927   1.662
10543SOL    HW232529   6.255   7.072   1.655
10544SOL     OW32530   6.014   6.010   0.520
10544SOL    HW132531   6.044   5.938   0.458
10544SOL    HW232532   5.975   5.970   0.603
10545SOL     OW32533   5.903   6.133   1.280
10545SOL    HW132534   5.941   6.074   1.352
10545SOL    HW232535   5.943   6.107   1.192
10546SOL     OW32536   7.010   5.800   1.112
10546SOL    HW132537   7.062   5.735   1.167
10546SOL    HW232538   6.961   5.863   1.173
10547SOL     OW32539   6.587   5.620   1.154
10547SOL    HW132540   6.524   5.548   1.123
10547SOL    HW232541   6.680   5.584   1.154
10548SOL     OW32542   6.356   6.916   0.301
10548SOL    HW132543   6.310   6.829   0.318
10548SOL    HW232544   6.447   6.913   0.342
10549SOL     OW32545   5.625   6.663   0.300
10549SOL    HW132546   5.724   6.652   0.291
10549SOL    HW232547   5.585   6.577   0.332
10550SOL     OW32548   5.816   6.214   1.975
10550SOL    HW132549   5.723   6.212   2.012
10550SOL    HW232550   5.817   6.175   1.883
10551SOL     OW32551   5.811   5.861   2.858
10551SOL    HW132552   5.846   5.844   2.950
10551SOL    HW232553   5.723   5.816   2.846
10552SOL     OW32554   5.605   5.954   2.509
10552SOL    HW132555   5.523   5.997   2.548
10552SOL    HW232556   5.577   5.881   2.446
10553SOL     OW32557   6.155   6.861   3.027
10553SOL    HW132558   6.062   6.854   2.990
10553SOL    HW232559   6.166   6.950   3.071
10554SOL     OW32560   7.141   7.097   2.565
10554SOL    HW132561   7.084   7.081   2.646
10554SOL    HW232562   7.082   7.107   2.485
10555SOL     OW32563   6.721   6.289   2.579
10555SOL    HW132564   6.778   6.367   2.554
10555SOL    HW232565   6.661   6.315   2.655
10556SOL     OW32566   6.354   6.730   2.885
10556SOL    HW132567   6.276   6.747   2.945
10556SOL    HW232568   6.388   6.817   2.849
10557SOL     OW32569   6.436   6.384   3.685
10557SOL    HW132570   6.432   6.460   3.750
10557SOL    HW232571   6.458   6.420   3.594
10558SOL     OW32572   6.271   6.598   2.527
10558SOL    HW132573   6.340   6.582   2.597
10558SOL    HW232574   6.198   6.655   2.565
10559SOL     OW32575   6.272   6.747   3.665
10559SOL    HW132576   6.332   6.826   3.679
10559SOL    HW232577   6.186   6.778   3.624
10560SOL     OW32578   5.921   7.021   2.923
10560SOL    HW132579   5.843   6.990   2.870
10560SOL    HW232580   5.979   7.079   2.866
10561SOL     OW32581   6.024   5.978   3.361
10561SOL    HW132582   6.106   5.922   3.370
10561SOL    HW232583   5.943   5.920   3.365
10562SOL     OW32584   5.826   6.677   2.748
10562SOL    HW132585   5.840   6.593   2.800
10562SOL    HW232586   5.771   6.741   2.803
10563SOL     OW32587   6.192   6.550   1.985
10563SOL    HW132588   6.199   6.634   1.931
10563SOL    HW232589   6.238   6.563   2.073
10564SOL     OW32590   5.708   6.229   2.425
10564SOL    HW132591   5.663   6.141   2.442
10564SOL    HW232592   5.707   6.283   2.509
10565SOL     OW32593   5.699   6.323   3.459
10565SOL    HW132594   5.787   6.310   3.504
10565SOL    HW232595   5.686   6.420   3.437
10566SOL     OW32596   6.879   6.814   3.285
10566SOL    HW132597   6.916   6.741   3.227
10566SOL    HW232598   6.931   6.819   3.370
10567SOL     OW32599   6.395   5.590   2.364
10567SOL    HW132600   6.435   5.681   2.355
10567SOL    HW232601   6.295   5.598   2.370
10568SOL     OW32602   5.783   6.562   3.126
10568SOL    HW132603   5.872   6.517   3.112
10568SOL    HW232604   5.710   6.497   3.107
10569SOL     OW32605   5.903   5.837   3.663
10569SOL    HW132606   5.974   5.908   3.669
10569SOL    HW232607   5.815   5.876   3.691
10570SOL     OW32608   6.184   6.315   2.132
10570SOL    HW132609   6.208   6.384   2.064
10570SOL    HW232610   6.106   6.348   2.186
10571SOL     OW32611   6.867   5.931   2.806
10571SOL    HW132612   6.781   5.881   2.793
10571SOL    HW232613   6.929   5.877   2.862
10572SOL     OW32614   6.393   6.191   3.327
10572SOL    HW132615   6.346   6.188   3.416
10572SOL    HW232616   6.342   6.136   3.261
10573SOL     OW32617   6.980   6.055   3.536
10573SOL    HW132618   6.960   6.098   3.624
10573SOL    HW232619   7.058   5.993   3.545
10574SOL     OW32620   6.559   6.476   3.434
10574SOL    HW132621   6.605   6.392   3.405
10574SOL    HW232622   6.503   6.510   3.359
10575SOL     OW32623   6.577   5.996   3.104
10575SOL    HW132624   6.500   6.030   3.158
10575SOL    HW232625   6.543   5.945   3.025
10576SOL     OW32626   6.627   6.287   2.291
10576SOL    HW132627   6.653   6.283   2.387
10576SOL    HW232628   6.542   6.236   2.277
10577SOL     OW32629   5.662   6.397   2.651
10577SOL    HW132630   5.761   6.385   2.660
10577SOL    HW232631   5.638   6.492   2.672
10578SOL     OW32632   6.451   5.934   2.057
10578SOL    HW132633   6.510   5.997   2.008
10578SOL    HW232634   6.470   5.840   2.028
10579SOL     OW32635   6.948   6.730   2.407
10579SOL    HW132636   7.031   6.701   2.359
10579SOL    HW232637   6.899   6.797   2.351
10580SOL     OW32638   6.136   5.782   2.747
10580SOL    HW132639   6.131   5.777   2.847
10580SOL    HW232640   6.138   5.878   2.718
10581SOL     OW32641   5.907   6.529   2.104
10581SOL    HW132642   5.989   6.568   2.062
10581SOL    HW232643   5.880   6.447   2.055
10582SOL     OW32644   5.788   5.871   3.360
10582SOL    HW132645   5.708   5.931   3.347
10582SOL    HW232646   5.778   5.822   3.446
10583SOL     OW32647   5.968   6.286   2.342
10583SOL    HW132648   6.013   6.196   2.339
10583SOL    HW232649   5.874   6.275   2.375
10584SOL     OW32650   6.200   5.708   1.979
10584SOL    HW132651   6.298   5.686   1.986
10584SOL    HW232652   6.169   5.691   1.886
10585SOL     OW32653   6.367   5.850   3.611
10585SOL    HW132654   6.434   5.789   3.654
10585SOL    HW232655   6.294   5.869   3.676
10586SOL     OW32656   6.508   6.089   2.761
10586SOL    HW132657   6.483   6.080   2.665
10586SOL    HW232658   6.556   6.007   2.792
10587SOL     OW32659   6.125   5.650   2.374
10587SOL    HW132660   6.044   5.651   2.432
10587SOL    HW232661   6.128   5.733   2.319
10588SOL     OW32662   7.020   6.774   1.903
10588SOL    HW132663   7.052   6.698   1.960
10588SOL    HW232664   6.928   6.801   1.933
10589SOL     OW32665   5.883   5.621   2.033
10589SOL    HW132666   5.932   5.705   2.012
10589SOL    HW232667   5.945   5.556   2.078
10590SOL     OW32668   6.521   5.822   2.342
10590SOL    HW132669   6.473   5.863   2.264
10590SOL    HW232670   6.620   5.820   2.323
10591SOL     OW32671   6.662   6.269   3.326
10591SOL    HW132672   6.582   6.208   3.329
10591SOL    HW232673   6.743   6.216   3.302
10592SOL     OW32674   6.813   7.156   2.655
10592SOL    HW132675   6.834   7.230   2.590
10592SOL    HW232676   6.881   7.156   2.728
10593SOL     OW32677   6.045   6.738   2.603
10593SOL    HW132678   5.974   6.711   2.668
10593SOL    HW232679   6.019   6.710   2.510
10594SOL     OW32680   6.618   6.135   1.878
10594SOL    HW132681   6.577   6.217   1.839
10594SOL    HW232682   6.682   6.161   1.951
10595SOL     OW32683   5.664   6.142   3.248
10595SOL    HW132684   5.756   6.141   3.207
10595SOL    HW232685   5.658   6.216   3.315
10596SOL     OW32686   6.147   5.808   3.009
10596SOL    HW132687   6.185   5.724   3.046
10596SOL    HW232688   6.059   5.827   3.053
10597SOL     OW32689   6.452   6.040   2.504
10597SOL    HW132690   6.420   6.112   2.442
10597SOL    HW232691   6.476   5.959   2.451
10598SOL     OW32692   6.603   5.625   2.615
10598SOL    HW132693   6.531   5.630   2.546
10598SOL    HW232694   6.579   5.556   2.684
10599SOL     OW32695   6.113   5.842   2.190
10599SOL    HW132696   6.140   5.783   2.115
10599SOL    HW232697   6.113   5.937   2.159
10600SOL     OW32698   6.650   6.933   3.202
10600SOL    HW132699   6.570   6.910   3.257
10600SOL    HW232700   6.733   6.907   3.251
10601SOL     OW32701   6.697   6.781   2.962
10601SOL    HW132702   6.657   6.825   3.043
10601SOL    HW232703   6.656   6.818   2.879
10602SOL     OW32704   6.501   5.675   3.264
10602SOL    HW132705   6.526   5.655   3.169
10602SOL    HW232706   6.573   5.731   3.306
10603SOL     OW32707   6.566   6.702   3.581
10603SOL    HW132708   6.467   6.708   3.591
10603SOL    HW232709   6.589   6.622   3.525
10604SOL     OW32710   6.291   6.636   2.230
10604SOL    HW132711   6.277   6.643   2.329
10604SOL    HW232712   6.375   6.585   2.212
10605SOL     OW32713   5.996   6.399   3.113
10605SOL    HW132714   6.082   6.411   3.163
10605SOL    HW232715   5.954   6.312   3.140
10606SOL     OW32716   6.860   5.972   3.124
10606SOL    HW132717   6.881   6.046   3.188
10606SOL    HW232718   6.771   5.989   3.081
10607SOL     OW32719   5.953   6.686   2.363
10607SOL    HW132720   5.946   6.769   2.307
10607SOL    HW232721   5.957   6.606   2.303
10608SOL     OW32722   6.152   6.123   2.727
10608SOL    HW132723   6.164   6.189   2.653
10608SOL    HW232724   6.198   6.157   2.810
10609SOL     OW32725   6.838   6.934   2.250
10609SOL    HW132726   6.888   7.011   2.290
10609SOL    HW232727   6.743   6.936   2.282
10610SOL     OW32728   5.988   6.337   3.460
10610SOL    HW132729   6.056   6.392   3.413
10610SOL    HW232730   6.028   6.249   3.487
10611SOL     OW32731   6.599   5.691   3.632
10611SOL    HW132732   6.605   5.776   3.580
10611SOL    HW232733   6.631   5.615   3.575
10612SOL     OW32734   6.090   5.636   3.602
10612SOL    HW132735   6.048   5.579   3.532
10612SOL    HW232736   6.024   5.705   3.634
10613SOL     OW32737   6.159   6.456   2.891
10613SOL    HW132738   6.203   6.545   2.882
10613SOL    HW232739   6.096   6.456   2.968
10614SOL     OW32740   6.946   6.448   2.907
10614SOL    HW132741   6.871   6.448   2.841
10614SOL    HW232742   6.983   6.356   2.916
10615SOL     OW32743   6.795   6.111   2.137
10615SOL    HW132744   6.808   6.027   2.191
10615SOL    HW232745   6.766   6.185   2.197
10616SOL     OW32746   5.893   5.799   3.093
10616SOL    HW132747   5.870   5.836   3.183
10616SOL    HW232748   5.863   5.704   3.087
10617SOL     OW32749   5.623   6.896   3.144
10617SOL    HW132750   5.676   6.847   3.212
10617SOL    HW232751   5.645   6.994   3.149
10618SOL     OW32752   6.318   6.220   2.926
10618SOL    HW132753   6.377   6.194   2.850
10618SOL    HW232754   6.290   6.316   2.915
10619SOL     OW32755   5.893   5.649   2.480
10619SOL    HW132756   5.882   5.743   2.513
10619SOL    HW232757   5.888   5.586   2.557
10620SOL     OW32758   7.208   5.953   2.236
10620SOL    HW132759   7.210   5.877   2.300
10620SOL    HW232760   7.160   6.030   2.276
10621SOL     OW32761   6.609   6.352   2.828
10621SOL    HW132762   6.624   6.373   2.924
10621SOL    HW232763   6.579   6.257   2.819
10622SOL     OW32764   5.936   6.484   3.666
10622SOL    HW132765   6.012   6.528   3.714
10622SOL    HW232766   5.971   6.437   3.584
10623SOL     OW32767   6.889   6.424   1.904
10623SOL    HW132768   6.923   6.331   1.919
10623SOL    HW232769   6.907   6.451   1.809
10624SOL     OW32770   5.905   6.396   2.811
10624SOL    HW132771   5.998   6.432   2.816
10624SOL    HW232772   5.899   6.311   2.863
10625SOL     OW32773   5.925   6.095   2.868
10625SOL    HW132774   5.873   6.012   2.851
10625SOL    HW232775   6.002   6.100   2.804
10626SOL     OW32776   6.724   5.966   3.540
10626SOL    HW132777   6.679   6.029   3.604
10626SOL    HW232778   6.817   5.997   3.523
10627SOL     OW32779   6.746   5.793   3.339
10627SOL    HW132780   6.746   5.857   3.416
10627SOL    HW232781   6.774   5.841   3.256
10628SOL     OW32782   5.594   6.912   2.062
10628SOL    HW132783   5.501   6.933   2.031
10628SOL    HW232784   5.604   6.813   2.075
10629SOL     OW32785   6.588   6.382   3.100
10629SOL    HW132786   6.629   6.350   3.186
10629SOL    HW232787   6.492   6.355   3.097
10630SOL     OW32788   5.626   6.130   2.976
10630SOL    HW132789   5.711   6.097   2.935
10630SOL    HW232790   5.639   6.145   3.074
10631SOL     OW32791   5.775   6.106   3.584
10631SOL    HW132792   5.834   6.066   3.514
10631SOL    HW232793   5.717   6.177   3.543
10632SOL     OW32794   6.401   6.158   2.187
10632SOL    HW132795   6.408   6.069   2.141
10632SOL    HW232796   6.307   6.192   2.179
10633SOL     OW32797   6.257   6.050   3.131
10633SOL    HW132798   6.223   5.961   3.101
10633SOL    HW232799   6.283   6.104   3.051
10634SOL     OW32800   6.059   6.086   2.053
10634SOL    HW132801   6.120   6.166   2.057
10634SOL    HW232802   5.964   6.117   2.060
10635SOL     OW32803   5.745   6.723   3.328
10635SOL    HW132804   5.767   6.662   3.404
10635SOL    HW232805   5.755   6.674   3.242
10636SOL     OW32806   6.933   6.645   3.096
10636SOL    HW132807   6.957   6.582   3.022
10636SOL    HW232808   6.843   6.685   3.078
10637SOL     OW32809   6.888   6.441   2.171
10637SOL    HW132810   6.802   6.410   2.213
10637SOL    HW232811   6.884   6.427   2.072
10638SOL     OW32812   5.669   6.844   2.884
10638SOL    HW132813   5.664   6.843   2.984
10638SOL    HW232814   5.586   6.803   2.846
10639SOL     OW32815   6.866   6.513   2.534
10639SOL    HW132816   6.926   6.432   2.536
10639SOL    HW232817   6.906   6.582   2.474
10640SOL     OW32818   6.416   6.859   3.284
10640SOL    HW132819   6.411   6.892   3.379
10640SOL    HW232820   6.330   6.878   3.238
10641SOL     OW32821   5.849   5.912   2.582
10641SOL    HW132822   5.770   5.963   2.548
10641SOL    HW232823   5.840   5.897   2.680
10642SOL     OW32824   6.780   7.198   1.893
10642SOL    HW132825   6.786   7.105   1.930
10642SOL    HW232826   6.721   7.198   1.813
10643SOL     OW32827   6.408   6.588   3.234
10643SOL    HW132828   6.448   6.587   3.142
10643SOL    HW232829   6.418   6.680   3.274
10644SOL     OW32830   6.502   6.496   2.153
10644SOL    HW132831   6.565   6.534   2.085
10644SOL    HW232832   6.542   6.413   2.192
10645SOL     OW32833   5.958   6.874   3.352
10645SOL    HW132834   5.945   6.967   3.318
10645SOL    HW232835   5.874   6.822   3.339
10646SOL     OW32836   6.625   6.684   2.558
10646SOL    HW132837   6.555   6.637   2.612
10646SOL    HW232838   6.684   6.616   2.515
10647SOL     OW32839   6.600   5.822   2.833
10647SOL    HW132840   6.592   5.786   2.740
10647SOL    HW232841   6.598   5.746   2.898
10648SOL     OW32842   5.691   6.599   3.588
10648SOL    HW132843   5.614   6.566   3.642
10648SOL    HW232844   5.776   6.569   3.630
10649SOL     OW32845   6.258   5.789   3.351
10649SOL    HW132846   6.348   5.773   3.311
10649SOL    HW232847   6.266   5.794   3.450
10650SOL     OW32848   5.661   5.931   1.895
10650SOL    HW132849   5.569   5.903   1.866
10650SOL    HW232850   5.692   6.008   1.839
10651SOL     OW32851   5.658   5.752   2.180
10651SOL    HW132852   5.641   5.835   2.126
10651SOL    HW232853   5.748   5.715   2.158
10652SOL     OW32854   6.199   6.428   3.293
10652SOL    HW132855   6.255   6.509   3.276
10652SOL    HW232856   6.258   6.348   3.296
10653SOL     OW32857   6.302   6.151   3.570
10653SOL    HW132858   6.321   6.216   3.644
10653SOL    HW232859   6.362   6.071   3.579
10654SOL     OW32860   7.036   6.806   3.495
10654SOL    HW132861   7.027   6.796   3.594
10654SOL    HW232862   7.132   6.799   3.469
10655SOL     OW32863   6.811   5.911   2.311
10655SOL    HW132864   6.876   5.837   2.300
10655SOL    HW232865   6.831   5.961   2.395
10656SOL     OW32866   6.180   6.331   2.514
10656SOL    HW132867   6.230   6.416   2.495
10656SOL    HW232868   6.092   6.333   2.466
10657SOL     OW32869   6.445   6.542   2.723
10657SOL    HW132870   6.499   6.473   2.771
10657SOL    HW232871   6.413   6.611   2.789
10658SOL     OW32872   6.669   6.570   1.949
10658SOL    HW132873   6.646   6.623   1.867
10658SOL    HW232874   6.750   6.514   1.930
10659SOL     OW32875   5.807   6.900   3.706
10659SOL    HW132876   5.742   6.827   3.685
10659SOL    HW232877   5.811   6.914   3.804
10660SOL     OW32878   5.665   6.826   2.515
10660SOL    HW132879   5.664   6.779   2.603
10660SOL    HW232880   5.747   6.798   2.464
10661SOL     OW32881   6.258   6.977   3.486
10661SOL    HW132882   6.180   6.927   3.524
10661SOL    HW232883   6.255   7.072   3.517
10662SOL     OW32884   6.014   6.010   2.382
10662SOL    HW132885   6.044   5.938   2.320
10662SOL    HW232886   5.975   5.970   2.465
10663SOL     OW32887   5.903   6.133   3.142
10663SOL    HW132888   5.941   6.074   3.214
10663SOL    HW232889   5.943   6.107   3.054
10664SOL     OW32890   7.010   5.800   2.974
10664SOL    HW132891   7.062   5.735   3.029
10664SOL    HW232892   6.961   5.863   3.035
10665SOL     OW32893   6.587   5.620   3.016
10665SOL    HW132894   6.524   5.548   2.985
10665SOL    HW232895   6.680   5.584   3.016
10666SOL     OW32896   6.356   6.916   2.163
10666SOL    HW132897   6.310   6.829   2.180
10666SOL    HW232898   6.447   6.913   2.204
10667SOL     OW32899   6.938   5.638   2.030
10667SOL    HW132900   6.973   5.597   1.946
10667SOL    HW232901   6.848   5.600   2.050
10668SOL     OW32902   5.625   6.663   2.162
10668SOL    HW132903   5.724   6.652   2.153
10668SOL    HW232904   5.585   6.577   2.194
10669SOL     OW32905   5.816   6.214   3.837
10669SOL    HW132906   5.723   6.212   3.874
10669SOL    HW232907   5.817   6.175   3.745
10670SOL     OW32908   5.811   5.861   4.720
10670SOL    HW132909   5.846   5.844   4.812
10670SOL    HW232910   5.723   5.816   4.708
10671SOL     OW32911   5.605   5.954   4.371
10671SOL    HW132912   5.523   5.997   4.410
10671SOL    HW232913   5.577   5.881   4.308
10672SOL     OW32914   6.155   6.861   4.889
10672SOL    HW132915   6.062   6.854   4.852
10672SOL    HW232916   6.166   6.950   4.933
10673SOL     OW32917   7.141   7.097   4.427
10673SOL    HW132918   7.084   7.081   4.508
10673SOL    HW232919   7.082   7.107   4.347
10674SOL     OW32920   6.721   6.289   4.441
10674SOL    HW132921   6.778   6.367   4.416
10674SOL    HW232922   6.661   6.315   4.517
10675SOL     OW32923   6.354   6.730   4.747
10675SOL    HW132924   6.276   6.747   4.807
10675SOL    HW232925   6.388   6.817   4.711
10676SOL     OW32926   6.436   6.384   5.547
10676SOL    HW132927   6.432   6.460   5.612
10676SOL    HW232928   6.458   6.420   5.456
10677SOL     OW32929   6.271   6.598   4.389
10677SOL    HW132930   6.340   6.582   4.459
10677SOL    HW232931   6.198   6.655   4.427
10678SOL     OW32932   6.272   6.747   5.527
10678SOL    HW132933   6.332   6.826   5.541
10678SOL    HW232934   6.186   6.778   5.486
10679SOL     OW32935   5.921   7.021   4.785
10679SOL    HW132936   5.843   6.990   4.732
10679SOL    HW232937   5.979   7.079   4.728
10680SOL     OW32938   6.024   5.978   5.223
10680SOL    HW132939   6.106   5.922   5.232
10680SOL    HW232940   5.943   5.920   5.227
10681SOL     OW32941   5.826   6.677   4.610
10681SOL    HW132942   5.840   6.593   4.662
10681SOL    HW232943   5.771   6.741   4.665
10682SOL     OW32944   6.192   6.550   3.847
10682SOL    HW132945   6.199   6.634   3.793
10682SOL    HW232946   6.238   6.563   3.935
10683SOL     OW32947   5.708   6.229   4.287
10683SOL    HW132948   5.663   6.141   4.304
10683SOL    HW232949   5.707   6.283   4.371
10684SOL     OW32950   5.699   6.323   5.321
10684SOL    HW132951   5.787   6.310   5.366
10684SOL    HW232952   5.686   6.420   5.299
10685SOL     OW32953   6.879   6.814   5.147
10685SOL    HW132954   6.916   6.741   5.089
10685SOL    HW232955   6.931   6.819   5.232
10686SOL     OW32956   6.395   5.590   4.226
10686SOL    HW132957   6.435   5.681   4.217
10686SOL    HW232958   6.295   5.598   4.232
10687SOL     OW32959   5.783   6.562   4.988
10687SOL    HW132960   5.872   6.517   4.974
10687SOL    HW232961   5.710   6.497   4.969
10688SOL     OW32962   5.903   5.837   5.525
10688SOL    HW132963   5.974   5.908   5.531
10688SOL    HW232964   5.815   5.876   5.553
10689SOL     OW32965   6.184   6.315   3.994
10689SOL    HW132966   6.208   6.384   3.926
10689SOL    HW232967   6.106   6.348   4.048
10690SOL     OW32968   6.867   5.931   4.668
10690SOL    HW132969   6.781   5.881   4.655
10690SOL    HW232970   6.929   5.877   4.724
10691SOL     OW32971   6.393   6.191   5.189
10691SOL    HW132972   6.346   6.188   5.278
10691SOL    HW232973   6.342   6.136   5.123
10692SOL     OW32974   6.980   6.055   5.398
10692SOL    HW132975   6.960   6.098   5.486
10692SOL    HW232976   7.058   5.993   5.407
10693SOL     OW32977   6.559   6.476   5.296
10693SOL    HW132978   6.605   6.392   5.267
10693SOL    HW232979   6.503   6.510   5.221
10694SOL     OW32980   6.577   5.996   4.966
10694SOL    HW132981   6.500   6.030   5.020
10694SOL    HW232982   6.543   5.945   4.887
10695SOL     OW32983   6.627   6.287   4.153
10695SOL    HW132984   6.653   6.283   4.249
10695SOL    HW232985   6.542   6.236   4.139
10696SOL     OW32986   5.662   6.397   4.513
10696SOL    HW132987   5.761   6.385   4.522
10696SOL    HW232988   5.638   6.492   4.534
10697SOL     OW32989   6.451   5.934   3.919
10697SOL    HW132990   6.510   5.997   3.870
10697SOL    HW232991   6.470   5.840   3.890
10698SOL     OW32992   6.948   6.730   4.269
10698SOL    HW132993   7.031   6.701   4.221
10698SOL    HW232994   6.899   6.797   4.213
10699SOL     OW32995   6.136   5.782   4.609
10699SOL    HW132996   6.131   5.777   4.709
10699SOL    HW232997   6.138   5.878   4.580
10700SOL     OW32998   5.907   6.529   3.966
10700SOL    HW132999   5.989   6.568   3.924
10700SOL    HW233000   5.880   6.447   3.917
10701SOL     OW33001   5.788   5.871   5.222
10701SOL    HW133002   5.708   5.931   5.209
10701SOL    HW233003   5.778   5.822   5.308
10702SOL     OW33004   5.968   6.286   4.204
10702SOL    HW133005   6.013   6.196   4.201
10702SOL    HW233006   5.874   6.275   4.237
10703SOL     OW33007   6.200   5.708   3.841
10703SOL    HW133008   6.298   5.686   3.848
10703SOL    HW233009   6.169   5.691   3.748
10704SOL     OW33010   6.367   5.850   5.473
10704SOL    HW133011   6.434   5.789   5.516
10704SOL    HW233012   6.294   5.869   5.538
10705SOL     OW33013   6.508   6.089   4.623
10705SOL    HW133014   6.483   6.080   4.527
10705SOL    HW233015   6.556   6.007   4.654
10706SOL     OW33016   6.125   5.650   4.236
10706SOL    HW133017   6.044   5.651   4.294
10706SOL    HW233018   6.128   5.733   4.181
10707SOL     OW33019   7.020   6.774   3.765
10707SOL    HW133020   7.052   6.698   3.822
10707SOL    HW233021   6.928   6.801   3.795
10708SOL     OW33022   5.883   5.621   3.895
10708SOL    HW133023   5.932   5.705   3.874
10708SOL    HW233024   5.945   5.556   3.940
10709SOL     OW33025   6.521   5.822   4.204
10709SOL    HW133026   6.473   5.863   4.126
10709SOL    HW233027   6.620   5.820   4.185
10710SOL     OW33028   6.662   6.269   5.188
10710SOL    HW133029   6.582   6.208   5.191
10710SOL    HW233030   6.743   6.216   5.164
10711SOL     OW33031   6.813   7.156   4.517
10711SOL    HW133032   6.834   7.230   4.452
10711SOL    HW233033   6.881   7.156   4.590
10712SOL     OW33034   6.045   6.738   4.465
10712SOL    HW133035   5.974   6.711   4.530
10712SOL    HW233036   6.019   6.710   4.372
10713SOL     OW33037   6.618   6.135   3.740
10713SOL    HW133038   6.577   6.217   3.701
10713SOL    HW233039   6.682   6.161   3.813
10714SOL     OW33040   5.664   6.142   5.110
10714SOL    HW133041   5.756   6.141   5.069
10714SOL    HW233042   5.658   6.216   5.177
10715SOL     OW33043   6.147   5.808   4.871
10715SOL    HW133044   6.185   5.724   4.908
10715SOL    HW233045   6.059   5.827   4.915
10716SOL     OW33046   6.452   6.040   4.366
10716SOL    HW133047   6.420   6.112   4.304
10716SOL    HW233048   6.476   5.959   4.313
10717SOL     OW33049   6.603   5.625   4.477
10717SOL    HW133050   6.531   5.630   4.408
10717SOL    HW233051   6.579   5.556   4.546
10718SOL     OW33052   6.113   5.842   4.052
10718SOL    HW133053   6.140   5.783   3.977
10718SOL    HW233054   6.113   5.937   4.021
10719SOL     OW33055   6.650   6.933   5.064
10719SOL    HW133056   6.570   6.910   5.119
10719SOL    HW233057   6.733   6.907   5.113
10720SOL     OW33058   6.697   6.781   4.824
10720SOL    HW133059   6.657   6.825   4.905
10720SOL    HW233060   6.656   6.818   4.741
10721SOL     OW33061   6.501   5.675   5.126
10721SOL    HW133062   6.526   5.655   5.031
10721SOL    HW233063   6.573   5.731   5.168
10722SOL     OW33064   6.566   6.702   5.443
10722SOL    HW133065   6.467   6.708   5.453
10722SOL    HW233066   6.589   6.622   5.387
10723SOL     OW33067   6.291   6.636   4.092
10723SOL    HW133068   6.277   6.643   4.191
10723SOL    HW233069   6.375   6.585   4.074
10724SOL     OW33070   5.996   6.399   4.975
10724SOL    HW133071   6.082   6.411   5.025
10724SOL    HW233072   5.954   6.312   5.002
10725SOL     OW33073   6.860   5.972   4.986
10725SOL    HW133074   6.881   6.046   5.050
10725SOL    HW233075   6.771   5.989   4.943
10726SOL     OW33076   5.953   6.686   4.225
10726SOL    HW133077   5.946   6.769   4.169
10726SOL    HW233078   5.957   6.606   4.165
10727SOL     OW33079   6.152   6.123   4.589
10727SOL    HW133080   6.164   6.189   4.515
10727SOL    HW233081   6.198   6.157   4.672
10728SOL     OW33082   6.838   6.934   4.112
10728SOL    HW133083   6.888   7.011   4.152
10728SOL    HW233084   6.743   6.936   4.144
10729SOL     OW33085   5.988   6.337   5.322
10729SOL    HW133086   6.056   6.392   5.275
10729SOL    HW233087   6.028   6.249   5.349
10730SOL     OW33088   6.599   5.691   5.494
10730SOL    HW133089   6.605   5.776   5.442
10730SOL    HW233090   6.631   5.615   5.437
10731SOL     OW33091   6.090   5.636   5.464
10731SOL    HW133092   6.048   5.579   5.394
10731SOL    HW233093   6.024   5.705   5.496
10732SOL     OW33094   6.159   6.456   4.753
10732SOL    HW133095   6.203   6.545   4.744
10732SOL    HW233096   6.096   6.456   4.830
10733SOL     OW33097   6.946   6.448   4.769
10733SOL    HW133098   6.871   6.448   4.703
10733SOL    HW233099   6.983   6.356   4.778
10734SOL     OW33100   6.795   6.111   3.999
10734SOL    HW133101   6.808   6.027   4.053
10734SOL    HW233102   6.766   6.185   4.059
10735SOL     OW33103   5.893   5.799   4.955
10735SOL    HW133104   5.870   5.836   5.045
10735SOL    HW233105   5.863   5.704   4.949
10736SOL     OW33106   5.623   6.896   5.006
10736SOL    HW133107   5.676   6.847   5.074
10736SOL    HW233108   5.645   6.994   5.011
10737SOL     OW33109   6.318   6.220   4.788
10737SOL    HW133110   6.377   6.194   4.712
10737SOL    HW233111   6.290   6.316   4.777
10738SOL     OW33112   5.893   5.649   4.342
10738SOL    HW133113   5.882   5.743   4.375
10738SOL    HW233114   5.888   5.586   4.419
10739SOL     OW33115   7.208   5.953   4.098
10739SOL    HW133116   7.210   5.877   4.162
10739SOL    HW233117   7.160   6.030   4.138
10740SOL     OW33118   6.609   6.352   4.690
10740SOL    HW133119   6.624   6.373   4.786
10740SOL    HW233120   6.579   6.257   4.681
10741SOL     OW33121   5.936   6.484   5.528
10741SOL    HW133122   6.012   6.528   5.576
10741SOL    HW233123   5.971   6.437   5.446
10742SOL     OW33124   6.889   6.424   3.766
10742SOL    HW133125   6.923   6.331   3.781
10742SOL    HW233126   6.907   6.451   3.671
10743SOL     OW33127   5.905   6.396   4.673
10743SOL    HW133128   5.998   6.432   4.678
10743SOL    HW233129   5.899   6.311   4.725
10744SOL     OW33130   5.925   6.095   4.730
10744SOL    HW133131   5.873   6.012   4.713
10744SOL    HW233132   6.002   6.100   4.666
10745SOL     OW33133   6.724   5.966   5.402
10745SOL    HW133134   6.679   6.029   5.466
10745SOL    HW233135   6.817   5.997   5.385
10746SOL     OW33136   6.746   5.793   5.201
10746SOL    HW133137   6.746   5.857   5.278
10746SOL    HW233138   6.774   5.841   5.118
10747SOL     OW33139   5.594   6.912   3.924
10747SOL    HW133140   5.501   6.933   3.893
10747SOL    HW233141   5.604   6.813   3.937
10748SOL     OW33142   6.588   6.382   4.962
10748SOL    HW133143   6.629   6.350   5.048
10748SOL    HW233144   6.492   6.355   4.959
10749SOL     OW33145   5.626   6.130   4.838
10749SOL    HW133146   5.711   6.097   4.797
10749SOL    HW233147   5.639   6.145   4.936
10750SOL     OW33148   5.775   6.106   5.446
10750SOL    HW133149   5.834   6.066   5.376
10750SOL    HW233150   5.717   6.177   5.405
10751SOL     OW33151   6.401   6.158   4.049
10751SOL    HW133152   6.408   6.069   4.003
10751SOL    HW233153   6.307   6.192   4.041
10752SOL     OW33154   6.257   6.050   4.993
10752SOL    HW133155   6.223   5.961   4.963
10752SOL    HW233156   6.283   6.104   4.913
10753SOL     OW33157   6.059   6.086   3.915
10753SOL    HW133158   6.120   6.166   3.919
10753SOL    HW233159   5.964   6.117   3.922
10754SOL     OW33160   5.745   6.723   5.190
10754SOL    HW133161   5.767   6.662   5.266
10754SOL    HW233162   5.755   6.674   5.104
10755SOL     OW33163   6.933   6.645   4.958
10755SOL    HW133164   6.957   6.582   4.884
10755SOL    HW233165   6.843   6.685   4.940
10756SOL     OW33166   6.888   6.441   4.033
10756SOL    HW133167   6.802   6.410   4.075
10756SOL    HW233168   6.884   6.427   3.934
10757SOL     OW33169   5.669   6.844   4.746
10757SOL    HW133170   5.664   6.843   4.846
10757SOL    HW233171   5.586   6.803   4.708
10758SOL     OW33172   6.866   6.513   4.396
10758SOL    HW133173   6.926   6.432   4.398
10758SOL    HW233174   6.906   6.582   4.336
10759SOL     OW33175   6.416   6.859   5.146
10759SOL    HW133176   6.411   6.892   5.241
10759SOL    HW233177   6.330   6.878   5.100
10760SOL     OW33178   5.849   5.912   4.444
10760SOL    HW133179   5.770   5.963   4.410
10760SOL    HW233180   5.840   5.897   4.542
10761SOL     OW33181   6.780   7.198   3.755
10761SOL    HW133182   6.786   7.105   3.792
10761SOL    HW233183   6.721   7.198   3.675
10762SOL     OW33184   6.408   6.588   5.096
10762SOL    HW133185   6.448   6.587   5.004
10762SOL    HW233186   6.418   6.680   5.136
10763SOL     OW33187   6.502   6.496   4.015
10763SOL    HW133188   6.565   6.534   3.947
10763SOL    HW233189   6.542   6.413   4.054
10764SOL     OW33190   5.958   6.874   5.214
10764SOL    HW133191   5.945   6.967   5.180
10764SOL    HW233192   5.874   6.822   5.201
10765SOL     OW33193   6.625   6.684   4.420
10765SOL    HW133194   6.555   6.637   4.474
10765SOL    HW233195   6.684   6.616   4.377
10766SOL     OW33196   6.600   5.822   4.695
10766SOL    HW133197   6.592   5.786   4.602
10766SOL    HW233198   6.598   5.746   4.760
10767SOL     OW33199   5.691   6.599   5.450
10767SOL    HW133200   5.614   6.566   5.504
10767SOL    HW233201   5.776   6.569   5.492
10768SOL     OW33202   6.258   5.789   5.213
10768SOL    HW133203   6.348   5.773   5.173
10768SOL    HW233204   6.266   5.794   5.312
10769SOL     OW33205   5.661   5.931   3.757
10769SOL    HW133206   5.569   5.903   3.728
10769SOL    HW233207   5.692   6.008   3.701
10770SOL     OW33208   5.658   5.752   4.042
10770SOL    HW133209   5.641   5.835   3.988
10770SOL    HW233210   5.748   5.715   4.020
10771SOL     OW33211   6.199   6.428   5.155
10771SOL    HW133212   6.255   6.509   5.138
10771SOL    HW233213   6.258   6.348   5.158
10772SOL     OW33214   6.302   6.151   5.432
10772SOL    HW133215   6.321   6.216   5.506
10772SOL    HW233216   6.362   6.071   5.441
10773SOL     OW33217   7.036   6.806   5.357
10773SOL    HW133218   7.027   6.796   5.456
10773SOL    HW233219   7.132   6.799   5.331
10774SOL     OW33220   6.811   5.911   4.173
10774SOL    HW133221   6.876   5.837   4.162
10774SOL    HW233222   6.831   5.961   4.257
10775SOL     OW33223   6.180   6.331   4.376
10775SOL    HW133224   6.230   6.416   4.357
10775SOL    HW233225   6.092   6.333   4.328
10776SOL     OW33226   6.445   6.542   4.585
10776SOL    HW133227   6.499   6.473   4.633
10776SOL    HW233228   6.413   6.611   4.651
10777SOL     OW33229   6.669   6.570   3.811
10777SOL    HW133230   6.646   6.623   3.729
10777SOL    HW233231   6.750   6.514   3.792
10778SOL     OW33232   5.807   6.900   5.568
10778SOL    HW133233   5.742   6.827   5.547
10778SOL    HW233234   5.811   6.914   5.666
10779SOL     OW33235   5.665   6.826   4.377
10779SOL    HW133236   5.664   6.779   4.465
10779SOL    HW233237   5.747   6.798   4.326
10780SOL     OW33238   6.258   6.977   5.348
10780SOL    HW133239   6.180   6.927   5.386
10780SOL    HW233240   6.255   7.072   5.379
10781SOL     OW33241   6.014   6.010   4.244
10781SOL    HW133242   6.044   5.938   4.182
10781SOL    HW233243   5.975   5.970   4.327
10782SOL     OW33244   5.903   6.133   5.004
10782SOL    HW133245   5.941   6.074   5.076
10782SOL    HW233246   5.943   6.107   4.916
10783SOL     OW33247   7.010   5.800   4.836
10783SOL    HW133248   7.062   5.735   4.891
10783SOL    HW233249   6.961   5.863   4.897
10784SOL     OW33250   6.587   5.620   4.878
10784SOL    HW133251   6.524   5.548   4.847
10784SOL    HW233252   6.680   5.584   4.878
10785SOL     OW33253   6.356   6.916   4.025
10785SOL    HW133254   6.310   6.829   4.042
10785SOL    HW233255   6.447   6.913   4.066
10786SOL     OW33256   6.938   5.638   3.892
10786SOL    HW133257   6.973   5.597   3.808
10786SOL    HW233258   6.848   5.600   3.912
10787SOL     OW33259   5.625   6.663   4.024
10787SOL    HW133260   5.724   6.652   4.015
10787SOL    HW233261   5.585   6.577   4.056
10788SOL     OW33262   5.816   6.214   5.699
10788SOL    HW133263   5.723   6.212   5.736
10788SOL    HW233264   5.817   6.175   5.607
10789SOL     OW33265   5.811   5.861   6.582
10789SOL    HW133266   5.846   5.844   6.674
10789SOL    HW233267   5.723   5.816   6.570
10790SOL     OW33268   5.605   5.954   6.233
10790SOL    HW133269   5.523   5.997   6.272
10790SOL    HW233270   5.577   5.881   6.170
10791SOL     OW33271   6.155   6.861   6.751
10791SOL    HW133272   6.062   6.854   6.714
10791SOL    HW233273   6.166   6.950   6.795
10792SOL     OW33274   7.141   7.097   6.289
10792SOL    HW133275   7.084   7.081   6.370
10792SOL    HW233276   7.082   7.107   6.209
10793SOL     OW33277   6.721   6.289   6.303
10793SOL    HW133278   6.778   6.367   6.278
10793SOL    HW233279   6.661   6.315   6.379
10794SOL     OW33280   6.354   6.730   6.609
10794SOL    HW133281   6.276   6.747   6.669
10794SOL    HW233282   6.388   6.817   6.573
10795SOL     OW33283   6.271   6.598   6.251
10795SOL    HW133284   6.340   6.582   6.321
10795SOL    HW233285   6.198   6.655   6.289
10796SOL     OW33286   5.921   7.021   6.647
10796SOL    HW133287   5.843   6.990   6.594
10796SOL    HW233288   5.979   7.079   6.590
10797SOL     OW33289   5.826   6.677   6.472
10797SOL    HW133290   5.840   6.593   6.524
10797SOL    HW233291   5.771   6.741   6.527
10798SOL     OW33292   6.192   6.550   5.709
10798SOL    HW133293   6.199   6.634   5.655
10798SOL    HW233294   6.238   6.563   5.797
10799SOL     OW33295   7.180   5.700   7.066
10799SOL    HW133296   7.162   5.767   6.994
10799SOL    HW233297   7.177   5.746   7.155
10800SOL     OW33298   5.708   6.229   6.149
10800SOL    HW133299   5.663   6.141   6.166
10800SOL    HW233300   5.707   6.283   6.233
10801SOL     OW33301   6.879   6.814   7.009
10801SOL    HW133302   6.916   6.741   6.951
10801SOL    HW233303   6.931   6.819   7.094
10802SOL     OW33304   6.395   5.590   6.088
10802SOL    HW133305   6.435   5.681   6.079
10802SOL    HW233306   6.295   5.598   6.094
10803SOL     OW33307   5.783   6.562   6.850
10803SOL    HW133308   5.872   6.517   6.836
10803SOL    HW233309   5.710   6.497   6.831
10804SOL     OW33310   6.184   6.315   5.856
10804SOL    HW133311   6.208   6.384   5.788
10804SOL    HW233312   6.106   6.348   5.910
10805SOL     OW33313   6.867   5.931   6.530
10805SOL    HW133314   6.781   5.881   6.517
10805SOL    HW233315   6.929   5.877   6.586
10806SOL     OW33316   6.393   6.191   7.051
10806SOL    HW133317   6.346   6.188   7.140
10806SOL    HW233318   6.342   6.136   6.985
10807SOL     OW33319   6.577   5.996   6.828
10807SOL    HW133320   6.500   6.030   6.882
10807SOL    HW233321   6.543   5.945   6.749
10808SOL     OW33322   6.627   6.287   6.015
10808SOL    HW133323   6.653   6.283   6.111
10808SOL    HW233324   6.542   6.236   6.001
10809SOL     OW33325   5.662   6.397   6.375
10809SOL    HW133326   5.761   6.385   6.384
10809SOL    HW233327   5.638   6.492   6.396
10810SOL     OW33328   6.451   5.934   5.781
10810SOL    HW133329   6.510   5.997   5.732
10810SOL    HW233330   6.470   5.840   5.752
10811SOL     OW33331   6.948   6.730   6.131
10811SOL    HW133332   7.031   6.701   6.083
10811SOL    HW233333   6.899   6.797   6.075
10812SOL     OW33334   6.136   5.782   6.471
10812SOL    HW133335   6.131   5.777   6.571
10812SOL    HW233336   6.138   5.878   6.442
10813SOL     OW33337   5.907   6.529   5.828
10813SOL    HW133338   5.989   6.568   5.786
10813SOL    HW233339   5.880   6.447   5.779
10814SOL     OW33340   5.968   6.286   6.066
10814SOL    HW133341   6.013   6.196   6.063
10814SOL    HW233342   5.874   6.275   6.099
10815SOL     OW33343   6.200   5.708   5.703
10815SOL    HW133344   6.298   5.686   5.710
10815SOL    HW233345   6.169   5.691   5.610
10816SOL     OW33346   6.508   6.089   6.485
10816SOL    HW133347   6.483   6.080   6.389
10816SOL    HW233348   6.556   6.007   6.516
10817SOL     OW33349   6.125   5.650   6.098
10817SOL    HW133350   6.044   5.651   6.156
10817SOL    HW233351   6.128   5.733   6.043
10818SOL     OW33352   7.020   6.774   5.627
10818SOL    HW133353   7.052   6.698   5.684
10818SOL    HW233354   6.928   6.801   5.657
10819SOL     OW33355   5.883   5.621   5.757
10819SOL    HW133356   5.932   5.705   5.736
10819SOL    HW233357   5.945   5.556   5.802
10820SOL     OW33358   6.521   5.822   6.066
10820SOL    HW133359   6.473   5.863   5.988
10820SOL    HW233360   6.620   5.820   6.047
10821SOL     OW33361   6.813   7.156   6.379
10821SOL    HW133362   6.834   7.230   6.314
10821SOL    HW233363   6.881   7.156   6.452
10822SOL     OW33364   6.045   6.738   6.327
10822SOL    HW133365   5.974   6.711   6.392
10822SOL    HW233366   6.019   6.710   6.234
10823SOL     OW33367   6.618   6.135   5.602
10823SOL    HW133368   6.577   6.217   5.563
10823SOL    HW233369   6.682   6.161   5.675
10824SOL     OW33370   6.147   5.808   6.733
10824SOL    HW133371   6.185   5.724   6.770
10824SOL    HW233372   6.059   5.827   6.777
10825SOL     OW33373   6.452   6.040   6.228
10825SOL    HW133374   6.420   6.112   6.166
10825SOL    HW233375   6.476   5.959   6.175
10826SOL     OW33376   6.603   5.625   6.339
10826SOL    HW133377   6.531   5.630   6.270
10826SOL    HW233378   6.579   5.556   6.408
10827SOL     OW33379   6.113   5.842   5.914
10827SOL    HW133380   6.140   5.783   5.839
10827SOL    HW233381   6.113   5.937   5.883
10828SOL     OW33382   6.650   6.933   6.926
10828SOL    HW133383   6.570   6.910   6.981
10828SOL    HW233384   6.733   6.907   6.975
10829SOL     OW33385   6.697   6.781   6.686
10829SOL    HW133386   6.657   6.825   6.767
10829SOL    HW233387   6.656   6.818   6.603
10830SOL     OW33388   6.291   6.636   5.954
10830SOL    HW133389   6.277   6.643   6.053
10830SOL    HW233390   6.375   6.585   5.936
10831SOL     OW33391   5.996   6.399   6.837
10831SOL    HW133392   6.082   6.411   6.887
10831SOL    HW233393   5.954   6.312   6.864
10832SOL     OW33394   6.860   5.972   6.848
10832SOL    HW133395   6.881   6.046   6.912
10832SOL    HW233396   6.771   5.989   6.805
10833SOL     OW33397   5.953   6.686   6.087
10833SOL    HW133398   5.946   6.769   6.031
10833SOL    HW233399   5.957   6.606   6.027
10834SOL     OW33400   6.152   6.123   6.451
10834SOL    HW133401   6.164   6.189   6.377
10834SOL    HW233402   6.198   6.157   6.534
10835SOL     OW33403   6.838   6.934   5.974
10835SOL    HW133404   6.888   7.011   6.014
10835SOL    HW233405   6.743   6.936   6.006
10836SOL     OW33406   6.159   6.456   6.615
10836SOL    HW133407   6.203   6.545   6.606
10836SOL    HW233408   6.096   6.456   6.692
10837SOL     OW33409   6.946   6.448   6.631
10837SOL    HW133410   6.871   6.448   6.565
10837SOL    HW233411   6.983   6.356   6.640
10838SOL     OW33412   6.795   6.111   5.861
10838SOL    HW133413   6.808   6.027   5.915
10838SOL    HW233414   6.766   6.185   5.921
10839SOL     OW33415   5.893   5.799   6.817
10839SOL    HW133416   5.870   5.836   6.907
10839SOL    HW233417   5.863   5.704   6.811
10840SOL     OW33418   5.623   6.896   6.868
10840SOL    HW133419   5.676   6.847   6.936
10840SOL    HW233420   5.645   6.994   6.873
10841SOL     OW33421   6.318   6.220   6.650
10841SOL    HW133422   6.377   6.194   6.574
10841SOL    HW233423   6.290   6.316   6.639
10842SOL     OW33424   5.893   5.649   6.204
10842SOL    HW133425   5.882   5.743   6.237
10842SOL    HW233426   5.888   5.586   6.281
10843SOL     OW33427   7.208   5.953   5.960
10843SOL    HW133428   7.210   5.877   6.024
10843SOL    HW233429   7.160   6.030   6.000
10844SOL     OW33430   6.609   6.352   6.552
10844SOL    HW133431   6.624   6.373   6.648
10844SOL    HW233432   6.579   6.257   6.543
10845SOL     OW33433   6.889   6.424   5.628
10845SOL    HW133434   6.923   6.331   5.643
10845SOL    HW233435   6.907   6.451   5.533
10846SOL     OW33436   5.905   6.396   6.535
10846SOL    HW133437   5.998   6.432   6.540
10846SOL    HW233438   5.899   6.311   6.587
10847SOL     OW33439   5.925   6.095   6.592
10847SOL    HW133440   5.873   6.012   6.575
10847SOL    HW233441   6.002   6.100   6.528
10848SOL     OW33442   6.746   5.793   7.063
10848SOL    HW133443   6.746   5.857   7.140
10848SOL    HW233444   6.774   5.841   6.980
10849SOL     OW33445   5.594   6.912   5.786
10849SOL    HW133446   5.501   6.933   5.755
10849SOL    HW233447   5.604   6.813   5.799
10850SOL     OW33448   6.588   6.382   6.824
10850SOL    HW133449   6.629   6.350   6.910
10850SOL    HW233450   6.492   6.355   6.821
10851SOL     OW33451   5.626   6.130   6.700
10851SOL    HW133452   5.711   6.097   6.659
10851SOL    HW233453   5.639   6.145   6.798
10852SOL     OW33454   6.401   6.158   5.911
10852SOL    HW133455   6.408   6.069   5.865
10852SOL    HW233456   6.307   6.192   5.903
10853SOL     OW33457   6.257   6.050   6.855
10853SOL    HW133458   6.223   5.961   6.825
10853SOL    HW233459   6.283   6.104   6.775
10854SOL     OW33460   6.059   6.086   5.777
10854SOL    HW133461   6.120   6.166   5.781
10854SOL    HW233462   5.964   6.117   5.784
10855SOL     OW33463   5.745   6.723   7.052
10855SOL    HW133464   5.767   6.662   7.128
10855SOL    HW233465   5.755   6.674   6.966
10856SOL     OW33466   6.933   6.645   6.820
10856SOL    HW133467   6.957   6.582   6.746
10856SOL    HW233468   6.843   6.685   6.802
10857SOL     OW33469   6.888   6.441   5.895
10857SOL    HW133470   6.802   6.410   5.937
10857SOL    HW233471   6.884   6.427   5.796
10858SOL     OW33472   5.669   6.844   6.608
10858SOL    HW133473   5.664   6.843   6.708
10858SOL    HW233474   5.586   6.803   6.570
10859SOL     OW33475   6.866   6.513   6.258
10859SOL    HW133476   6.926   6.432   6.260
10859SOL    HW233477   6.906   6.582   6.198
10860SOL     OW33478   6.416   6.859   7.008
10860SOL    HW133479   6.411   6.892   7.103
10860SOL    HW233480   6.330   6.878   6.962
10861SOL     OW33481   5.849   5.912   6.306
10861SOL    HW133482   5.770   5.963   6.272
10861SOL    HW233483   5.840   5.897   6.404
10862SOL     OW33484   6.780   7.198   5.617
10862SOL    HW133485   6.786   7.105   5.654
10862SOL    HW233486   6.721   7.198   5.537
10863SOL     OW33487   6.408   6.588   6.958
10863SOL    HW133488   6.448   6.587   6.866
10863SOL    HW233489   6.418   6.680   6.998
10864SOL     OW33490   6.502   6.496   5.877
10864SOL    HW133491   6.565   6.534   5.809
10864SOL    HW233492   6.542   6.413   5.916
10865SOL     OW33493   5.958   6.874   7.076
10865SOL    HW133494   5.945   6.967   7.042
10865SOL    HW233495   5.874   6.822   7.063
10866SOL     OW33496   6.625   6.684   6.282
10866SOL    HW133497   6.555   6.637   6.336
10866SOL    HW233498   6.684   6.616   6.239
10867SOL     OW33499   6.600   5.822   6.557
10867SOL    HW133500   6.592   5.786   6.464
10867SOL    HW233501   6.598   5.746   6.622
10868SOL     OW33502   6.258   5.789   7.075
10868SOL    HW133503   6.348   5.773   7.035
10868SOL    HW233504   6.266   5.794   7.174
10869SOL     OW33505   5.661   5.931   5.619
10869SOL    HW133506   5.569   5.903   5.590
10869SOL    HW233507   5.692   6.008   5.563
10870SOL     OW33508   5.658   5.752   5.904
10870SOL    HW133509   5.641   5.835   5.850
10870SOL    HW233510   5.748   5.715   5.882
10871SOL     OW33511   6.811   5.911   6.035
10871SOL    HW133512   6.876   5.837   6.024
10871SOL    HW233513   6.831   5.961   6.119
10872SOL     OW33514   6.180   6.331   6.238
10872SOL    HW133515   6.230   6.416   6.219
10872SOL    HW233516   6.092   6.333   6.190
10873SOL     OW33517   6.445   6.542   6.447
10873SOL    HW133518   6.499   6.473   6.495
10873SOL    HW233519   6.413   6.611   6.513
10874SOL     OW33520   6.669   6.570   5.673
10874SOL    HW133521   6.646   6.623   5.591
10874SOL    HW233522   6.750   6.514   5.654
10875SOL     OW33523   5.665   6.826   6.239
10875SOL    HW133524   5.664   6.779   6.327
10875SOL    HW233525   5.747   6.798   6.188
10876SOL     OW33526   6.014   6.010   6.106
10876SOL    HW133527   6.044   5.938   6.044
10876SOL    HW233528   5.975   5.970   6.189
10877SOL     OW33529   5.903   6.133   6.866
10877SOL    HW133530   5.941   6.074   6.938
10877SOL    HW233531   5.943   6.107   6.778
10878SOL     OW33532   7.010   5.800   6.698
10878SOL    HW133533   7.062   5.735   6.753
10878SOL    HW233534   6.961   5.863   6.759
10879SOL     OW33535   6.587   5.620   6.740
10879SOL    HW133536   6.524   5.548   6.709
10879SOL    HW233537   6.680   5.584   6.740
10880SOL     OW33538   6.356   6.916   5.887
10880SOL    HW133539   6.310   6.829   5.904
10880SOL    HW233540   6.447   6.913   5.928
10881SOL     OW33541   6.938   5.638   5.754
10881SOL    HW133542   6.973   5.597   5.670
10881SOL    HW233543   6.848   5.600   5.774
10882SOL     OW33544   5.625   6.663   5.886
10882SOL    HW133545   5.724   6.652   5.877
10882SOL    HW233546   5.585   6.577   5.918
   7.00000   7.00000   7.00000
