Title
  906
    0C        C    1   2.834   2.761   4.734
    0C        C    2   2.888   2.715   4.856
    0C        C    3   2.836   2.764   4.976
    0C        C    4   2.830   2.756   4.245
    0C        C    5   2.885   2.712   4.368
    0C        C    6   2.832   2.759   4.490
    0C        C    7   3.004   2.635   4.612
    0C        C    8   2.887   2.715   4.612
    0C        C    9   3.066   2.600   4.734
    0C        C   10   3.003   2.632   4.855
    0C        C   11   3.185   2.526   4.978
    0C        C   12   3.060   2.589   4.975
    0C        C   13   2.826   2.751   3.756
    0C        C   14   2.881   2.707   3.879
    0C        C   15   2.828   2.753   4.001
    0C        C   16   3.000   2.630   4.123
    0C        C   17   2.883   2.709   4.123
    0C        C   18   3.063   2.599   4.245
    0C        C   19   3.002   2.633   4.368
    0C        C   20   3.196   2.547   4.489
    0C        C   21   3.065   2.601   4.490
    0C        C   22   3.264   2.527   4.612
    0C        C   23   3.196   2.544   4.734
    0C        C   24   3.404   2.500   4.856
    0C        C   25   3.262   2.517   4.858
    0C        C   26   3.479   2.502   4.974
    0C        C   27   2.823   2.746   3.267
    0C        C   28   2.878   2.702   3.390
    0C        C   29   2.824   2.748   3.512
    0C        C   30   2.997   2.626   3.634
    0C        C   31   2.879   2.704   3.634
    0C        C   32   3.060   2.594   3.756
    0C        C   33   2.998   2.628   3.879
    0C        C   34   3.193   2.543   4.000
    0C        C   35   3.062   2.596   4.001
    0C        C   36   3.261   2.525   4.122
    0C        C   37   3.194   2.545   4.245
    0C        C   38   3.402   2.502   4.366
    0C        C   39   3.263   2.527   4.367
    0C        C   40   3.473   2.498   4.488
    0C        C   41   3.403   2.503   4.611
    0C        C   42   3.616   2.505   4.731
    0C        C   43   3.474   2.499   4.733
    0C        C   44   3.687   2.514   4.852
    0C        C   45   3.617   2.508   4.973
    0C        C   46   2.820   2.742   2.778
    0C        C   47   2.875   2.697   2.901
    0C        C   48   2.821   2.744   3.023
    0C        C   49   2.994   2.621   3.145
    0C        C   50   2.876   2.700   3.145
    0C        C   51   3.057   2.589   3.268
    0C        C   52   2.995   2.623   3.390
    0C        C   53   3.189   2.539   3.512
    0C        C   54   3.058   2.591   3.512
    0C        C   55   3.258   2.520   3.634
    0C        C   56   3.191   2.541   3.756
    0C        C   57   3.399   2.498   3.877
    0C        C   58   3.260   2.523   3.878
    0C        C   59   3.470   2.494   3.999
    0C        C   60   3.400   2.500   4.122
    0C        C   61   3.612   2.501   4.243
    0C        C   62   3.471   2.496   4.243
    0C        C   63   3.683   2.512   4.364
    0C        C   64   3.614   2.504   4.487
    0C        C   65   3.822   2.548   4.607
    0C        C   66   3.685   2.515   4.608
    0C        C   67   3.890   2.570   4.729
    0C        C   68   3.825   2.544   4.851
    0C        C   69   4.028   2.608   4.971
    0C        C   70   3.898   2.557   4.970
    0C        C   71   2.819   2.735   2.289
    0C        C   72   2.873   2.691   2.411
    0C        C   73   2.820   2.739   2.534
    0C        C   74   2.991   2.616   2.656
    0C        C   75   2.874   2.695   2.656
    0C        C   76   3.054   2.584   2.779
    0C        C   77   2.992   2.619   2.901
    0C        C   78   3.186   2.534   3.023
    0C        C   79   3.055   2.587   3.023
    0C        C   80   3.255   2.516   3.145
    0C        C   81   3.188   2.536   3.267
    0C        C   82   3.396   2.493   3.389
    0C        C   83   3.256   2.518   3.389
    0C        C   84   3.467   2.490   3.510
    0C        C   85   3.397   2.496   3.633
    0C        C   86   3.610   2.497   3.754
    0C        C   87   3.468   2.492   3.755
    0C        C   88   3.680   2.507   3.875
    0C        C   89   3.611   2.499   3.998
    0C        C   90   3.819   2.544   4.119
    0C        C   91   3.682   2.510   4.120
    0C        C   92   3.886   2.569   4.240
    0C        C   93   3.820   2.546   4.363
    0C        C   94   4.015   2.632   4.483
    0C        C   95   3.887   2.571   4.484
    0C        C   96   4.076   2.669   4.605
    0C        C   97   4.019   2.629   4.728
    0C        C   98   4.190   2.756   4.849
    0C        C   99   4.084   2.660   4.851
    0C        C  100   4.237   2.814   4.967
    0C        C  101   2.819   2.737   2.047
    0C        C  102   2.982   2.596   2.166
    0C        C  103   2.870   2.684   2.166
    0C        C  104   3.048   2.572   2.290
    0C        C  105   2.989   2.611   2.412
    0C        C  106   3.183   2.528   2.535
    0C        C  107   3.052   2.581   2.534
    0C        C  108   3.252   2.511   2.656
    0C        C  109   3.185   2.531   2.779
    0C        C  110   3.392   2.489   2.900
    0C        C  111   3.253   2.513   2.901
    0C        C  112   3.464   2.485   3.022
    0C        C  113   3.394   2.491   3.144
    0C        C  114   3.606   2.492   3.265
    0C        C  115   3.465   2.487   3.266
    0C        C  116   3.677   2.503   3.386
    0C        C  117   3.608   2.494   3.509
    0C        C  118   3.816   2.539   3.630
    0C        C  119   3.679   2.505   3.631
    0C        C  120   3.883   2.564   3.751
    0C        C  121   3.817   2.541   3.874
    0C        C  122   4.011   2.628   3.994
    0C        C  123   3.885   2.567   3.996
    0C        C  124   4.072   2.667   4.116
    0C        C  125   4.013   2.631   4.239
    0C        C  126   4.184   2.756   4.359
    0C        C  127   4.073   2.669   4.360
    0C        C  128   4.235   2.807   4.481
    0C        C  129   4.186   2.757   4.604
    0C        C  130   4.325   2.919   4.724
    0C        C  131   4.237   2.808   4.725
    0C        C  132   4.364   2.980   4.845
    0C        C  133   4.322   2.923   4.966
    0C        C  134   3.174   2.499   2.050
    0C        C  135   3.041   2.544   2.047
    0C        C  136   3.246   2.493   2.169
    0C        C  137   3.180   2.520   2.291
    0C        C  138   3.389   2.482   2.412
    0C        C  139   3.250   2.506   2.413
    0C        C  140   3.460   2.479   2.533
    0C        C  141   3.391   2.486   2.656
    0C        C  142   3.603   2.487   2.776
    0C        C  143   3.462   2.482   2.777
    0C        C  144   3.674   2.498   2.898
    0C        C  145   3.605   2.490   3.021
    0C        C  146   3.813   2.534   3.141
    0C        C  147   3.676   2.501   3.142
    0C        C  148   3.880   2.559   3.262
    0C        C  149   3.814   2.537   3.385
    0C        C  150   4.009   2.623   3.505
    0C        C  151   3.882   2.562   3.507
    0C        C  152   4.069   2.662   3.627
    0C        C  153   4.010   2.626   3.750
    0C        C  154   4.182   2.752   3.870
    0C        C  155   4.071   2.664   3.871
    0C        C  156   4.233   2.802   3.992
    0C        C  157   4.183   2.754   4.115
    0C        C  158   4.324   2.913   4.235
    0C        C  159   4.234   2.805   4.236
    0C        C  160   4.364   2.974   4.356
    0C        C  161   4.325   2.916   4.479
    0C        C  162   4.430   3.102   4.599
    0C        C  163   4.364   2.977   4.601
    0C        C  164   4.457   3.169   4.720
    0C        C  165   4.429   3.105   4.843
    0C        C  166   4.497   3.306   4.961
    0C        C  167   4.454   3.174   4.963
    0C        C  168   3.455   2.450   2.049
    0C        C  169   3.385   2.469   2.168
    0C        C  170   3.600   2.475   2.287
    0C        C  171   3.458   2.471   2.289
    0C        C  172   3.670   2.491   2.409
    0C        C  173   3.601   2.484   2.532
    0C        C  174   3.809   2.530   2.652
    0C        C  175   3.672   2.496   2.653
    0C        C  176   3.876   2.556   2.773
    0C        C  177   3.811   2.532   2.896
    0C        C  178   4.005   2.619   3.016
    0C        C  179   3.878   2.558   3.018
    0C        C  180   4.066   2.658   3.138
    0C        C  181   4.007   2.621   3.261
    0C        C  182   4.179   2.747   3.381
    0C        C  183   4.068   2.660   3.382
    0C        C  184   4.231   2.797   3.502
    0C        C  185   4.181   2.749   3.625
    0C        C  186   4.323   2.908   3.745
    0C        C  187   4.232   2.799   3.747
    0C        C  188   4.362   2.968   3.867
    0C        C  189   4.324   2.910   3.990
    0C        C  190   4.429   3.095   4.110
    0C        C  191   4.363   2.970   4.112
    0C        C  192   4.456   3.162   4.231
    0C        C  193   4.430   3.099   4.355
    0C        C  194   4.496   3.301   4.474
    0C        C  195   4.456   3.166   4.476
    0C        C  196   4.511   3.372   4.596
    0C        C  197   4.499   3.304   4.719
    0C        C  198   4.536   3.516   4.840
    0C        C  199   4.517   3.375   4.841
    0C        C  200   4.549   3.595   4.958
    0C        C  201   3.594   2.446   2.045
    0C        C  202   3.804   2.520   2.162
    0C        C  203   3.669   2.475   2.163
    0C        C  204   3.871   2.550   2.284
    0C        C  205   3.807   2.527   2.407
    0C        C  206   4.000   2.617   2.527
    0C        C  207   3.874   2.554   2.529
    0C        C  208   4.061   2.655   2.648
    0C        C  209   4.003   2.618   2.772
    0C        C  210   4.175   2.743   2.892
    0C        C  211   4.064   2.656   2.893
    0C        C  212   4.227   2.793   3.013
    0C        C  213   4.177   2.745   3.136
    0C        C  214   4.320   2.903   3.256
    0C        C  215   4.229   2.795   3.258
    0C        C  216   4.360   2.963   3.378
    0C        C  217   4.321   2.905   3.501
    0C        C  218   4.427   3.090   3.621
    0C        C  219   4.361   2.965   3.622
    0C        C  220   4.454   3.157   3.742
    0C        C  221   4.428   3.093   3.865
    0C        C  222   4.494   3.295   3.985
    0C        C  223   4.455   3.160   3.987
    0C        C  224   4.506   3.366   4.107
    0C        C  225   4.495   3.298   4.230
    0C        C  226   4.517   3.510   4.349
    0C        C  227   4.508   3.369   4.351
    0C        C  228   4.516   3.582   4.471
    0C        C  229   4.521   3.513   4.594
    0C        C  230   4.501   3.725   4.713
    0C        C  231   4.524   3.585   4.716
    0C        C  232   4.488   3.796   4.834
    0C        C  233   4.519   3.731   4.954
    0C        C  234   3.992   2.618   2.040
    0C        C  235   3.869   2.553   2.042
    0C        C  236   4.055   2.655   2.160
    0C        C  237   3.997   2.616   2.283
    0C        C  238   4.170   2.742   2.402
    0C        C  239   4.058   2.655   2.404
    0C        C  240   4.222   2.790   2.524
    0C        C  241   4.173   2.742   2.647
    0C        C  242   4.316   2.899   2.767
    0C        C  243   4.225   2.791   2.768
    0C        C  244   4.357   2.958   2.889
    0C        C  245   4.318   2.901   3.012
    0C        C  246   4.424   3.085   3.132
    0C        C  247   4.358   2.961   3.133
    0C        C  248   4.451   3.152   3.253
    0C        C  249   4.426   3.088   3.376
    0C        C  250   4.491   3.290   3.496
    0C        C  251   4.453   3.154   3.498
    0C        C  252   4.504   3.361   3.618
    0C        C  253   4.493   3.293   3.741
    0C        C  254   4.515   3.505   3.861
    0C        C  255   4.505   3.364   3.862
    0C        C  256   4.513   3.576   3.982
    0C        C  257   4.516   3.507   4.105
    0C        C  258   4.494   3.719   4.225
    0C        C  259   4.514   3.579   4.226
    0C        C  260   4.478   3.789   4.347
    0C        C  261   4.496   3.721   4.469
    0C        C  262   4.431   3.924   4.590
    0C        C  263   4.480   3.791   4.591
    0C        C  264   4.402   3.989   4.712
    0C        C  265   4.436   3.927   4.834
    0C        C  266   4.331   4.110   4.953
    0C        C  267   4.403   3.991   4.954
    0C        C  268   4.215   2.792   2.037
    0C        C  269   4.166   2.741   2.158
    0C        C  270   4.314   2.896   2.278
    0C        C  271   4.220   2.790   2.279
    0C        C  272   4.355   2.954   2.399
    0C        C  273   4.314   2.897   2.522
    0C        C  274   4.422   3.081   2.643
    0C        C  275   4.355   2.956   2.644
    0C        C  276   4.449   3.147   2.764
    0C        C  277   4.423   3.083   2.887
    0C        C  278   4.489   3.286   3.007
    0C        C  279   4.450   3.150   3.009
    0C        C  280   4.502   3.356   3.129
    0C        C  281   4.490   3.288   3.252
    0C        C  282   4.512   3.500   3.372
    0C        C  283   4.503   3.359   3.373
    0C        C  284   4.511   3.571   3.493
    0C        C  285   4.514   3.502   3.616
    0C        C  286   4.492   3.714   3.736
    0C        C  287   4.512   3.574   3.738
    0C        C  288   4.476   3.784   3.858
    0C        C  289   4.493   3.716   3.981
    0C        C  290   4.429   3.919   4.101
    0C        C  291   4.477   3.786   4.102
    0C        C  292   4.399   3.984   4.223
    0C        C  293   4.430   3.921   4.346
    0C        C  294   4.326   4.107   4.467
    0C        C  295   4.400   3.986   4.467
    0C        C  296   4.285   4.165   4.589
    0C        C  297   4.329   4.111   4.711
    0C        C  298   4.197   4.280   4.834
    0C        C  299   4.290   4.171   4.834
    0C        C  300   4.149   4.342   4.953
    0C        C  301   4.308   2.895   2.036
    0C        C  302   4.433   3.072   2.152
    0C        C  303   4.357   2.951   2.154
    0C        C  304   4.452   3.141   2.275
    0C        C  305   4.422   3.078   2.398
    0C        C  306   4.486   3.281   2.519
    0C        C  307   4.448   3.145   2.520
    0C        C  308   4.498   3.352   2.640
    0C        C  309   4.487   3.283   2.763
    0C        C  310   4.510   3.495   2.883
    0C        C  311   4.500   3.354   2.884
    0C        C  312   4.508   3.567   3.004
    0C        C  313   4.511   3.497   3.127
    0C        C  314   4.490   3.709   3.248
    0C        C  315   4.509   3.569   3.249
    0C        C  316   4.473   3.779   3.369
    0C        C  317   4.491   3.711   3.492
    0C        C  318   4.426   3.914   3.612
    0C        C  319   4.474   3.781   3.613
    0C        C  320   4.396   3.979   3.734
    0C        C  321   4.428   3.916   3.857
    0C        C  322   4.323   4.101   3.978
    0C        C  323   4.398   3.981   3.978
    0C        C  324   4.280   4.158   4.099
    0C        C  325   4.325   4.104   4.222
    0C        C  326   4.184   4.263   4.343
    0C        C  327   4.282   4.161   4.344
    0C        C  328   4.131   4.310   4.466
    0C        C  329   4.188   4.267   4.588
    0C        C  330   4.018   4.393   4.709
    0C        C  331   4.137   4.317   4.710
    0C        C  332   3.957   4.430   4.831
    0C        C  333   4.027   4.410   4.950
    0C        C  334   4.504   3.273   2.033
    0C        C  335   4.476   3.136   2.032
    0C        C  336   4.504   3.346   2.152
    0C        C  337   4.489   3.278   2.274
    0C        C  338   4.507   3.490   2.395
    0C        C  339   4.498   3.349   2.396
    0C        C  340   4.504   3.562   2.516
    0C        C  341   4.508   3.492   2.639
    0C        C  342   4.486   3.704   2.759
    0C        C  343   4.506   3.564   2.760
    0C        C  344   4.470   3.774   2.880
    0C        C  345   4.488   3.706   3.003
    0C        C  346   4.424   3.909   3.124
    0C        C  347   4.472   3.776   3.125
    0C        C  348   4.393   3.974   3.245
    0C        C  349   4.425   3.911   3.368
    0C        C  350   4.320   4.096   3.489
    0C        C  351   4.395   3.976   3.490
    0C        C  352   4.277   4.153   3.611
    0C        C  353   4.321   4.099   3.733
    0C        C  354   4.181   4.257   3.855
    0C        C  355   4.279   4.156   3.855
    0C        C  356   4.127   4.304   3.977
    0C        C  357   4.182   4.260   4.099
    0C        C  358   4.012   4.385   4.221
    0C        C  359   4.129   4.307   4.221
    0C        C  360   3.950   4.419   4.343
    0C        C  361   4.014   4.388   4.465
    0C        C  362   3.821   4.473   4.588
    0C        C  363   3.953   4.422   4.587
    0C        C  364   3.754   4.493   4.711
    0C        C  365   3.824   4.478   4.832
    0C        C  366   3.618   4.519   4.954
    0C        C  367   3.756   4.497   4.953
    0C        C  368   4.507   3.558   2.029
    0C        C  369   4.510   3.487   2.150
    0C        C  370   4.484   3.699   2.270
    0C        C  371   4.504   3.559   2.272
    0C        C  372   4.467   3.769   2.392
    0C        C  373   4.484   3.701   2.515
    0C        C  374   4.421   3.904   2.635
    0C        C  375   4.469   3.771   2.636
    0C        C  376   4.391   3.969   2.757
    0C        C  377   4.422   3.907   2.879
    0C        C  378   4.317   4.091   3.000
    0C        C  379   4.392   3.971   3.001
    0C        C  380   4.274   4.148   3.122
    0C        C  381   4.319   4.094   3.244
    0C        C  382   4.178   4.252   3.366
    0C        C  383   4.276   4.150   3.366
    0C        C  384   4.124   4.299   3.488
    0C        C  385   4.179   4.255   3.610
    0C        C  386   4.009   4.380   3.732
    0C        C  387   4.126   4.301   3.732
    0C        C  388   3.947   4.415   3.854
    0C        C  389   4.010   4.383   3.977
    0C        C  390   3.818   4.470   4.099
    0C        C  391   3.949   4.417   4.099
    0C        C  392   3.750   4.489   4.222
    0C        C  393   3.819   4.471   4.344
    0C        C  394   3.613   4.515   4.467
    0C        C  395   3.752   4.491   4.466
    0C        C  396   3.543   4.520   4.590
    0C        C  397   3.614   4.516   4.711
    0C        C  398   3.404   4.517   4.835
    0C        C  399   3.545   4.522   4.834
    0C        C  400   3.334   4.506   4.956
    0C        C  401   4.487   3.697   2.028
    0C        C  402   4.425   3.902   2.147
    0C        C  403   4.470   3.768   2.147
    0C        C  404   4.392   3.966   2.268
    0C        C  405   4.420   3.902   2.391
    0C        C  406   4.315   4.086   2.511
    0C        C  407   4.390   3.967   2.512
    0C        C  408   4.272   4.143   2.633
    0C        C  409   4.316   4.089   2.756
    0C        C  410   4.175   4.247   2.877
    0C        C  411   4.273   4.146   2.878
    0C        C  412   4.122   4.294   2.999
    0C        C  413   4.176   4.249   3.121
    0C        C  414   4.006   4.375   3.243
    0C        C  415   4.123   4.296   3.243
    0C        C  416   3.944   4.410   3.365
    0C        C  417   4.007   4.378   3.488
    0C        C  418   3.815   4.465   3.610
    0C        C  419   3.946   4.412   3.610
    0C        C  420   3.747   4.486   3.733
    0C        C  421   3.816   4.467   3.855
    0C        C  422   3.610   4.512   3.978
    0C        C  423   3.749   4.488   3.977
    0C        C  424   3.540   4.518   4.101
    0C        C  425   3.611   4.514   4.223
    0C        C  426   3.400   4.515   4.346
    0C        C  427   3.541   4.519   4.345
    0C        C  428   3.331   4.506   4.469
    0C        C  429   3.402   4.516   4.591
    0C        C  430   3.194   4.476   4.715
    0C        C  431   3.333   4.507   4.714
    0C        C  432   3.126   4.457   4.838
    0C        C  433   3.198   4.476   4.957
    0C        C  434   4.340   4.094   2.023
    0C        C  435   4.404   3.970   2.027
    0C        C  436   4.281   4.146   2.142
    0C        C  437   4.318   4.087   2.266
    0C        C  438   4.174   4.242   2.388
    0C        C  439   4.273   4.142   2.388
    0C        C  440   4.119   4.288   2.510
    0C        C  441   4.174   4.244   2.632
    0C        C  442   4.003   4.369   2.754
    0C        C  443   4.120   4.291   2.754
    0C        C  444   3.941   4.403   2.877
    0C        C  445   4.004   4.372   2.999
    0C        C  446   3.811   4.460   3.121
    0C        C  447   3.942   4.407   3.121
    0C        C  448   3.744   4.480   3.244
    0C        C  449   3.813   4.462   3.366
    0C        C  450   3.607   4.508   3.489
    0C        C  451   3.746   4.483   3.488
    0C        C  452   3.537   4.514   3.612
    0C        C  453   3.608   4.510   3.733
    0C        C  454   3.398   4.511   3.857
    0C        C  455   3.539   4.516   3.856
    0C        C  456   3.328   4.503   3.980
    0C        C  457   3.399   4.513   4.102
    0C        C  458   3.193   4.471   4.225
    0C        C  459   3.330   4.505   4.224
    0C        C  460   3.127   4.448   4.349
    0C        C  461   3.194   4.473   4.470
    0C        C  462   3.000   4.390   4.594
    0C        C  463   3.127   4.451   4.593
    0C        C  464   2.939   4.358   4.717
    0C        C  465   2.994   4.403   4.840
    0C        C  466   2.817   4.285   4.958
    0C        C  467   2.921   4.378   4.960
    0C        C  468   4.114   4.284   2.023
    0C        C  469   4.176   4.243   2.143
    0C        C  470   4.000   4.363   2.266
    0C        C  471   4.119   4.286   2.265
    0C        C  472   3.938   4.396   2.388
    0C        C  473   4.001   4.365   2.510
    0C        C  474   3.808   4.452   2.632
    0C        C  475   3.939   4.400   2.632
    0C        C  476   3.741   4.474   2.755
    0C        C  477   3.810   4.456   2.877
    0C        C  478   3.604   4.502   3.000
    0C        C  479   3.743   4.477   2.999
    0C        C  480   3.534   4.508   3.122
    0C        C  481   3.605   4.505   3.244
    0C        C  482   3.394   4.506   3.368
    0C        C  483   3.536   4.511   3.367
    0C        C  484   3.325   4.498   3.491
    0C        C  485   3.396   4.509   3.612
    0C        C  486   3.190   4.466   3.736
    0C        C  487   3.327   4.500   3.735
    0C        C  488   3.124   4.443   3.859
    0C        C  489   3.191   4.469   3.981
    0C        C  490   2.999   4.383   4.105
    0C        C  491   3.126   4.446   4.104
    0C        C  492   2.940   4.347   4.228
    0C        C  493   3.000   4.386   4.350
    0C        C  494   2.830   4.263   4.474
    0C        C  495   2.941   4.350   4.473
    0C        C  496   2.780   4.215   4.597
    0C        C  497   2.828   4.269   4.718
    0C        C  498   2.684   4.115   4.842
    0C        C  499   2.774   4.224   4.840
    0C        C  500   2.635   4.064   4.962
    0C        C  501   3.998   4.359   2.023
    0C        C  502   3.807   4.452   2.144
    0C        C  503   3.936   4.396   2.144
    0C        C  504   3.739   4.470   2.266
    0C        C  505   3.806   4.449   2.388
    0C        C  506   3.600   4.495   2.511
    0C        C  507   3.739   4.470   2.510
    0C        C  508   3.531   4.502   2.633
    0C        C  509   3.602   4.498   2.755
    0C        C  510   3.391   4.500   2.879
    0C        C  511   3.532   4.505   2.878
    0C        C  512   3.322   4.492   3.002
    0C        C  513   3.393   4.503   3.123
    0C        C  514   3.187   4.461   3.247
    0C        C  515   3.324   4.495   3.246
    0C        C  516   3.121   4.438   3.370
    0C        C  517   3.188   4.463   3.492
    0C        C  518   2.996   4.378   3.616
    0C        C  519   3.123   4.440   3.615
    0C        C  520   2.937   4.342   3.739
    0C        C  521   2.997   4.381   3.861
    0C        C  522   2.827   4.257   3.985
    0C        C  523   2.938   4.345   3.984
    0C        C  524   2.778   4.209   4.108
    0C        C  525   2.829   4.260   4.230
    0C        C  526   2.689   4.103   4.354
    0C        C  527   2.779   4.212   4.353
    0C        C  528   2.650   4.046   4.477
    0C        C  529   2.690   4.107   4.598
    0C        C  530   2.581   3.927   4.724
    0C        C  531   2.648   4.052   4.721
    0C        C  532   2.548   3.866   4.849
    0C        C  533   2.562   3.945   4.967
    0C        C  534   3.606   4.517   2.022
    0C        C  535   3.741   4.482   2.025
    0C        C  536   3.529   4.508   2.143
    0C        C  537   3.599   4.497   2.266
    0C        C  538   3.388   4.495   2.389
    0C        C  539   3.529   4.500   2.388
    0C        C  540   3.319   4.486   2.512
    0C        C  541   3.390   4.497   2.634
    0C        C  542   3.184   4.455   2.758
    0C        C  543   3.321   4.489   2.757
    0C        C  544   3.118   4.432   2.881
    0C        C  545   3.185   4.458   3.003
    0C        C  546   2.993   4.373   3.127
    0C        C  547   3.120   4.435   3.126
    0C        C  548   2.934   4.336   3.250
    0C        C  549   2.995   4.376   3.372
    0C        C  550   2.824   4.252   3.497
    0C        C  551   2.935   4.339   3.495
    0C        C  552   2.774   4.204   3.620
    0C        C  553   2.826   4.255   3.741
    0C        C  554   2.685   4.098   3.866
    0C        C  555   2.776   4.207   3.864
    0C        C  556   2.647   4.041   3.989
    0C        C  557   2.687   4.101   4.110
    0C        C  558   2.582   3.919   4.235
    0C        C  559   2.649   4.044   4.233
    0C        C  560   2.557   3.855   4.358
    0C        C  561   2.584   3.922   4.480
    0C        C  562   2.520   3.722   4.605
    0C        C  563   2.557   3.858   4.603
    0C        C  564   2.509   3.655   4.728
    0C        C  565   2.517   3.727   4.850
    0C        C  566   2.504   3.515   4.971
    0C        C  567   2.512   3.654   4.970
    0C        C  568   3.316   4.473   2.026
    0C        C  569   3.388   4.494   2.144
    0C        C  570   3.179   4.450   2.269
    0C        C  571   3.318   4.484   2.268
    0C        C  572   3.114   4.427   2.392
    0C        C  573   3.182   4.452   2.513
    0C        C  574   2.990   4.367   2.638
    0C        C  575   3.117   4.429   2.637
    0C        C  576   2.931   4.331   2.762
    0C        C  577   2.992   4.370   2.883
    0C        C  578   2.821   4.247   3.008
    0C        C  579   2.932   4.334   3.006
    0C        C  580   2.771   4.199   3.131
    0C        C  581   2.823   4.249   3.252
    0C        C  582   2.682   4.093   3.377
    0C        C  583   2.773   4.201   3.375
    0C        C  584   2.644   4.036   3.500
    0C        C  585   2.684   4.096   3.621
    0C        C  586   2.579   3.914   3.746
    0C        C  587   2.645   4.039   3.744
    0C        C  588   2.553   3.850   3.869
    0C        C  589   2.580   3.916   3.991
    0C        C  590   2.516   3.716   4.116
    0C        C  591   2.555   3.852   4.114
    0C        C  592   2.505   3.648   4.239
    0C        C  593   2.518   3.719   4.360
    0C        C  594   2.499   3.510   4.485
    0C        C  595   2.508   3.651   4.483
    0C        C  596   2.503   3.441   4.607
    0C        C  597   2.501   3.513   4.729
    0C        C  598   2.518   3.302   4.852
    0C        C  599   2.503   3.443   4.852
    0C        C  600   2.523   3.231   4.972
    0C        C  601   3.182   4.439   2.028
    0C        C  602   2.978   4.372   2.148
    0C        C  603   3.110   4.426   2.147
    0C        C  604   2.924   4.330   2.272
    0C        C  605   2.987   4.366   2.394
    0C        C  606   2.818   4.241   2.519
    0C        C  607   2.929   4.328   2.517
    0C        C  608   2.769   4.193   2.642
    0C        C  609   2.820   4.244   2.763
    0C        C  610   2.679   4.088   2.888
    0C        C  611   2.770   4.196   2.886
    0C        C  612   2.640   4.031   3.011
    0C        C  613   2.681   4.090   3.133
    0C        C  614   2.575   3.909   3.257
    0C        C  615   2.642   4.033   3.256
    0C        C  616   2.550   3.845   3.381
    0C        C  617   2.577   3.911   3.502
    0C        C  618   2.512   3.711   3.627
    0C        C  619   2.551   3.847   3.625
    0C        C  620   2.501   3.643   3.750
    0C        C  621   2.514   3.714   3.871
    0C        C  622   2.493   3.505   3.996
    0C        C  623   2.503   3.646   3.994
    0C        C  624   2.496   3.436   4.119
    0C        C  625   2.495   3.507   4.240
    0C        C  626   2.519   3.299   4.364
    0C        C  627   2.499   3.438   4.363
    0C        C  628   2.537   3.231   4.487
    0C        C  629   2.521   3.301   4.609
    0C        C  630   2.582   3.099   4.733
    0C        C  631   2.536   3.233   4.731
    0C        C  632   2.605   3.033   4.857
    0C        C  633   2.559   3.097   4.977
    0C        C  634   2.801   4.250   2.034
    0C        C  635   2.904   4.344   2.029
    0C        C  636   2.759   4.193   2.154
    0C        C  637   2.814   4.241   2.275
    0C        C  638   2.676   4.082   2.400
    0C        C  639   2.766   4.191   2.398
    0C        C  640   2.638   4.025   2.523
    0C        C  641   2.678   4.085   2.644
    0C        C  642   2.572   3.903   2.769
    0C        C  643   2.639   4.028   2.767
    0C        C  644   2.546   3.839   2.892
    0C        C  645   2.574   3.906   3.013
    0C        C  646   2.509   3.706   3.138
    0C        C  647   2.548   3.842   3.136
    0C        C  648   2.497   3.638   3.261
    0C        C  649   2.510   3.709   3.382
    0C        C  650   2.489   3.500   3.507
    0C        C  651   2.499   3.640   3.505
    0C        C  652   2.492   3.430   3.630
    0C        C  653   2.490   3.502   3.751
    0C        C  654   2.513   3.293   3.875
    0C        C  655   2.494   3.433   3.874
    0C        C  656   2.532   3.226   3.998
    0C        C  657   2.516   3.296   4.120
    0C        C  658   2.582   3.096   4.244
    0C        C  659   2.534   3.229   4.243
    0C        C  660   2.614   3.034   4.367
    0C        C  661   2.584   3.098   4.488
    0C        C  662   2.690   2.916   4.612
    0C        C  663   2.615   3.035   4.611
    0C        C  664   2.734   2.862   4.734
    0C        C  665   2.687   2.916   4.857
    0C        C  666   2.738   2.863   4.976
    0C        C  667   2.629   4.022   2.036
    0C        C  668   2.671   4.083   2.156
    0C        C  669   2.568   3.899   2.280
    0C        C  670   2.635   4.023   2.279
    0C        C  671   2.542   3.834   2.403
    0C        C  672   2.571   3.901   2.525
    0C        C  673   2.505   3.701   2.649
    0C        C  674   2.545   3.837   2.648
    0C        C  675   2.493   3.633   2.772
    0C        C  676   2.507   3.704   2.893
    0C        C  677   2.485   3.495   3.018
    0C        C  678   2.495   3.635   3.016
    0C        C  679   2.488   3.425   3.141
    0C        C  680   2.487   3.497   3.262
    0C        C  681   2.509   3.288   3.386
    0C        C  682   2.490   3.428   3.385
    0C        C  683   2.527   3.221   3.509
    0C        C  684   2.511   3.290   3.631
    0C        C  685   2.577   3.090   3.755
    0C        C  686   2.529   3.223   3.754
    0C        C  687   2.610   3.028   3.877
    0C        C  688   2.580   3.093   3.999
    0C        C  689   2.687   2.911   4.123
    0C        C  690   2.612   3.031   4.122
    0C        C  691   2.731   2.857   4.245
    0C        C  692   2.689   2.914   4.367
    0C        C  693   2.733   2.860   4.490
    0C        C  694   2.562   3.899   2.038
    0C        C  695   2.493   3.699   2.161
    0C        C  696   2.536   3.833   2.159
    0C        C  697   2.485   3.630   2.283
    0C        C  698   2.502   3.699   2.405
    0C        C  699   2.480   3.490   2.529
    0C        C  700   2.491   3.631   2.528
    0C        C  701   2.484   3.421   2.652
    0C        C  702   2.483   3.492   2.773
    0C        C  703   2.506   3.283   2.897
    0C        C  704   2.486   3.423   2.896
    0C        C  705   2.524   3.216   3.020
    0C        C  706   2.508   3.286   3.142
    0C        C  707   2.574   3.086   3.266
    0C        C  708   2.525   3.218   3.265
    0C        C  709   2.606   3.023   3.388
    0C        C  710   2.576   3.088   3.510
    0C        C  711   2.683   2.906   3.634
    0C        C  712   2.608   3.026   3.633
    0C        C  713   2.727   2.852   3.756
    0C        C  714   2.685   2.909   3.878
    0C        C  715   2.729   2.854   4.001
    0C        C  716   2.446   3.492   2.041
    0C        C  717   2.467   3.630   2.043
    0C        C  718   2.466   3.417   2.161
    0C        C  719   2.473   3.488   2.284
    0C        C  720   2.502   3.279   2.408
    0C        C  721   2.480   3.419   2.407
    0C        C  722   2.521   3.212   2.531
    0C        C  723   2.504   3.281   2.653
    0C        C  724   2.572   3.081   2.776
    0C        C  725   2.523   3.214   2.775
    0C        C  726   2.604   3.019   2.899
    0C        C  727   2.573   3.083   3.021
    0C        C  728   2.680   2.901   3.144
    0C        C  729   2.604   3.021   3.144
    0C        C  730   2.724   2.847   3.267
    0C        C  731   2.681   2.904   3.389
    0C        C  732   2.726   2.849   3.512
    0C        C  733   2.522   3.208   2.044
    0C        C  734   2.496   3.278   2.163
    0C        C  735   2.572   3.079   2.287
    0C        C  736   2.519   3.211   2.286
    0C        C  737   2.604   3.016   2.410
    0C        C  738   2.572   3.080   2.532
    0C        C  739   2.679   2.898   2.655
    0C        C  740   2.603   3.017   2.654
    0C        C  741   2.722   2.843   2.778
    0C        C  742   2.679   2.900   2.900
    0C        C  743   2.723   2.845   3.022
    0C        C  744   2.575   3.079   2.045
    0C        C  745   2.680   2.896   2.166
    0C        C  746   2.605   3.015   2.165
    0C        C  747   2.723   2.840   2.288
    0C        C  748   2.679   2.897   2.410
    0C        C  749   2.722   2.841   2.533
    0C        C  750   2.726   2.840   2.046
    0C        C  751   3.655   2.406   1.916
    0O        O  752   3.755   2.330   1.914
    0O        O  753   3.588   2.436   1.797
    0C        C  754   4.498   3.065   1.904
    0O        O  755   4.483   3.126   1.795
    0O        O  756   4.555   2.938   1.905
    0C        C  757   4.342   4.164   1.893
    0O        O  758   4.361   4.289   1.889
    0O        O  759   4.344   4.090   1.775
    0C        C  760   3.554   4.566   1.893
    0O        O  761   3.473   4.663   1.891
    0O        O  762   3.610   4.520   1.774
    0C        C  763   2.926   4.412   1.900
    0O        O  764   2.900   4.352   1.792
    0O        O  765   2.955   4.548   1.898
    0C        C  766   2.400   3.434   1.913
    0O        O  767   2.313   3.343   1.913
    0O        O  768   2.437   3.495   1.793
    0C        C  769   4.600   3.542   5.087
    0O        O  770   4.562   3.594   5.195
    0O        O  771   4.705   3.450   5.087
    0C        C  772   4.224   4.344   5.081
    0O        O  773   4.161   4.350   5.190
    0O        O  774   4.362   4.361   5.080
    0C        C  775   4.100   2.598   5.100
    0O        O  776   4.222   2.567   5.101
    0O        O  777   4.028   2.602   5.219
    0C        C  778   2.944   4.449   5.088
    0O        O  779   2.920   4.391   5.197
    0O        O  780   2.972   4.586   5.086
    0C        C  781   2.542   3.028   5.106
    0O        O  782   2.496   2.911   5.110
    0O        O  783   2.556   3.101   5.225
    0C        C  784   2.501   3.912   5.097
    0O        O  785   2.383   3.866   5.101
    0O        O  786   2.563   3.953   5.215
    0C        C  787   2.969   2.527   1.919
    0O        O  788   3.031   2.534   1.810
    0O        O  789   2.836   2.485   1.921
    0C        C  790   3.226   2.468   5.107
    0O        O  791   3.282   2.355   5.111
    0O        O  792   3.183   2.527   5.226
    0H        H  793   4.357   2.965   5.058
    0H        H  794   4.207   2.773   5.061
    0H        H  795   4.441   3.123   5.056
    0H        H  796   4.514   3.356   5.054
    0H        H  797   4.519   3.787   5.045
    0H        H  798   4.434   3.949   5.047
    0H        H  799   4.307   4.157   5.046
    0H        H  800   3.987   4.448   5.042
    0H        H  801   3.810   4.495   5.046
    0H        H  802   3.567   4.532   5.047
    0H        H  803   3.386   4.520   5.049
    0H        H  804   3.148   4.467   5.051
    0H        H  805   3.852   2.527   5.062
    0H        H  806   3.671   2.507   5.066
    0H        H  807   3.008   2.604   5.067
    0H        H  808   3.427   2.498   5.068
    0H        H  809   2.872   2.725   5.069
    0H        H  810   2.701   2.899   5.070
    0H        H  811   2.499   3.282   5.064
    0H        H  812   2.499   3.464   5.065
    0H        H  813   2.514   3.707   5.063
    0H        H  814   2.653   4.118   5.053
    0H        H  815   2.768   4.259   5.050
    0H        H  816   2.689   2.877   1.953
    0H        H  817   2.853   2.697   1.954
    0H        H  818   3.220   2.469   1.959
    0H        H  819   3.400   2.437   1.958
    0H        H  820   3.823   2.527   1.949
    0H        H  821   4.038   2.641   1.947
    0H        H  822   4.180   2.751   1.945
    0H        H  823   4.343   2.932   1.942
    0H        H  824   4.526   3.323   1.941
    0H        H  825   4.520   3.506   1.937
    0H        H  826   4.485   3.749   1.934
    0H        H  827   3.796   4.478   1.933
    0H        H  828   3.954   4.390   1.930
    0H        H  829   4.159   4.256   1.930
    0H        H  830   4.439   3.926   1.935
    0H        H  831   2.531   3.855   1.946
    0H        H  832   2.647   4.071   1.943
    0H        H  833   2.752   4.221   1.943
    0H        H  834   3.367   4.482   1.932
    0H        H  835   3.131   4.424   1.935
    0H        H  836   2.593   3.029   1.952
    0H        H  837   2.501   3.255   1.950
    0H        H  838   2.462   3.684   1.951
    0V3OU   H29    1   2.793   3.624   0.683
    0V3OU   C27    2   2.776   3.521   0.724
    0V3OU   H27    3   2.691   3.522   0.796
    0V3OU   H28    4   2.758   3.448   0.642
    0V3OU   O11    5   2.898   3.493   0.791
    0V3OU   C15    6   2.906   3.373   0.858
    0V3OU   C13    7   3.025   3.351   0.931
    0V3OU   C14    8   3.040   3.229   0.998
    0V3OU   C16    9   2.939   3.133   0.997
    0V3OU    H6   10   2.953   3.038   1.052
    0V3OU   C12   11   3.165   3.201   1.073
    0V3OU    O2   12   3.168   3.112   1.159
    0V3OU   C10   13   3.284   3.281   1.037
    0V3OU    C8   14   3.413   3.237   1.068
    0V3OU   O10   15   3.444   3.121   1.133
    0V3OU   H26   16   3.363   3.076   1.164
    0V3OU    C6   17   3.528   3.313   1.030
    0V3OU    C5   18   3.511   3.433   0.964
    0V3OU    C4   19   3.661   3.254   1.061
    0V3OU    H4   20   3.664   3.224   1.170
    0V3OU    H5   21   3.671   3.160   1.001
    0V3OU    C2   22   3.781   3.345   1.033
    0V3OU    O6   23   3.814   3.422   1.148
    0V3OU   H21   24   3.744   3.487   1.161
    0V3OU    C3   25   3.757   3.435   0.912
    0V3OU    H2   26   3.843   3.505   0.901
    0V3OU    H3   27   3.750   3.371   0.820
    0V3OU   C25   28   3.903   3.255   1.007
    0V3OU    O7   29   3.927   3.212   0.894
    0V3OU   C26   30   3.993   3.224   1.125
    0V3OU   H22   31   4.055   3.315   1.145
    0V3OU   H23   32   4.058   3.136   1.101
    0V3OU    O8   33   3.921   3.185   1.240
    0V3OU   H24   34   3.875   3.263   1.274
    0V3OU    C1   35   3.629   3.517   0.924
    0V3OU    H1   36   3.608   3.566   0.824
    0V3OU    O3   37   3.650   3.617   1.024
    0V3OU   C19   38   3.623   3.751   0.983
    0V3OU    H9   39   3.530   3.758   0.920
    0V3OU    O4   40   3.728   3.786   0.896
    0V3OU   C20   41   3.857   3.803   0.956
    0V3OU   H10   42   3.891   3.702   0.993
    0V3OU   C24   43   3.614   3.837   1.109
    0V3OU   H16   44   3.536   3.793   1.177
    0V3OU   H17   45   3.581   3.940   1.078
    0V3OU   C23   46   3.750   3.844   1.179
    0V3OU   H15   47   3.781   3.737   1.203
    0V3OU    N1   48   3.747   3.926   1.299
    0V3OU   H19   49   3.827   3.907   1.356
    0V3OU   H20   50   3.663   3.908   1.352
    0V3OU   C21   51   3.853   3.898   1.077
    0V3OU   H11   52   3.956   3.900   1.124
    0V3OU    O5   53   3.821   4.028   1.030
    0V3OU   H18   54   3.804   4.083   1.108
    0V3OU   C22   55   3.948   3.855   0.847
    0V3OU   H12   56   3.915   3.957   0.814
    0V3OU   H13   57   3.945   3.786   0.759
    0V3OU   H14   58   4.052   3.861   0.886
    0V3OU   C11   59   3.131   3.453   0.938
    0V3OU    O1   60   3.107   3.573   0.920
    0V3OU    C9   61   3.267   3.404   0.969
    0V3OU    C7   62   3.380   3.479   0.935
    0V3OU    O9   63   3.376   3.600   0.870
    0V3OU   H25   64   3.285   3.624   0.847
    0V3OU   C17   65   2.804   3.276   0.856
    0V3OU    H7   66   2.712   3.293   0.799
    0V3OU   C18   67   2.822   3.157   0.925
    0V3OU    H8   68   2.742   3.081   0.924
   7.00000   7.00000   7.00000
