CNT in water
33518
    1C        C    1   2.848   2.773   4.745 -0.5962  0.1433  0.2249
    1C        C    2   2.895   2.716   4.865  0.4249  0.2273 -0.1183
    1C        C    3   2.843   2.772   4.983  0.0105  0.1270 -0.2505
    1C        C    4   2.843   2.765   4.257  0.5789  0.2541 -0.2444
    1C        C    5   2.899   2.724   4.380  0.4351  0.3463 -0.1453
    1C        C    6   2.844   2.769   4.502  0.4560  0.0269 -0.0132
    1C        C    7   3.012   2.638   4.624 -0.0009  0.4430  0.4738
    1C        C    8   2.899   2.722   4.623 -0.1028  0.3114  0.3557
    1C        C    9   3.075   2.602   4.745  0.3082 -0.0960  0.1590
    1C        C   10   3.005   2.629   4.865  0.3072  0.0703  0.1244
    1C        C   11   3.185   2.501   4.978  0.2250  0.3341  0.7935
    1C        C   12   3.061   2.567   4.977 -0.1999 -0.4610  0.0897
    1C        C   13   2.847   2.767   3.766 -0.2888 -0.5663 -0.3406
    1C        C   14   2.899   2.721   3.888  0.0707 -0.0805 -0.3036
    1C        C   15   2.852   2.773   4.011  0.0717 -0.1077 -0.2923
    1C        C   16   3.013   2.641   4.136  0.2867  0.1414  0.1452
    1C        C   17   2.897   2.722   4.134  0.0341 -0.2226 -0.3251
    1C        C   18   3.077   2.610   4.258  0.1845  0.3991  0.2681
    1C        C   19   3.016   2.645   4.380  0.5739  0.5459  0.4238
    1C        C   20   3.211   2.566   4.501 -0.0250 -0.1119  0.2178
    1C        C   21   3.078   2.611   4.503  0.0427  0.0958  0.5701
    1C        C   22   3.278   2.536   4.622  0.5583  0.0072 -0.0624
    1C        C   23   3.207   2.549   4.744  0.5522  0.4981 -0.1113
    1C        C   24   3.410   2.484   4.861 -0.4744  0.1890 -0.2904
    1C        C   25   3.268   2.498   4.862 -0.4810  0.1608  0.2877
    1C        C   26   3.486   2.470   4.978 -0.1211  1.0544 -0.4138
    1C        C   27   2.849   2.768   3.275 -0.2995 -0.4439 -0.3779
    1C        C   28   2.904   2.722   3.397 -0.4440 -0.0071 -0.1469
    1C        C   29   2.856   2.772   3.520 -0.4521 -0.2197 -0.0612
    1C        C   30   3.019   2.641   3.647  0.4040  0.1821  0.1829
    1C        C   31   2.906   2.726   3.644  0.2844  0.0108 -0.2650
    1C        C   32   3.075   2.604   3.771  0.3316  0.4419  0.2968
    1C        C   33   3.013   2.638   3.893  0.5061  0.5423  0.3604
    1C        C   34   3.202   2.544   4.012  0.5900  0.2566  0.0536
    1C        C   35   3.070   2.595   4.015  0.6105  0.3070  0.2323
    1C        C   36   3.273   2.533   4.133  0.5454  0.4788  0.1040
    1C        C   37   3.207   2.555   4.256  0.2361  0.5184 -0.0650
    1C        C   38   3.412   2.503   4.376 -0.1701 -0.0016 -0.4017
    1C        C   39   3.276   2.540   4.378 -0.1230  0.1632  0.1016
    1C        C   40   3.484   2.496   4.497 -0.3208 -0.1648 -0.3174
    1C        C   41   3.414   2.501   4.620  0.5402 -0.0991  0.1814
    1C        C   42   3.627   2.483   4.742  0.4379 -0.2005 -0.0028
    1C        C   43   3.485   2.480   4.740  0.4291 -0.0497  0.2589
    1C        C   44   3.703   2.491   4.860 -0.2000  0.5934  0.3582
    1C        C   45   3.625   2.468   4.975 -0.1082  0.2339  0.3500
    1C        C   46   2.839   2.754   2.791 -0.2133  0.1710 -0.3380
    1C        C   47   2.897   2.713   2.912 -0.0221  0.0400 -0.4698
    1C        C   48   2.848   2.768   3.033 -0.2559 -0.3991 -0.3570
    1C        C   49   3.013   2.631   3.158 -0.2127 -0.3917  0.0363
    1C        C   50   2.904   2.721   3.154  0.1829  0.0799 -0.3679
    1C        C   51   3.073   2.595   3.280 -0.0079 -0.2161 -0.0073
    1C        C   52   3.018   2.639   3.402 -0.1452  0.3909 -0.2865
    1C        C   53   3.205   2.545   3.525 -0.3731  0.0233 -0.1069
    1C        C   54   3.075   2.599   3.525 -0.1447  0.5861 -0.2184
    1C        C   55   3.274   2.525   3.647 -0.0943 -0.1084 -0.2809
    1C        C   56   3.205   2.549   3.768  0.0406 -0.2267 -0.1775
    1C        C   57   3.409   2.503   3.889  0.2920  0.7743 -0.3106
    1C        C   58   3.270   2.524   3.891  0.2084  0.2610 -0.1661
    1C        C   59   3.481   2.508   4.011  0.0576 -0.0352 -0.1287
    1C        C   60   3.413   2.514   4.134  0.3764 -0.8836  0.1030
    1C        C   61   3.625   2.501   4.254  0.6396 -0.2616  0.4151
    1C        C   62   3.484   2.493   4.254  0.6324 -0.2193  0.0785
    1C        C   63   3.696   2.504   4.376  0.3023  0.3945  0.6031
    1C        C   64   3.625   2.499   4.498 -0.3298  0.5656  0.2495
    1C        C   65   3.831   2.541   4.617  0.2300  0.3147  0.0528
    1C        C   66   3.696   2.500   4.620  0.2133  0.3569 -0.0570
    1C        C   67   3.902   2.561   4.737 -0.0873 -0.2314  0.3365
    1C        C   68   3.838   2.530   4.859 -0.2037  0.6157  0.5000
    1C        C   69   4.047   2.591   4.976  0.0751  0.5933  0.1400
    1C        C   70   3.918   2.538   4.974  0.3129  0.0007  0.1992
    1C        C   71   2.816   2.732   2.306 -0.3191  0.1859 -0.1608
    1C        C   72   2.879   2.697   2.427 -0.4268 -0.2364 -0.2212
    1C        C   73   2.824   2.743   2.549  0.1128  0.0241 -0.0683
    1C        C   74   3.007   2.628   2.669  0.0229 -0.0820 -0.3112
    1C        C   75   2.887   2.703   2.669 -0.3663 -0.6928 -0.0458
    1C        C   76   3.068   2.591   2.791  0.1855  0.4067 -0.2367
    1C        C   77   3.012   2.631   2.914 -0.0497 -0.0021 -0.2039
    1C        C   78   3.202   2.539   3.034 -0.2944 -0.3204 -0.1765
    1C        C   79   3.072   2.593   3.036 -0.0517  0.2824 -0.1080
    1C        C   80   3.269   2.520   3.157  0.0318 -0.3222 -0.3506
    1C        C   81   3.203   2.539   3.280  0.1936  0.2456 -0.3477
    1C        C   82   3.410   2.494   3.401 -0.3820  0.0007  0.0306
    1C        C   83   3.270   2.518   3.403 -0.4319 -0.2573 -0.0817
    1C        C   84   3.480   2.485   3.523 -0.3315  0.4274  0.0387
    1C        C   85   3.412   2.496   3.647  0.0141  0.3678  0.2380
    1C        C   86   3.622   2.492   3.768  0.5543  0.3145 -0.0017
    1C        C   87   3.481   2.485   3.769  0.5561  0.2170 -0.0747
    1C        C   88   3.693   2.509   3.889  0.4016  0.3054  0.0913
    1C        C   89   3.622   2.510   4.011  0.0661 -0.4066 -0.0901
    1C        C   90   3.835   2.526   4.131 -0.1157 -0.1893 -0.3118
    1C        C   91   3.695   2.504   4.132 -0.0692 -0.4771 -0.0084
    1C        C   92   3.900   2.559   4.251  0.0123 -0.3985 -0.3232
    1C        C   93   3.833   2.537   4.374  0.3999 -0.0348 -0.0429
    1C        C   94   4.024   2.632   4.494  0.3662 -0.0718  0.1454
    1C        C   95   3.898   2.568   4.495  0.0198  0.6007  0.0007
    1C        C   96   4.081   2.675   4.615  0.3124 -0.1733  0.2043
    1C        C   97   4.026   2.630   4.737  0.1585 -0.6671 -0.0462
    1C        C   98   4.192   2.764   4.857  0.5288 -0.2524  0.0663
    1C        C   99   4.094   2.659   4.859 -0.2986  0.5090 -0.0594
    1C        C  100   4.213   2.843   4.971 -0.1538  0.3332 -0.2060
    1C        C  101   2.821   2.737   2.070  0.0377  0.0488 -0.4304
    1C        C  102   2.984   2.591   2.187 -0.0383  0.5711  0.5166
    1C        C  103   2.868   2.675   2.187 -0.2303  0.3103 -0.1825
    1C        C  104   3.060   2.582   2.307  0.3798  0.1897  0.2261
    1C        C  105   3.003   2.630   2.427 -0.1958  0.1759 -0.0374
    1C        C  106   3.195   2.531   2.547  0.1424 -0.0136  0.1335
    1C        C  107   3.070   2.596   2.547  0.1768  0.0602 -0.2739
    1C        C  108   3.263   2.512   2.669 -0.0768 -0.5202  0.1815
    1C        C  109   3.198   2.536   2.793  0.0004 -0.0315  0.1312
    1C        C  110   3.409   2.494   2.912  0.1346  0.1516 -0.0338
    1C        C  111   3.269   2.511   2.913  0.0695 -0.3536  0.0261
    1C        C  112   3.479   2.488   3.035  0.2291  0.5084 -0.0686
    1C        C  113   3.408   2.493   3.157  0.1578  0.3061 -0.0992
    1C        C  114   3.620   2.494   3.277 -0.1820  0.5848  0.0804
    1C        C  115   3.479   2.487   3.279 -0.1790  0.4964  0.1130
    1C        C  116   3.689   2.502   3.399 -0.1884  0.0961  0.1168
    1C        C  117   3.621   2.490   3.523 -0.2584 -1.0126 -0.0120
    1C        C  118   3.824   2.547   3.643  0.1503 -0.4458 -0.1213
    1C        C  119   3.691   2.502   3.645  0.1608 -0.4897 -0.2954
    1C        C  120   3.892   2.572   3.764  0.3757 -0.5333 -0.2287
    1C        C  121   3.829   2.546   3.887  0.5474 -0.2167 -0.0735
    1C        C  122   4.017   2.637   4.009  0.3877 -0.0302  0.3163
    1C        C  123   3.898   2.562   4.010  0.3918 -0.0394 -0.0066
    1C        C  124   4.081   2.671   4.130  0.1491 -0.2442  0.5010
    1C        C  125   4.019   2.635   4.252  0.1218 -0.5698  0.3886
    1C        C  126   4.189   2.766   4.372  0.5395 -0.3648  0.0058
    1C        C  127   4.081   2.675   4.372  0.4040 -0.1985  0.1212
    1C        C  128   4.237   2.818   4.494  0.3137 -0.1813  0.0137
    1C        C  129   4.190   2.765   4.617 -0.0104  0.2182  0.0586
    1C        C  130   4.329   2.931   4.736 -0.0310  0.2828 -0.3496
    1C        C  131   4.242   2.819   4.737 -0.2786  0.4783  0.0556
    1C        C  132   4.361   2.997   4.857  0.0320 -0.0398 -0.1941
    1C        C  133   4.298   2.952   4.974 -0.0973  0.2861 -0.1411
    1C        C  134   3.169   2.466   2.083 -0.5388  0.3591  0.2440
    1C        C  135   3.038   2.514   2.079 -0.3796  0.7978  0.1841
    1C        C  136   3.255   2.475   2.193 -0.0093 -0.4614 -0.0924
    1C        C  137   3.191   2.526   2.308  0.4102  0.2424 -0.1657
    1C        C  138   3.405   2.485   2.429 -0.0231  0.2453  0.3309
    1C        C  139   3.265   2.504   2.427 -0.0964 -0.3003  0.0567
    1C        C  140   3.476   2.477   2.550 -0.1074 -1.3139  0.2967
    1C        C  141   3.402   2.490   2.670 -0.1075 -0.7234  0.2337
    1C        C  142   3.618   2.492   2.790  0.2024 -0.2597 -0.2481
    1C        C  143   3.477   2.484   2.789  0.2105 -0.4532  0.0499
    1C        C  144   3.689   2.496   2.912 -0.2340 -0.2033  0.0049
    1C        C  145   3.620   2.485   3.034  0.2310  0.4312  0.3276
    1C        C  146   3.829   2.535   3.156  0.2477  0.3312  0.0155
    1C        C  147   3.692   2.501   3.155  0.2883  0.1593  0.3293
    1C        C  148   3.894   2.559   3.278  0.0121 -0.2505  0.2614
    1C        C  149   3.824   2.544   3.400 -0.2377  0.2541  0.1803
    1C        C  150   4.020   2.627   3.521  0.0919  0.3208 -0.4121
    1C        C  151   3.892   2.567   3.521  0.1360  0.2228 -0.0247
    1C        C  152   4.081   2.665   3.642  0.0936 -0.2040 -0.2491
    1C        C  153   4.019   2.633   3.765 -0.0756  0.4138 -0.1747
    1C        C  154   4.183   2.770   3.885 -0.0809 -0.1691 -0.1583
    1C        C  155   4.073   2.680   3.887 -0.0533 -0.1961  0.0554
    1C        C  156   4.236   2.815   4.007 -0.1591  0.1177 -0.2352
    1C        C  157   4.188   2.763   4.129 -0.4686  0.4774 -0.2055
    1C        C  158   4.326   2.927   4.246 -0.4554  0.2377  0.0315
    1C        C  159   4.236   2.819   4.250 -0.0194 -0.1240 -0.1062
    1C        C  160   4.364   2.983   4.370  0.1603 -0.1312  0.0048
    1C        C  161   4.324   2.929   4.494  0.2771 -0.1582  0.0248
    1C        C  162   4.434   3.115   4.614  0.3068  0.2844 -0.3199
    1C        C  163   4.367   2.990   4.614  0.4533  0.2109 -0.2326
    1C        C  164   4.457   3.189   4.732  0.1561  0.1739 -0.2250
    1C        C  165   4.427   3.122   4.852  0.1323 -0.1020 -0.3862
    1C        C  166   4.527   3.315   4.968  0.7093  0.1884 -0.0475
    1C        C  167   4.479   3.184   4.967  0.3732  0.3163 -0.7233
    1C        C  168   3.468   2.440   2.070 -0.0476 -0.5771 -0.0391
    1C        C  169   3.394   2.454   2.189 -0.0505 -0.7575 -0.0199
    1C        C  170   3.614   2.466   2.306 -0.3469 -0.4553 -0.0834
    1C        C  171   3.472   2.461   2.307 -0.3705  0.2789  0.1324
    1C        C  172   3.689   2.479   2.424 -0.0267 -0.6264 -0.2685
    1C        C  173   3.617   2.480   2.546 -0.1445 -0.0273 -0.3416
    1C        C  174   3.822   2.539   2.666 -0.0672 -0.5117  0.1258
    1C        C  175   3.688   2.495   2.667  0.0634 -0.9223 -0.3470
    1C        C  176   3.890   2.555   2.789  0.1740 -0.6387  0.0093
    1C        C  177   3.825   2.534   2.913 -0.3208  0.1098 -0.1176
    1C        C  178   4.017   2.630   3.030 -0.0821  0.0787 -0.0355
    1C        C  179   3.892   2.565   3.033 -0.2668  0.4251 -0.2278
    1C        C  180   4.076   2.667   3.153 -0.1457  0.1550 -0.0308
    1C        C  181   4.016   2.630   3.275  0.3712 -0.8750 -0.0768
    1C        C  182   4.182   2.760   3.393  0.3298  0.0463 -0.2674
    1C        C  183   4.077   2.665   3.397  0.5647 -0.2106 -0.3581
    1C        C  184   4.229   2.810   3.516  0.0847 -0.1657 -0.0903
    1C        C  185   4.185   2.760   3.641  0.6157 -0.7650 -0.1395
    1C        C  186   4.332   2.915   3.760 -0.4733  0.2223 -0.1036
    1C        C  187   4.240   2.808   3.762  0.1070 -0.2803 -0.1021
    1C        C  188   4.376   2.973   3.881 -0.1138  0.1201 -0.1907
    1C        C  189   4.330   2.921   4.004 -0.6281  0.5286 -0.2166
    1C        C  190   4.445   3.103   4.126  0.3150 -0.4037 -0.2432
    1C        C  191   4.369   2.985   4.124 -0.7401  0.2663 -0.0482
    1C        C  192   4.467   3.169   4.249 -0.0293 -0.0827 -0.3570
    1C        C  193   4.428   3.109   4.371 -0.2503  0.0739 -0.3572
    1C        C  194   4.494   3.314   4.485  0.3983  0.0186  0.0573
    1C        C  195   4.459   3.178   4.490  0.1532  0.0659 -0.4588
    1C        C  196   4.512   3.387   4.605  0.5924  0.2474 -0.1112
    1C        C  197   4.500   3.324   4.731  0.2641  0.1370 -0.1970
    1C        C  198   4.547   3.534   4.848  0.5295  0.0895 -0.0484
    1C        C  199   4.533   3.392   4.851 -0.0396  0.1435 -0.1193
    1C        C  200   4.572   3.613   4.964  0.0673 -0.0052  0.1149
    1C        C  201   3.607   2.430   2.070 -0.0092 -0.1146  0.1860
    1C        C  202   3.822   2.511   2.181  0.0619 -0.2293  0.0411
    1C        C  203   3.684   2.471   2.183 -0.0487  0.1576  0.1126
    1C        C  204   3.896   2.535   2.300 -0.2264  0.4267  0.0885
    1C        C  205   3.825   2.518   2.421 -0.3506  0.5528  0.0331
    1C        C  206   4.011   2.623   2.543 -0.4078  0.4234 -0.3407
    1C        C  207   3.884   2.562   2.541 -0.3656  0.3234  0.1236
    1C        C  208   4.076   2.657   2.664 -0.4311 -0.1556 -0.1697
    1C        C  209   4.015   2.620   2.786  0.0123 -0.3309  0.0007
    1C        C  210   4.189   2.746   2.906  0.2813 -0.4442 -0.0441
    1C        C  211   4.076   2.662   2.906 -0.2653  0.2875 -0.0675
    1C        C  212   4.243   2.796   3.027  0.0272  0.3003 -0.2444
    1C        C  213   4.188   2.753   3.149 -0.3658  0.4232 -0.3817
    1C        C  214   4.333   2.907   3.267  0.2189 -0.1328 -0.2301
    1C        C  215   4.239   2.802   3.272  0.0892 -0.0166 -0.3985
    1C        C  216   4.361   2.972   3.390  0.2575 -0.3455 -0.1340
    1C        C  217   4.323   2.915   3.514  0.3704 -0.4248 -0.1412
    1C        C  218   4.426   3.098   3.635  0.0985 -0.1106  0.2614
    1C        C  219   4.370   2.969   3.635 -0.2310  0.0314 -0.1067
    1C        C  220   4.455   3.165   3.756  0.3721  0.0288  0.1147
    1C        C  221   4.440   3.099   3.880  0.1005  0.0106  0.0659
    1C        C  222   4.494   3.303   4.000  0.4663  0.0764 -0.1564
    1C        C  223   4.470   3.164   4.001  0.1208  0.1415 -0.0156
    1C        C  224   4.508   3.375   4.120  0.2119 -0.0411 -0.0602
    1C        C  225   4.495   3.307   4.243 -0.1902 -0.0436 -0.1058
    1C        C  226   4.507   3.524   4.361 -0.1200 -0.1751  0.2134
    1C        C  227   4.503   3.383   4.362  0.5954 -0.2045 -0.0513
    1C        C  228   4.521   3.597   4.481  0.0283  0.2229 -0.0449
    1C        C  229   4.529   3.527   4.603  0.6460  0.2401 -0.0722
    1C        C  230   4.504   3.740   4.723  0.7787  0.1916 -0.3357
    1C        C  231   4.533   3.601   4.723  0.6410  0.1609 -0.0228
    1C        C  232   4.497   3.815   4.843  0.8938  0.1997 -0.3321
    1C        C  233   4.545   3.751   4.958  0.4559  0.0588 -0.2253
    1C        C  234   4.016   2.600   2.062  0.0738 -0.6588 -0.3807
    1C        C  235   3.892   2.537   2.062 -0.0848 -0.3531 -0.0717
    1C        C  236   4.083   2.640   2.178 -0.6659  0.2069 -0.2375
    1C        C  237   4.022   2.601   2.299  0.0732 -0.1405  0.0333
    1C        C  238   4.193   2.730   2.422 -0.0961  0.5324 -0.2100
    1C        C  239   4.077   2.647   2.420 -0.0601  0.4826 -0.1415
    1C        C  240   4.250   2.780   2.541 -0.3230  0.1730  0.0487
    1C        C  241   4.189   2.741   2.662 -0.6302  0.1087 -0.1280
    1C        C  242   4.330   2.901   2.782 -0.0344 -0.4408 -0.0628
    1C        C  243   4.241   2.792   2.783  0.0398 -0.4972 -0.1609
    1C        C  244   4.372   2.961   2.903 -0.1200  0.0402 -0.2763
    1C        C  245   4.333   2.906   3.027 -0.0155  0.3288 -0.1190
    1C        C  246   4.434   3.096   3.147  0.2283  0.1653  0.3395
    1C        C  247   4.373   2.969   3.146 -0.0999  0.3281 -0.0965
    1C        C  248   4.447   3.163   3.270  0.8307  0.0075  0.3580
    1C        C  249   4.418   3.101   3.393  0.1221 -0.2951  0.0320
    1C        C  250   4.487   3.303   3.512  0.3020 -0.5308 -0.2446
    1C        C  251   4.452   3.166   3.513  0.3860 -0.5447  0.0862
    1C        C  252   4.507   3.370   3.634 -0.1234 -0.4153 -0.2411
    1C        C  253   4.489   3.302   3.756 -0.0109  0.1199  0.0747
    1C        C  254   4.513   3.514   3.877  0.1319  0.2829  0.3376
    1C        C  255   4.502   3.373   3.877  0.2924  0.2716 -0.0507
    1C        C  256   4.516   3.589   3.997 -0.4288  0.4875  0.2248
    1C        C  257   4.517   3.516   4.118 -0.2793 -0.0096 -0.0759
    1C        C  258   4.486   3.731   4.237 -0.0205 -0.2573  0.0777
    1C        C  259   4.507   3.591   4.237 -0.7050 -0.3636  0.1120
    1C        C  260   4.468   3.800   4.358  0.3021  0.4489 -0.2722
    1C        C  261   4.489   3.735   4.482 -0.7132  0.0574 -0.2956
    1C        C  262   4.418   3.936   4.602  0.2012  0.1662 -0.0919
    1C        C  263   4.473   3.806   4.602 -0.0023  0.0764 -0.2085
    1C        C  264   4.399   4.006   4.723  0.5587  0.1647 -0.0351
    1C        C  265   4.435   3.942   4.844  0.4027 -0.0366 -0.0942
    1C        C  266   4.312   4.121   4.957  0.0893  0.3871  0.0286
    1C        C  267   4.386   4.004   4.959  0.8051  0.8259 -0.3788
    1C        C  268   4.257   2.768   2.061 -0.1015 -0.2639 -0.0626
    1C        C  269   4.199   2.721   2.180 -0.5986  0.1083 -0.1561
    1C        C  270   4.337   2.886   2.296 -0.1242  0.1820  0.1120
    1C        C  271   4.248   2.776   2.300 -0.1899  0.2178 -0.3698
    1C        C  272   4.373   2.952   2.416  0.4379 -0.1991  0.1577
    1C        C  273   4.333   2.894   2.538 -0.2521  0.1183  0.0827
    1C        C  274   4.435   3.083   2.658 -0.2665  0.0660  0.1161
    1C        C  275   4.369   2.958   2.659 -0.2236  0.0484  0.1065
    1C        C  276   4.453   3.155   2.778  0.4012  0.2215 -0.0788
    1C        C  277   4.431   3.089   2.901  0.7807 -0.3763 -0.3280
    1C        C  278   4.495   3.292   3.022  0.0099 -0.7081 -0.3384
    1C        C  279   4.466   3.154   3.022  0.5835 -0.8265 -0.0328
    1C        C  280   4.504   3.363   3.143 -0.5293 -0.2323 -0.5777
    1C        C  281   4.485   3.299   3.268  0.4508  0.1008 -0.2481
    1C        C  282   4.506   3.511   3.388 -0.7913 -0.0522  0.1059
    1C        C  283   4.501   3.370   3.389 -0.2281 -0.0735 -0.0561
    1C        C  284   4.512   3.582   3.510 -0.2865 -0.3923  0.2786
    1C        C  285   4.517   3.511   3.632 -0.3022 -0.3958  0.2743
    1C        C  286   4.492   3.722   3.750 -0.7145 -0.2020 -0.4707
    1C        C  287   4.507   3.582   3.754 -0.4987 -0.1615  0.1197
    1C        C  288   4.477   3.793   3.871 -0.5565 -0.3302 -0.3759
    1C        C  289   4.491   3.728   3.995 -0.1898  0.5293  0.0411
    1C        C  290   4.421   3.932   4.112 -0.7107 -0.1251 -0.2568
    1C        C  291   4.473   3.801   4.115 -0.0915  0.1264  0.3032
    1C        C  292   4.385   3.995   4.233 -0.5888  0.0636 -0.3173
    1C        C  293   4.421   3.933   4.355 -0.0763  0.3161 -0.3371
    1C        C  294   4.318   4.118   4.476 -0.4124 -0.2688 -0.0317
    1C        C  295   4.388   3.996   4.477  0.1599  0.0553 -0.1373
    1C        C  296   4.281   4.182   4.597 -0.3040 -0.1457 -0.0612
    1C        C  297   4.324   4.127   4.720  0.6069  0.1904 -0.2256
    1C        C  298   4.196   4.305   4.832 -0.0853 -0.2475 -0.0302
    1C        C  299   4.280   4.189   4.839  0.2693 -0.0034 -0.2468
    1C        C  300   4.165   4.394   4.940 -0.1605 -0.2910 -0.0171
    1C        C  301   4.343   2.877   2.057  0.2800 -0.5656 -0.1931
    1C        C  302   4.462   3.061   2.175 -0.0981 -0.4639  0.1550
    1C        C  303   4.390   2.938   2.175  0.1099 -0.5842 -0.1153
    1C        C  304   4.473   3.139   2.293  0.3856 -0.1347 -0.1055
    1C        C  305   4.438   3.077   2.415  0.4296 -0.1993 -0.1284
    1C        C  306   4.492   3.286   2.532 -0.1691 -0.1239  0.2507
    1C        C  307   4.460   3.148   2.535 -0.8303  0.0244 -0.0167
    1C        C  308   4.501   3.358   2.653  0.0188  0.2068  0.0355
    1C        C  309   4.490   3.291   2.777 -0.1850  0.3762  0.1017
    1C        C  310   4.519   3.501   2.896  0.2346  0.2878  0.1173
    1C        C  311   4.508   3.360   2.899 -0.6045  0.3526  0.1737
    1C        C  312   4.506   3.572   3.018 -0.4039 -0.1496  0.3029
    1C        C  313   4.504   3.504   3.142 -0.6285 -0.2205  0.2575
    1C        C  314   4.488   3.717   3.261 -0.1473  0.0210  0.0200
    1C        C  315   4.502   3.577   3.263 -0.2251  0.0176  0.1220
    1C        C  316   4.477   3.787   3.383 -0.1908  0.0130  0.0178
    1C        C  317   4.494   3.722   3.506 -0.5097 -0.4333 -0.1726
    1C        C  318   4.432   3.926   3.622 -0.4069 -0.0073 -0.3115
    1C        C  319   4.476   3.792   3.628 -0.3663  0.0025 -0.4011
    1C        C  320   4.393   3.985   3.743 -0.1835  0.0219 -0.2531
    1C        C  321   4.419   3.922   3.867 -0.5630 -0.3324 -0.3499
    1C        C  322   4.316   4.110   3.987 -0.6099 -0.3115  0.0889
    1C        C  323   4.390   3.990   3.987 -0.5906 -0.3051 -0.3708
    1C        C  324   4.265   4.165   4.106 -0.5653  0.4586 -0.2400
    1C        C  325   4.309   4.114   4.230 -1.0231 -0.2101 -0.3484
    1C        C  326   4.177   4.276   4.353  0.1304  0.0732 -0.2059
    1C        C  327   4.276   4.174   4.354 -0.2122 -0.2607 -0.0980
    1C        C  328   4.131   4.332   4.473  0.3871  0.2014 -0.1663
    1C        C  329   4.183   4.284   4.595 -0.1924 -0.0357 -0.0088
    1C        C  330   4.008   4.416   4.713 -0.0434  0.0537 -0.0295
    1C        C  331   4.125   4.336   4.712 -0.0157  0.0947  0.0192
    1C        C  332   3.959   4.473   4.832 -0.1048 -0.2228  0.0794
    1C        C  333   4.047   4.470   4.940 -0.2112 -0.3704  0.1615
    1C        C  334   4.541   3.260   2.060 -0.6290 -0.0617  0.0225
    1C        C  335   4.527   3.121   2.062  0.1762 -0.1394  0.4867
    1C        C  336   4.528   3.346   2.170 -0.0766 -0.2809  0.2636
    1C        C  337   4.509   3.276   2.291  0.6333 -0.1906  0.4261
    1C        C  338   4.511   3.494   2.407 -0.4305 -0.0155 -0.1280
    1C        C  339   4.511   3.353   2.409 -0.1722 -0.0058  0.3215
    1C        C  340   4.520   3.568   2.527 -0.1860  0.1011 -0.2247
    1C        C  341   4.523   3.497   2.649  0.1724  0.1699 -0.2003
    1C        C  342   4.481   3.704   2.772 -0.6325 -0.2017  0.1634
    1C        C  343   4.516   3.567   2.772 -0.2555 -0.0991 -0.0755
    1C        C  344   4.469   3.776   2.892 -0.5312  0.2890 -0.1242
    1C        C  345   4.481   3.711   3.017 -0.3993 -0.1524 -0.3713
    1C        C  346   4.427   3.917   3.135 -0.8101 -0.3345 -0.0139
    1C        C  347   4.476   3.784   3.137 -1.3317 -0.5304 -0.1734
    1C        C  348   4.402   3.986   3.256 -0.6261 -0.1870 -0.0645
    1C        C  349   4.431   3.921   3.378 -0.5060 -0.0978 -0.0486
    1C        C  350   4.322   4.103   3.499 -0.5046  0.1498 -0.1069
    1C        C  351   4.407   3.990   3.498 -0.4651  0.1811 -0.2008
    1C        C  352   4.273   4.158   3.619 -0.0018  0.1176  0.1164
    1C        C  353   4.317   4.105   3.742 -0.1304  0.0608  0.1381
    1C        C  354   4.177   4.266   3.860  0.4628  0.5657 -0.1874
    1C        C  355   4.278   4.166   3.863  0.2485  0.3553  0.1144
    1C        C  356   4.121   4.311   3.982 -0.0712  0.3430 -0.3464
    1C        C  357   4.163   4.263   4.107 -0.5260  0.4994 -0.1332
    1C        C  358   4.009   4.402   4.225  0.3244  1.0177 -0.1704
    1C        C  359   4.125   4.321   4.230 -0.0431  0.4951  0.0238
    1C        C  360   3.951   4.446   4.346 -0.1903 -0.0607 -0.0138
    1C        C  361   4.018   4.417   4.467  0.4158  0.2336 -0.2714
    1C        C  362   3.824   4.510   4.589  0.3615 -0.0028  0.1179
    1C        C  363   3.950   4.446   4.588  0.4845  0.2396 -0.2332
    1C        C  364   3.757   4.541   4.709  0.1198 -0.8408  0.2047
    1C        C  365   3.828   4.526   4.830 -0.0156  0.0147  0.3990
    1C        C  366   3.623   4.592   4.947  0.0899  0.2090  0.4828
    1C        C  367   3.759   4.562   4.947 -0.1019 -0.6865  0.5733
    1C        C  368   4.504   3.562   2.049 -0.3763 -0.2170  0.1355
    1C        C  369   4.516   3.487   2.167 -0.0185 -0.2831  0.0546
    1C        C  370   4.495   3.705   2.283 -0.0280 -0.0310  0.1077
    1C        C  371   4.510   3.564   2.284  0.3059  0.0071 -0.1233
    1C        C  372   4.475   3.773   2.405 -0.1188 -0.1087  0.1289
    1C        C  373   4.493   3.707   2.528 -0.3185  0.0643  0.2423
    1C        C  374   4.422   3.907   2.648  0.0745  0.0558 -0.1325
    1C        C  375   4.472   3.775   2.650  0.1644  0.1049  0.2914
    1C        C  376   4.394   3.973   2.770 -0.1681  0.0768 -0.2077
    1C        C  377   4.426   3.910   2.892 -0.4741  0.3015 -0.0194
    1C        C  378   4.316   4.094   3.011 -0.4729  0.0709 -0.3446
    1C        C  379   4.399   3.980   3.012 -0.5378  0.0330  0.1157
    1C        C  380   4.273   4.151   3.132 -0.0020  0.0219 -0.1602
    1C        C  381   4.320   4.101   3.256 -0.2910  0.0499 -0.0418
    1C        C  382   4.177   4.257   3.374 -0.1227  0.4373 -0.0153
    1C        C  383   4.275   4.156   3.378 -0.3558  0.2069 -0.1383
    1C        C  384   4.120   4.302   3.495 -0.0844  0.1011  0.1284
    1C        C  385   4.178   4.263   3.618  0.1520  0.2580  0.0685
    1C        C  386   4.005   4.389   3.740  0.0495  0.2163  0.2302
    1C        C  387   4.124   4.313   3.738  0.5420  0.9899 -0.0585
    1C        C  388   3.946   4.429   3.862  0.0929  0.5480  0.1422
    1C        C  389   4.010   4.398   3.984  0.1783  0.6607  0.1270
    1C        C  390   3.814   4.488   4.103 -0.0349  0.9776  0.0533
    1C        C  391   3.945   4.434   4.104 -0.2776  0.3778 -0.0305
    1C        C  392   3.749   4.514   4.226 -0.0446 -0.0534  0.2717
    1C        C  393   3.823   4.505   4.346  0.1909  0.7863  0.1941
    1C        C  394   3.615   4.552   4.470  0.1249  0.0004  0.4593
    1C        C  395   3.754   4.528   4.467  0.1886  0.3835  0.2698
    1C        C  396   3.542   4.566   4.591  0.0409 -0.6677  0.4964
    1C        C  397   3.617   4.560   4.710  0.1604 -0.5434  0.4308
    1C        C  398   3.407   4.548   4.829  0.3041 -0.3925  0.0318
    1C        C  399   3.546   4.570   4.832  0.2144  0.1382  0.4114
    1C        C  400   3.334   4.527   4.947 -0.2076 -0.3418 -0.2743
    1C        C  401   4.490   3.700   2.048  0.0937 -0.1685  0.3120
    1C        C  402   4.449   3.915   2.162 -0.5301 -0.1342 -0.1738
    1C        C  403   4.484   3.779   2.163  0.3017  0.0821  0.1517
    1C        C  404   4.401   3.973   2.281 -0.4959 -0.3217 -0.0753
    1C        C  405   4.418   3.902   2.402 -0.9977 -0.4991 -0.1136
    1C        C  406   4.318   4.089   2.525 -0.6045 -0.3138  0.0175
    1C        C  407   4.391   3.967   2.524 -0.6578 -0.3346 -0.1331
    1C        C  408   4.270   4.144   2.646 -0.7832 -0.2670 -0.0836
    1C        C  409   4.312   4.088   2.769 -0.5113 -0.1753 -0.1429
    1C        C  410   4.173   4.251   2.885  0.5274  1.0865 -0.4329
    1C        C  411   4.267   4.146   2.889 -0.6949 -0.0254 -0.2918
    1C        C  412   4.115   4.291   3.007  0.6568  0.4569 -0.1688
    1C        C  413   4.176   4.254   3.129  0.2490  0.2611 -0.0271
    1C        C  414   4.003   4.376   3.252  0.1770  0.4314 -0.1112
    1C        C  415   4.121   4.299   3.251  0.3031  0.6275 -0.1414
    1C        C  416   3.938   4.409   3.373  0.3167  0.4923 -0.0523
    1C        C  417   3.998   4.374   3.495  0.2099  0.6085  0.0350
    1C        C  418   3.807   4.462   3.617  0.4063  0.6261  0.0719
    1C        C  419   3.940   4.413   3.617  0.4277  0.6827  0.1172
    1C        C  420   3.742   4.493   3.738  0.2608  0.6195 -0.0032
    1C        C  421   3.812   4.473   3.859  0.1156  0.6170  0.0819
    1C        C  422   3.609   4.537   3.980 -0.1594  0.0769  0.1764
    1C        C  423   3.746   4.502   3.981  0.0201  0.7611 -0.0027
    1C        C  424   3.539   4.548   4.103  0.0000 -0.4607  0.3198
    1C        C  425   3.610   4.535   4.224 -0.0819 -0.2872  0.3865
    1C        C  426   3.403   4.542   4.349  0.1341 -0.2952  0.2900
    1C        C  427   3.544   4.550   4.348  0.1205  0.0003  0.4608
    1C        C  428   3.330   4.538   4.470 -0.2834 -0.2120  0.0440
    1C        C  429   3.401   4.557   4.591 -0.0393  0.2987 -0.1751
    1C        C  430   3.189   4.523   4.713  0.2825  0.3757  0.1928
    1C        C  431   3.329   4.549   4.712  0.3068  0.2402  0.0301
    1C        C  432   3.122   4.489   4.834 -0.1054 -0.5562 -0.2694
    1C        C  433   3.196   4.507   4.951 -0.2027 -0.3669 -0.2357
    1C        C  434   4.383   4.126   2.050 -0.5475  0.3450  0.3439
    1C        C  435   4.440   3.998   2.049 -0.9884  0.1508  0.0724
    1C        C  436   4.297   4.159   2.159 -0.5240  0.1186  0.4230
    1C        C  437   4.331   4.097   2.282  0.0341 -0.0310  0.1868
    1C        C  438   4.178   4.247   2.399  0.2028  0.4022 -0.0646
    1C        C  439   4.278   4.146   2.403 -0.0964  0.1184  0.0592
    1C        C  440   4.119   4.292   2.519  0.0493  0.2603 -0.0930
    1C        C  441   4.173   4.246   2.641 -0.4430  0.0544  0.0417
    1C        C  442   4.006   4.378   2.764  0.2605  1.4669  0.0697
    1C        C  443   4.123   4.300   2.762 -0.0303  1.0415 -0.2228
    1C        C  444   3.942   4.409   2.886  0.1411  0.3945  0.2838
    1C        C  445   3.995   4.366   3.009  0.5856  0.3330  0.0679
    1C        C  446   3.807   4.460   3.127  0.1900  0.4638 -0.3537
    1C        C  447   3.938   4.408   3.131  0.0800  0.1975 -0.1210
    1C        C  448   3.741   4.483   3.250  0.5634  0.6103 -0.1784
    1C        C  449   3.808   4.466   3.373  0.1809  0.1822 -0.0231
    1C        C  450   3.606   4.525   3.494  0.2688  0.0299 -0.1943
    1C        C  451   3.743   4.494   3.495  0.3361  0.3260  0.0280
    1C        C  452   3.534   4.535   3.615  0.3551 -0.3790 -0.1067
    1C        C  453   3.606   4.532   3.736  0.2511  0.5886 -0.0143
    1C        C  454   3.398   4.542   3.862  0.1322  0.1915  0.0629
    1C        C  455   3.538   4.551   3.859  0.1381  0.0906  0.0040
    1C        C  456   3.328   4.529   3.984  0.3360 -0.3031  0.1303
    1C        C  457   3.398   4.541   4.106  0.0183 -0.8104  0.3626
    1C        C  458   3.193   4.494   4.230  0.0734 -0.8724  0.0165
    1C        C  459   3.330   4.528   4.229  0.0882 -0.9237  0.3894
    1C        C  460   3.125   4.478   4.352 -0.0259 -0.3860  0.0280
    1C        C  461   3.191   4.513   4.471 -0.3584  0.1919  0.0464
    1C        C  462   2.994   4.436   4.596  0.1960  0.0495  0.1930
    1C        C  463   3.119   4.500   4.592  0.0895  0.2679  0.3235
    1C        C  464   2.929   4.395   4.715 -0.1731 -0.2810 -0.1188
    1C        C  465   2.989   4.437   4.837 -0.2510 -0.1790 -0.1156
    1C        C  466   2.800   4.338   4.954  0.0983 -0.1571  0.2711
    1C        C  467   2.900   4.436   4.949  0.0784 -0.1422  0.1454
    1C        C  468   4.118   4.282   2.036  0.3143 -0.1894 -0.4966
    1C        C  469   4.183   4.246   2.155 -0.2995  0.3834  0.0126
    1C        C  470   4.003   4.366   2.275  0.2500  0.9084  0.0660
    1C        C  471   4.124   4.291   2.276  0.1657  0.7798  0.0926
    1C        C  472   3.941   4.404   2.396  0.0784  0.4133  0.1347
    1C        C  473   3.999   4.366   2.519 -0.0197  0.1381  0.0917
    1C        C  474   3.810   4.457   2.643  0.0989  0.8591 -0.3040
    1C        C  475   3.942   4.408   2.641 -0.0632  0.4124 -0.0259
    1C        C  476   3.739   4.479   2.763  0.1380  0.1646 -0.1522
    1C        C  477   3.810   4.460   2.883  0.1390  0.3645 -0.1223
    1C        C  478   3.605   4.517   3.004  0.0803  0.6709  0.0433
    1C        C  479   3.742   4.483   3.004  0.1971  1.1314 -0.2328
    1C        C  480   3.535   4.525   3.127  0.1305  0.2539  0.1005
    1C        C  481   3.604   4.516   3.249  0.3916 -0.0823 -0.0702
    1C        C  482   3.395   4.530   3.372  0.2306 -0.1290  0.3911
    1C        C  483   3.536   4.532   3.372  0.2308  0.0299 -0.1732
    1C        C  484   3.323   4.521   3.494  0.4699 -0.8684  0.4835
    1C        C  485   3.393   4.535   3.616  0.3550 -0.4006  0.5009
    1C        C  486   3.189   4.497   3.740 -0.0172 -0.5583  0.0476
    1C        C  487   3.326   4.530   3.741 -0.1584  0.0344  0.2483
    1C        C  488   3.123   4.481   3.864  0.2203  0.0275  0.2511
    1C        C  489   3.189   4.506   3.986  0.3286 -0.2498  0.2506
    1C        C  490   2.999   4.410   4.109 -0.0308 -0.4348  0.1138
    1C        C  491   3.125   4.474   4.108 -0.1082 -0.2822  0.0157
    1C        C  492   2.936   4.381   4.231 -0.4859 -0.2745 -0.0816
    1C        C  493   2.996   4.420   4.353 -0.0579 -0.3218 -0.2754
    1C        C  494   2.826   4.302   4.477 -0.0751  0.5522 -0.0371
    1C        C  495   2.931   4.396   4.476  0.5121 -0.0903  0.0733
    1C        C  496   2.768   4.255   4.597 -0.1867  0.1845 -0.2317
    1C        C  497   2.813   4.313   4.718 -0.4576  0.1156 -0.0955
    1C        C  498   2.661   4.168   4.842 -0.6080  0.5187 -0.0417
    1C        C  499   2.747   4.279   4.838  0.1313 -0.0366  0.1915
    1C        C  500   2.592   4.119   4.954 -0.0068 -0.2209  0.0170
    1C        C  501   3.998   4.351   2.035  0.5542  0.2432  0.3297
    1C        C  502   3.809   4.453   2.153 -0.1602 -0.1297 -0.5058
    1C        C  503   3.938   4.396   2.154  0.0774  0.3986  0.0309
    1C        C  504   3.743   4.479   2.275  0.2070  0.5574 -0.4441
    1C        C  505   3.808   4.452   2.397  0.0258  0.2819 -0.4064
    1C        C  506   3.606   4.511   2.522  0.0691  0.0849  0.1748
    1C        C  507   3.743   4.478   2.520  0.2138  0.6948 -0.3936
    1C        C  508   3.530   4.523   2.640 -0.1600 -0.1128  0.0494
    1C        C  509   3.602   4.514   2.761  0.2157  0.4619 -0.1276
    1C        C  510   3.392   4.519   2.887  0.2558  0.0691  0.1066
    1C        C  511   3.533   4.527   2.883  0.2419  0.2305 -0.0892
    1C        C  512   3.323   4.515   3.010  0.5909 -0.8196  0.2771
    1C        C  513   3.393   4.527   3.132  0.1377 -0.1041  0.4787
    1C        C  514   3.184   4.487   3.251 -0.0627  0.5015  0.5590
    1C        C  515   3.320   4.525   3.252  0.1105 -0.1058  0.4636
    1C        C  516   3.120   4.460   3.373 -0.0506 -0.1195  0.4329
    1C        C  517   3.186   4.487   3.495  0.2639 -0.0752  0.2522
    1C        C  518   2.997   4.401   3.623  0.1063 -0.8031  0.0883
    1C        C  519   3.122   4.468   3.619  0.0392 -0.6788  0.0445
    1C        C  520   2.937   4.367   3.746  0.4749 -0.2255  0.4312
    1C        C  521   3.005   4.403   3.864  0.5358 -0.4516  0.4643
    1C        C  522   2.841   4.271   3.990 -0.3652 -0.1736  0.0522
    1C        C  523   2.944   4.367   3.986 -0.0862 -0.4678  0.1509
    1C        C  524   2.785   4.230   4.113 -0.5580 -0.2485 -0.0585
    1C        C  525   2.829   4.288   4.234 -0.5961 -0.1487 -0.0917
    1C        C  526   2.688   4.135   4.360 -0.1979  0.1654 -0.0386
    1C        C  527   2.778   4.244   4.358 -0.1620  0.1411  0.1932
    1C        C  528   2.644   4.080   4.482 -0.1611  0.2660  0.0216
    1C        C  529   2.679   4.145   4.602 -0.1060  0.1295  0.0805
    1C        C  530   2.586   3.958   4.729 -0.5803  0.3630 -0.1913
    1C        C  531   2.636   4.091   4.725 -0.4465  0.3226  0.0492
    1C        C  532   2.548   3.899   4.853 -0.2363  0.1307 -0.1948
    1C        C  533   2.533   3.993   4.960 -0.2373 -0.1147  0.0194
    1C        C  534   3.616   4.558   2.041  0.1124  0.4294 -0.0614
    1C        C  535   3.744   4.502   2.039 -0.1155 -0.0945 -0.5158
    1C        C  536   3.535   4.536   2.157  0.0474  0.3259 -0.1250
    1C        C  537   3.606   4.519   2.279  0.2073  0.5354 -0.1884
    1C        C  538   3.393   4.523   2.399  0.4662  1.5118  0.1890
    1C        C  539   3.534   4.523   2.401  0.4812  0.5534 -0.0247
    1C        C  540   3.318   4.518   2.518  0.3333  0.1522  0.0707
    1C        C  541   3.389   4.517   2.640 -0.1461 -0.4961  0.3539
    1C        C  542   3.185   4.476   2.762 -0.1835 -0.0119  0.0745
    1C        C  543   3.323   4.508   2.764 -0.2372  0.2122  0.3649
    1C        C  544   3.120   4.450   2.885  0.3076 -0.0855  0.3245
    1C        C  545   3.187   4.475   3.006  0.6084 -0.8864  0.3253
    1C        C  546   2.995   4.390   3.130  0.6209 -0.3257  0.2039
    1C        C  547   3.120   4.457   3.129  0.5461 -0.1795  0.3971
    1C        C  548   2.935   4.355   3.253  0.0942 -0.0910  0.0181
    1C        C  549   2.993   4.397   3.375  0.2822 -0.8019  0.1780
    1C        C  550   2.831   4.273   3.502 -0.3586 -0.1156  0.0931
    1C        C  551   2.937   4.366   3.500 -0.2097 -0.2841  0.0896
    1C        C  552   2.775   4.231   3.625 -0.0606 -0.2504  0.1848
    1C        C  553   2.829   4.277   3.747  0.4053 -0.1478 -0.0581
    1C        C  554   2.691   4.118   3.871  0.0928 -0.1478 -0.0914
    1C        C  555   2.785   4.223   3.869  0.0414 -0.1026 -0.1684
    1C        C  556   2.645   4.066   3.994 -0.0173 -0.3716 -0.2233
    1C        C  557   2.693   4.124   4.114 -0.2905 -0.4829 -0.0618
    1C        C  558   2.592   3.945   4.241 -0.4727  0.2855  0.1113
    1C        C  559   2.647   4.075   4.239 -1.0795  0.5478  0.0659
    1C        C  560   2.564   3.882   4.365 -0.6966  0.4626  0.1519
    1C        C  561   2.586   3.951   4.486 -0.1960  0.2846  0.1615
    1C        C  562   2.531   3.750   4.611 -0.6742  0.0579  0.0742
    1C        C  563   2.565   3.887   4.609 -0.2109 -0.0533 -0.0148
    1C        C  564   2.527   3.680   4.734 -0.3447  0.0720  0.0946
    1C        C  565   2.529   3.757   4.853  0.3150  0.0536  0.0947
    1C        C  566   2.547   3.541   4.974  0.5995 -0.1424  0.1174
    1C        C  567   2.532   3.679   4.969  0.6292 -0.1442 -0.0443
    1C        C  568   3.327   4.473   2.039  0.2802  0.1707  0.0949
    1C        C  569   3.395   4.513   2.155  0.0580  0.2115  0.2121
    1C        C  570   3.188   4.464   2.278  0.2782  0.5119  0.3214
    1C        C  571   3.323   4.507   2.277  0.3672  0.2404  0.3974
    1C        C  572   3.118   4.446   2.399  0.1154 -0.7254  0.0544
    1C        C  573   3.184   4.473   2.521  0.4368 -0.1852 -0.2361
    1C        C  574   2.988   4.392   2.644  0.6173 -0.4832  0.1750
    1C        C  575   3.115   4.454   2.642  0.3038  0.1670 -0.2530
    1C        C  576   2.928   4.353   2.766  0.3365 -0.3542  0.0823
    1C        C  577   2.995   4.385   2.886  0.4401 -0.3509  0.0261
    1C        C  578   2.824   4.263   3.012  0.5151 -0.0754 -0.0875
    1C        C  579   2.936   4.349   3.009  0.6294 -0.2108  0.1599
    1C        C  580   2.773   4.217   3.135  0.6593 -0.2820 -0.1038
    1C        C  581   2.828   4.264   3.257  0.1589 -0.1660  0.0808
    1C        C  582   2.694   4.109   3.385 -0.5844  0.2409  0.0831
    1C        C  583   2.776   4.224   3.382 -0.1797 -0.0451 -0.0192
    1C        C  584   2.651   4.054   3.507 -0.2320 -0.3373 -0.0453
    1C        C  585   2.688   4.119   3.627  0.0564 -0.3502 -0.1248
    1C        C  586   2.586   3.934   3.754 -1.1339  0.4733  0.1429
    1C        C  587   2.650   4.059   3.749 -0.4379  0.1125 -0.0430
    1C        C  588   2.557   3.871   3.877 -0.7070  0.1375  0.0740
    1C        C  589   2.583   3.940   3.997 -0.5535 -0.1013  0.1797
    1C        C  590   2.529   3.739   4.123 -0.4707 -0.0546 -0.0273
    1C        C  591   2.564   3.876   4.121  0.2931 -0.2449  0.2370
    1C        C  592   2.514   3.673   4.247 -0.3873  0.2960  0.1717
    1C        C  593   2.532   3.745   4.367 -0.5306  0.4235  0.1157
    1C        C  594   2.518   3.535   4.492  0.0091  0.1665 -0.2168
    1C        C  595   2.525   3.676   4.490 -0.6618  0.2033 -0.0144
    1C        C  596   2.523   3.467   4.615 -0.2549  0.3366 -0.1120
    1C        C  597   2.529   3.538   4.737  0.1516  0.0771  0.0224
    1C        C  598   2.538   3.323   4.856  0.1553  0.0815 -0.0252
    1C        C  599   2.535   3.464   4.857  0.1349  0.0787  0.0220
    1C        C  600   2.534   3.248   4.974  0.0372  0.3230  0.1258
    1C        C  601   3.194   4.437   2.038  0.3056  0.0752  0.0894
    1C        C  602   2.986   4.384   2.158  0.6178 -0.0597 -0.1952
    1C        C  603   3.120   4.433   2.157  0.5867  0.0445  0.2644
    1C        C  604   2.923   4.354   2.282  0.4417  0.1627 -0.2304
    1C        C  605   2.988   4.391   2.402 -0.1912 -0.0122  0.1726
    1C        C  606   2.811   4.270   2.526 -0.0458 -0.0388  0.0589
    1C        C  607   2.923   4.356   2.523  0.3786 -0.5711  0.3251
    1C        C  608   2.761   4.219   2.647 -0.0603 -0.1401  0.0133
    1C        C  609   2.816   4.267   2.768  0.1410 -0.1101 -0.0881
    1C        C  610   2.684   4.105   2.895 -0.0906  0.3494 -0.0438
    1C        C  611   2.765   4.220   2.891  0.0512  0.2536  0.0161
    1C        C  612   2.643   4.049   3.018 -0.2801  0.6628  0.0413
    1C        C  613   2.687   4.105   3.140 -0.1177  0.3161  0.1458
    1C        C  614   2.580   3.927   3.264 -0.6609  0.3900  0.1909
    1C        C  615   2.652   4.049   3.264 -0.6458  0.3843  0.0309
    1C        C  616   2.556   3.864   3.388 -0.8684  0.1827  0.0496
    1C        C  617   2.580   3.931   3.510 -0.6983 -0.0692  0.1578
    1C        C  618   2.526   3.728   3.636 -0.4409  0.0397 -0.0238
    1C        C  619   2.565   3.864   3.633 -0.7770  0.1451  0.2676
    1C        C  620   2.513   3.661   3.759 -0.6980 -0.0124 -0.0778
    1C        C  621   2.519   3.735   3.880 -0.3774  0.0386 -0.1221
    1C        C  622   2.516   3.525   4.005  0.2869  0.0572  0.1264
    1C        C  623   2.519   3.666   4.003 -0.6572  0.0817 -0.0960
    1C        C  624   2.524   3.457   4.129  1.0147  0.1549  0.1363
    1C        C  625   2.518   3.532   4.249  0.1539  0.3083  0.0079
    1C        C  626   2.540   3.323   4.375  0.1815  0.0299 -0.1678
    1C        C  627   2.517   3.462   4.371  0.2591  0.0423 -0.1429
    1C        C  628   2.559   3.252   4.496  0.3205  0.4329  0.0484
    1C        C  629   2.545   3.327   4.614  0.5855  0.4618  0.0611
    1C        C  630   2.603   3.120   4.738  0.8233  0.3380  0.1398
    1C        C  631   2.563   3.256   4.734 -0.1939  0.0371 -0.0722
    1C        C  632   2.617   3.048   4.860  0.7505  0.4345  0.2042
    1C        C  633   2.558   3.110   4.975  0.4478  0.3943  0.0736
    1C        C  634   2.783   4.294   2.048 -0.1074  0.1997  0.1792
    1C        C  635   2.894   4.381   2.049 -0.0654  0.1449  0.3675
    1C        C  636   2.753   4.221   2.163 -0.2992  0.3170  0.2034
    1C        C  637   2.813   4.263   2.284  0.2394  0.4039 -0.0937
    1C        C  638   2.682   4.099   2.408  0.8281 -0.1619 -0.1315
    1C        C  639   2.759   4.217   2.406  0.1483  0.2901 -0.1750
    1C        C  640   2.638   4.043   2.530  0.3320  0.0594 -0.2032
    1C        C  641   2.673   4.109   2.650 -0.0477 -0.1523  0.0312
    1C        C  642   2.580   3.921   2.775 -0.9247  0.4938  0.2492
    1C        C  643   2.638   4.050   2.773 -0.5125  0.3140  0.1271
    1C        C  644   2.566   3.851   2.897 -0.8652  0.6795  0.3680
    1C        C  645   2.585   3.920   3.019 -0.7027  0.8501  0.2511
    1C        C  646   2.520   3.724   3.147 -0.4202  0.4109 -0.2062
    1C        C  647   2.553   3.861   3.143 -0.4766  0.4405  0.1184
    1C        C  648   2.513   3.655   3.270 -0.1077  0.3005 -0.2467
    1C        C  649   2.528   3.726   3.391 -0.2472  0.0511 -0.0782
    1C        C  650   2.505   3.517   3.516  0.2906 -0.0270 -0.2065
    1C        C  651   2.515   3.658   3.514  0.2436 -0.0194 -0.0576
    1C        C  652   2.512   3.448   3.639 -0.2093  0.0542 -0.1304
    1C        C  653   2.513   3.520   3.761 -0.1975 -0.0138 -0.0894
    1C        C  654   2.551   3.315   3.889  0.1078  0.3003 -0.0525
    1C        C  655   2.518   3.452   3.884 -0.3796  0.1889  0.0306
    1C        C  656   2.562   3.246   4.012  0.6352  0.3404 -0.0783
    1C        C  657   2.548   3.318   4.133  0.4363  0.0513  0.0694
    1C        C  658   2.606   3.117   4.254  0.8548  0.0363 -0.1067
    1C        C  659   2.557   3.250   4.256  0.3675 -0.1442 -0.0347
    1C        C  660   2.636   3.052   4.376  0.0380 -0.0949  0.0321
    1C        C  661   2.601   3.117   4.496  0.2022  0.3958 -0.1813
    1C        C  662   2.706   2.933   4.622 -0.1476  0.2428 -0.5690
    1C        C  663   2.626   3.049   4.618  0.3012  0.5741 -0.1013
    1C        C  664   2.751   2.877   4.743 -0.4517  0.2780 -0.4385
    1C        C  665   2.698   2.931   4.864  0.0233 -0.0870 -0.0640
    1C        C  666   2.739   2.865   4.981 -0.2129 -0.1115  0.0068
    1C        C  667   2.679   4.017   2.049 -0.1864  0.1492 -0.1350
    1C        C  668   2.687   4.096   2.164 -0.0327  0.1724 -0.1612
    1C        C  669   2.590   3.908   2.290  0.3102  0.0971 -0.2137
    1C        C  670   2.646   4.038   2.286  0.1034  0.1929 -0.1038
    1C        C  671   2.562   3.843   2.412 -0.0757  0.6658  0.0083
    1C        C  672   2.576   3.916   2.532  0.1872  0.1326  0.3110
    1C        C  673   2.517   3.715   2.656 -0.6183  0.1846  0.0160
    1C        C  674   2.552   3.851   2.655  0.3511 -0.0530  0.2505
    1C        C  675   2.512   3.647   2.779 -0.1269  0.2879  0.1008
    1C        C  676   2.526   3.716   2.901 -0.0728  0.4239  0.0234
    1C        C  677   2.501   3.511   3.026  0.0407  0.0511 -0.2383
    1C        C  678   2.507   3.652   3.026  0.4292  0.0411 -0.0882
    1C        C  679   2.504   3.442   3.149  0.9202  0.4255 -0.0363
    1C        C  680   2.505   3.514   3.271  0.3496  0.2710  0.0688
    1C        C  681   2.531   3.306   3.398 -0.0292 -0.1754 -0.1404
    1C        C  682   2.509   3.445   3.394  0.1909 -0.1387 -0.1469
    1C        C  683   2.551   3.239   3.521  0.1407  0.1554  0.0141
    1C        C  684   2.541   3.310   3.643  1.0119  0.3057  0.0042
    1C        C  685   2.603   3.111   3.765  0.5205  0.2130 -0.0616
    1C        C  686   2.562   3.246   3.767  0.4238  0.1816  0.0444
    1C        C  687   2.639   3.053   3.888  0.5467  0.4526  0.0415
    1C        C  688   2.609   3.113   4.013  0.5365  0.3075  0.1074
    1C        C  689   2.712   2.929   4.134  0.4920 -0.1843 -0.3442
    1C        C  690   2.637   3.048   4.135  0.8292  0.0274 -0.1069
    1C        C  691   2.750   2.871   4.257  0.3109  0.0215 -0.1911
    1C        C  692   2.712   2.933   4.378  0.2150  0.0110 -0.2153
    1C        C  693   2.750   2.875   4.501  0.6093  0.1647 -0.2627
    1C        C  694   2.627   3.887   2.052  0.6400 -0.1847  0.0573
    1C        C  695   2.526   3.701   2.170 -0.0859 -0.0124  0.1662
    1C        C  696   2.576   3.833   2.171  0.3590 -0.1719 -0.0561
    1C        C  697   2.514   3.634   2.293 -0.1103  0.4768  0.4372
    1C        C  698   2.521   3.708   2.413  0.0540  0.6238  0.3421
    1C        C  699   2.486   3.501   2.541  0.1920  0.0145 -0.2576
    1C        C  700   2.501   3.641   2.536 -0.1321  0.0635  0.0185
    1C        C  701   2.491   3.432   2.663  0.1117  0.4459 -0.0039
    1C        C  702   2.506   3.506   2.783  0.1737  0.2696  0.1034
    1C        C  703   2.518   3.296   2.909 -0.3614 -0.1874  0.0899
    1C        C  704   2.505   3.437   2.906  0.0599 -0.1467 -0.1213
    1C        C  705   2.545   3.232   3.032  0.9532  0.1089 -0.0213
    1C        C  706   2.529   3.303   3.153  0.5038  0.3417 -0.2103
    1C        C  707   2.593   3.104   3.277 -0.3804 -0.0873 -0.0348
    1C        C  708   2.544   3.236   3.277  0.1181  0.1014 -0.2873
    1C        C  709   2.627   3.041   3.399 -0.4055  0.1092  0.0747
    1C        C  710   2.604   3.109   3.521  0.5479  0.3197  0.1423
    1C        C  711   2.710   2.926   3.644  0.1587 -0.0339 -0.2116
    1C        C  712   2.633   3.044   3.643 -0.1760 -0.2511  0.0174
    1C        C  713   2.758   2.876   3.767  0.3504 -0.0376 -0.2883
    1C        C  714   2.715   2.934   3.888  0.5410  0.4497 -0.4517
    1C        C  715   2.758   2.879   4.011  0.2869  0.0820 -0.5290
    1C        C  716   2.447   3.494   2.059 -0.7220 -0.0434  0.3659
    1C        C  717   2.479   3.631   2.058  0.1137 -0.2323  0.2175
    1C        C  718   2.470   3.417   2.177 -0.2476 -0.1113  0.2374
    1C        C  719   2.488   3.494   2.296  0.1750  0.4042 -0.1511
    1C        C  720   2.510   3.288   2.424  0.2820  0.0924 -0.0348
    1C        C  721   2.488   3.427   2.420  0.3337  0.0974 -0.3113
    1C        C  722   2.527   3.219   2.546  0.0429  0.2719  0.1061
    1C        C  723   2.517   3.293   2.665  0.2866  0.4750  0.0051
    1C        C  724   2.579   3.091   2.788 -0.1250  0.1780 -0.1589
    1C        C  725   2.533   3.225   2.788 -0.1739  0.1649 -0.1028
    1C        C  726   2.618   3.034   2.910 -0.3388 -0.0411 -0.1873
    1C        C  727   2.593   3.100   3.032  0.5586 -0.0378  0.0108
    1C        C  728   2.716   2.930   3.155  0.1072 -0.0997  0.0151
    1C        C  729   2.629   3.041   3.156  0.0466 -0.1441  0.1160
    1C        C  730   2.753   2.871   3.278  0.0611 -0.1139  0.0245
    1C        C  731   2.711   2.928   3.400 -0.1928  0.2627 -0.2346
    1C        C  732   2.756   2.872   3.522 -0.5849 -0.3451 -0.3623
    1C        C  733   2.488   3.194   2.069  0.1522 -0.0739  0.0372
    1C        C  734   2.485   3.275   2.183  0.3571 -0.0607  0.0356
    1C        C  735   2.563   3.076   2.304 -0.1534 -0.1805  0.3397
    1C        C  736   2.514   3.210   2.306 -0.0333 -0.1314  0.0956
    1C        C  737   2.599   3.016   2.427 -0.4144 -0.4162  0.3056
    1C        C  738   2.570   3.084   2.547 -0.3721  0.1329  0.0107
    1C        C  739   2.692   2.910   2.668  0.0153  0.1105 -0.0181
    1C        C  740   2.605   3.021   2.668  0.0434  0.1379 -0.1018
    1C        C  741   2.742   2.857   2.790 -0.2941  0.1080  0.1136
    1C        C  742   2.700   2.918   2.910 -0.4272 -0.1102  0.1825
    1C        C  743   2.754   2.873   3.032  0.5336  0.3307 -0.0607
    1C        C  744   2.538   3.065   2.067  0.3047 -0.0105 -0.5609
    1C        C  745   2.679   2.898   2.183 -0.7439  0.0929 -0.1309
    1C        C  746   2.594   3.010   2.184 -0.1441  0.5567 -0.0718
    1C        C  747   2.726   2.842   2.304 -0.1224  0.3490 -0.2467
    1C        C  748   2.683   2.902   2.425  0.0078 -0.1071  0.0317
    1C        C  749   2.734   2.852   2.546  0.2764  0.1680  0.0388
    1C        C  750   2.723   2.835   2.065 -0.4457 -0.3966  0.2358
    1C        C  751   3.662   2.325   1.980  0.3352  0.1250  0.1127
    1C        O  752   3.666   2.202   2.010  0.3303 -0.0004 -0.3922
    1C        O  753   3.681   2.354   1.845  0.2112 -0.1044  0.0445
    1C        C  754   4.612   3.034   1.976 -0.1835 -0.4118  0.4065
    1C        O  755   4.721   2.987   2.017 -0.0088 -0.1441  0.2551
    1C        O  756   4.601   3.053   1.838  0.6903 -0.5675  0.3108
    1C        C  757   4.452   4.227   1.966 -0.5501 -0.0353 -0.1096
    1C        O  758   4.466   4.349   1.991 -0.1281 -0.1453  0.1985
    1C        O  759   4.490   4.200   1.833  0.1209 -0.3564  0.1445
    1C        C  760   3.595   4.678   1.957 -0.9484 -0.0287 -0.4736
    1C        O  761   3.626   4.789   2.009 -0.6752 -0.3885  0.1441
    1C        O  762   3.631   4.680   1.822 -0.1308 -0.2598 -0.2646
    1C        C  763   2.890   4.483   1.942 -0.1758 -0.2873 -0.0442
    1C        O  764   2.890   4.444   1.822 -0.2175 -0.5340  0.0357
    1C        O  765   2.802   4.591   1.949 -0.1373 -0.2635  0.0764
    1C        C  766   2.364   3.460   1.941 -0.0374 -0.0180 -0.1315
    1C        O  767   2.420   3.463   1.828  0.4952 -0.4563  0.1120
    1C        O  768   2.225   3.455   1.950 -0.0348  0.0779 -0.0346
    1C        C  769   4.667   3.572   5.070 -0.0460 -0.1186  0.1738
    1C        O  770   4.639   3.571   5.193 -0.4081 -0.4804  0.0912
    1C        O  771   4.800   3.613   5.051 -0.0378 -0.4238 -0.4581
    1C        C  772   4.272   4.455   5.022  0.0278  0.0635 -0.5245
    1C        O  773   4.268   4.449   5.148 -0.3549  0.0612 -0.5341
    1C        O  774   4.357   4.553   4.969 -0.0259  0.2446 -0.2740
    1C        C  775   4.148   2.529   5.065 -0.3772 -0.1144  0.1674
    1C        O  776   4.175   2.406   5.059  0.0050 -0.0080 -0.3964
    1C        O  777   4.194   2.586   5.184  0.3959 -0.3781  0.0002
    1C        C  778   2.843   4.560   5.007  0.2511  0.1741 -0.3619
    1C        O  779   2.792   4.642   4.926 -0.8812  0.0732  0.2343
    1C        O  780   2.859   4.594   5.141  0.3105  0.5965 -0.4752
    1C        C  781   2.449   3.037   5.042  0.2851  0.4242 -0.1590
    1C        O  782   2.352   2.991   4.976  0.2737 -0.2047  0.2908
    1C        O  783   2.441   3.011   5.179 -0.0081  0.2817 -0.2008
    1C        C  784   2.410   3.989   5.043 -0.2167 -0.1964  0.0477
    1C        O  785   2.296   3.956   5.000 -0.2158  0.3034 -0.3454
    1C        O  786   2.407   4.022   5.178  0.8067  0.4040 -0.0729
    1C        C  787   2.955   2.441   1.980 -0.1305  0.3753  0.2853
    1C        O  788   2.984   2.447   1.858  0.2904  0.0290  0.3691
    1C        O  789   2.901   2.314   1.995  0.2732  0.2493  0.7001
    1C        C  790   3.187   2.392   5.079 -0.0444 -0.2731  0.1512
    1C        O  791   3.159   2.273   5.051 -0.5680 -0.1411  0.1095
    1C        O  792   3.206   2.409   5.216  0.3492  0.2082  0.0446
    1C        H  793   4.338   2.973   5.071  0.8689 -1.1520 -0.2013
    1C        H  794   4.166   2.819   5.064  0.8603 -1.0480 -0.0172
    1C        H  795   4.483   3.132   5.060 -3.1574 -0.1794 -0.6911
    1C        H  796   4.586   3.334   5.055  1.1462  0.6508 -0.4409
    1C        H  797   4.580   3.812   5.038  0.6260  0.0700 -0.3066
    1C        H  798   4.383   3.949   5.051  2.5121 -0.1328 -0.8409
    1C        H  799   4.256   4.141   5.047 -0.4377  0.0603 -0.2223
    1C        H  800   4.004   4.486   5.037  0.0074 -1.8277  0.5280
    1C        H  801   3.810   4.609   5.029 -0.3687  2.7137 -1.0087
    1C        H  802   3.592   4.667   5.018  0.5657  2.0890 -1.1916
    1C        H  803   3.384   4.541   5.040 -0.3309 -1.3137 -0.0476
    1C        H  804   3.155   4.474   5.045 -0.8478 -0.6715 -0.6201
    1C        H  805   3.869   2.551   5.069  1.3688  2.7932  0.4753
    1C        H  806   3.673   2.435   5.065  0.6440 -0.7566 -0.3842
    1C        H  807   2.998   2.548   5.062 -0.2905 -3.2451 -0.4883
    1C        H  808   3.441   2.459   5.074  0.6484 -0.7188 -0.2151
    1C        H  809   2.903   2.765   5.071 -1.4610 -2.3098  0.6805
    1C        H  810   2.718   2.906   5.077 -0.4026 -1.0074  0.3626
    1C        H  811   2.544   3.293   5.070  2.2424  0.3780 -0.0773
    1C        H  812   2.609   3.498   5.050 -0.3051 -1.4301  0.1557
    1C        H  813   2.529   3.731   5.062 -0.5772  1.0475 -0.7095
    1C        H  814   2.581   4.181   5.041  0.9051 -0.8088  0.5704
    1C        H  815   2.779   4.300   5.052  0.2127  0.2423  0.4534
    1C        H  816   2.705   2.876   1.968 -1.7950 -1.5337 -0.0386
    1C        H  817   2.849   2.692   1.977  0.6964  0.7096 -0.5594
    1C        H  818   3.199   2.405   2.000 -0.8404 -0.0909  0.4635
    1C        H  819   3.413   2.427   1.979  0.3332  1.6685 -0.6577
    1C        H  820   3.830   2.556   1.976 -1.0717  0.4940  0.8017
    1C        H  821   4.070   2.591   1.971  1.8408 -2.1997  0.7485
    1C        H  822   4.269   2.696   1.983 -0.4973  0.4562 -0.7883
    1C        H  823   4.346   2.934   1.967  0.2377  0.5057  0.4626
    1C        H  824   4.584   3.307   1.973 -0.2431  1.6399  1.0835
    1C        H  825   4.533   3.515   1.957 -1.7337  0.1897 -0.5262
    1C        H  826   4.520   3.745   1.955  2.0279  0.2183  1.0743
    1C        H  827   3.810   4.552   1.971 -0.0683 -1.3631 -1.4285
    1C        H  828   3.947   4.365   1.942 -0.8122 -0.3594  0.9657
    1C        H  829   4.151   4.238   1.944  1.3030 -1.9823  0.6491
    1C        H  830   4.491   3.966   1.961 -0.9516  0.0477  0.1326
    1C        H  831   2.583   3.857   1.959  1.6838 -1.1090 -0.1740
    1C        H  832   2.741   4.041   1.965 -0.7303  1.4255 -0.1957
    1C        H  833   2.708   4.303   1.973  0.1407  0.6691 -0.0184
    1C        H  834   3.389   4.441   1.957 -0.3540 -1.3581  0.1697
    1C        H  835   3.157   4.392   1.948  0.5385 -1.3047  0.6605
    1C        H  836   2.497   2.996   1.997  0.8542 -0.0320 -0.8667
    1C        H  837   2.392   3.193   2.021  0.9406  1.4053 -1.6984
    1C        H  838   2.414   3.690   1.998  0.7775 -0.6648 -0.9726
    2V3OU   H29  839   2.800   3.564   1.886 -2.0101  1.5225  0.4413
    2V3OU   C27  840   2.780   3.501   1.977 -0.3559 -0.3623 -0.4424
    2V3OU   H27  841   2.745   3.573   2.055  1.4209  0.0344  0.0436
    2V3OU   H28  842   2.731   3.404   1.951  0.4724 -0.4757 -1.6792
    2V3OU   O11  843   2.913   3.469   2.020 -0.3801 -0.3947 -0.3920
    2V3OU   C15  844   2.927   3.396   2.135  0.5341 -0.6642 -0.6683
    2V3OU   C13  845   3.058   3.367   2.180  0.4150 -0.2958 -0.0801
    2V3OU   C14  846   3.081   3.262   2.270 -0.2071 -0.2175  0.1742
    2V3OU   C16  847   2.981   3.177   2.315 -0.1594 -0.0730  0.5582
    2V3OU    H6  848   2.995   3.100   2.392  1.8399  0.4893  0.8161
    2V3OU   C12  849   3.214   3.222   2.320 -0.0744 -0.4356 -0.3486
    2V3OU    O2  850   3.237   3.115   2.381 -0.0985 -0.0449  0.3572
    2V3OU   C10  851   3.324   3.307   2.273 -0.1971 -0.4175 -0.5994
    2V3OU    C8  852   3.454   3.269   2.307 -0.2781  0.0853  0.3016
    2V3OU   O10  853   3.480   3.155   2.376 -0.5893 -0.1267  0.0697
    2V3OU   H26  854   3.395   3.112   2.392 -0.7469  0.1234 -0.0903
    2V3OU    C6  855   3.565   3.352   2.272 -0.1584  0.2611  1.0955
    2V3OU    C5  856   3.532   3.469   2.205  0.0581 -0.2681  0.0483
    2V3OU    C4  857   3.702   3.294   2.269 -0.2389  0.1124  0.1996
    2V3OU    H4  858   3.720   3.217   2.349  0.9624  0.1843  0.0256
    2V3OU    H5  859   3.707   3.234   2.173 -1.4512 -0.4085  0.4479
    2V3OU    C2  860   3.817   3.395   2.273 -0.1677  0.0320  0.1928
    2V3OU    O6  861   3.808   3.465   2.397  0.0525  0.1617  0.1369
    2V3OU   H21  862   3.761   3.543   2.364 -1.5185  0.0725  1.9153
    2V3OU    C3  863   3.782   3.497   2.163  0.0913  0.3160  0.3723
    2V3OU    H2  864   3.861   3.575   2.153  0.5848 -0.4630 -2.4932
    2V3OU    H3  865   3.776   3.445   2.064 -0.8228  0.9887  0.0609
    2V3OU   C25  866   3.949   3.322   2.250 -0.2205 -0.0183  0.0434
    2V3OU    O7  867   3.993   3.288   2.141 -0.2450  0.0410  0.0150
    2V3OU   C26  868   4.028   3.280   2.373 -0.1614 -0.0043  0.0100
    2V3OU   H22  869   4.065   3.376   2.418  1.4651  0.7299 -2.6521
    2V3OU   H23  870   4.115   3.216   2.343  0.0942  0.4349 -0.1968
    2V3OU    O8  871   3.953   3.211   2.470  0.2281 -0.3156  0.0951
    2V3OU   H24  872   3.918   3.271   2.539  0.1510  0.5044 -0.6477
    2V3OU    C1  873   3.647   3.564   2.184 -0.1285 -0.0345  0.0814
    2V3OU    H1  874   3.622   3.619   2.089 -1.4649 -0.1004  0.3773
    2V3OU    O3  875   3.657   3.653   2.296 -0.6764 -0.4733  0.4852
    2V3OU   C19  876   3.619   3.789   2.278 -0.1470 -0.3756  0.0833
    2V3OU    H9  877   3.520   3.798   2.225 -0.0126 -2.2173 -0.5197
    2V3OU    O4  878   3.715   3.837   2.186  0.2583 -0.0690  0.6580
    2V3OU   C20  879   3.843   3.868   2.241  0.5443  0.3401 -0.2189
    2V3OU   H10  880   3.901   3.771   2.247  0.7255  0.4083 -0.7762
    2V3OU   C24  881   3.611   3.857   2.415 -0.0127  0.2801 -0.2248
    2V3OU   H16  882   3.546   3.791   2.479 -0.5573  1.4592  0.4657
    2V3OU   H17  883   3.562   3.957   2.412 -2.1524 -0.7000 -0.2331
    2V3OU   C23  884   3.749   3.879   2.478 -0.1870  0.1412  0.2150
    2V3OU   H15  885   3.793   3.775   2.493  0.6294  0.1603 -1.6858
    2V3OU    N1  886   3.736   3.956   2.600 -0.5678  0.4758 -0.0313
    2V3OU   H19  887   3.802   3.912   2.661 -0.2414 -1.3670 -1.6427
    2V3OU   H20  888   3.644   3.938   2.634 -1.3728  1.5356 -1.5241
    2V3OU   C21  889   3.846   3.944   2.374  0.2362 -0.4454  0.2432
    2V3OU   H11  890   3.950   3.940   2.418 -0.1711  0.6835  1.3732
    2V3OU    O5  891   3.815   4.082   2.368 -0.1189 -0.5328 -0.0051
    2V3OU   H18  892   3.783   4.083   2.460  0.8041 -1.2468  0.3436
    2V3OU   C22  893   3.906   3.946   2.127  0.5631 -0.2212 -0.5982
    2V3OU   H12  894   3.852   4.042   2.110 -0.6026 -1.0616 -1.8004
    2V3OU   H13  895   3.892   3.893   2.030  2.6991 -0.4887 -0.8105
    2V3OU   H14  896   4.017   3.961   2.141  0.9186 -1.4754 -1.8442
    2V3OU   C11  897   3.158   3.475   2.174  0.0465  0.0891  0.5938
    2V3OU    O1  898   3.138   3.588   2.125  0.5639  0.0594  0.3102
    2V3OU    C9  899   3.294   3.431   2.212  0.2309 -0.2354 -0.4386
    2V3OU    C7  900   3.400   3.514   2.176  0.1855 -0.1251 -0.3076
    2V3OU    O9  901   3.385   3.619   2.087  0.3352 -0.1839 -0.3999
    2V3OU   H25  902   3.288   3.625   2.086  0.1890  0.0033  3.1471
    2V3OU   C17  903   2.823   3.318   2.190  0.0095  0.6279  0.2107
    2V3OU    H7  904   2.724   3.343   2.153  0.2930 -0.1964 -1.1869
    2V3OU   C18  905   2.852   3.213   2.277  0.1673  0.3942 -0.1227
    2V3OU    H8  906   2.779   3.172   2.348 -0.0355  0.1458 -0.4714
    3SOL     OW  907   2.436   1.945   0.872  0.4730 -0.3783 -0.8695
    3SOL    HW1  908   2.353   1.960   0.818 -0.0933  1.8051  0.5069
    3SOL    HW2  909   2.418   1.873   0.940  0.4173 -1.3962 -1.9242
    4SOL     OW  910   4.656   5.617   1.206  0.2931 -0.5297 -0.0888
    4SOL    HW1  911   4.670   5.546   1.137  1.1799 -2.1146  1.6380
    4SOL    HW2  912   4.743   5.635   1.253  0.0943  1.7582 -0.4935
    5SOL     OW  913   1.030   4.611   3.116 -0.1634  0.1653  0.2582
    5SOL    HW1  914   1.027   4.535   3.181 -2.0888 -0.1534 -0.1570
    5SOL    HW2  915   1.081   4.687   3.156 -0.1742 -0.5129  1.6038
    6SOL     OW  916   3.817   5.294   5.000  0.3260 -0.1600 -0.1846
    6SOL    HW1  917   3.872   5.377   5.011 -0.6352  0.8102 -2.1749
    6SOL    HW2  918   3.753   5.287   5.076  2.1275 -0.5139  1.3834
    7SOL     OW  919   0.639   2.456   0.775  0.0545  0.4381  0.5476
    7SOL    HW1  920   0.603   2.503   0.694  1.5631 -0.9996 -1.0431
    7SOL    HW2  921   0.616   2.358   0.769  0.9305  0.1647  1.4291
    8SOL     OW  922   5.315   3.155   1.985  0.4980  0.0269  0.0797
    8SOL    HW1  923   5.331   3.057   1.983 -1.2637 -0.2995  0.3373
    8SOL    HW2  924   5.348   3.196   1.899 -1.5738 -1.3054 -1.4560
    9SOL     OW  925   3.540   1.877   4.741  0.6428  0.2047  0.3252
    9SOL    HW1  926   3.514   1.886   4.837  1.7634 -2.2138  0.9278
    9SOL    HW2  927   3.633   1.911   4.729  0.4336  0.6885  0.0185
   10SOL     OW  928   1.215   3.703   0.908 -0.5718 -0.2161 -0.3700
   10SOL    HW1  929   1.145   3.762   0.949 -1.2228 -2.1701  1.5261
   10SOL    HW2  930   1.305   3.731   0.940 -0.8040  0.1516 -0.0227
   11SOL     OW  931   6.029   6.765   3.959 -0.2532 -0.0913  0.2673
   11SOL    HW1  932   6.081   6.718   4.030  1.4391 -0.1307 -0.9353
   11SOL    HW2  933   6.091   6.823   3.905 -2.2372  3.7893  1.7863
   12SOL     OW  934   5.079   4.442   0.996 -0.0237  0.1740 -1.0969
   12SOL    HW1  935   5.017   4.395   0.933 -1.4831  1.2091 -0.4624
   12SOL    HW2  936   5.036   4.525   1.031  1.8594  1.1106 -0.8881
   13SOL     OW  937   5.413   2.740   5.094 -0.1396  0.1272 -0.2944
   13SOL    HW1  938   5.367   2.681   5.027  0.4266 -0.3175 -0.3014
   13SOL    HW2  939   5.451   2.683   5.167 -1.8447  0.6950  1.1000
   14SOL     OW  940   4.541   6.873   5.946 -0.0628 -0.1158 -0.5652
   14SOL    HW1  941   4.446   6.898   5.925 -1.0602 -3.1940 -0.1708
   14SOL    HW2  942   4.544   6.825   6.034  1.7766 -0.6149 -0.8702
   15SOL     OW  943   1.421   3.081   0.762 -0.3698  0.1247  0.4492
   15SOL    HW1  944   1.484   3.089   0.685 -2.1062 -0.8269 -1.1650
   15SOL    HW2  945   1.438   3.155   0.827  1.4883  0.6594 -0.5799
   16SOL     OW  946   4.685   2.001   6.797 -0.0123  0.0126 -0.2884
   16SOL    HW1  947   4.708   2.037   6.888 -0.1895 -0.4647 -0.0515
   16SOL    HW2  948   4.648   2.075   6.741  0.4728  0.4059 -0.1090
   17SOL     OW  949   1.608   5.918   5.223  0.6265 -0.2020  0.0159
   17SOL    HW1  950   1.535   5.971   5.182  0.9868 -1.2572 -2.0961
   17SOL    HW2  951   1.616   5.942   5.320 -1.5682  0.9193 -0.0285
   18SOL     OW  952   3.332   1.483   4.327  0.2625 -0.0051 -0.2354
   18SOL    HW1  953   3.290   1.573   4.339  0.6558 -0.0201  1.4823
   18SOL    HW2  954   3.276   1.428   4.265 -0.4692  1.1066 -0.5858
   19SOL     OW  955   4.343   1.031   2.178  0.4360 -0.5017 -0.2675
   19SOL    HW1  956   4.251   1.067   2.162  0.8096 -0.3743 -2.6337
   19SOL    HW2  957   4.374   1.057   2.269 -0.7796  1.9303 -0.4657
   20SOL     OW  958   0.505   0.121   6.052 -0.7113 -0.1978 -0.2182
   20SOL    HW1  959   0.483   0.028   6.082  1.0031 -0.5554  0.0330
   20SOL    HW2  960   0.556   0.168   6.124 -1.3870  0.8814 -0.4219
   21SOL     OW  961   0.001   3.766   2.105 -0.3596  0.5235  0.1519
   21SOL    HW1  962  -0.065   3.721   2.045  1.6980 -1.0657 -1.0537
   21SOL    HW2  963   0.006   3.715   2.192 -0.0623  0.0635 -0.1277
   22SOL     OW  964   6.061   1.364   2.158 -0.5897  0.2021 -0.1140
   22SOL    HW1  965   5.974   1.322   2.187 -0.5776  0.2172 -0.0555
   22SOL    HW2  966   6.104   1.408   2.237  0.9142 -2.2975  0.5786
   23SOL     OW  967   6.432   5.798   0.433  0.9948  0.9351 -0.0192
   23SOL    HW1  968   6.462   5.710   0.395  2.8210  0.5926  2.0304
   23SOL    HW2  969   6.486   5.872   0.393 -0.1163  1.1101 -1.2770
   24SOL     OW  970   3.050   5.584   2.431  0.0541 -0.2367  0.0786
   24SOL    HW1  971   3.009   5.660   2.482  1.8820  1.9429 -1.4946
   24SOL    HW2  972   3.148   5.580   2.450  0.2122 -1.4046 -0.8396
   25SOL     OW  973   4.056   2.002   1.249  0.4714  0.8574 -0.3961
   25SOL    HW1  974   4.042   2.028   1.153 -0.6800 -0.2943 -0.5695
   25SOL    HW2  975   4.065   1.903   1.255  1.3914  0.9872  0.6140
   26SOL     OW  976   6.240   6.798   1.223 -0.1889 -0.1269  0.0575
   26SOL    HW1  977   6.172   6.840   1.283  0.9901 -0.8726  2.0036
   26SOL    HW2  978   6.331   6.821   1.255  0.4855 -2.6727  0.1270
   27SOL     OW  979   1.845   2.203   6.774 -0.4537 -0.0412  0.4234
   27SOL    HW1  980   1.831   2.229   6.870 -0.8116  2.3050 -0.1950
   27SOL    HW2  981   1.760   2.166   6.737 -1.8235  3.3575 -0.1632
   28SOL     OW  982   0.237   5.790   6.802  0.4030 -0.8979  0.4831
   28SOL    HW1  983   0.167   5.769   6.734  1.8749 -2.0424 -0.7596
   28SOL    HW2  984   0.300   5.858   6.764  0.7737 -0.9301  1.0343
   29SOL     OW  985   4.901   1.353   0.172 -0.2919  0.5747  0.1587
   29SOL    HW1  986   4.839   1.432   0.167 -0.6385  0.2801 -0.2324
   29SOL    HW2  987   4.983   1.372   0.119 -1.0360  0.0909 -1.2260
   30SOL     OW  988   5.622   1.237   3.476  0.1700 -0.7945  0.0097
   30SOL    HW1  989   5.703   1.287   3.505 -1.2117  0.6615  1.5290
   30SOL    HW2  990   5.631   1.141   3.501  1.4310 -0.6729  0.0851
   31SOL     OW  991   5.108   4.065   3.347  0.0622  0.2057 -0.2733
   31SOL    HW1  992   5.137   4.070   3.252  0.7589  0.3194 -0.0556
   31SOL    HW2  993   5.158   4.132   3.402 -1.1395  0.9445 -0.0160
   32SOL     OW  994   4.171   2.386   5.378  0.5385 -0.1945 -0.3207
   32SOL    HW1  995   4.081   2.398   5.420  0.2663 -1.1269 -0.5966
   32SOL    HW2  996   4.177   2.442   5.295 -0.3957 -1.2955 -1.1746
   33SOL     OW  997   6.012   5.179   1.832  0.2692  0.0860  0.7965
   33SOL    HW1  998   6.100   5.151   1.792 -0.1247 -0.4747  0.2967
   33SOL    HW2  999   6.028   5.228   1.917  1.0296 -1.4379  1.5769
   34SOL     OW 1000   4.706   1.836   3.703  0.1543 -0.3547 -0.5435
   34SOL    HW1 1001   4.675   1.885   3.621  0.5217 -0.7370 -0.9115
   34SOL    HW2 1002   4.647   1.860   3.780 -0.4399 -0.3020 -1.0117
   35SOL     OW 1003   0.450   6.763   4.566 -0.1270  0.2516  0.2654
   35SOL    HW1 1004   0.498   6.677   4.549 -2.2887 -0.7492 -1.3208
   35SOL    HW2 1005   0.359   6.743   4.602 -0.5321  1.9166  0.2311
   36SOL     OW 1006   6.525   3.911   1.984 -0.2060  0.2411 -0.1146
   36SOL    HW1 1007   6.581   3.858   1.921 -1.1576  1.1383 -1.7924
   36SOL    HW2 1008   6.430   3.912   1.952 -0.6569  1.0240  1.1452
   37SOL     OW 1009   5.262   2.664   5.444 -0.3484  0.0840  0.1896
   37SOL    HW1 1010   5.193   2.604   5.405 -0.1524  1.2555 -2.0945
   37SOL    HW2 1011   5.218   2.739   5.494 -0.5958 -1.8209  3.1021
   38SOL     OW 1012   3.381   0.518   3.694  0.0560 -0.0300 -0.1355
   38SOL    HW1 1013   3.418   0.560   3.777 -0.4486  0.1987 -0.0204
   38SOL    HW2 1014   3.360   0.589   3.627  0.3676 -0.2064 -0.4226
   39SOL     OW 1015   6.726   6.328   0.072  0.2804 -0.2563  0.0059
   39SOL    HW1 1016   6.800   6.329   0.005 -0.4805  1.4394 -0.8421
   39SOL    HW2 1017   6.761   6.289   0.158  1.8325 -0.5368 -0.7070
   40SOL     OW 1018   1.936   4.845   0.556  0.3363 -0.0644  0.5747
   40SOL    HW1 1019   1.886   4.931   0.572 -0.4747 -0.5741  0.8435
   40SOL    HW2 1020   2.031   4.866   0.531 -0.1791  0.9563 -0.6534
   41SOL     OW 1021   0.916   3.358   1.346  0.3919 -0.3159 -0.0280
   41SOL    HW1 1022   0.940   3.337   1.441 -0.0964 -0.5768  0.0448
   41SOL    HW2 1023   0.977   3.310   1.284  0.6221 -0.2601  0.1536
   42SOL     OW 1024   1.257   5.683   6.384 -0.2973  0.1029  0.7478
   42SOL    HW1 1025   1.210   5.647   6.465  0.3055  0.0565  1.0781
   42SOL    HW2 1026   1.345   5.721   6.411 -0.9479  1.9574  0.4365
   43SOL     OW 1027   4.812   3.100   3.999  0.1910  0.5932 -0.4517
   43SOL    HW1 1028   4.800   3.183   4.053 -0.4768  0.1991  0.0122
   43SOL    HW2 1029   4.905   3.098   3.962  0.5477  1.0389  0.3921
   44SOL     OW 1030   5.820   3.990   1.945  0.2029 -0.1125  0.1267
   44SOL    HW1 1031   5.809   4.005   2.043  1.2158 -1.2215  0.4278
   44SOL    HW2 1032   5.737   3.947   1.908 -0.3329  0.6655  0.4110
   45SOL     OW 1033   1.105   2.691   2.333  0.5297  0.3716  0.3134
   45SOL    HW1 1034   1.202   2.698   2.355  0.8372 -2.0216  0.0284
   45SOL    HW2 1035   1.088   2.604   2.286 -1.8839  0.3684  1.0598
   46SOL     OW 1036   0.350   0.990   4.985 -0.0843  0.5558 -0.8465
   46SOL    HW1 1037   0.417   0.962   4.916 -2.4608 -2.0885 -2.3121
   46SOL    HW2 1038   0.271   1.032   4.940 -0.3847  1.6257  0.6130
   47SOL     OW 1039   5.061   3.476   1.642  0.0100  0.0067 -0.2422
   47SOL    HW1 1040   4.991   3.547   1.645  0.3729  0.4181 -1.2176
   47SOL    HW2 1041   5.107   3.472   1.731  0.1339  1.1664 -0.2307
   48SOL     OW 1042   0.255   1.349   3.778  0.7168 -0.3863  0.5968
   48SOL    HW1 1043   0.322   1.361   3.704  0.0725 -1.7664 -0.2439
   48SOL    HW2 1044   0.170   1.395   3.754  0.4111 -1.0750  0.3255
   49SOL     OW 1045   0.210   1.982   3.826 -0.3828 -0.3287 -0.1289
   49SOL    HW1 1046   0.308   1.993   3.807 -0.0975 -1.7160  0.4151
   49SOL    HW2 1047   0.158   2.005   3.744  0.4036  0.3520 -0.4519
   50SOL     OW 1048   6.365   6.313   2.154 -0.2824 -0.4459  0.8596
   50SOL    HW1 1049   6.460   6.288   2.138  0.1580  1.6246 -0.0425
   50SOL    HW2 1050   6.340   6.290   2.248  1.7628  0.7911  1.7683
   51SOL     OW 1051   0.460   1.588   6.932 -0.4362 -0.7079 -0.0379
   51SOL    HW1 1052   0.456   1.627   6.840  0.2419 -1.8698 -0.5771
   51SOL    HW2 1053   0.405   1.505   6.936  1.0768 -1.7479  0.0368
   52SOL     OW 1054   2.426   1.839   6.058  0.0548 -0.3433  0.7264
   52SOL    HW1 1055   2.333   1.833   6.095  0.1539 -2.9904  0.7303
   52SOL    HW2 1056   2.424   1.827   5.959  0.3762 -0.1392  0.6929
   53SOL     OW 1057   4.070   5.937   4.520  0.1200 -0.6813  0.8128
   53SOL    HW1 1058   4.118   5.850   4.531 -0.1762 -1.0771 -0.8255
   53SOL    HW2 1059   4.008   5.932   4.442  1.6579  1.6504 -0.6891
   54SOL     OW 1060   3.088   4.299   1.393 -0.0725 -0.4331  0.1845
   54SOL    HW1 1061   3.079   4.245   1.477 -0.1837 -0.9340 -0.1443
   54SOL    HW2 1062   3.173   4.353   1.397 -0.1474 -0.3454  0.6753
   55SOL     OW 1063   6.390   6.420   0.927 -0.0590  0.4156  0.1068
   55SOL    HW1 1064   6.380   6.520   0.934  0.5502  0.5452 -0.6926
   55SOL    HW2 1065   6.340   6.376   1.002 -0.6918  1.3001  0.2236
   56SOL     OW 1066   6.083   6.865   4.465 -0.2423 -0.4644 -0.2156
   56SOL    HW1 1067   6.165   6.867   4.407 -1.0501  0.9867 -1.4066
   56SOL    HW2 1068   6.001   6.862   4.407 -1.0814  0.7603  0.8281
   57SOL     OW 1069   4.281   4.729   6.084  0.4809  0.3241 -0.4515
   57SOL    HW1 1070   4.241   4.793   6.150 -0.1250  1.5334 -1.9416
   57SOL    HW2 1071   4.250   4.636   6.106  1.2702  0.4886  1.6644
   58SOL     OW 1072   0.891   5.233   3.968 -0.2884 -0.0669 -0.2487
   58SOL    HW1 1073   0.831   5.159   3.938 -3.2266  2.2529 -0.5805
   58SOL    HW2 1074   0.887   5.241   4.068  0.2155 -0.4654 -0.1918
   59SOL     OW 1075   4.401   2.319   5.519  0.3123 -0.4318 -0.2994
   59SOL    HW1 1076   4.314   2.337   5.471  0.6699  0.9564 -0.4827
   59SOL    HW2 1077   4.476   2.358   5.466  0.7529  0.8839  1.2059
   60SOL     OW 1078   2.660   6.918   1.778 -0.3843 -0.1203  0.0106
   60SOL    HW1 1079   2.608   6.943   1.859 -2.3555 -1.2923 -0.8393
   60SOL    HW2 1080   2.602   6.867   1.715  1.3835 -0.1404 -1.6940
   61SOL     OW 1081   4.654   1.721   2.285 -0.0134 -0.0847 -0.4113
   61SOL    HW1 1082   4.668   1.710   2.383 -1.5371  1.1047 -0.0205
   61SOL    HW2 1083   4.671   1.816   2.260 -0.3278 -0.2188 -1.1565
   62SOL     OW 1084   4.538   6.200   2.308 -0.5823 -0.4471  0.4036
   62SOL    HW1 1085   4.590   6.273   2.353 -0.9480 -0.7232  1.2957
   62SOL    HW2 1086   4.470   6.240   2.246 -0.3050 -0.0491  0.3558
   63SOL     OW 1087   6.001   6.250   1.346 -0.6348 -0.0624 -0.1848
   63SOL    HW1 1088   5.980   6.245   1.443 -0.2668 -0.8253 -0.1392
   63SOL    HW2 1089   6.079   6.310   1.331  0.4717 -1.3553  0.1955
   64SOL     OW 1090   2.532   1.951   3.443 -0.1984 -0.0899 -0.2337
   64SOL    HW1 1091   2.585   1.919   3.364 -0.9282  0.5962 -1.0106
   64SOL    HW2 1092   2.581   2.026   3.487  1.6919 -2.3251  1.7956
   65SOL     OW 1093   0.094   2.042   4.075  0.3157 -0.3651  0.5027
   65SOL    HW1 1094   0.156   2.109   4.115 -0.3496  0.5973 -0.0448
   65SOL    HW2 1095   0.144   1.983   4.011  0.7362  0.1634  0.3431
   66SOL     OW 1096   2.835   4.997   5.026  0.2709  0.4524 -0.0914
   66SOL    HW1 1097   2.926   5.038   5.027 -0.7695  3.2387  3.7643
   66SOL    HW2 1098   2.836   4.913   5.080  0.7223 -0.2357 -1.1246
   67SOL     OW 1099   3.874   1.625   6.603 -0.1919  0.4421 -0.2054
   67SOL    HW1 1100   3.873   1.532   6.565  0.5159  0.0308  0.7490
   67SOL    HW2 1101   3.838   1.623   6.697 -0.6391  1.2244 -0.3495
   68SOL     OW 1102   5.380   4.361   2.322  0.2351 -0.1101  0.1891
   68SOL    HW1 1103   5.346   4.365   2.229  0.7032 -0.6361 -0.0122
   68SOL    HW2 1104   5.441   4.438   2.339 -0.4507  0.4162  0.3145
   69SOL     OW 1105   1.087   3.611   0.164 -0.5623  0.4217  0.0620
   69SOL    HW1 1106   1.092   3.619   0.263  1.6520  1.7922 -0.0745
   69SOL    HW2 1107   1.010   3.664   0.130 -0.5938  0.9859  0.9779
   70SOL     OW 1108   6.560   4.126   3.864 -0.3941 -1.1048  0.0372
   70SOL    HW1 1109   6.636   4.188   3.844 -1.2612  0.3875  1.2653
   70SOL    HW2 1110   6.489   4.138   3.795  0.1688 -2.0527 -0.7467
   71SOL     OW 1111   5.000   5.852   0.565  0.4606  0.0653  0.6512
   71SOL    HW1 1112   5.075   5.917   0.581  0.6458  0.0280 -0.0132
   71SOL    HW2 1113   4.980   5.849   0.467  1.0300 -1.5121  0.5641
   72SOL     OW 1114   0.101   3.199   2.980 -0.4223 -0.6740  0.3951
   72SOL    HW1 1115   0.090   3.229   3.074 -0.6455 -2.3882  0.9572
   72SOL    HW2 1116   0.176   3.249   2.936 -1.9061  1.9195  0.6580
   73SOL     OW 1117   5.191   3.724   4.097 -0.0304  0.2262  0.8690
   73SOL    HW1 1118   5.216   3.639   4.142  1.1638 -0.4560 -0.9744
   73SOL    HW2 1119   5.267   3.757   4.041 -1.0393  1.6128  0.2286
   74SOL     OW 1120   2.907   2.666   1.669 -0.2288 -0.3557 -0.4814
   74SOL    HW1 1121   2.985   2.714   1.709 -0.0768  0.2991 -1.5212
   74SOL    HW2 1122   2.890   2.581   1.719 -0.0387  0.4149  0.9351
   75SOL     OW 1123   5.930   1.349   5.535  0.3717 -0.3475  0.5876
   75SOL    HW1 1124   5.837   1.316   5.551 -0.0110  0.6377  0.4917
   75SOL    HW2 1125   5.930   1.414   5.459  1.2141 -0.6533  0.3127
   76SOL     OW 1126   3.692   6.318   0.384  0.0870 -0.1066  0.5140
   76SOL    HW1 1127   3.732   6.265   0.310 -1.2749 -1.1454  0.4832
   76SOL    HW2 1128   3.762   6.336   0.454  1.4144  0.9791 -1.0063
   77SOL     OW 1129   4.033   1.673   2.006 -0.0877 -0.6774  0.6006
   77SOL    HW1 1130   3.974   1.710   1.934 -0.2417 -2.5089 -0.2910
   77SOL    HW2 1131   4.021   1.726   2.090 -2.8064 -0.7821  0.3801
   78SOL     OW 1132   0.012   0.759   3.336 -0.2887 -0.4760 -0.1652
   78SOL    HW1 1133   0.016   0.845   3.285 -2.4822 -0.7295 -0.8827
   78SOL    HW2 1134   0.027   0.778   3.434 -2.5565  1.0730 -0.0313
   79SOL     OW 1135   0.876   6.537   2.987  0.1622  0.7264 -0.4246
   79SOL    HW1 1136   0.862   6.569   3.081  0.6498  0.3636 -0.2239
   79SOL    HW2 1137   0.909   6.613   2.931  0.8600  0.7058 -0.0614
   80SOL     OW 1138   1.210   1.356   0.249 -0.3917 -0.2605 -0.1316
   80SOL    HW1 1139   1.214   1.368   0.348  0.8493  2.4671 -0.4289
   80SOL    HW2 1140   1.242   1.264   0.225 -0.0236 -0.7052  1.9368
   81SOL     OW 1141   6.576   5.244   1.242  0.4992 -0.2857  0.3386
   81SOL    HW1 1142   6.603   5.228   1.337  1.2750  0.1004  0.1956
   81SOL    HW2 1143   6.536   5.160   1.204 -2.3811  0.3068  1.8004
   82SOL     OW 1144   5.226   5.190   1.818  0.9302  0.2802  0.1173
   82SOL    HW1 1145   5.282   5.177   1.900 -0.7644  0.3696  1.3295
   82SOL    HW2 1146   5.216   5.288   1.800  1.2914  0.2607 -0.1945
   83SOL     OW 1147   5.651   4.508   5.657  0.0586 -0.0664  0.2906
   83SOL    HW1 1148   5.681   4.487   5.564 -0.6732  0.8575 -0.1675
   83SOL    HW2 1149   5.591   4.435   5.689 -1.6132  0.7251 -0.8879
   84SOL     OW 1150   5.083   1.865   6.835  0.3906 -0.5124 -0.6046
   84SOL    HW1 1151   5.012   1.872   6.904 -0.2660 -2.3823 -1.0351
   84SOL    HW2 1152   5.045   1.827   6.751  1.2202  1.4725 -1.9692
   85SOL     OW 1153   6.234   4.225   5.101  0.0193 -0.7016 -0.4868
   85SOL    HW1 1154   6.325   4.206   5.063  1.8806  1.4435  2.4462
   85SOL    HW2 1155   6.178   4.143   5.097  1.5830 -1.7769 -3.5271
   86SOL     OW 1156   6.697   3.095   1.046  0.2240 -0.0476 -1.1874
   86SOL    HW1 1157   6.784   3.143   1.029  0.1423  1.7190  2.4927
   86SOL    HW2 1158   6.716   3.007   1.090  0.1438 -0.3345 -1.7120
   87SOL     OW 1159   1.192   1.641   6.108 -0.7320  0.2534 -0.0755
   87SOL    HW1 1160   1.112   1.680   6.062  0.2233 -0.0795 -2.1253
   87SOL    HW2 1161   1.273   1.652   6.050 -0.1153 -3.4079 -0.1402
   88SOL     OW 1162   0.157   3.983   6.217 -0.4096  0.1881  0.1038
   88SOL    HW1 1163   0.153   3.952   6.122  1.2086 -1.0907  0.4062
   88SOL    HW2 1164   0.079   3.947   6.267  0.3569 -1.8340 -0.0365
   89SOL     OW 1165   6.266   2.707   5.477 -0.0508  0.0302 -0.2789
   89SOL    HW1 1166   6.202   2.647   5.429 -1.1031  1.9572 -1.3920
   89SOL    HW2 1167   6.344   2.726   5.418  0.2606 -0.1946  0.0564
   90SOL     OW 1168   3.850   6.737   6.481 -0.1022 -0.2221 -0.1396
   90SOL    HW1 1169   3.822   6.642   6.489 -0.5282 -0.0820  0.0331
   90SOL    HW2 1170   3.867   6.774   6.573  1.3627 -0.5167 -0.2680
   91SOL     OW 1171   1.742   5.048   3.869  0.1489  0.2341  0.1816
   91SOL    HW1 1172   1.814   5.013   3.809 -0.8457 -0.0291 -0.9037
   91SOL    HW2 1173   1.736   5.147   3.859  0.6510  0.3206  0.6359
   92SOL     OW 1174   2.009   0.155   0.190 -1.0933 -0.4914 -0.7813
   92SOL    HW1 1175   1.995   0.243   0.145  0.3730  0.0833 -0.1835
   92SOL    HW2 1176   2.059   0.169   0.276 -2.5293 -1.7132  0.3007
   93SOL     OW 1177   6.158   6.353   0.526  0.0141 -0.6255 -0.0938
   93SOL    HW1 1178   6.153   6.320   0.620  0.7715 -4.1355 -1.1318
   93SOL    HW2 1179   6.098   6.298   0.468 -0.8133  1.7569 -1.6913
   94SOL     OW 1180   5.102   2.848   3.819  0.2229  0.3991  0.0135
   94SOL    HW1 1181   5.183   2.833   3.763  0.5655  2.1413 -0.0284
   94SOL    HW2 1182   5.121   2.919   3.887 -1.2331  0.7911  0.0589
   95SOL     OW 1183   3.741   6.013   3.540 -1.1513 -0.5079  0.0352
   95SOL    HW1 1184   3.710   6.069   3.617  1.2789  0.0239  0.6959
   95SOL    HW2 1185   3.661   5.982   3.488 -2.7109  3.0952 -0.0632
   96SOL     OW 1186   2.676   5.801   2.740 -0.0384 -0.0488  0.3482
   96SOL    HW1 1187   2.586   5.839   2.714 -0.8428 -2.0595  0.0554
   96SOL    HW2 1188   2.663   5.715   2.788  1.7874 -0.8970 -0.6046
   97SOL     OW 1189   5.267   1.359   6.801 -0.7555  0.1148 -0.3402
   97SOL    HW1 1190   5.301   1.446   6.837 -1.1649  0.6423 -1.1912
   97SOL    HW2 1191   5.344   1.307   6.763 -0.2812 -0.5556  1.4519
   98SOL     OW 1192   3.999   5.097   1.513  0.4232  0.2517 -0.6168
   98SOL    HW1 1193   4.077   5.081   1.453  1.2346 -0.6545  0.6148
   98SOL    HW2 1194   4.025   5.164   1.583 -0.5074  1.2999 -1.2484
   99SOL     OW 1195   4.635   6.548   1.505  0.7593  0.1715 -0.4022
   99SOL    HW1 1196   4.712   6.553   1.441  0.5197 -2.3210 -0.9920
   99SOL    HW2 1197   4.561   6.497   1.463 -1.0399  1.9736  0.4010
  100SOL     OW 1198   0.702   5.897   5.755  0.1479 -0.4755 -0.3199
  100SOL    HW1 1199   0.626   5.956   5.784  1.0473  1.2834 -1.3538
  100SOL    HW2 1200   0.670   5.833   5.685 -0.4783 -0.0751 -0.4103
  101SOL     OW 1201   2.599   6.905   1.246  0.0439  0.7359 -0.3159
  101SOL    HW1 1202   2.527   6.928   1.179  1.2331  2.3018 -1.1319
  101SOL    HW2 1203   2.580   6.816   1.286 -1.4847  0.3884 -1.7015
  102SOL     OW 1204   2.891   6.101   6.221 -0.4261 -0.6287  0.1306
  102SOL    HW1 1205   2.897   6.111   6.122 -0.2978  0.6733  0.2461
  102SOL    HW2 1206   2.795   6.102   6.249 -0.4414  0.0117  0.0863
  103SOL     OW 1207   2.938   1.587   6.117  0.1779  0.3150  1.0985
  103SOL    HW1 1208   2.973   1.509   6.065 -1.0536  0.3928  0.1141
  103SOL    HW2 1209   2.886   1.554   6.196 -0.1604  0.1387  0.8034
  104SOL     OW 1210   5.562   5.855   1.998 -0.0000 -0.3082 -0.3219
  104SOL    HW1 1211   5.483   5.891   2.047 -0.3822 -0.8955 -0.4969
  104SOL    HW2 1212   5.642   5.855   2.059 -0.0714  0.5054 -0.2171
  105SOL     OW 1213   3.949   1.077   2.501  0.2241 -0.0529  0.2351
  105SOL    HW1 1214   3.962   1.122   2.413 -0.5645 -0.6318 -0.1912
  105SOL    HW2 1215   4.031   1.089   2.557 -0.0769  2.1652  0.2727
  106SOL     OW 1216   0.085   4.065   2.308  0.0945 -0.0653 -0.1607
  106SOL    HW1 1217   0.063   3.972   2.337 -0.4335 -0.0932 -0.6486
  106SOL    HW2 1218   0.017   4.098   2.242  0.6705  0.4025 -0.5418
  107SOL     OW 1219   6.656   4.709   1.739 -0.6405  0.3483 -0.1329
  107SOL    HW1 1220   6.696   4.781   1.681 -0.3105 -0.4003 -0.8548
  107SOL    HW2 1221   6.730   4.656   1.781 -0.8730  0.9356  1.0763
  108SOL     OW 1222   2.264   3.415   1.614 -0.2116 -0.3183 -0.0390
  108SOL    HW1 1223   2.182   3.390   1.667 -0.3829 -1.5866 -0.8810
  108SOL    HW2 1224   2.342   3.421   1.675 -0.6707 -0.4113  0.5714
  109SOL     OW 1225   5.331   1.059   1.461  0.1271  0.0785  0.0113
  109SOL    HW1 1226   5.308   1.125   1.388  1.6049  0.2856 -0.3061
  109SOL    HW2 1227   5.429   1.042   1.459  0.3521  0.7634  2.5350
  110SOL     OW 1228   1.677   1.257   0.588  0.4696  0.9132  0.2276
  110SOL    HW1 1229   1.648   1.168   0.622  0.9561  0.6553 -0.0167
  110SOL    HW2 1230   1.777   1.264   0.594  0.5861  0.8147 -1.2276
  111SOL     OW 1231   2.698   1.841   4.498  0.1382  0.3746  0.4634
  111SOL    HW1 1232   2.661   1.933   4.486  0.1170  0.3209  0.1166
  111SOL    HW2 1233   2.655   1.778   4.433  0.3305  0.1692  0.5308
  112SOL     OW 1234   1.761   2.858   6.628  0.2860 -0.3977 -0.5404
  112SOL    HW1 1235   1.779   2.952   6.657 -2.0486 -0.3063  0.8222
  112SOL    HW2 1236   1.739   2.858   6.530  1.0534  0.3449 -0.7295
  113SOL     OW 1237   1.842   3.910   4.405  0.4905 -0.3926 -0.4143
  113SOL    HW1 1238   1.899   3.991   4.416 -0.9517  0.7296 -0.8457
  113SOL    HW2 1239   1.888   3.845   4.344  1.3842  0.3940 -0.6018
  114SOL     OW 1240   0.065   5.969   0.727  1.0021 -0.3307 -0.0629
  114SOL    HW1 1241  -0.010   5.908   0.751  0.2904  0.6083  0.1866
  114SOL    HW2 1242   0.072   5.975   0.627  1.1070 -0.8429 -0.0893
  115SOL     OW 1243   6.496   2.952   0.932  0.0421 -0.1233  0.4790
  115SOL    HW1 1244   6.571   3.017   0.948 -0.1836  0.4075 -0.5606
  115SOL    HW2 1245   6.418   2.978   0.989  0.2196  0.0605  0.6430
  116SOL     OW 1246   2.518   1.357   0.774  0.1801 -0.8061 -0.4145
  116SOL    HW1 1247   2.605   1.385   0.815 -0.4309 -0.7386  0.8759
  116SOL    HW2 1248   2.505   1.406   0.688  1.2354 -0.5339 -0.4389
  117SOL     OW 1249   3.508   0.244   3.207  0.3537  0.7793  0.0335
  117SOL    HW1 1250   3.440   0.211   3.273  0.8610 -0.3122  0.0356
  117SOL    HW2 1251   3.599   0.212   3.234  0.6191  0.6186 -0.9967
  118SOL     OW 1252   1.509   1.383   1.689 -0.5465 -0.3952 -0.0230
  118SOL    HW1 1253   1.444   1.402   1.763  0.6746 -0.6913  1.1601
  118SOL    HW2 1254   1.578   1.455   1.686  0.5499 -1.3967  0.4337
  119SOL     OW 1255   6.832   4.196   3.867  0.2084 -0.2491 -0.5399
  119SOL    HW1 1256   6.801   4.260   3.797 -0.5645 -1.4737 -1.3448
  119SOL    HW2 1257   6.890   4.126   3.826  0.1469 -0.6977  0.1126
  120SOL     OW 1258   4.032   0.104   2.765 -0.9330  0.2337  0.0007
  120SOL    HW1 1259   4.056   0.012   2.731 -2.4011  0.5135 -1.9693
  120SOL    HW2 1260   4.114   0.147   2.803  0.1810 -1.2398 -0.5966
  121SOL     OW 1261   3.871   0.338   5.783 -0.0671 -0.4263 -0.0478
  121SOL    HW1 1262   3.926   0.403   5.730  0.6336 -1.4063 -0.5490
  121SOL    HW2 1263   3.785   0.320   5.735 -0.4499  0.4254  0.2951
  122SOL     OW 1264   1.514   1.702   4.054 -0.6037  0.2505  0.4224
  122SOL    HW1 1265   1.538   1.622   4.110 -1.2725 -1.7931 -2.0144
  122SOL    HW2 1266   1.589   1.721   3.990 -0.6594  1.3101  0.6517
  123SOL     OW 1267   3.097   5.405   0.504  0.4201 -0.2046  0.4338
  123SOL    HW1 1268   3.048   5.332   0.456 -0.1068 -0.6151  1.5540
  123SOL    HW2 1269   3.037   5.445   0.573  1.0086  0.6830  0.4468
  124SOL     OW 1270   2.055   6.913   0.935 -0.2078  0.3294 -0.2199
  124SOL    HW1 1271   1.971   6.910   0.881 -1.0049  0.2246  0.9850
  124SOL    HW2 1272   2.124   6.856   0.892 -0.8471  0.1714 -1.0713
  125SOL     OW 1273   0.317   2.181   4.157  0.4395 -0.4354 -0.5615
  125SOL    HW1 1274   0.337   2.226   4.245  1.8296 -2.8077  0.4401
  125SOL    HW2 1275   0.375   2.221   4.086  1.1824 -0.2265  0.1470
  126SOL     OW 1276   2.750   6.308   2.177 -0.1029 -0.5066 -0.2412
  126SOL    HW1 1277   2.740   6.215   2.142 -0.1731 -0.5857 -0.0159
  126SOL    HW2 1278   2.726   6.373   2.105  1.9924 -0.6043 -1.0916
  127SOL     OW 1279   6.393   2.744   3.161 -0.1516  0.2909 -0.0024
  127SOL    HW1 1280   6.296   2.753   3.141 -0.3269  0.5670  0.9062
  127SOL    HW2 1281   6.442   2.715   3.079 -1.0035  0.1174 -0.4581
  128SOL     OW 1282   4.121   1.546   1.685 -0.1985 -0.1945  0.4264
  128SOL    HW1 1283   4.169   1.529   1.771  0.3022 -2.5450 -0.2555
  128SOL    HW2 1284   4.187   1.559   1.611 -0.6293  0.7809  0.1977
  129SOL     OW 1285   3.300   6.636   2.908 -0.5107 -0.6782  0.5560
  129SOL    HW1 1286   3.375   6.693   2.941 -1.8537 -0.0954  2.7964
  129SOL    HW2 1287   3.336   6.567   2.845  1.5287  0.9785 -0.2294
  130SOL     OW 1288   3.707   1.862   0.966  0.6253  0.1286  0.4343
  130SOL    HW1 1289   3.722   1.817   0.878 -0.7512  0.4724 -0.0110
  130SOL    HW2 1290   3.619   1.833   1.003  1.3174 -0.2417  1.8671
  131SOL     OW 1291   3.653   0.292   0.777  0.5596  0.2191 -0.4755
  131SOL    HW1 1292   3.561   0.306   0.813  1.5764  2.8115  1.4365
  131SOL    HW2 1293   3.673   0.194   0.775 -1.1755 -0.2873  1.9855
  132SOL     OW 1294   1.289   6.548   1.965  0.0740 -0.2327  0.0237
  132SOL    HW1 1295   1.376   6.582   2.001  0.0621 -0.9537  0.7753
  132SOL    HW2 1296   1.215   6.577   2.025 -0.1491 -0.0255 -0.3519
  133SOL     OW 1297   4.642   4.250   3.675  0.1240  0.1962  0.1449
  133SOL    HW1 1298   4.673   4.240   3.580  0.3096 -0.2157  0.2454
  133SOL    HW2 1299   4.627   4.159   3.715 -0.7933  0.3812  0.2433
  134SOL     OW 1300   4.257   5.636   2.269 -0.3804 -0.2716 -0.0737
  134SOL    HW1 1301   4.276   5.549   2.222  1.2673 -0.8398  1.4970
  134SOL    HW2 1302   4.335   5.660   2.326 -1.7295  1.0874  1.2892
  135SOL     OW 1303   5.405   5.450   0.705  0.2227 -0.1802  0.2424
  135SOL    HW1 1304   5.317   5.403   0.704  0.7307 -1.2032  1.3784
  135SOL    HW2 1305   5.391   5.548   0.715 -0.8226 -0.1591 -1.1270
  136SOL     OW 1306   2.318   5.732   2.272 -0.5168 -0.8126  0.2162
  136SOL    HW1 1307   2.369   5.807   2.314 -0.2534 -0.7295 -0.2447
  136SOL    HW2 1308   2.223   5.735   2.304 -0.6656  0.0980 -0.2758
  137SOL     OW 1309   0.735   5.596   6.945  0.6046  0.0883  0.0261
  137SOL    HW1 1310   0.823   5.615   6.988  0.7805 -1.5151  0.4494
  137SOL    HW2 1311   0.750   5.546   6.860  0.0963 -0.4754  0.2626
  138SOL     OW 1312   2.254   6.314   6.043  0.1630 -0.4838 -0.5042
  138SOL    HW1 1313   2.208   6.390   5.997 -0.5135  0.3502  1.4430
  138SOL    HW2 1314   2.306   6.349   6.121  0.4071 -1.9538  0.0174
  139SOL     OW 1315   5.565   6.567   2.129 -0.2972 -0.0295  0.2221
  139SOL    HW1 1316   5.525   6.658   2.140 -0.7124 -0.2415  0.5185
  139SOL    HW2 1317   5.647   6.559   2.185  0.2250  0.4467 -0.4739
  140SOL     OW 1318   2.149   5.104   2.898 -0.2582  0.6717 -0.4981
  140SOL    HW1 1319   2.069   5.060   2.858 -2.3900  3.3693  0.4201
  140SOL    HW2 1320   2.215   5.124   2.826 -1.8370  1.1354 -1.8983
  141SOL     OW 1321   6.577   3.203   0.073 -0.1671 -0.4971  0.1443
  141SOL    HW1 1322   6.631   3.282   0.103  1.6024 -1.2031 -1.0056
  141SOL    HW2 1323   6.578   3.133   0.144 -3.0831  1.0033  1.8756
  142SOL     OW 1324   1.359   3.412   2.737 -0.3158 -0.0444  0.5192
  142SOL    HW1 1325   1.285   3.414   2.671  0.8224  0.6657 -0.7766
  142SOL    HW2 1326   1.375   3.505   2.772  2.9444  0.8439 -2.7423
  143SOL     OW 1327   0.271   6.973   5.754 -0.4199 -0.1070  0.5752
  143SOL    HW1 1328   0.251   7.006   5.662 -0.9767  0.9004  1.0389
  143SOL    HW2 1329   0.357   6.921   5.753  0.3479  1.1324 -0.2483
  144SOL     OW 1330   0.040   5.491   3.199 -0.5746 -0.1885  0.1480
  144SOL    HW1 1331  -0.002   5.432   3.268 -0.3904  1.1474  1.4266
  144SOL    HW2 1332   0.105   5.553   3.242 -0.2733  0.5257 -1.2677
  145SOL     OW 1333   1.145   1.498   3.086 -0.4389  0.1110  0.1923
  145SOL    HW1 1334   1.178   1.581   3.131 -0.2711 -0.3692  0.9787
  145SOL    HW2 1335   1.063   1.519   3.033 -1.0920  0.5462  1.3362
  146SOL     OW 1336   5.795   6.137   2.082 -0.0696 -0.0281  0.2874
  146SOL    HW1 1337   5.814   6.039   2.087  0.4358 -0.1021 -1.8508
  146SOL    HW2 1338   5.874   6.188   2.115  0.2903 -0.3584 -0.0419
  147SOL     OW 1339   5.439   1.888   2.027 -0.0628 -0.1256 -0.0518
  147SOL    HW1 1340   5.471   1.800   2.062 -1.0924 -0.5146 -0.0686
  147SOL    HW2 1341   5.518   1.949   2.014  0.5494 -0.6892  0.9126
  148SOL     OW 1342   2.867   4.957   5.432 -0.0487 -0.2647  0.1454
  148SOL    HW1 1343   2.893   4.893   5.360  1.2406 -0.6580  0.9395
  148SOL    HW2 1344   2.935   4.955   5.505  0.2839  2.3799 -0.0254
  149SOL     OW 1345   5.352   6.752   3.275  0.4070 -0.0616  0.0292
  149SOL    HW1 1346   5.392   6.842   3.258  1.7706 -0.4857  0.8026
  149SOL    HW2 1347   5.416   6.681   3.245 -0.3630 -0.7770  0.0439
  150SOL     OW 1348   6.054   6.085   5.840  0.0722  0.2954 -0.4057
  150SOL    HW1 1349   5.990   6.074   5.764  1.3111 -1.8106 -1.2204
  150SOL    HW2 1350   6.038   6.013   5.907  0.4891  0.7743  0.2189
  151SOL     OW 1351   2.986   3.946   0.121 -0.4851  0.2152 -0.3721
  151SOL    HW1 1352   3.004   3.987   0.031  0.5267  1.1369  0.2389
  151SOL    HW2 1353   2.989   4.016   0.191 -1.1050 -0.5310  0.4221
  152SOL     OW 1354   3.838   5.117   0.276  0.0733 -0.1434  1.0539
  152SOL    HW1 1355   3.930   5.139   0.307  0.8756 -2.0230  0.1741
  152SOL    HW2 1356   3.771   5.150   0.342  1.3277  1.6602  1.4833
  153SOL     OW 1357   0.269   6.705   2.365 -0.3652  0.9482  0.2786
  153SOL    HW1 1358   0.202   6.734   2.434 -1.5978 -0.2605 -0.3773
  153SOL    HW2 1359   0.282   6.779   2.299 -1.4615  1.0010  0.1145
  154SOL     OW 1360   4.833   1.900   4.284 -0.6636 -0.1202 -0.0750
  154SOL    HW1 1361   4.863   1.810   4.252  1.1642  1.2472 -2.5911
  154SOL    HW2 1362   4.862   1.914   4.378  1.4490 -1.1403 -0.5280
  155SOL     OW 1363   0.665   4.811   6.510  0.1084  0.3009  0.1036
  155SOL    HW1 1364   0.659   4.887   6.446  0.8864 -0.1122 -0.4718
  155SOL    HW2 1365   0.621   4.837   6.596 -0.7578  0.9408 -0.5105
  156SOL     OW 1366   4.030   6.102   5.504  0.6729  0.7319 -0.3865
  156SOL    HW1 1367   4.050   6.084   5.600  0.3861  1.1146 -0.2495
  156SOL    HW2 1368   3.931   6.098   5.489  0.6058  1.9053 -0.3953
  157SOL     OW 1369   2.492   0.898   5.448  0.7114  0.1423 -0.1322
  157SOL    HW1 1370   2.505   0.810   5.493 -0.5351 -0.8073 -1.5659
  157SOL    HW2 1371   2.578   0.927   5.406  0.4277 -1.9770 -2.3625
  158SOL     OW 1372   4.351   6.048   1.036 -0.2307 -0.1704 -0.1767
  158SOL    HW1 1373   4.345   5.989   0.956 -1.8732  1.0318 -1.0224
  158SOL    HW2 1374   4.415   6.123   1.018 -0.1838 -0.2062 -0.1585
  159SOL     OW 1375   2.703   1.602   5.557 -0.1018 -0.1873 -0.6970
  159SOL    HW1 1376   2.631   1.591   5.488 -1.2046  0.2198  0.3520
  159SOL    HW2 1377   2.750   1.515   5.571 -1.2603 -0.7921 -0.4823
  160SOL     OW 1378   1.762   5.815   1.135  0.5274  0.0176  0.3668
  160SOL    HW1 1379   1.769   5.912   1.113  2.1106  0.3286  1.9792
  160SOL    HW2 1380   1.681   5.799   1.192 -0.4547  0.1379 -0.9591
  161SOL     OW 1381   3.123   1.484   6.979  0.0474  0.1396  0.1517
  161SOL    HW1 1382   3.039   1.431   6.997  0.0910  0.0397  0.0619
  161SOL    HW2 1383   3.169   1.504   7.066  0.5577 -0.8341  0.1185
  162SOL     OW 1384   1.138   1.468   4.035  0.3189 -0.2253 -0.0648
  162SOL    HW1 1385   1.043   1.474   4.067 -0.2828 -0.7735 -1.6571
  162SOL    HW2 1386   1.199   1.462   4.114 -0.8874  0.9820  1.0124
  163SOL     OW 1387   5.165   0.662   2.308 -0.2072 -0.2673 -0.1303
  163SOL    HW1 1388   5.174   0.751   2.263  1.0341 -0.7293 -0.8266
  163SOL    HW2 1389   5.114   0.673   2.393 -1.4967  0.8349 -1.0054
  164SOL     OW 1390   2.054   0.397   5.983  0.2324 -0.0428  0.3668
  164SOL    HW1 1391   2.032   0.310   6.028  0.4832  0.3892  1.3462
  164SOL    HW2 1392   1.969   0.440   5.952  0.0668 -0.3878  0.3266
  165SOL     OW 1393   4.453   4.644   6.922 -0.1177 -0.0142  0.2390
  165SOL    HW1 1394   4.419   4.626   6.830 -1.7953 -1.7038  1.1225
  165SOL    HW2 1395   4.400   4.718   6.963  0.4949  0.5983 -0.0444
  166SOL     OW 1396   4.970   0.978   1.011 -0.0811 -0.1298 -0.9248
  166SOL    HW1 1397   4.921   0.998   1.096  0.1490 -0.1192 -0.7947
  166SOL    HW2 1398   5.009   0.886   1.017 -2.3777 -1.2658 -2.0894
  167SOL     OW 1399   2.117   6.316   0.345 -0.0375  0.5248  0.6512
  167SOL    HW1 1400   2.208   6.353   0.363 -0.2268  2.1454 -1.3251
  167SOL    HW2 1401   2.054   6.346   0.416  0.5962  0.9479  1.0398
  168SOL     OW 1402   5.414   6.283   2.771  0.1748 -0.1179  0.6547
  168SOL    HW1 1403   5.328   6.246   2.734  0.3724 -0.8694  0.9499
  168SOL    HW2 1404   5.468   6.210   2.812  1.3861  0.1853 -0.3292
  169SOL     OW 1405   6.350   3.463   6.186 -0.2207  0.4792 -0.0281
  169SOL    HW1 1406   6.388   3.371   6.180  1.1602  1.0891 -3.5080
  169SOL    HW2 1407   6.294   3.481   6.105 -0.6276  2.6243  0.6675
  170SOL     OW 1408   4.430   2.457   3.344 -0.0543  0.1771 -0.5093
  170SOL    HW1 1409   4.415   2.419   3.253  0.9928 -0.7246 -0.3198
  170SOL    HW2 1410   4.359   2.424   3.406 -2.9915  3.5992 -1.6975
  171SOL     OW 1411   4.291   6.677   3.974 -0.1943  0.0205 -0.0850
  171SOL    HW1 1412   4.305   6.608   3.903 -0.6670  1.0546 -1.2187
  171SOL    HW2 1413   4.193   6.693   3.987 -0.1502 -0.6164  1.2953
  172SOL     OW 1414   5.814   4.465   6.382  0.0130  0.0461  0.3160
  172SOL    HW1 1415   5.785   4.431   6.472 -0.4896  0.9661  0.5179
  172SOL    HW2 1416   5.817   4.565   6.383  0.2688  0.0613 -0.6140
  173SOL     OW 1417   4.611   5.994   5.868 -0.0876 -0.6984  0.2912
  173SOL    HW1 1418   4.692   6.003   5.810  0.1024 -0.6006  0.5735
  173SOL    HW2 1419   4.623   5.917   5.931  0.0759 -0.2600  0.8032
  174SOL     OW 1420   3.719   1.011   3.420 -0.2770  0.2142 -0.6298
  174SOL    HW1 1421   3.727   0.953   3.501 -1.0030 -1.2676 -1.5740
  174SOL    HW2 1422   3.809   1.046   3.395 -0.2840  2.2340  1.8554
  175SOL     OW 1423   5.917   5.870   4.226 -0.0693  0.0124 -0.4154
  175SOL    HW1 1424   5.899   5.772   4.229 -2.9924  0.4554  0.0164
  175SOL    HW2 1425   5.958   5.899   4.312  0.2241 -0.7429 -0.2956
  176SOL     OW 1426   1.818   5.735   2.293  0.0092  0.3854 -0.0034
  176SOL    HW1 1427   1.767   5.649   2.281  1.2790 -0.3425 -0.4227
  176SOL    HW2 1428   1.875   5.752   2.213  0.5892  1.0553  0.5328
  177SOL     OW 1429   0.608   0.025   2.158  0.5909  0.4710  0.3906
  177SOL    HW1 1430   0.653   0.104   2.201  0.8181  0.7369 -0.3179
  177SOL    HW2 1431   0.647   0.011   2.067 -1.1321  1.0547 -0.4772
  178SOL     OW 1432   6.676   0.255   0.895  0.1558  0.1834  0.1696
  178SOL    HW1 1433   6.716   0.252   0.987 -0.4622 -0.1297  0.4271
  178SOL    HW2 1434   6.595   0.197   0.891 -1.6630  2.5511  0.3069
  179SOL     OW 1435   3.218   1.746   3.836 -0.4392 -0.3056 -0.7539
  179SOL    HW1 1436   3.132   1.723   3.791 -0.9595 -2.0874  0.9988
  179SOL    HW2 1437   3.294   1.708   3.784 -0.8574 -0.5519 -1.1961
  180SOL     OW 1438   1.313   1.435   4.745  0.1548  0.0928  0.0177
  180SOL    HW1 1439   1.321   1.484   4.658 -3.0868  0.2700 -0.3244
  180SOL    HW2 1440   1.336   1.496   4.820  1.2887  0.4664 -0.6105
  181SOL     OW 1441   4.457   1.102   0.602  0.3807  0.0407  0.0498
  181SOL    HW1 1442   4.414   1.050   0.676 -0.5693  0.3168 -0.2858
  181SOL    HW2 1443   4.543   1.058   0.576 -0.8664 -2.0198 -0.9343
  182SOL     OW 1444   1.999   4.119   4.417  0.5378 -0.4143  0.0378
  182SOL    HW1 1445   2.002   4.151   4.512 -1.3426  1.1803 -0.3923
  182SOL    HW2 1446   1.996   4.197   4.355 -2.0982 -1.3410 -1.1599
  183SOL     OW 1447   5.128   0.611   5.976 -0.2769  0.7334 -0.2819
  183SOL    HW1 1448   5.067   0.675   5.929 -0.3504  2.4835  1.9945
  183SOL    HW2 1449   5.218   0.654   5.987 -1.0085  1.6363  3.4588
  184SOL     OW 1450   2.184   4.606   3.766 -0.8480  0.6319  0.0647
  184SOL    HW1 1451   2.234   4.521   3.753 -1.1141  0.3567  0.7939
  184SOL    HW2 1452   2.200   4.667   3.688  0.6225  0.5673  0.2985
  185SOL     OW 1453   1.367   5.150   2.629  0.1792 -0.2115 -0.4381
  185SOL    HW1 1454   1.344   5.066   2.579 -1.1635 -0.4635  0.5347
  185SOL    HW2 1455   1.466   5.163   2.629  0.3800 -1.5785 -0.9689
  186SOL     OW 1456   6.832   1.888   4.528  0.6068  0.1399 -0.1761
  186SOL    HW1 1457   6.733   1.878   4.523  0.6453 -0.4409  0.1291
  186SOL    HW2 1458   6.868   1.909   4.438  0.4078 -1.6168 -0.7039
  187SOL     OW 1459   6.893   3.947   2.681  0.1523  0.3918  0.2615
  187SOL    HW1 1460   6.858   4.033   2.643  0.3893  0.4828  0.2480
  187SOL    HW2 1461   6.837   3.871   2.647  0.4062  0.4628 -0.3316
  188SOL     OW 1462   5.797   5.363   5.079  0.0358 -0.3046  0.4557
  188SOL    HW1 1463   5.761   5.455   5.063 -0.2566 -0.5712 -0.4986
  188SOL    HW2 1464   5.739   5.296   5.032  0.7463 -0.8973  0.4002
  189SOL     OW 1465   1.015   2.746   6.316  0.4794 -0.1306 -0.2606
  189SOL    HW1 1466   1.093   2.689   6.339  2.6221  2.9106  0.6959
  189SOL    HW2 1467   0.991   2.734   6.220  1.8796 -1.4013 -0.4752
  190SOL     OW 1468   5.410   6.387   0.569 -0.6651  0.1076  0.0727
  190SOL    HW1 1469   5.376   6.475   0.603  1.4647  1.5054 -1.2405
  190SOL    HW2 1470   5.363   6.364   0.484 -0.0720  0.8294 -0.4608
  191SOL     OW 1471   6.414   2.514   3.466 -0.2607  0.4087 -0.0340
  191SOL    HW1 1472   6.394   2.418   3.450 -1.9896  0.6334  0.5500
  191SOL    HW2 1473   6.472   2.524   3.547  1.7834 -0.2306 -1.3467
  192SOL     OW 1474   2.682   0.100   3.694  0.1267  0.1712  0.1052
  192SOL    HW1 1475   2.772   0.138   3.674  0.1035 -0.3932 -1.1900
  192SOL    HW2 1476   2.659   0.032   3.625 -1.3267  0.3611  0.3730
  193SOL     OW 1477   3.870   5.023   0.691 -0.0706  0.1761  0.1372
  193SOL    HW1 1478   3.953   4.973   0.664  0.6730  1.1232  0.5716
  193SOL    HW2 1479   3.873   5.115   0.650  0.1276  0.9502  1.8055
  194SOL     OW 1480   2.616   5.371   6.256 -0.0321  0.2485  0.4474
  194SOL    HW1 1481   2.519   5.368   6.280 -0.2362 -0.1393 -0.3993
  194SOL    HW2 1482   2.660   5.444   6.307 -0.6721  0.1319  1.1875
  195SOL     OW 1483   0.876   2.651   2.738 -0.3138  0.0110  0.6122
  195SOL    HW1 1484   0.813   2.665   2.815 -1.0456  2.0016 -0.2814
  195SOL    HW2 1485   0.912   2.557   2.741 -1.9015 -0.6113  2.1927
  196SOL     OW 1486   1.450   4.763   4.859  0.5668 -0.5039 -0.3050
  196SOL    HW1 1487   1.434   4.858   4.885  2.8179 -0.1068 -0.1375
  196SOL    HW2 1488   1.463   4.757   4.760  0.2156 -0.6727 -0.3416
  197SOL     OW 1489   2.988   1.251   5.410 -0.4944  0.1197 -0.6493
  197SOL    HW1 1490   3.060   1.319   5.411 -1.9145  1.6920 -0.9584
  197SOL    HW2 1491   2.932   1.263   5.328 -0.5229 -1.7243 -0.9426
  198SOL     OW 1492   4.371   2.215   2.506 -0.6708 -0.0168 -0.1324
  198SOL    HW1 1493   4.378   2.276   2.428 -0.6835 -0.9270 -0.8646
  198SOL    HW2 1494   4.453   2.158   2.512 -0.0056  1.0384  1.3956
  199SOL     OW 1495   2.851   2.212   6.430 -0.4919 -0.6231  0.4215
  199SOL    HW1 1496   2.795   2.278   6.479 -1.9104 -1.4878  0.0136
  199SOL    HW2 1497   2.803   2.180   6.349  1.3422 -0.0740 -0.9549
  200SOL     OW 1498   6.161   3.185   5.969  0.6784 -0.1231  0.2671
  200SOL    HW1 1499   6.189   3.089   5.969 -0.6961 -0.5737 -1.6298
  200SOL    HW2 1500   6.078   3.196   6.023  0.2588 -0.2027 -0.3552
  201SOL     OW 1501   3.477   2.967   0.383 -0.1604 -0.1007  0.0812
  201SOL    HW1 1502   3.402   2.910   0.414 -1.1588  1.3145  0.3589
  201SOL    HW2 1503   3.554   2.959   0.448  0.0462 -1.7058 -0.3180
  202SOL     OW 1504   0.017   2.716   0.849 -0.3462  0.3094 -0.2184
  202SOL    HW1 1505   0.027   2.696   0.946  0.2097  0.4149 -0.2516
  202SOL    HW2 1506  -0.080   2.719   0.825 -0.4689 -0.6807  0.1300
  203SOL     OW 1507   4.197   6.280   5.346 -0.1324 -0.2462  0.0278
  203SOL    HW1 1508   4.147   6.289   5.260  0.0109 -1.6658 -0.2396
  203SOL    HW2 1509   4.141   6.230   5.413 -0.4353  1.2725  0.9437
  204SOL     OW 1510   1.890   2.595   2.632  0.0170  0.2291 -0.3402
  204SOL    HW1 1511   1.893   2.593   2.732  2.9956 -0.3585 -0.3650
  204SOL    HW2 1512   1.908   2.688   2.600  0.1301  0.2047 -0.3464
  205SOL     OW 1513   6.796   6.688   0.613 -0.8576 -0.2095 -0.5361
  205SOL    HW1 1514   6.771   6.645   0.526 -3.4802  0.0043  0.0416
  205SOL    HW2 1515   6.749   6.776   0.622  1.1748  0.8828  0.1377
  206SOL     OW 1516   1.985   4.729   3.097  0.0421  0.0797 -0.2574
  206SOL    HW1 1517   1.894   4.689   3.092  0.7990 -1.5462 -2.4887
  206SOL    HW2 1518   1.984   4.807   3.159 -2.9142  0.2943 -0.4630
  207SOL     OW 1519   0.590   1.702   1.873  0.1394 -0.1895 -0.2661
  207SOL    HW1 1520   0.541   1.785   1.847 -2.4569 -1.8948 -1.1925
  207SOL    HW2 1521   0.599   1.698   1.972 -1.4276  0.3275 -0.0807
  208SOL     OW 1522   5.577   6.282   2.068 -0.4082 -0.0486  0.2207
  208SOL    HW1 1523   5.604   6.378   2.069 -0.6452  0.1286 -2.6191
  208SOL    HW2 1524   5.659   6.225   2.062 -0.3414  0.2111 -2.0859
  209SOL     OW 1525   6.351   2.504   4.951  0.1287  0.2870  0.2293
  209SOL    HW1 1526   6.359   2.404   4.949 -1.1229  0.1696  0.5878
  209SOL    HW2 1527   6.305   2.532   5.035  0.8184  1.2084  0.3187
  210SOL     OW 1528   1.508   1.519   0.769 -0.2053  0.0131  0.6748
  210SOL    HW1 1529   1.507   1.618   0.781 -0.4090  0.1233 -0.1595
  210SOL    HW2 1530   1.506   1.498   0.671 -1.8899 -0.8237  0.8449
  211SOL     OW 1531   6.419   3.676   4.042 -0.2284  0.1092  0.0939
  211SOL    HW1 1532   6.516   3.654   4.029 -0.1896 -0.3270  1.0026
  211SOL    HW2 1533   6.369   3.654   3.959  0.6356  1.5344 -0.8360
  212SOL     OW 1534   4.660   0.443   1.181 -0.0185  0.3042 -0.0206
  212SOL    HW1 1535   4.669   0.401   1.271  0.3422  0.2355 -0.0889
  212SOL    HW2 1536   4.595   0.391   1.126 -0.8068  0.7667  0.4505
  213SOL     OW 1537   5.899   0.483   0.062 -0.3917 -0.2566 -0.3554
  213SOL    HW1 1538   5.972   0.486   0.130  0.3335 -0.5536 -1.1103
  213SOL    HW2 1539   5.905   0.397   0.010 -0.7199  0.1184 -1.0295
  214SOL     OW 1540   0.921   2.484   0.661 -0.1091 -0.5448 -0.1622
  214SOL    HW1 1541   0.831   2.493   0.703 -0.3043  1.0266 -0.8499
  214SOL    HW2 1542   0.986   2.545   0.706  0.6102 -1.6022  0.2705
  215SOL     OW 1543   6.216   0.403   4.977  0.1230 -0.1119 -0.1624
  215SOL    HW1 1544   6.221   0.416   4.878  3.7883  1.4888  0.0732
  215SOL    HW2 1545   6.259   0.316   5.001 -0.2079 -0.2117  0.0778
  216SOL     OW 1546   4.140   1.223   0.668  0.2459 -0.4313  0.3196
  216SOL    HW1 1547   4.177   1.172   0.591  1.4107  0.8255  0.0079
  216SOL    HW2 1548   4.199   1.212   0.748 -0.3410 -0.8148  0.7089
  217SOL     OW 1549   1.477   3.260   3.285 -0.2159  0.6758  0.1030
  217SOL    HW1 1550   1.449   3.301   3.198 -1.0475 -0.5392 -0.2335
  217SOL    HW2 1551   1.567   3.218   3.275 -0.2320  0.6929 -0.1110
  218SOL     OW 1552   1.725   6.502   3.884 -0.0786 -0.4741 -0.2616
  218SOL    HW1 1553   1.681   6.497   3.794  1.3476  0.7763 -1.0738
  218SOL    HW2 1554   1.823   6.518   3.872  0.1374 -0.2891  1.5335
  219SOL     OW 1555   1.189   4.775   3.267 -0.3618 -0.2369 -0.0062
  219SOL    HW1 1556   1.128   4.800   3.342 -1.0251 -0.3794 -0.4917
  219SOL    HW2 1557   1.213   4.857   3.215 -1.6896 -0.4276 -0.9636
  220SOL     OW 1558   5.470   6.688   4.357  0.1096  0.4254 -0.1089
  220SOL    HW1 1559   5.378   6.725   4.364 -0.0686  0.3747 -1.8206
  220SOL    HW2 1560   5.466   6.589   4.348  0.5575 -0.0894  3.7902
  221SOL     OW 1561   6.422   1.210   6.477  0.6642 -0.3482  0.3951
  221SOL    HW1 1562   6.504   1.257   6.509  0.2325  0.8843 -0.2485
  221SOL    HW2 1563   6.392   1.145   6.547  1.2423  0.3867  1.3625
  222SOL     OW 1564   1.734   6.776   2.463  0.3499 -0.2288 -0.0255
  222SOL    HW1 1565   1.743   6.865   2.507  0.8203 -1.6399  3.0378
  222SOL    HW2 1566   1.824   6.731   2.460 -0.3579 -1.8999  1.6581
  223SOL     OW 1567   6.876   3.076   4.533  0.3469  0.1423 -0.0269
  223SOL    HW1 1568   6.925   3.089   4.620 -0.1558  1.0555  0.1383
  223SOL    HW2 1569   6.779   3.057   4.553  0.0846  1.0652 -0.3949
  224SOL     OW 1570   1.515   5.055   0.457  0.2207  0.2346  0.1826
  224SOL    HW1 1571   1.507   5.058   0.358  0.2030 -0.9367  0.1343
  224SOL    HW2 1572   1.429   5.087   0.499  0.1015  0.3873 -0.1764
  225SOL     OW 1573   6.365   1.824   1.198  0.0951 -0.2426  0.0159
  225SOL    HW1 1574   6.307   1.747   1.227  0.4877 -0.0825  1.3166
  225SOL    HW2 1575   6.448   1.788   1.155 -0.1288 -0.5237 -0.1873
  226SOL     OW 1576   4.022   6.396   5.721 -0.3598  0.3257 -0.1016
  226SOL    HW1 1577   4.081   6.318   5.700 -0.2074  1.1306 -3.1939
  226SOL    HW2 1578   3.927   6.371   5.701 -0.4268  0.6020 -0.1339
  227SOL     OW 1579   4.156   2.065   0.223  0.5006  0.3242  0.0507
  227SOL    HW1 1580   4.088   2.112   0.281  1.5597 -0.0643  1.6567
  227SOL    HW2 1581   4.188   2.129   0.152  0.9710  1.6662  1.4054
  228SOL     OW 1582   0.214   3.782   3.241  0.1365 -0.0306 -0.4121
  228SOL    HW1 1583   0.208   3.792   3.341 -2.8277 -2.8974 -0.1539
  228SOL    HW2 1584   0.145   3.841   3.198 -1.6585 -1.9753 -0.3637
  229SOL     OW 1585   0.827   3.398   6.695  0.4621  0.2173  0.1527
  229SOL    HW1 1586   0.885   3.335   6.644  1.4293 -0.5260  2.0623
  229SOL    HW2 1587   0.792   3.352   6.777  0.3002  1.8109  1.0210
  230SOL     OW 1588   0.414   6.717   3.938  0.0104  0.3204  0.1770
  230SOL    HW1 1589   0.478   6.779   3.893 -0.0415  0.2659  0.0305
  230SOL    HW2 1590   0.466   6.653   3.996  0.0382  0.7580  0.6484
  231SOL     OW 1591   1.171   5.270   1.675  0.1146 -0.4611 -0.8525
  231SOL    HW1 1592   1.235   5.335   1.716  0.8262 -2.4907  1.5004
  231SOL    HW2 1593   1.222   5.192   1.640 -0.9836 -1.7935  0.4299
  232SOL     OW 1594   6.357   4.541   4.710 -0.3822  0.9022  0.1725
  232SOL    HW1 1595   6.272   4.517   4.664  0.1487 -0.3458 -0.2180
  232SOL    HW2 1596   6.380   4.636   4.692 -0.1360  0.4363 -2.2979
  233SOL     OW 1597   5.116   2.093   6.534 -0.2233  0.4572 -0.4684
  233SOL    HW1 1598   5.087   2.003   6.568  0.4817  0.7037  0.8672
  233SOL    HW2 1599   5.115   2.093   6.434  3.1782 -2.2261 -0.6794
  234SOL     OW 1600   4.998   3.492   5.547  0.3184  0.0913  0.3496
  234SOL    HW1 1601   4.943   3.537   5.618 -1.7752 -1.5147 -0.1465
  234SOL    HW2 1602   4.959   3.512   5.457  0.9391 -0.5665 -0.0725
  235SOL     OW 1603   6.117   0.833   2.978  0.1495 -0.0747 -0.1659
  235SOL    HW1 1604   6.108   0.904   3.048  0.9634 -0.3849  0.2676
  235SOL    HW2 1605   6.048   0.762   2.993  0.9984 -0.6887  1.0057
  236SOL     OW 1606   5.262   3.233   2.334  0.0289 -0.6347 -0.5200
  236SOL    HW1 1607   5.343   3.184   2.302  0.4024 -0.4376  0.1059
  236SOL    HW2 1608   5.189   3.167   2.355  1.0997 -1.1209  1.9854
  237SOL     OW 1609   4.738   4.800   0.054 -0.2898 -0.4985  0.3237
  237SOL    HW1 1610   4.758   4.745   0.135  0.2473  2.5819  2.4503
  237SOL    HW2 1611   4.642   4.827   0.055 -0.6366 -1.5786 -0.8973
  238SOL     OW 1612   1.560   4.483   1.666 -0.0560  0.4183  0.3336
  238SOL    HW1 1613   1.508   4.567   1.650 -0.8049  0.0262  0.6685
  238SOL    HW2 1614   1.657   4.506   1.677 -0.0245  1.0751 -1.0927
  239SOL     OW 1615   2.845   1.676   5.326  0.6937  0.1313 -0.1170
  239SOL    HW1 1616   2.896   1.682   5.411  0.0864  1.4425  0.1777
  239SOL    HW2 1617   2.751   1.646   5.344  0.8943 -0.7422 -0.4734
  240SOL     OW 1618   7.010   6.230   5.957  0.7026  0.1345 -0.5555
  240SOL    HW1 1619   7.023   6.326   5.933 -0.4584  0.1155 -1.3258
  240SOL    HW2 1620   7.012   6.174   5.874  2.2592 -0.6361 -0.0350
  241SOL     OW 1621   6.100   5.764   2.175  0.0135  0.2175 -0.1762
  241SOL    HW1 1622   6.042   5.688   2.145 -0.4806  0.5924 -0.1932
  241SOL    HW2 1623   6.194   5.749   2.143  0.4018 -1.4029  1.5829
  242SOL     OW 1624   3.682   3.527   3.624 -0.0806 -0.2842  0.3319
  242SOL    HW1 1625   3.632   3.450   3.585 -0.2006 -0.0052 -0.0733
  242SOL    HW2 1626   3.758   3.552   3.563 -0.2930  0.1798  0.2544
  243SOL     OW 1627   5.996   5.273   6.597  0.3164 -0.1778 -0.2684
  243SOL    HW1 1628   6.077   5.288   6.541  0.4231  0.3165  0.0165
  243SOL    HW2 1629   6.011   5.310   6.689  0.2152 -1.1619  0.1548
  244SOL     OW 1630   6.844   1.716   6.021 -0.1858  0.3268  0.2472
  244SOL    HW1 1631   6.835   1.800   5.967  2.0954  1.4754  1.4762
  244SOL    HW2 1632   6.845   1.637   5.960 -0.7949  1.3185 -1.0965
  245SOL     OW 1633   1.617   6.613   5.644  0.0243  0.9738 -0.0829
  245SOL    HW1 1634   1.601   6.567   5.731  0.5070 -0.1524 -0.5608
  245SOL    HW2 1635   1.714   6.605   5.621 -0.0385  1.5720 -0.5487
  246SOL     OW 1636   5.837   0.538   2.318 -0.3019  0.9845 -0.4673
  246SOL    HW1 1637   5.756   0.568   2.370  1.0488 -0.0655  2.4900
  246SOL    HW2 1638   5.841   0.438   2.320  2.5877  1.0122  2.2295
  247SOL     OW 1639   6.025   0.497   5.164 -0.2583 -0.1706  0.5302
  247SOL    HW1 1640   6.109   0.468   5.119 -0.5001  0.1168 -0.1172
  247SOL    HW2 1641   6.010   0.594   5.147 -1.0322 -0.3502  0.1260
  248SOL     OW 1642   6.316   3.166   4.998 -0.4037 -0.1379  0.6037
  248SOL    HW1 1643   6.401   3.170   5.052 -0.5093  0.4432  0.7265
  248SOL    HW2 1644   6.249   3.111   5.046 -0.1395 -0.5022  0.5631
  249SOL     OW 1645   0.546   5.919   2.565  0.0431 -0.2430 -0.2560
  249SOL    HW1 1646   0.480   5.980   2.610 -0.6263 -0.9398 -0.2720
  249SOL    HW2 1647   0.593   5.969   2.492 -2.4270 -0.4146 -2.1004
  250SOL     OW 1648   1.482   5.900   6.235  0.9863 -0.2079 -0.0227
  250SOL    HW1 1649   1.392   5.926   6.271  0.7474  0.3572 -0.9914
  250SOL    HW2 1650   1.495   5.943   6.146  2.5049  0.2721  0.4114
  251SOL     OW 1651   5.757   4.001   0.430  0.0408  0.0591 -0.1093
  251SOL    HW1 1652   5.815   3.991   0.349 -0.1857  0.6176 -0.3467
  251SOL    HW2 1653   5.689   3.928   0.431 -1.0463  1.0003 -1.3541
  252SOL     OW 1654   0.790   0.872   4.488 -0.0577 -0.0343  0.3132
  252SOL    HW1 1655   0.805   0.968   4.469  1.0678  0.0901  1.6348
  252SOL    HW2 1656   0.812   0.817   4.407 -1.5011  0.8419 -0.7168
  253SOL     OW 1657   4.529   5.525   4.583  0.6800  0.5810 -1.0060
  253SOL    HW1 1658   4.604   5.548   4.645  1.7806  0.5382 -2.2811
  253SOL    HW2 1659   4.530   5.426   4.565 -1.7276 -0.0478  1.4945
  254SOL     OW 1660   4.188   0.335   5.483 -0.1934 -0.4105 -0.2787
  254SOL    HW1 1661   4.143   0.418   5.516  1.9336  1.9992 -2.9076
  254SOL    HW2 1662   4.119   0.266   5.463 -1.9841  0.2715  2.8429
  255SOL     OW 1663   1.107   0.202   3.809 -0.2323  0.2378  0.4637
  255SOL    HW1 1664   1.200   0.236   3.797  0.1076 -0.6682  0.4478
  255SOL    HW2 1665   1.106   0.132   3.881 -0.4471 -1.5230 -1.1874
  256SOL     OW 1666   1.083   3.875   0.025 -0.8043 -0.1501  0.4968
  256SOL    HW1 1667   0.993   3.870  -0.019 -0.2585 -0.8135 -0.5993
  256SOL    HW2 1668   1.125   3.784   0.024  0.0777  0.2460  0.5583
  257SOL     OW 1669   4.869   3.140   3.646  0.0831  0.1029  0.4639
  257SOL    HW1 1670   4.850   3.051   3.606  1.8971  0.2407 -0.8416
  257SOL    HW2 1671   4.919   3.128   3.731 -1.6175 -0.1308  1.4794
  258SOL     OW 1672   2.592   5.049   2.423  0.3326  0.2793 -0.0483
  258SOL    HW1 1673   2.583   4.992   2.505  4.3280  1.1642  1.2036
  258SOL    HW2 1674   2.567   5.143   2.444 -1.7701 -0.0357 -0.8581
  259SOL     OW 1675   1.032   2.143   0.306 -0.6680  0.1195  0.0804
  259SOL    HW1 1676   0.975   2.133   0.224 -0.1617 -0.0750 -0.2489
  259SOL    HW2 1677   1.000   2.221   0.359 -0.1154  1.1331 -1.0251
  260SOL     OW 1678   6.574   5.287   6.899  0.4667  0.0488 -0.1234
  260SOL    HW1 1679   6.565   5.243   6.989  0.5125 -1.8865 -1.0161
  260SOL    HW2 1680   6.567   5.217   6.827 -1.3649  1.7602 -1.7153
  261SOL     OW 1681   2.132   4.219   1.690 -0.1903 -0.6309  0.4345
  261SOL    HW1 1682   2.100   4.307   1.727 -2.4808 -1.1216 -0.2507
  261SOL    HW2 1683   2.210   4.187   1.744 -0.7618  0.7149  2.1487
  262SOL     OW 1684   4.295   0.774   3.575 -0.3710 -0.0377 -0.2329
  262SOL    HW1 1685   4.245   0.844   3.524 -0.9288 -0.0796  0.2372
  262SOL    HW2 1686   4.250   0.760   3.664  0.2536 -0.3624  0.0333
  263SOL     OW 1687   2.051   5.030   0.297 -0.3559  0.0571 -0.1274
  263SOL    HW1 1688   1.953   5.042   0.314 -0.9503  1.1741 -3.5185
  263SOL    HW2 1689   2.084   5.105   0.239  1.6531 -2.1243 -2.0094
  264SOL     OW 1690   4.571   4.659   6.163 -0.0820  0.1439  0.2512
  264SOL    HW1 1691   4.542   4.752   6.186 -1.6218 -0.2821  0.1286
  264SOL    HW2 1692   4.571   4.603   6.245  0.2197  0.0832  0.2117
  265SOL     OW 1693   5.203   5.753   2.544 -0.2876 -0.3086  0.0699
  265SOL    HW1 1694   5.160   5.768   2.455  0.4688  0.8786 -0.1190
  265SOL    HW2 1695   5.181   5.830   2.605  0.5273 -0.2989  0.3714
  266SOL     OW 1696   6.249   3.226   0.279  0.0052 -0.0937  0.1980
  266SOL    HW1 1697   6.267   3.214   0.377  1.4459 -1.9420 -0.2277
  266SOL    HW2 1698   6.316   3.290   0.241  1.4379 -1.6898 -0.0905
  267SOL     OW 1699   2.139   1.882   3.255 -0.0065 -0.2352 -0.3970
  267SOL    HW1 1700   2.216   1.852   3.312  0.7925  0.3130 -1.1557
  267SOL    HW2 1701   2.057   1.891   3.311  0.5077 -0.7362  0.4524
  268SOL     OW 1702   2.573   4.961   6.410  0.6717 -0.0909 -0.3642
  268SOL    HW1 1703   2.565   4.895   6.484 -0.1136  1.7973  1.3090
  268SOL    HW2 1704   2.483   4.998   6.388  1.2559  1.4568 -0.2685
  269SOL     OW 1705   6.202   4.195   1.751  0.2670 -0.0358 -0.1417
  269SOL    HW1 1706   6.118   4.225   1.795  0.1881  0.2125 -0.4601
  269SOL    HW2 1707   6.213   4.097   1.763  1.1384  0.2674  1.9553
  270SOL     OW 1708   0.723   0.742   2.051  0.3343 -0.2629 -0.1368
  270SOL    HW1 1709   0.716   0.721   2.149 -0.1698 -0.7357 -0.2674
  270SOL    HW2 1710   0.778   0.825   2.039  0.5186 -0.2770  0.5369
  271SOL     OW 1711   2.080   6.226   0.688  0.3297  0.3872  0.1550
  271SOL    HW1 1712   2.168   6.202   0.649  0.1689  0.2427 -0.1254
  271SOL    HW2 1713   2.041   6.146   0.735 -0.1807  0.1014 -0.7295
  272SOL     OW 1714   1.757   4.183   5.789 -0.3836  0.3720 -0.2374
  272SOL    HW1 1715   1.853   4.203   5.809 -0.0047 -0.5982 -0.9993
  272SOL    HW2 1716   1.748   4.154   5.694 -1.7537  2.3811 -0.7679
  273SOL     OW 1717   4.816   5.395   2.634  0.5923 -1.3538  0.3190
  273SOL    HW1 1718   4.830   5.494   2.642  2.3413 -1.5064 -0.4596
  273SOL    HW2 1719   4.719   5.377   2.619  0.5454  0.4474 -2.1194
  274SOL     OW 1720   1.985   5.619   1.954 -0.4815  0.0488  0.1091
  274SOL    HW1 1721   1.944   5.709   1.973 -1.6776 -0.5160  0.3300
  274SOL    HW2 1722   2.027   5.584   2.037  1.0809  0.9236 -0.2831
  275SOL     OW 1723   1.043   3.338   0.686  0.4602 -0.1277 -0.2462
  275SOL    HW1 1724   0.993   3.409   0.737  0.0301  0.9200 -2.0546
  275SOL    HW2 1725   1.119   3.305   0.742 -0.0449  0.9029  1.1102
  276SOL     OW 1726   5.449   5.349   3.355 -0.6889  0.3996  0.2082
  276SOL    HW1 1727   5.533   5.371   3.306 -0.4055 -2.1533 -0.5763
  276SOL    HW2 1728   5.379   5.418   3.333 -0.0689  0.2784 -2.5277
  277SOL     OW 1729   1.664   2.210   5.519  0.2311  0.2424  1.4136
  277SOL    HW1 1730   1.589   2.148   5.540 -0.1322 -0.1103 -0.7718
  277SOL    HW2 1731   1.751   2.162   5.526  0.1421  0.1681  2.1239
  278SOL     OW 1732   1.557   1.798   6.726 -0.2107 -0.0477 -0.2865
  278SOL    HW1 1733   1.527   1.738   6.652  1.6825 -0.2326 -0.9504
  278SOL    HW2 1734   1.643   1.764   6.764 -1.5907 -0.5009  2.7094
  279SOL     OW 1735   6.800   3.949   4.804 -0.2065  0.3246 -0.0453
  279SOL    HW1 1736   6.883   3.987   4.845 -0.5522 -1.1140  2.1160
  279SOL    HW2 1737   6.721   3.976   4.858 -0.8007 -0.7816 -0.3374
  280SOL     OW 1738   0.863   4.631   4.765 -0.5125 -0.1223  0.0544
  280SOL    HW1 1739   0.826   4.556   4.710 -2.6801  1.5162 -0.9117
  280SOL    HW2 1740   0.944   4.669   4.720  2.1753 -3.2718  1.7907
  281SOL     OW 1741   4.035   5.869   1.477  0.2296  0.3415 -0.2641
  281SOL    HW1 1742   4.081   5.927   1.545  0.2526 -0.6576  0.5949
  281SOL    HW2 1743   4.102   5.810   1.433  0.0066 -0.0198 -0.1250
  282SOL     OW 1744   5.654   4.547   4.171 -0.4217  0.7815  0.7462
  282SOL    HW1 1745   5.664   4.503   4.260  1.5773  0.8204  0.5869
  282SOL    HW2 1746   5.574   4.510   4.124 -0.1653 -0.9394  1.5935
  283SOL     OW 1747   5.424   3.090   3.246  0.1749  0.1265  0.2420
  283SOL    HW1 1748   5.376   3.074   3.332 -0.4054 -0.1660 -0.1361
  283SOL    HW2 1749   5.359   3.092   3.170  0.6034  1.0312 -0.1243
  284SOL     OW 1750   5.668   3.370   4.715  0.3325  0.3296  0.1148
  284SOL    HW1 1751   5.728   3.441   4.677 -0.8203  0.7494 -0.9764
  284SOL    HW2 1752   5.574   3.388   4.689  0.1338 -2.3830 -1.4812
  285SOL     OW 1753   6.343   0.623   5.743 -0.4128  0.1334 -0.0090
  285SOL    HW1 1754   6.328   0.708   5.794  0.2687  0.4914 -0.4018
  285SOL    HW2 1755   6.396   0.559   5.800 -1.0012 -0.0715  0.3195
  286SOL     OW 1756   3.769   0.065   1.967 -0.0746  0.3760  0.7284
  286SOL    HW1 1757   3.724  -0.014   1.927 -0.0401  0.0427  1.3276
  286SOL    HW2 1758   3.714   0.147   1.952  0.6386  0.5504 -1.2895
  287SOL     OW 1759   2.904   0.358   6.330 -0.3924  0.0890  0.1336
  287SOL    HW1 1760   2.819   0.400   6.361 -0.7911 -1.0512  0.6348
  287SOL    HW2 1761   2.978   0.424   6.335 -1.0553  0.8053  0.6374
  288SOL     OW 1762   4.863   5.448   4.271  0.7820  0.7138  0.5549
  288SOL    HW1 1763   4.929   5.415   4.338  2.0443  2.1470  0.0766
  288SOL    HW2 1764   4.847   5.378   4.202  0.9760 -0.0395  1.2671
  289SOL     OW 1765   1.610   5.960   4.759  0.4825  0.1037  0.3632
  289SOL    HW1 1766   1.566   5.885   4.808  0.4455 -0.2253 -0.1741
  289SOL    HW2 1767   1.709   5.957   4.776  0.3281  0.7633  1.4593
  290SOL     OW 1768   3.539   2.644   6.310 -0.3290 -0.0117  0.5416
  290SOL    HW1 1769   3.573   2.636   6.404 -1.1935 -1.3539  0.7649
  290SOL    HW2 1770   3.552   2.558   6.262  0.8851  0.9171 -0.8694
  291SOL     OW 1771   5.284   2.954   3.444  0.0654 -0.2385  0.0556
  291SOL    HW1 1772   5.317   2.907   3.526 -1.5517 -1.0820  0.2662
  291SOL    HW2 1773   5.249   3.044   3.468 -3.0782 -1.5522  0.9011
  292SOL     OW 1774   2.260   6.183   1.876  0.0193  0.3924  0.0899
  292SOL    HW1 1775   2.209   6.222   1.800  1.1467  0.5937 -0.5831
  292SOL    HW2 1776   2.245   6.238   1.958 -2.5841 -0.7890  0.5128
  293SOL     OW 1777   0.194   3.321   2.423 -0.3869 -0.1531 -0.2517
  293SOL    HW1 1778   0.282   3.324   2.375 -0.4660  0.6563 -0.3691
  293SOL    HW2 1779   0.181   3.231   2.464  1.1933  0.1873  1.0916
  294SOL     OW 1780   2.321   0.360   3.530  0.2739 -0.3128  0.0993
  294SOL    HW1 1781   2.260   0.306   3.472  0.4278  1.1889 -1.5394
  294SOL    HW2 1782   2.349   0.305   3.609  0.2590 -2.5367 -1.3537
  295SOL     OW 1783   3.947   1.698   4.647  0.1188  0.1993 -0.6571
  295SOL    HW1 1784   3.872   1.765   4.651 -0.0842 -0.0324 -0.5757
  295SOL    HW2 1785   3.993   1.694   4.736  2.0206  2.3699 -1.4220
  296SOL     OW 1786   5.277   1.624   6.912  0.1209  0.3657 -0.1206
  296SOL    HW1 1787   5.329   1.684   6.974  0.0164  2.0330 -1.5712
  296SOL    HW2 1788   5.196   1.673   6.880 -0.2365 -0.7658 -0.9705
  297SOL     OW 1789   0.855   1.764   3.487 -0.0551  0.5236  0.2972
  297SOL    HW1 1790   0.915   1.696   3.528 -0.1018  0.2140 -0.1465
  297SOL    HW2 1791   0.901   1.808   3.410  0.5048  1.9753  1.4038
  298SOL     OW 1792   6.203   1.597   6.685 -0.1770  0.3436 -0.0947
  298SOL    HW1 1793   6.282   1.648   6.653 -0.0754 -0.4266 -1.1361
  298SOL    HW2 1794   6.172   1.535   6.612  0.3424 -1.8245  1.4243
  299SOL     OW 1795   6.355   2.230   4.959 -0.1032  0.1805 -0.2459
  299SOL    HW1 1796   6.395   2.156   4.905  0.5052 -0.2651  0.7943
  299SOL    HW2 1797   6.275   2.196   5.008 -2.0760  1.1465 -2.5743
  300SOL     OW 1798   6.761   0.013   6.855  0.4515  0.0755  0.0575
  300SOL    HW1 1799   6.746  -0.020   6.949  0.0728  0.3338  0.0862
  300SOL    HW2 1800   6.705   0.093   6.838  0.2381 -0.1887 -0.5190
  301SOL     OW 1801   4.081   0.933   1.541  0.2561  0.2890  0.1248
  301SOL    HW1 1802   4.058   0.942   1.638 -0.8410  3.3804 -0.3105
  301SOL    HW2 1803   4.180   0.926   1.532  0.4859  1.4161  1.4204
  302SOL     OW 1804   0.204   1.331   6.691  0.3884 -0.4058  0.8847
  302SOL    HW1 1805   0.214   1.233   6.675 -0.3723 -0.8936  3.0906
  302SOL    HW2 1806   0.265   1.381   6.629 -1.0740 -2.0792 -2.1214
  303SOL     OW 1807   2.917   5.704   1.300 -0.4153 -0.0864 -0.2722
  303SOL    HW1 1808   2.945   5.655   1.217 -2.0369 -1.3800 -0.1183
  303SOL    HW2 1809   2.842   5.766   1.279  0.0964  0.6220 -0.0253
  304SOL     OW 1810   6.524   0.292   1.215 -0.0503  0.3349  0.3736
  304SOL    HW1 1811   6.464   0.294   1.135 -0.2094 -0.0977  0.4796
  304SOL    HW2 1812   6.537   0.385   1.249 -3.7500  0.2468  2.6365
  305SOL     OW 1813   4.265   4.097   1.734 -0.3236 -0.0693  0.3977
  305SOL    HW1 1814   4.346   4.142   1.770 -0.1339  0.0371 -0.1560
  305SOL    HW2 1815   4.262   4.002   1.765 -1.2945  0.5812  2.4898
  306SOL     OW 1816   4.314   2.021   0.664  0.5101  0.9978 -0.3751
  306SOL    HW1 1817   4.323   2.002   0.762  2.8033  0.7850 -0.5550
  306SOL    HW2 1818   4.298   2.119   0.650  3.8459  1.7727  0.2159
  307SOL     OW 1819   3.844   2.659   6.302  0.3308  1.1283 -0.0939
  307SOL    HW1 1820   3.812   2.626   6.391 -0.7980  0.8203 -0.6012
  307SOL    HW2 1821   3.811   2.599   6.230  0.4556  1.8976 -0.8064
  308SOL     OW 1822   4.808   1.815   3.437  0.9354 -0.3541 -0.0975
  308SOL    HW1 1823   4.721   1.835   3.392  0.7111 -0.6280  0.2084
  308SOL    HW2 1824   4.833   1.890   3.497  1.9068  0.6318 -1.6671
  309SOL     OW 1825   6.467   4.887   2.363 -0.1164  0.4770 -0.4752
  309SOL    HW1 1826   6.472   4.858   2.458 -1.6684 -0.6194 -0.6990
  309SOL    HW2 1827   6.545   4.947   2.342  0.3547  0.5614  1.4006
  310SOL     OW 1828   4.202   0.745   3.842  0.1881  0.4568 -0.0851
  310SOL    HW1 1829   4.127   0.808   3.860 -0.2220  0.0223 -0.2492
  310SOL    HW2 1830   4.252   0.727   3.926 -0.0159  0.5966  0.0651
  311SOL     OW 1831   1.018   0.547   2.944  0.3848  0.8231 -0.3204
  311SOL    HW1 1832   0.972   0.600   2.872  0.2318  1.7353  0.4270
  311SOL    HW2 1833   1.113   0.578   2.952  0.5830  0.2837 -0.5492
  312SOL     OW 1834   2.282   5.943   1.473  0.5336 -0.5147  0.4442
  312SOL    HW1 1835   2.296   6.008   1.398  0.2611 -1.2054 -0.2169
  312SOL    HW2 1836   2.198   5.965   1.522  0.1001 -0.7715 -0.1906
  313SOL     OW 1837   2.995   1.614   3.716 -0.3255  0.3971  0.2230
  313SOL    HW1 1838   2.923   1.549   3.739  0.4190  0.1740  2.1331
  313SOL    HW2 1839   3.033   1.591   3.627 -0.9776 -0.9729  0.2675
  314SOL     OW 1840   2.030   2.013   0.109 -0.0985 -0.0647 -0.2513
  314SOL    HW1 1841   1.994   1.920   0.112  0.3436 -0.2640  3.0313
  314SOL    HW2 1842   1.977   2.072   0.171  2.8032  0.4926  1.9013
  315SOL     OW 1843   4.620   1.763   4.123  0.0835 -0.0230 -0.1724
  315SOL    HW1 1844   4.637   1.757   4.221  3.2356 -2.0617 -0.7128
  315SOL    HW2 1845   4.697   1.808   4.078 -1.8477  2.0225 -1.6898
  316SOL     OW 1846   1.806   4.965   6.142 -0.2876 -0.3682 -0.0612
  316SOL    HW1 1847   1.814   5.025   6.062  0.9255 -0.7800 -0.2767
  316SOL    HW2 1848   1.720   4.914   6.137  0.3243 -1.3286 -1.7985
  317SOL     OW 1849   3.426   4.452   6.072 -0.4665 -0.0786  0.1466
  317SOL    HW1 1850   3.340   4.477   6.116 -1.1126 -2.9685  0.7365
  317SOL    HW2 1851   3.481   4.397   6.135  1.2648  0.6226 -0.6887
  318SOL     OW 1852   0.818   6.431   3.455 -0.1440 -0.2869 -0.6901
  318SOL    HW1 1853   0.783   6.444   3.548  0.1036  0.7791 -0.7294
  318SOL    HW2 1854   0.915   6.457   3.452  0.1235 -1.2605 -1.0391
  319SOL     OW 1855   2.139   4.289   6.586 -0.0296 -0.1183 -0.0811
  319SOL    HW1 1856   2.189   4.360   6.537 -0.0006 -0.0458  0.0553
  319SOL    HW2 1857   2.203   4.233   6.638 -0.2104  0.8292  1.2169
  320SOL     OW 1858   1.709   0.540   4.248  0.1652  0.2058 -0.3289
  320SOL    HW1 1859   1.756   0.457   4.277 -1.2284 -1.1622 -1.8061
  320SOL    HW2 1860   1.626   0.552   4.301 -0.0513  0.2009 -0.6641
  321SOL     OW 1861   2.952   4.757   1.477  0.5131  0.1408  0.3783
  321SOL    HW1 1862   3.030   4.813   1.449  0.2201 -0.1600 -1.1290
  321SOL    HW2 1863   2.974   4.707   1.560  1.0118  1.9875  1.4218
  322SOL     OW 1864   2.078   4.828   5.739 -0.0190  0.1859 -0.0936
  322SOL    HW1 1865   1.996   4.770   5.734 -0.1172  0.2618  0.5686
  322SOL    HW2 1866   2.148   4.782   5.793 -0.1189  0.6966  0.4871
  323SOL     OW 1867   6.039   5.593   3.861 -0.3698  0.3197 -0.5527
  323SOL    HW1 1868   5.995   5.510   3.894 -0.0223  0.3451 -0.0133
  323SOL    HW2 1869   6.036   5.663   3.932 -2.1894  1.3608 -1.5935
  324SOL     OW 1870   3.048   3.708   1.767  0.1087  0.6594 -0.2111
  324SOL    HW1 1871   3.124   3.768   1.743  0.3814  1.1365  1.6461
  324SOL    HW2 1872   3.082   3.615   1.781  0.2595  0.7462  0.0131
  325SOL     OW 1873   3.379   6.441   6.923  0.4857  0.1701 -0.2474
  325SOL    HW1 1874   3.355   6.417   6.829  1.1178  1.6307 -0.8143
  325SOL    HW2 1875   3.369   6.361   6.982  0.3784 -0.8430 -1.6078
  326SOL     OW 1876   2.358   0.621   3.143 -0.1622  0.1420  0.0060
  326SOL    HW1 1877   2.402   0.704   3.108  0.9358 -0.6062 -0.4577
  326SOL    HW2 1878   2.417   0.542   3.124 -1.1137 -0.7253  0.5773
  327SOL     OW 1879   2.076   5.126   5.761 -0.1837  0.4605  0.3585
  327SOL    HW1 1880   2.124   5.151   5.845 -2.3807 -0.0184  1.8380
  327SOL    HW2 1881   2.061   5.027   5.759  0.7400  0.3255 -1.1331
  328SOL     OW 1882   6.272   1.386   2.595  0.1269 -0.2108 -0.3480
  328SOL    HW1 1883   6.240   1.456   2.531  1.1647  0.9487  0.3398
  328SOL    HW2 1884   6.336   1.428   2.659 -0.0024 -1.6012  0.7219
  329SOL     OW 1885   4.230   4.391   0.969  0.6458 -0.6127 -0.0894
  329SOL    HW1 1886   4.288   4.472   0.963  1.6032 -1.3591 -2.7290
  329SOL    HW2 1887   4.137   4.415   0.943  0.0482  0.2753  2.6119
  330SOL     OW 1888   3.538   1.377   6.477 -0.4824 -0.2072 -0.4284
  330SOL    HW1 1889   3.519   1.462   6.527  1.0949 -1.5195  2.7012
  330SOL    HW2 1890   3.463   1.313   6.492 -1.4970  0.4199 -2.4861
  331SOL     OW 1891   5.477   2.845   6.693  0.2346 -0.1676  0.5889
  331SOL    HW1 1892   5.415   2.845   6.772 -0.0002  1.0885  0.4313
  331SOL    HW2 1893   5.478   2.936   6.652  1.5631 -0.3908  0.0796
  332SOL     OW 1894   3.482   5.824   4.571  0.0334  0.4029 -0.1058
  332SOL    HW1 1895   3.465   5.815   4.669  1.4170 -1.2658  0.0189
  332SOL    HW2 1896   3.405   5.785   4.520  0.8615 -2.0375  0.3918
  333SOL     OW 1897   3.285   0.880   6.490  0.1594  1.3206 -0.1252
  333SOL    HW1 1898   3.207   0.943   6.490  0.4036  1.7050  1.9555
  333SOL    HW2 1899   3.368   0.929   6.464  0.4743  2.1154  2.1793
  334SOL     OW 1900   4.837   3.185   4.297  0.5294 -0.2119  0.1336
  334SOL    HW1 1901   4.904   3.167   4.368  0.7739 -0.5950 -0.1880
  334SOL    HW2 1902   4.760   3.121   4.307  0.5655 -0.2684  0.0544
  335SOL     OW 1903   4.043   1.325   4.325 -0.1204 -0.0111  0.2178
  335SOL    HW1 1904   4.109   1.256   4.354  0.9833  1.0907  0.4071
  335SOL    HW2 1905   3.985   1.287   4.252  1.8299 -0.4748 -1.1624
  336SOL     OW 1906   2.229   0.045   3.915  0.1123 -0.0676  0.0790
  336SOL    HW1 1907   2.194   0.137   3.937 -0.6076 -0.3299  0.0647
  336SOL    HW2 1908   2.158  -0.007   3.868  0.5058 -0.6509  0.1193
  337SOL     OW 1909   6.348   5.334   5.808  0.4003 -0.1430  0.2073
  337SOL    HW1 1910   6.287   5.289   5.743 -0.0550  1.1045 -0.2650
  337SOL    HW2 1911   6.382   5.420   5.768  0.1769  0.6142  1.5775
  338SOL     OW 1912   5.052   2.313   4.489  0.0608  0.0643  0.2011
  338SOL    HW1 1913   5.079   2.409   4.477  0.6697  0.0070  1.0090
  338SOL    HW2 1914   4.977   2.308   4.555 -0.1346  0.0008 -0.0252
  339SOL     OW 1915   1.240   1.743   2.704 -0.0663  0.9234  0.2874
  339SOL    HW1 1916   1.248   1.644   2.714 -0.9654  0.5905 -1.7047
  339SOL    HW2 1917   1.310   1.777   2.641 -0.7341  1.2795 -0.2893
  340SOL     OW 1918   4.125   4.819   5.364 -0.4850 -0.1639 -0.0572
  340SOL    HW1 1919   4.130   4.918   5.362 -0.6297 -0.0859  1.7217
  340SOL    HW2 1920   4.068   4.787   5.289 -0.3751  1.0895 -0.6918
  341SOL     OW 1921   3.997   6.562   1.968 -0.4957  0.3665 -0.3036
  341SOL    HW1 1922   3.969   6.614   1.887 -0.9642 -0.3177 -0.5894
  341SOL    HW2 1923   4.010   6.466   1.943  0.6975  0.3879  0.1370
  342SOL     OW 1924   6.450   6.431   4.308 -0.3472 -0.2696  0.1789
  342SOL    HW1 1925   6.481   6.411   4.400 -1.0940 -1.7031  0.1379
  342SOL    HW2 1926   6.399   6.354   4.271 -0.8646  0.6281 -1.0972
  343SOL     OW 1927   5.035   6.828   6.714 -0.3109 -0.2240  0.3781
  343SOL    HW1 1928   4.978   6.751   6.743 -1.6935  0.3515 -0.6797
  343SOL    HW2 1929   5.049   6.890   6.791  0.5827 -1.3798  1.1669
  344SOL     OW 1930   7.010   2.236   3.053 -0.0488  0.5323 -0.0846
  344SOL    HW1 1931   7.018   2.141   3.085 -1.1402  0.4769  0.0531
  344SOL    HW2 1932   7.096   2.263   3.009  0.2879 -0.5162 -0.1097
  345SOL     OW 1933   5.959   3.415   1.155 -0.3937  0.0080  0.7648
  345SOL    HW1 1934   6.013   3.348   1.206  0.3711 -0.9176 -1.1789
  345SOL    HW2 1935   6.012   3.499   1.144  1.1142 -1.1900 -1.8689
  346SOL     OW 1936   3.111   4.417   0.801 -0.0871  0.4083  0.0361
  346SOL    HW1 1937   3.026   4.387   0.758 -0.3174  0.4113  0.4846
  346SOL    HW2 1938   3.113   4.386   0.897 -0.2188  1.6004  0.4381
  347SOL     OW 1939   0.247   0.286   6.123  0.2807 -0.1200  0.1204
  347SOL    HW1 1940   0.346   0.275   6.132  0.0365 -0.9364  2.4089
  347SOL    HW2 1941   0.213   0.224   6.053  1.6649  2.1920 -2.8337
  348SOL     OW 1942   1.865   4.237   0.454 -0.0131  0.7579  0.1254
  348SOL    HW1 1943   1.932   4.256   0.526 -1.3966  2.1743  1.1055
  348SOL    HW2 1944   1.880   4.301   0.377  0.9838 -0.2519 -0.5475
  349SOL     OW 1945   0.293   6.675   3.475  0.1100  0.1136 -0.3425
  349SOL    HW1 1946   0.342   6.618   3.408 -0.1931 -2.1826  1.2417
  349SOL    HW2 1947   0.197   6.683   3.448  0.0215 -0.6734 -0.3028
  350SOL     OW 1948   5.661   5.789   2.302 -0.1031  0.0324  0.3819
  350SOL    HW1 1949   5.581   5.730   2.294  0.0928 -0.0915 -0.8769
  350SOL    HW2 1950   5.634   5.876   2.343 -1.1343  0.4392 -1.0751
  351SOL     OW 1951   1.765   1.563   5.203 -0.0442 -0.0748  0.2459
  351SOL    HW1 1952   1.817   1.648   5.214  0.1730  0.0434 -1.4043
  351SOL    HW2 1953   1.753   1.519   5.292  0.7465  1.1502  0.9833
  352SOL     OW 1954   6.900   4.144   3.455 -0.1668 -0.2081 -0.0109
  352SOL    HW1 1955   6.866   4.235   3.477 -2.7039 -1.3467  1.2410
  352SOL    HW2 1956   6.857   4.111   3.371  0.5099 -0.3687 -0.2998
  353SOL     OW 1957   1.075   4.498   6.827 -0.0324 -0.2207  0.5458
  353SOL    HW1 1958   1.010   4.544   6.766  0.6908 -1.1834 -1.0092
  353SOL    HW2 1959   1.063   4.533   6.920 -1.8522  0.5792  0.0661
  354SOL     OW 1960   1.130   5.068   4.873 -0.2218 -0.0337 -0.0238
  354SOL    HW1 1961   1.050   5.125   4.890  1.1872  2.0306 -0.0701
  354SOL    HW2 1962   1.127   4.988   4.933 -2.4706 -0.1961 -0.2833
  355SOL     OW 1963   5.495   1.801   1.728  0.2372  0.6412  0.5644
  355SOL    HW1 1964   5.493   1.839   1.820  1.2445  0.1496  0.7951
  355SOL    HW2 1965   5.589   1.793   1.696 -0.0319 -0.3018 -0.0437
  356SOL     OW 1966   2.920   6.131   3.301  0.2232 -0.0830  0.2049
  356SOL    HW1 1967   2.991   6.183   3.349  1.0291  0.4483 -1.4805
  356SOL    HW2 1968   2.942   6.127   3.203 -2.2323  0.3779 -0.4322
  357SOL     OW 1969   4.997   0.110   0.134 -0.4472 -0.3253  0.4310
  357SOL    HW1 1970   4.982   0.074   0.226  0.2969  1.8864  1.4737
  357SOL    HW2 1971   4.917   0.089   0.077 -0.9632 -1.6294  1.5824
  358SOL     OW 1972   1.310   1.548   1.249  0.0800  0.1726 -0.6402
  358SOL    HW1 1973   1.325   1.646   1.239  0.2833  0.2840  0.6182
  358SOL    HW2 1974   1.213   1.531   1.264  0.1488  0.2546 -0.0943
  359SOL     OW 1975   5.593   1.280   5.022  0.2065 -0.3642  0.5000
  359SOL    HW1 1976   5.640   1.194   5.001 -0.9380 -0.7259 -0.7222
  359SOL    HW2 1977   5.633   1.354   4.967 -1.0410 -0.8047 -1.0799
  360SOL     OW 1978   1.570   4.033   6.237 -0.1706  0.1163 -0.1978
  360SOL    HW1 1979   1.625   4.113   6.258 -0.0231  0.2531 -1.0674
  360SOL    HW2 1980   1.553   4.028   6.138 -0.7245 -0.5663 -0.0843
  361SOL     OW 1981   4.173   5.657   6.753 -0.2423  0.0616 -0.0202
  361SOL    HW1 1982   4.262   5.701   6.741 -0.5677  0.7097 -0.0898
  361SOL    HW2 1983   4.109   5.722   6.793 -0.8016 -0.2707 -0.3633
  362SOL     OW 1984   3.381   1.423   6.077  0.1176  0.3234  0.2092
  362SOL    HW1 1985   3.474   1.411   6.042 -0.2685 -0.0562 -0.7156
  362SOL    HW2 1986   3.358   1.346   6.137  0.5061  0.5711  0.6759
  363SOL     OW 1987   3.503   6.804   2.490  0.6518  0.0331  0.3255
  363SOL    HW1 1988   3.456   6.721   2.463 -0.2647  0.2904  1.0811
  363SOL    HW2 1989   3.476   6.829   2.583  1.2609  0.9265  0.2782
  364SOL     OW 1990   6.305   6.556   6.832 -0.0412  0.9224  0.2315
  364SOL    HW1 1991   6.272   6.601   6.749  1.0585  1.0684 -0.1302
  364SOL    HW2 1992   6.376   6.611   6.874 -1.1835  1.2971  1.7811
  365SOL     OW 1993   0.060   3.537   6.319 -0.6406  0.4579 -0.2860
  365SOL    HW1 1994   0.149   3.533   6.274  0.1581 -1.5353  1.3521
  365SOL    HW2 1995  -0.007   3.487   6.264 -0.0327 -0.6284 -0.0575
  366SOL     OW 1996   0.392   4.182   4.298 -0.5196  0.6251  0.1115
  366SOL    HW1 1997   0.430   4.091   4.315  0.2656  0.9421  0.0891
  366SOL    HW2 1998   0.418   4.212   4.206  0.2889  1.3768  0.5647
  367SOL     OW 1999   1.577   6.392   6.859 -0.3286  0.0377 -0.3455
  367SOL    HW1 2000   1.612   6.448   6.934 -0.0171  0.6344 -0.9228
  367SOL    HW2 2001   1.632   6.310   6.849 -0.1742  0.1151 -0.1310
  368SOL     OW 2002   1.714   3.198   1.852  0.1085 -0.3622  0.1525
  368SOL    HW1 2003   1.781   3.217   1.923  0.8120 -0.1308 -0.5547
  368SOL    HW2 2004   1.639   3.144   1.890  1.1877 -1.5054  0.7322
  369SOL     OW 2005   0.620   0.288   6.915 -0.0258  0.2989 -0.5741
  369SOL    HW1 2006   0.606   0.386   6.925  0.9544  0.4675 -0.7100
  369SOL    HW2 2007   0.684   0.271   6.840  0.3381 -0.4000 -0.1238
  370SOL     OW 2008   2.068   1.322   0.160 -0.3304  0.2404 -0.4717
  370SOL    HW1 2009   2.056   1.223   0.153  0.9744 -0.0414  0.7386
  370SOL    HW2 2010   1.988   1.362   0.204  0.6070 -0.8094  2.3895
  371SOL     OW 2011   1.846   2.572   6.627  0.1695  0.6411 -0.4610
  371SOL    HW1 2012   1.818   2.664   6.600  0.5345  1.6858  2.3677
  371SOL    HW2 2013   1.933   2.577   6.675 -1.4183 -0.6417  2.8036
  372SOL     OW 2014   6.088   1.742   2.836  0.6595  0.1831 -0.0288
  372SOL    HW1 2015   6.058   1.652   2.867 -0.7865  0.6660  0.0461
  372SOL    HW2 2016   6.187   1.741   2.820  0.5960 -1.5378 -0.4889
  373SOL     OW 2017   4.410   2.082   4.262 -0.4850  0.1299 -0.0216
  373SOL    HW1 2018   4.390   2.010   4.196 -2.3182 -0.6721  1.3134
  373SOL    HW2 2019   4.333   2.146   4.265  0.8943  1.8838 -0.8024
  374SOL     OW 2020   2.985   4.823   5.224  0.0421 -0.0080 -0.5135
  374SOL    HW1 2021   2.941   4.739   5.193 -1.2331  0.5795 -0.3441
  374SOL    HW2 2022   3.074   4.801   5.265 -0.5976 -1.3691  0.2265
  375SOL     OW 2023   6.902   4.124   6.475 -0.0005 -0.1460  0.2125
  375SOL    HW1 2024   6.920   4.043   6.419 -2.0197 -1.6215  1.5561
  375SOL    HW2 2025   6.948   4.203   6.435  1.5548 -1.8109 -1.4855
  376SOL     OW 2026   4.013   4.867   0.267 -0.0049  0.0904 -0.7278
  376SOL    HW1 2027   3.964   4.839   0.350  1.1937  0.7191  0.2156
  376SOL    HW2 2028   3.958   4.934   0.218 -0.0979  0.8207  0.3397
  377SOL     OW 2029   2.450   0.016   4.404 -0.6823 -0.1769 -0.2029
  377SOL    HW1 2030   2.505  -0.033   4.472 -2.4825 -1.1918  0.6134
  377SOL    HW2 2031   2.471   0.114   4.408 -1.7960  0.0461  2.9588
  378SOL     OW 2032   4.338   0.798   5.838  0.8687  0.7597  0.5421
  378SOL    HW1 2033   4.316   0.721   5.778 -0.8697 -0.2706  2.3929
  378SOL    HW2 2034   4.337   0.882   5.784  1.1316 -0.2881 -1.2048
  379SOL     OW 2035   1.369   0.713   0.806 -0.2970  0.3716 -0.0507
  379SOL    HW1 2036   1.457   0.685   0.768 -0.3679  0.2528 -0.1257
  379SOL    HW2 2037   1.321   0.634   0.842 -0.9245  0.2279 -1.1417
  380SOL     OW 2038   2.193   6.451   4.049  0.1917  0.7145  0.3372
  380SOL    HW1 2039   2.255   6.523   4.018  0.9579  0.7384  1.8197
  380SOL    HW2 2040   2.244   6.365   4.059 -0.0974  0.6318  1.1792
  381SOL     OW 2041   2.066   5.933   6.482  0.4275 -0.0644 -0.4106
  381SOL    HW1 2042   2.098   5.955   6.575  1.0161 -0.4558 -0.5179
  381SOL    HW2 2043   2.144   5.910   6.425 -0.0195 -0.7054 -0.7689
  382SOL     OW 2044   3.629   3.809   1.314 -0.3661  0.7457 -0.2451
  382SOL    HW1 2045   3.610   3.718   1.349  2.0642 -0.7362 -2.4145
  382SOL    HW2 2046   3.693   3.856   1.375  2.0482 -0.9173 -1.3261
  383SOL     OW 2047   0.425   1.113   5.228  0.6754  0.7926  0.1292
  383SOL    HW1 2048   0.391   1.086   5.138 -0.1479 -1.1175  0.9386
  383SOL    HW2 2049   0.493   1.185   5.218  2.3241 -0.9254 -2.2308
  384SOL     OW 2050   5.084   5.396   6.525  0.2945  0.1094  0.1675
  384SOL    HW1 2051   4.993   5.429   6.498 -0.2598 -0.2059  1.5895
  384SOL    HW2 2052   5.089   5.389   6.624  2.0987  0.7200  0.1598
  385SOL     OW 2053   2.121   3.603   6.027  0.4094  0.0131 -0.2550
  385SOL    HW1 2054   2.207   3.565   6.060  0.8917  1.2211 -0.0810
  385SOL    HW2 2055   2.135   3.696   5.995 -0.9688  0.5182  0.4881
  386SOL     OW 2056   3.426   3.577   6.493 -0.2038 -0.2147  0.7174
  386SOL    HW1 2057   3.513   3.625   6.507 -0.2741 -0.3017  1.5409
  386SOL    HW2 2058   3.350   3.642   6.501 -0.1904  0.0787 -1.1265
  387SOL     OW 2059   6.147   1.505   2.384 -0.0110  0.0606  0.2017
  387SOL    HW1 2060   6.080   1.578   2.395  0.0219 -0.0408  1.1484
  387SOL    HW2 2061   6.226   1.539   2.333  0.7118  1.1744  1.9433
  388SOL     OW 2062   1.206   4.572   5.548 -0.2932  0.0300  0.4112
  388SOL    HW1 2063   1.209   4.645   5.480  2.6807 -0.8695 -0.5733
  388SOL    HW2 2064   1.188   4.485   5.503  1.8590 -0.5994  0.6765
  389SOL     OW 2065   4.910   3.821   1.144  0.3794 -0.7181 -0.6807
  389SOL    HW1 2066   4.846   3.899   1.141  0.2640 -0.7863 -0.0202
  389SOL    HW2 2067   4.921   3.785   1.051 -1.1309 -1.1776 -0.7156
  390SOL     OW 2068   6.442   5.904   6.965 -0.2674  0.9097  0.0635
  390SOL    HW1 2069   6.525   5.853   6.987 -0.9994  0.0894  1.0048
  390SOL    HW2 2070   6.382   5.908   7.046 -2.1205 -0.4076 -1.1601
  391SOL     OW 2071   0.438   2.119   5.222  0.4404 -0.4032  0.1911
  391SOL    HW1 2072   0.470   2.214   5.210 -1.8590  0.3999  0.0047
  391SOL    HW2 2073   0.408   2.106   5.316  1.7753 -1.3201  0.5142
  392SOL     OW 2074   0.862   6.780   7.016 -0.3128  0.0254  0.2512
  392SOL    HW1 2075   0.860   6.874   6.984 -0.0209 -0.7179 -2.1204
  392SOL    HW2 2076   0.773   6.738   7.001 -0.2969 -0.2404  0.8510
  393SOL     OW 2077   3.930   0.293   3.522 -0.3669  1.0057 -0.0718
  393SOL    HW1 2078   3.978   0.297   3.610  0.3300  0.4732 -0.4192
  393SOL    HW2 2079   3.945   0.379   3.472  0.1390  0.8860 -0.1309
  394SOL     OW 2080   1.507   4.425   1.945 -0.2374 -0.0468 -0.0187
  394SOL    HW1 2081   1.515   4.421   1.845 -0.0529 -1.4256  0.0312
  394SOL    HW2 2082   1.425   4.374   1.973 -0.0285 -0.0596  0.5602
  395SOL     OW 2083   6.166   3.921   5.544 -0.7752  0.2900 -0.1778
  395SOL    HW1 2084   6.132   4.007   5.583 -1.4812  0.0229 -0.1866
  395SOL    HW2 2085   6.228   3.941   5.468 -0.1889  0.8044  0.4256
  396SOL     OW 2086   3.616   0.532   0.998  0.0674 -0.6822 -0.1212
  396SOL    HW1 2087   3.702   0.583   1.000 -0.2031 -0.2455  0.5699
  396SOL    HW2 2088   3.549   0.580   0.941  0.1289 -0.7907 -0.2885
  397SOL     OW 2089   0.262   4.425   4.353  0.5523  0.0614 -0.1485
  397SOL    HW1 2090   0.163   4.422   4.354  0.4762  1.2826  1.7643
  397SOL    HW2 2091   0.299   4.332   4.345 -0.7039 -0.3445 -1.5297
  398SOL     OW 2092   1.313   5.427   4.254  0.0500 -0.5785 -0.1070
  398SOL    HW1 2093   1.318   5.526   4.267 -1.5481 -0.3560 -0.8757
  398SOL    HW2 2094   1.401   5.393   4.222  0.9101  0.4238  1.0973
  399SOL     OW 2095   2.305   4.768   4.273  0.3506 -0.9037  0.2472
  399SOL    HW1 2096   2.334   4.862   4.287 -1.8325  0.0142 -0.9126
  399SOL    HW2 2097   2.322   4.715   4.357 -0.7938  1.1814  1.9021
  400SOL     OW 2098   1.385   5.177   2.123 -0.0614  0.2175 -0.0527
  400SOL    HW1 2099   1.287   5.192   2.110  0.0536  1.3404  0.2467
  400SOL    HW2 2100   1.412   5.213   2.212  0.2087 -2.2182  0.9188
  401SOL     OW 2101   4.423   2.320   4.615 -0.1956  0.0697 -0.3102
  401SOL    HW1 2102   4.351   2.313   4.547 -0.5055  0.3475 -0.0172
  401SOL    HW2 2103   4.485   2.242   4.607 -0.5240 -0.1651 -0.5689
  402SOL     OW 2104   4.044   2.857   0.175  0.0153 -0.4985  0.2364
  402SOL    HW1 2105   4.070   2.866   0.271  0.8031  1.0798 -0.1045
  402SOL    HW2 2106   3.946   2.836   0.169 -0.6522  1.9718  1.3507
  403SOL     OW 2107   5.219   4.238   1.791 -0.4314 -0.0609  0.7015
  403SOL    HW1 2108   5.297   4.183   1.820  1.3742  1.6643 -0.6460
  403SOL    HW2 2109   5.167   4.188   1.721  1.7363  0.2206 -1.2166
  404SOL     OW 2110   6.395   1.643   6.276  0.0103 -0.2630 -0.1545
  404SOL    HW1 2111   6.381   1.692   6.362 -0.7692 -0.1311 -0.3454
  404SOL    HW2 2112   6.484   1.669   6.237  0.4198 -0.4213  0.6656
  405SOL     OW 2113   1.644   6.352   4.101  0.2385  0.6664  0.3903
  405SOL    HW1 2114   1.548   6.328   4.088  0.1637  0.0247  1.8992
  405SOL    HW2 2115   1.679   6.395   4.018 -1.1352  0.2298 -0.4509
  406SOL     OW 2116   4.871   2.804   1.867  0.5066  0.7919  0.5944
  406SOL    HW1 2117   4.827   2.884   1.907 -2.5339 -1.0146  1.2242
  406SOL    HW2 2118   4.897   2.741   1.941  1.2490  0.4265  0.0326
  407SOL     OW 2119   4.952   3.694   3.099 -0.0978  0.0075 -0.2156
  407SOL    HW1 2120   4.926   3.790   3.094  0.1141  0.1405  0.9899
  407SOL    HW2 2121   4.922   3.656   3.186  3.5274  0.1487  1.2886
  408SOL     OW 2122   5.446   3.138   0.957  0.3522  0.3077  0.1032
  408SOL    HW1 2123   5.472   3.232   0.980  0.2176  0.4904 -0.4812
  408SOL    HW2 2124   5.401   3.137   0.868  0.1300 -0.2801  0.2207
  409SOL     OW 2125   1.723   4.410   2.649 -0.2731 -0.2032  0.1242
  409SOL    HW1 2126   1.805   4.392   2.594  1.3518  0.2134  2.2547
  409SOL    HW2 2127   1.746   4.474   2.722 -2.1278 -1.2275  1.6920
  410SOL     OW 2128   5.764   5.801   6.724 -0.1240  0.0400  0.4290
  410SOL    HW1 2129   5.679   5.779   6.676  0.0707  0.1450  0.0370
  410SOL    HW2 2130   5.839   5.744   6.688 -0.1086 -0.3648  1.0660
  411SOL     OW 2131   6.887   5.842   1.262  0.4580 -0.1058 -0.3151
  411SOL    HW1 2132   6.793   5.876   1.271 -0.4378 -1.9203 -2.0183
  411SOL    HW2 2133   6.940   5.904   1.204  0.3018  0.8612  0.5507
  412SOL     OW 2134   2.115   3.851   4.789  0.6158  0.2504 -0.5694
  412SOL    HW1 2135   2.190   3.892   4.841 -0.5245  2.2185 -0.3628
  412SOL    HW2 2136   2.107   3.754   4.812  1.7787  0.4752  0.9517
  413SOL     OW 2137   2.253   0.432   6.719 -0.5408  0.5186  0.1439
  413SOL    HW1 2138   2.230   0.517   6.673  2.8559  2.4708  1.6995
  413SOL    HW2 2139   2.320   0.381   6.664  0.6187  0.9813  1.0799
  414SOL     OW 2140   3.348   0.206   2.020 -0.1742  0.0818  0.5773
  414SOL    HW1 2141   3.294   0.237   1.942  1.4577 -0.1342 -0.6826
  414SOL    HW2 2142   3.291   0.209   2.103 -1.7285  0.9940 -0.4693
  415SOL     OW 2143   6.197   2.710   6.136 -0.2103 -0.0780  0.2306
  415SOL    HW1 2144   6.265   2.709   6.209 -0.6920 -0.2399  0.6817
  415SOL    HW2 2145   6.183   2.616   6.103 -1.3898 -0.2865  1.2540
  416SOL     OW 2146   2.397   6.798   0.843  0.2045 -0.0999 -0.2524
  416SOL    HW1 2147   2.309   6.765   0.809  0.4605 -2.0009  0.7969
  416SOL    HW2 2148   2.469   6.770   0.779 -0.0054  2.7469 -1.9146
  417SOL     OW 2149   3.070   3.049   2.721  0.0755 -0.3576 -0.1688
  417SOL    HW1 2150   3.118   3.009   2.643  0.9809  3.5184 -1.8660
  417SOL    HW2 2151   3.118   3.026   2.805  0.7995 -2.2448 -1.0416
  418SOL     OW 2152   5.853   0.845   5.538 -0.9611 -0.2934 -0.7621
  418SOL    HW1 2153   5.952   0.847   5.529 -0.7105  3.3973  1.0186
  418SOL    HW2 2154   5.825   0.767   5.594  1.0475 -0.6807 -0.2420
  419SOL     OW 2155   3.394   6.385   5.054 -0.0319 -0.1306  0.1821
  419SOL    HW1 2156   3.388   6.287   5.032 -1.0588 -0.3512  1.2973
  419SOL    HW2 2157   3.348   6.401   5.141  1.2442  1.1539  0.6494
  420SOL     OW 2158   3.646   5.990   4.833 -0.2430 -0.7899  0.0014
  420SOL    HW1 2159   3.683   5.984   4.740  1.6922 -0.2849  0.7083
  420SOL    HW2 2160   3.606   5.902   4.858 -0.1665 -1.1416 -1.0565
  421SOL     OW 2161   4.432   1.379   5.113 -0.0511 -0.4470  0.1301
  421SOL    HW1 2162   4.510   1.388   5.051  1.0061 -0.3097  1.4372
  421SOL    HW2 2163   4.401   1.470   5.140 -1.3453 -0.4671 -1.1616
  422SOL     OW 2164   5.137   6.920   4.916  0.6770 -0.7055  0.0681
  422SOL    HW1 2165   5.090   6.885   4.835 -0.3253 -0.8777  0.7231
  422SOL    HW2 2166   5.172   6.844   4.970  0.7760 -0.6050  0.1464
  423SOL     OW 2167   4.234   6.217   2.722 -0.1273  0.2674  0.4802
  423SOL    HW1 2168   4.237   6.291   2.789  0.1795 -0.1946  0.9839
  423SOL    HW2 2169   4.326   6.203   2.685 -0.6699  2.1835 -1.9128
  424SOL     OW 2170   5.711   5.949   3.322 -0.1285  0.0878 -0.0345
  424SOL    HW1 2171   5.624   5.998   3.332  0.3543  1.1470 -0.8807
  424SOL    HW2 2172   5.702   5.858   3.361 -2.3742 -0.7240 -2.2089
  425SOL     OW 2173   3.623   0.508   5.783 -0.0285 -0.0728  0.2010
  425SOL    HW1 2174   3.617   0.599   5.742 -0.0740 -1.0483 -2.1307
  425SOL    HW2 2175   3.614   0.515   5.882 -1.5252  2.3117 -0.0244
  426SOL     OW 2176   0.954   1.352   3.822  0.4115  0.1124 -0.1652
  426SOL    HW1 2177   0.941   1.336   3.724  0.2863 -1.2088  0.0515
  426SOL    HW2 2178   1.028   1.418   3.835  1.1966 -0.5368 -1.1397
  427SOL     OW 2179   2.770   6.465   4.109 -0.1749 -0.0481 -0.0470
  427SOL    HW1 2180   2.798   6.383   4.161 -0.6464 -0.2229 -0.0682
  427SOL    HW2 2181   2.725   6.529   4.171 -1.0708 -0.4163 -0.3098
  428SOL     OW 2182   6.961   5.102   2.163 -0.0583 -0.6096 -0.3739
  428SOL    HW1 2183   7.035   5.101   2.231 -0.2812  0.1103 -0.1088
  428SOL    HW2 2184   6.911   5.015   2.166  1.5380 -1.6239 -1.4202
  429SOL     OW 2185   2.983   4.016   0.639 -0.2156  0.5047  0.2024
  429SOL    HW1 2186   2.912   3.953   0.607  0.3476 -0.6896  1.2187
  429SOL    HW2 2187   2.993   4.008   0.739  2.3362 -0.4618 -0.0506
  430SOL     OW 2188   5.323   3.885   0.102  0.0792  0.2257  0.4166
  430SOL    HW1 2189   5.331   3.983   0.080 -1.4708  0.1973 -0.3911
  430SOL    HW2 2190   5.247   3.845   0.051  0.2043 -1.2457  1.3167
  431SOL     OW 2191   4.702   5.649   5.834  0.5694 -0.2286 -0.0335
  431SOL    HW1 2192   4.654   5.667   5.748  0.7703 -1.9328 -0.5413
  431SOL    HW2 2193   4.799   5.666   5.822  0.4796  0.3985  0.1236
  432SOL     OW 2194   3.159   5.564   3.046 -0.1522  0.2823  0.0162
  432SOL    HW1 2195   3.213   5.509   2.982 -0.7203 -0.5277  0.2151
  432SOL    HW2 2196   3.170   5.661   3.024  0.3958  0.0648 -0.7179
  433SOL     OW 2197   2.429   0.791   5.107 -0.0432 -0.2259  0.3667
  433SOL    HW1 2198   2.511   0.770   5.054 -0.5612 -1.0175 -0.1567
  433SOL    HW2 2199   2.453   0.847   5.186  1.0045 -0.5120  0.2635
  434SOL     OW 2200   1.092   0.925   5.746  0.0318 -0.1579  0.2217
  434SOL    HW1 2201   1.011   0.873   5.774 -0.6463  1.3237  1.1881
  434SOL    HW2 2202   1.167   0.907   5.810 -0.5909  0.9378  1.3193
  435SOL     OW 2203   3.623   1.105   2.895 -0.3526 -0.5267 -0.4896
  435SOL    HW1 2204   3.622   1.193   2.942  0.1259 -0.5595 -0.4187
  435SOL    HW2 2205   3.604   1.120   2.797  0.7838 -0.2275 -0.6704
  436SOL     OW 2206   5.985   6.070   5.052 -0.1489 -0.2013 -0.2900
  436SOL    HW1 2207   6.060   6.104   4.995 -0.3969  0.5416 -0.1769
  436SOL    HW2 2208   5.900   6.073   5.001 -0.5026  1.1474  0.3307
  437SOL     OW 2209   4.660   4.915   3.294  0.4273  0.5733 -0.2157
  437SOL    HW1 2210   4.688   4.824   3.322  0.4679  0.9858  1.1384
  437SOL    HW2 2211   4.585   4.908   3.228  0.6023 -0.4385 -0.3155
  438SOL     OW 2212   1.084   2.791   4.878 -0.2196 -0.1317 -0.5790
  438SOL    HW1 2213   1.097   2.741   4.793 -1.6641 -0.8872 -0.3812
  438SOL    HW2 2214   1.022   2.740   4.938  0.4330  0.5859  0.7607
  439SOL     OW 2215   0.854   6.658   5.211  0.0513 -0.1352 -0.4535
  439SOL    HW1 2216   0.858   6.651   5.111  0.4921 -0.5279 -0.4079
  439SOL    HW2 2217   0.784   6.595   5.245  0.9444 -1.1117 -0.3987
  440SOL     OW 2218   3.726   6.661   4.785 -0.3328 -0.7694  0.0007
  440SOL    HW1 2219   3.765   6.577   4.748 -1.5773 -1.4508  0.1539
  440SOL    HW2 2220   3.641   6.682   4.737 -0.2915  0.1333  0.3002
  441SOL     OW 2221   6.626   0.342   2.836 -0.4810 -0.5711 -0.5430
  441SOL    HW1 2222   6.696   0.400   2.879 -0.0320 -1.6961  0.2855
  441SOL    HW2 2223   6.648   0.331   2.739 -1.5639  2.0793 -1.1757
  442SOL     OW 2224   3.109   3.155   4.701  0.4757  0.0417 -0.0643
  442SOL    HW1 2225   3.193   3.115   4.666  0.7985 -0.3903  1.1426
  442SOL    HW2 2226   3.052   3.186   4.625  2.5315  2.0869 -0.8941
  443SOL     OW 2227   2.460   2.387   0.450 -0.1918 -0.7117  0.3072
  443SOL    HW1 2228   2.488   2.481   0.469 -2.6805  0.1933 -0.0435
  443SOL    HW2 2229   2.512   2.350   0.374 -1.6557  1.8120 -2.0958
  444SOL     OW 2230   6.393   6.744   4.248 -0.2006 -0.4255  0.4210
  444SOL    HW1 2231   6.446   6.667   4.213  1.1137 -0.4197  2.2377
  444SOL    HW2 2232   6.426   6.829   4.208  2.1905 -0.2759  2.4732
  445SOL     OW 2233   1.147   0.899   3.048 -0.2391  0.3278  0.1043
  445SOL    HW1 2234   1.235   0.851   3.041  0.0090  0.8980 -0.9277
  445SOL    HW2 2235   1.149   0.961   3.126  0.8730  1.4727 -0.7834
  446SOL     OW 2236   6.099   2.163   3.924 -0.4924 -0.8532  0.0344
  446SOL    HW1 2237   6.035   2.240   3.928 -0.8676 -1.1021 -0.9949
  446SOL    HW2 2238   6.065   2.095   3.859  0.4847 -1.2972 -0.0183
  447SOL     OW 2239   3.377   4.608   1.132  0.2727  0.2809  0.0218
  447SOL    HW1 2240   3.294   4.664   1.136  0.6890  0.8550  0.8545
  447SOL    HW2 2241   3.381   4.548   1.211  1.9988  2.2314  1.5140
  448SOL     OW 2242   2.829   6.039   6.771 -0.4913  0.7591  0.0532
  448SOL    HW1 2243   2.902   6.081   6.826  0.1684  1.2416 -1.1453
  448SOL    HW2 2244   2.824   6.085   6.683 -1.3926 -0.1365 -0.3750
  449SOL     OW 2245   3.144   6.619   5.948  0.3943  0.4025  0.0598
  449SOL    HW1 2246   3.045   6.613   5.939  0.5082 -0.7285 -0.6179
  449SOL    HW2 2247   3.168   6.650   6.040 -0.5798  0.8183  0.1801
  450SOL     OW 2248   1.089   0.257   6.795  0.1603 -0.1247  0.1135
  450SOL    HW1 2249   1.172   0.249   6.849 -0.7055  0.1000  1.5338
  450SOL    HW2 2250   1.038   0.339   6.823  1.5509  2.3066 -3.7807
  451SOL     OW 2251   5.670   1.314   3.819  0.2368  0.2677  0.1809
  451SOL    HW1 2252   5.636   1.355   3.735 -1.0758 -1.7076 -0.3148
  451SOL    HW2 2253   5.765   1.284   3.806  1.2259  2.9901  0.5602
  452SOL     OW 2254   6.009   6.241   4.355  0.4111 -0.6517  0.8002
  452SOL    HW1 2255   5.912   6.253   4.332  0.2405 -1.4094  1.1114
  452SOL    HW2 2256   6.060   6.215   4.272  0.4269  0.1480  0.5509
  453SOL     OW 2257   2.689   4.673   2.183  0.0362 -0.1310 -0.1254
  453SOL    HW1 2258   2.728   4.658   2.274 -0.3210  0.8959  0.2122
  453SOL    HW2 2259   2.745   4.626   2.114  1.0778  0.1697  0.4874
  454SOL     OW 2260   0.566   6.610   4.841  0.0121  0.5533 -0.3643
  454SOL    HW1 2261   0.475   6.648   4.859  0.1551  0.7816 -0.1081
  454SOL    HW2 2262   0.635   6.675   4.873  0.2648 -0.1874  0.6506
  455SOL     OW 2263   0.896   2.385   2.714 -0.0008 -0.0174  0.3927
  455SOL    HW1 2264   0.952   2.302   2.706  1.6660  0.9737  1.3613
  455SOL    HW2 2265   0.854   2.405   2.625  1.7457 -0.4015 -0.5660
  456SOL     OW 2266   1.114   6.718   0.394  0.5302 -0.1943 -0.2747
  456SOL    HW1 2267   1.136   6.681   0.305 -2.0270 -1.0917 -0.6135
  456SOL    HW2 2268   1.079   6.811   0.384 -0.1426 -0.4416 -0.2746
  457SOL     OW 2269   3.500   5.428   2.631 -0.0973 -0.3040 -0.0673
  457SOL    HW1 2270   3.405   5.459   2.633 -0.2821 -0.9012  0.9963
  457SOL    HW2 2271   3.504   5.336   2.593  0.4873  0.9950 -3.5407
  458SOL     OW 2272   6.851   3.979   3.215 -0.0516 -0.0053 -0.1113
  458SOL    HW1 2273   6.807   3.987   3.126 -0.7564  0.1780  0.2434
  458SOL    HW2 2274   6.796   3.920   3.274  0.8613 -0.8383 -0.0680
  459SOL     OW 2275   3.127   5.862   2.966  0.3352 -0.1694  0.0698
  459SOL    HW1 2276   3.033   5.828   2.974 -0.1227  1.2312  1.1678
  459SOL    HW2 2277   3.152   5.868   2.870 -0.3647 -1.4316 -0.2060
  460SOL     OW 2278   2.367   4.347   3.462  0.0149  0.0213  0.1613
  460SOL    HW1 2279   2.293   4.312   3.404  0.1633 -2.7110  1.4389
  460SOL    HW2 2280   2.329   4.371   3.552 -0.0734  3.4243 -0.6515
  461SOL     OW 2281   0.199   3.370   1.623 -0.1389  0.6779  0.5674
  461SOL    HW1 2282   0.208   3.467   1.601 -0.6126  0.7561  0.7219
  461SOL    HW2 2283   0.105   3.350   1.649  0.0739  0.2777  1.0454
  462SOL     OW 2284   1.189   0.094   0.751 -0.4327 -0.0616  0.0380
  462SOL    HW1 2285   1.240   0.180   0.763 -0.6698  0.2622 -1.1121
  462SOL    HW2 2286   1.143   0.070   0.836 -2.6118  2.4157 -0.2983
  463SOL     OW 2287   2.329   0.299   1.983 -0.1420  0.2838 -0.8147
  463SOL    HW1 2288   2.312   0.308   2.081 -0.5864 -0.5872 -0.7983
  463SOL    HW2 2289   2.290   0.377   1.935 -1.0398  0.1061 -0.4062
  464SOL     OW 2290   2.544   2.546   4.411 -0.2361 -0.4613  0.1372
  464SOL    HW1 2291   2.601   2.464   4.418  0.0400 -0.2115  0.9202
  464SOL    HW2 2292   2.516   2.560   4.316  2.3279  0.2952 -0.5797
  465SOL     OW 2293   5.445   3.940   3.475 -0.1249 -0.0673 -0.0815
  465SOL    HW1 2294   5.431   3.864   3.539  0.7957  0.6147  0.9649
  465SOL    HW2 2295   5.501   4.010   3.518 -1.3772  1.4693 -0.8484
  466SOL     OW 2296   0.185   5.060   0.814  0.0197  0.1112 -0.1092
  466SOL    HW1 2297   0.148   5.152   0.824  0.2135  0.1824 -0.0507
  466SOL    HW2 2298   0.140   5.014   0.738  1.0100  0.7877 -1.1352
  467SOL     OW 2299   6.183   5.665   6.700 -0.0945 -0.4340  0.3061
  467SOL    HW1 2300   6.175   5.665   6.800 -0.9178 -1.3616  0.2560
  467SOL    HW2 2301   6.096   5.635   6.660  0.0218  0.5502 -0.7137
  468SOL     OW 2302   3.370   4.059   2.584  0.4894  0.1934 -0.3350
  468SOL    HW1 2303   3.407   4.078   2.675  0.4170  1.9904 -0.6507
  468SOL    HW2 2304   3.270   4.058   2.589  0.4851  0.3095 -0.3940
  469SOL     OW 2305   0.094   1.945   6.477 -0.0869 -0.6493  0.7317
  469SOL    HW1 2306   0.035   1.987   6.408 -0.4368 -2.4057 -0.1069
  469SOL    HW2 2307   0.163   1.889   6.432  0.2737 -1.0796  1.7890
  470SOL     OW 2308   5.604   6.146   3.943  0.1736  0.1989  0.3139
  470SOL    HW1 2309   5.554   6.219   3.895  0.4877 -0.0458 -0.4084
  470SOL    HW2 2310   5.586   6.151   4.041 -1.6881 -0.1896  0.0290
  471SOL     OW 2311   5.951   0.177   0.597  0.0001  0.2227 -0.1302
  471SOL    HW1 2312   5.905   0.101   0.554  1.6243 -1.1471  0.4258
  471SOL    HW2 2313   5.904   0.263   0.574 -0.7412 -0.7105 -2.3529
  472SOL     OW 2314   4.872   5.059   0.564  0.4387 -0.6245 -0.4064
  472SOL    HW1 2315   4.886   4.978   0.621 -1.4342 -2.3930 -2.2586
  472SOL    HW2 2316   4.945   5.065   0.495 -0.4298 -1.9472 -1.4968
  473SOL     OW 2317   1.393   0.194   4.246  0.0197  0.3372  0.1108
  473SOL    HW1 2318   1.383   0.116   4.183 -1.7515  0.8394 -0.2753
  473SOL    HW2 2319   1.418   0.275   4.194  0.6890  0.3033  0.3643
  474SOL     OW 2320   0.404   6.781   0.141  0.7325 -0.1784  0.0568
  474SOL    HW1 2321   0.364   6.834   0.216  1.7811  0.8744 -0.0855
  474SOL    HW2 2322   0.489   6.738   0.171  1.2875  0.4450 -0.5664
  475SOL     OW 2323   4.579   4.444   5.378  0.4580 -0.5684  0.4220
  475SOL    HW1 2324   4.538   4.362   5.338  1.1378 -0.0684 -1.4299
  475SOL    HW2 2325   4.672   4.423   5.408  0.0681 -0.8573  1.4669
  476SOL     OW 2326   0.456   1.255   4.437 -0.3845  0.3300 -0.1090
  476SOL    HW1 2327   0.487   1.231   4.529  2.0780  0.5873 -0.7925
  476SOL    HW2 2328   0.413   1.345   4.439  1.7719  1.4128  0.4856
  477SOL     OW 2329   6.018   2.650   3.625  0.6542 -0.4634 -0.3195
  477SOL    HW1 2330   5.941   2.674   3.683  0.6401 -0.3068 -0.4028
  477SOL    HW2 2331   6.056   2.562   3.654  0.9140 -0.1829  0.2004
  478SOL     OW 2332   2.509   3.433   1.109 -0.5634  0.1738  0.1898
  478SOL    HW1 2333   2.553   3.520   1.135 -0.3813  0.5856 -1.3407
  478SOL    HW2 2334   2.432   3.415   1.169  0.3603  0.5814  1.5409
  479SOL     OW 2335   4.234   6.989   0.639 -0.4164  0.0378 -0.3895
  479SOL    HW1 2336   4.291   7.005   0.559  1.0343 -0.7450  0.4582
  479SOL    HW2 2337   4.140   7.018   0.619  0.0353  0.3897 -2.1547
  480SOL     OW 2338   2.500   1.573   0.335 -0.1674  0.0564  0.4489
  480SOL    HW1 2339   2.558   1.649   0.308  0.0400 -0.2108  0.1250
  480SOL    HW2 2340   2.428   1.559   0.267  0.1964 -0.4529  0.1608
  481SOL     OW 2341   2.404   0.487   5.144 -0.6826  1.0043 -0.6303
  481SOL    HW1 2342   2.396   0.581   5.111 -0.6823  1.0475 -0.5085
  481SOL    HW2 2343   2.313   0.447   5.155 -0.6660  0.7295 -1.4203
  482SOL     OW 2344   4.991   3.462   1.149 -0.1604  0.0876 -0.5000
  482SOL    HW1 2345   5.087   3.446   1.129  0.0241 -0.3847  0.6538
  482SOL    HW2 2346   4.978   3.557   1.178 -0.3490  0.6322 -2.2461
  483SOL     OW 2347   6.573   4.483   4.311  0.4329 -0.6829 -0.6543
  483SOL    HW1 2348   6.570   4.456   4.407 -2.0975 -2.8116 -1.1961
  483SOL    HW2 2349   6.517   4.565   4.297  1.7646  0.3440 -0.1971
  484SOL     OW 2350   3.637   5.115   0.001  0.1524 -0.3282  0.6806
  484SOL    HW1 2351   3.672   5.171  -0.074  0.6919 -1.4707  0.0550
  484SOL    HW2 2352   3.707   5.106   0.072  0.7758 -1.7315 -0.0811
  485SOL     OW 2353   4.379   3.638   5.285  0.6667  0.2049 -0.8025
  485SOL    HW1 2354   4.312   3.598   5.223  0.4225 -0.6832  0.0111
  485SOL    HW2 2355   4.471   3.621   5.251  0.5322 -0.2586 -0.9363
  486SOL     OW 2356   5.186   2.901   5.563  0.0985 -0.5759 -0.1240
  486SOL    HW1 2357   5.190   2.979   5.626 -0.4303  1.5227 -2.5385
  486SOL    HW2 2358   5.106   2.911   5.503  0.9154 -2.1666 -1.5423
  487SOL     OW 2359   4.646   4.668   1.141  0.0451  0.0919 -0.0641
  487SOL    HW1 2360   4.605   4.689   1.229 -0.4914 -0.7201 -0.1185
  487SOL    HW2 2361   4.636   4.571   1.121 -1.4745  0.5601 -1.8420
  488SOL     OW 2362   4.565   5.195   3.191 -0.1379  0.5869  0.0923
  488SOL    HW1 2363   4.631   5.236   3.128  3.3165 -1.3621  2.1220
  488SOL    HW2 2364   4.593   5.215   3.285 -0.8867 -2.5835  1.0946
  489SOL     OW 2365   5.605   5.318   1.496 -0.3215 -0.1018  0.2818
  489SOL    HW1 2366   5.581   5.408   1.532 -1.6648 -0.5856  0.6375
  489SOL    HW2 2367   5.525   5.258   1.499  0.3526 -1.0835 -0.6690
  490SOL     OW 2368   5.114   4.364   5.963 -0.3700 -0.2042  0.0082
  490SOL    HW1 2369   5.141   4.304   6.038 -1.1247  0.7874  1.0989
  490SOL    HW2 2370   5.186   4.432   5.947  1.2029 -2.2102 -2.2412
  491SOL     OW 2371   5.763   1.160   5.850  0.6554 -0.0783  0.1865
  491SOL    HW1 2372   5.673   1.117   5.857  1.0947 -1.3567 -1.5643
  491SOL    HW2 2373   5.752   1.260   5.854 -0.8247 -0.2160  0.1105
  492SOL     OW 2374   6.920   0.446   6.767  0.2543 -0.0422  0.3002
  492SOL    HW1 2375   6.823   0.470   6.761  0.4719  0.6272 -0.5900
  492SOL    HW2 2376   6.976   0.520   6.732  1.0080 -1.1489 -0.9371
  493SOL     OW 2377   6.002   3.389   1.700  0.0966 -0.0536 -0.4787
  493SOL    HW1 2378   5.993   3.486   1.723 -1.0759  0.1804 -1.7531
  493SOL    HW2 2379   6.099   3.363   1.701  0.3477  0.8697  0.8306
  494SOL     OW 2380   5.201   2.887   0.509 -0.1452  0.1676  0.1097
  494SOL    HW1 2381   5.277   2.832   0.474 -1.3179 -0.6553 -1.2679
  494SOL    HW2 2382   5.219   2.984   0.490  0.1145 -0.1053 -1.1123
  495SOL     OW 2383   5.179   1.027   1.973  0.7191 -0.0896  0.4698
  495SOL    HW1 2384   5.180   1.080   1.888 -1.2769  1.3024  1.2390
  495SOL    HW2 2385   5.206   0.933   1.954  2.2078  0.6340 -1.3371
  496SOL     OW 2386   3.152   4.381   5.586  0.6924  0.0246 -1.1649
  496SOL    HW1 2387   3.148   4.281   5.582 -1.8046  0.0924 -1.5713
  496SOL    HW2 2388   3.197   4.416   5.504  2.4390 -0.7469 -0.5932
  497SOL     OW 2389   2.069   2.239   1.092  0.2983  0.0451  0.4719
  497SOL    HW1 2390   2.064   2.140   1.087 -2.9422 -0.0876  3.0741
  497SOL    HW2 2391   2.126   2.267   1.170  1.8901  0.3434 -0.7384
  498SOL     OW 2392   3.226   3.801   1.008 -0.4392 -0.7691 -0.1560
  498SOL    HW1 2393   3.203   3.740   0.933 -0.1531 -0.9270 -0.1190
  498SOL    HW2 2394   3.277   3.750   1.078  0.3209 -0.3596 -0.3959
  499SOL     OW 2395   5.925   3.789   5.630  0.3058  0.1654  0.7542
  499SOL    HW1 2396   5.904   3.835   5.716 -1.8348  1.8019 -0.5524
  499SOL    HW2 2397   6.001   3.837   5.584 -2.2791  3.0276 -0.8715
  500SOL     OW 2398   2.665   0.391   0.067  0.5414  0.0946  0.1494
  500SOL    HW1 2399   2.701   0.326  -0.000 -1.0352 -0.9343  0.2590
  500SOL    HW2 2400   2.588   0.441   0.027  0.7194  0.7596  0.6171
  501SOL     OW 2401   3.751   0.570   2.270  0.2208 -0.0843  0.2907
  501SOL    HW1 2402   3.806   0.517   2.205  1.0267  2.3028 -1.0840
  501SOL    HW2 2403   3.810   0.610   2.339 -0.4222 -1.1589  1.5101
  502SOL     OW 2404   4.157   5.738   3.689  0.0502 -0.3930  0.1320
  502SOL    HW1 2405   4.153   5.804   3.764 -1.2914 -0.5008  0.1745
  502SOL    HW2 2406   4.087   5.760   3.621  0.3921 -1.0621 -0.4497
  503SOL     OW 2407   2.970   6.562   0.536  0.5712 -0.6683  0.0487
  503SOL    HW1 2408   2.949   6.655   0.566  2.9325  0.8853 -2.6266
  503SOL    HW2 2409   2.893   6.528   0.482 -0.1824 -0.1581  0.7664
  504SOL     OW 2410   3.495   3.544   2.947 -0.2775  0.1095  0.4522
  504SOL    HW1 2411   3.491   3.615   2.877  0.7749  0.3254  0.5941
  504SOL    HW2 2412   3.464   3.581   3.035  1.7567  0.9056  0.8974
  505SOL     OW 2413   6.630   4.363   3.380 -0.2862  0.1503  0.2932
  505SOL    HW1 2414   6.709   4.364   3.319 -1.1890 -0.8127 -0.9432
  505SOL    HW2 2415   6.607   4.457   3.405  0.0825  0.5797 -0.9018
  506SOL     OW 2416   2.845   1.234   4.970  0.1792  0.3553  0.6609
  506SOL    HW1 2417   2.797   1.217   5.056  1.3340  0.8340  1.4224
  506SOL    HW2 2418   2.802   1.309   4.921 -0.9962 -0.4565  0.3917
  507SOL     OW 2419   6.740   5.600   2.563  0.4467  1.1781 -0.7468
  507SOL    HW1 2420   6.665   5.663   2.543 -0.4182  0.2769 -0.4733
  507SOL    HW2 2421   6.731   5.519   2.504  2.1555  1.7667 -1.8619
  508SOL     OW 2422   3.862   4.484   0.400 -0.1123 -0.6121  0.0059
  508SOL    HW1 2423   3.878   4.458   0.496  0.0222  1.3555  0.5568
  508SOL    HW2 2424   3.944   4.464   0.347  0.2254 -0.6677  0.5337
  509SOL     OW 2425   4.309   3.825   6.800 -0.4789  0.1710  0.5832
  509SOL    HW1 2426   4.383   3.823   6.733 -0.3245  0.2917  0.7488
  509SOL    HW2 2427   4.334   3.768   6.878 -0.4547  0.4047  0.7475
  510SOL     OW 2428   3.172   4.777   6.378  0.5471 -0.1844  0.0114
  510SOL    HW1 2429   3.204   4.869   6.399  0.4700 -0.4344  1.2815
  510SOL    HW2 2430   3.074   4.779   6.359  0.3415 -0.1394  1.0346
  511SOL     OW 2431   3.442   2.272   5.243  0.1442  0.3819 -0.4264
  511SOL    HW1 2432   3.437   2.216   5.325  0.9902  0.7484 -0.1154
  511SOL    HW2 2433   3.356   2.322   5.232  0.2148  0.7322  0.5283
  512SOL     OW 2434   5.199   5.406   3.590  0.0138  0.2938  0.0947
  512SOL    HW1 2435   5.276   5.343   3.596 -0.2286 -0.1756 -1.2243
  512SOL    HW2 2436   5.190   5.439   3.496 -1.2088  0.5495  0.2755
  513SOL     OW 2437   0.588   6.301   5.841 -0.4582  0.0679 -1.2399
  513SOL    HW1 2438   0.547   6.210   5.832 -0.7338  0.1003 -0.4556
  513SOL    HW2 2439   0.519   6.370   5.820 -0.9317  0.1290  0.3584
  514SOL     OW 2440   5.548   5.675   3.429 -0.3770  0.3963  0.2042
  514SOL    HW1 2441   5.476   5.699   3.363 -0.4713 -1.0291 -0.2448
  514SOL    HW2 2442   5.624   5.631   3.381 -0.8990 -1.6490  1.1140
  515SOL     OW 2443   4.626   5.580   2.389 -0.3874 -0.4133 -0.1990
  515SOL    HW1 2444   4.601   5.625   2.303  2.8404  0.5079 -0.7655
  515SOL    HW2 2445   4.628   5.648   2.462 -1.8871 -0.9672  0.4038
  516SOL     OW 2446   3.991   1.457   2.664  1.2658  0.1225 -0.0213
  516SOL    HW1 2447   3.980   1.553   2.690 -1.3750  0.4479 -2.0041
  516SOL    HW2 2448   4.085   1.429   2.682  2.4250  3.3786 -0.3229
  517SOL     OW 2449   6.392   5.051   0.525 -0.0230 -0.4991  0.6554
  517SOL    HW1 2450   6.310   4.998   0.504 -0.8998  0.9074  0.3733
  517SOL    HW2 2451   6.416   5.108   0.447  0.7996 -0.3508  1.0012
  518SOL     OW 2452   4.051   4.969   6.537  0.2021 -0.0132  0.5072
  518SOL    HW1 2453   4.108   4.929   6.465  0.8787 -0.5699  1.3326
  518SOL    HW2 2454   3.955   4.955   6.515  0.3811  0.5028 -0.6631
  519SOL     OW 2455   4.696   2.234   2.879  0.3691  0.6505 -0.8785
  519SOL    HW1 2456   4.645   2.162   2.924 -0.4533  1.9358  0.3305
  519SOL    HW2 2457   4.673   2.236   2.781  0.7507 -0.9754 -1.0160
  520SOL     OW 2458   4.591   2.611   3.843  0.1814 -0.4768  0.1399
  520SOL    HW1 2459   4.549   2.630   3.754 -0.6038  0.1537  0.6220
  520SOL    HW2 2460   4.653   2.687   3.867 -1.1397  0.3740  1.0057
  521SOL     OW 2461   4.563   0.187   4.360 -0.1375 -0.1214 -0.1372
  521SOL    HW1 2462   4.513   0.149   4.283 -0.5521  0.3288 -0.0994
  521SOL    HW2 2463   4.661   0.192   4.338  0.0462 -1.8843  0.1452
  522SOL     OW 2464   6.624   6.274   5.221 -0.0969  0.0757 -0.1187
  522SOL    HW1 2465   6.629   6.370   5.193  0.7257  0.4431  1.2312
  522SOL    HW2 2466   6.601   6.268   5.318  0.6753 -1.0788  0.0154
  523SOL     OW 2467   5.528   4.861   0.967  0.1976 -0.0410  0.0333
  523SOL    HW1 2468   5.455   4.801   0.936 -0.5806  0.9723 -0.1447
  523SOL    HW2 2469   5.530   4.943   0.911  3.8077 -1.5245 -2.4007
  524SOL     OW 2470   2.782   1.449   4.828  0.4300 -0.4453 -0.6915
  524SOL    HW1 2471   2.879   1.475   4.825  0.8078 -1.6457  0.2171
  524SOL    HW2 2472   2.733   1.496   4.756  1.5177  0.8886 -0.6105
  525SOL     OW 2473   3.086   5.304   0.110 -0.2412  0.2625  0.1410
  525SOL    HW1 2474   3.181   5.298   0.140 -0.4145 -0.2834  0.5968
  525SOL    HW2 2475   3.065   5.226   0.051  0.1256  1.3597 -1.5429
  526SOL     OW 2476   5.425   4.111   1.468 -0.2136 -0.3373 -0.6816
  526SOL    HW1 2477   5.519   4.106   1.436 -0.1726 -1.4268 -0.4051
  526SOL    HW2 2478   5.399   4.025   1.512 -2.1073 -1.0167 -2.9109
  527SOL     OW 2479   1.661   5.418   6.520 -0.1746  0.3890 -0.2800
  527SOL    HW1 2480   1.620   5.412   6.611 -1.1000  0.1139 -0.7126
  527SOL    HW2 2481   1.758   5.394   6.527 -0.5994 -1.3303  0.3679
  528SOL     OW 2482   2.958   5.237   0.337  0.5174 -0.2635  0.6640
  528SOL    HW1 2483   3.004   5.271   0.255  0.5273  0.7265  1.0596
  528SOL    HW2 2484   2.917   5.148   0.319 -0.7951  0.5955 -0.8939
  529SOL     OW 2485   6.080   6.724   3.079 -0.0693  0.1862  0.3704
  529SOL    HW1 2486   5.992   6.690   3.045  0.0473 -1.3090  1.4899
  529SOL    HW2 2487   6.117   6.791   3.014 -0.7711 -1.1025 -1.4428
  530SOL     OW 2488   4.107   2.691   1.209 -0.0619 -0.1695  0.1935
  530SOL    HW1 2489   4.117   2.786   1.179  0.5797  0.0823  1.1521
  530SOL    HW2 2490   4.013   2.676   1.241 -0.7140 -0.4002 -1.7133
  531SOL     OW 2491   2.182   6.397   2.280 -0.0090 -0.2975 -0.1841
  531SOL    HW1 2492   2.086   6.413   2.299  0.1013 -1.2911  1.3096
  531SOL    HW2 2493   2.195   6.305   2.243  0.1011  0.7100 -2.9309
  532SOL     OW 2494   4.539   1.966   4.479  0.2916  0.4011 -0.1469
  532SOL    HW1 2495   4.511   2.041   4.419 -0.4041  0.9715  0.8519
  532SOL    HW2 2496   4.576   1.891   4.424  3.3245  2.3626 -1.0834
  533SOL     OW 2497   4.320   6.527   1.558  0.3054  0.6428  0.1593
  533SOL    HW1 2498   4.320   6.614   1.608  1.6105  0.3614  0.6978
  533SOL    HW2 2499   4.226   6.503   1.533 -0.2636  1.3482  1.5032
  534SOL     OW 2500   1.167   3.172   3.836 -0.5076  0.0976 -0.1118
  534SOL    HW1 2501   1.200   3.143   3.926 -1.0643  1.0508  0.4258
  534SOL    HW2 2502   1.214   3.256   3.809 -0.4505 -0.1046 -0.6435
  535SOL     OW 2503   4.124   2.127   2.397 -0.1856 -0.4476 -0.2533
  535SOL    HW1 2504   4.212   2.159   2.432 -0.6809 -0.5477  1.1755
  535SOL    HW2 2505   4.105   2.170   2.309  0.9882  0.0744 -0.2673
  536SOL     OW 2506   3.855   3.318   0.527  0.3953  0.1772 -0.0467
  536SOL    HW1 2507   3.874   3.285   0.620 -0.6365 -1.7465 -0.4678
  536SOL    HW2 2508   3.862   3.242   0.462 -0.4614  1.1358 -1.3228
  537SOL     OW 2509   2.319   0.110   0.273  0.1328  0.6977 -0.3976
  537SOL    HW1 2510   2.311   0.132   0.175 -0.0625 -0.6358 -0.6993
  537SOL    HW2 2511   2.391   0.042   0.286  0.1079  0.8126  0.3878
  538SOL     OW 2512   5.710   0.283   1.313  0.4199 -0.2466 -0.3203
  538SOL    HW1 2513   5.715   0.233   1.400 -1.2848 -0.0424 -0.0820
  538SOL    HW2 2514   5.684   0.378   1.331 -0.2037 -0.2658 -1.0697
  539SOL     OW 2515   1.589   4.142   4.164  0.9930  0.2967 -0.1973
  539SOL    HW1 2516   1.623   4.190   4.083  1.4528 -2.6936 -1.8984
  539SOL    HW2 2517   1.661   4.138   4.233  2.0146 -0.6020 -1.2809
  540SOL     OW 2518   2.500   5.507   2.298 -0.5134 -0.1503  0.0192
  540SOL    HW1 2519   2.562   5.540   2.227 -2.1920  0.4466 -1.2217
  540SOL    HW2 2520   2.421   5.568   2.305 -1.0916 -1.0083  1.3901
  541SOL     OW 2521   4.405   6.686   6.467 -0.3127  0.0555 -1.0881
  541SOL    HW1 2522   4.450   6.613   6.414 -0.0380  0.4860 -1.4518
  541SOL    HW2 2523   4.474   6.739   6.516 -0.4713  0.3939 -1.2321
  542SOL     OW 2524   4.965   2.667   4.000  0.5229  0.0397 -0.3053
  542SOL    HW1 2525   4.870   2.698   3.998  0.3861 -0.3617 -0.3070
  542SOL    HW2 2526   5.015   2.709   3.924  0.0687 -0.5747 -0.9696
  543SOL     OW 2527   2.265   1.692   3.047 -0.1750 -0.0008  0.3187
  543SOL    HW1 2528   2.238   1.742   3.129  1.4079  0.4834  0.5881
  543SOL    HW2 2529   2.365   1.698   3.036 -0.2689 -0.7628 -1.1845
  544SOL     OW 2530   5.002   6.433   0.076  0.2298  0.0179 -0.1510
  544SOL    HW1 2531   5.043   6.514   0.118 -0.0598  1.2270 -2.0322
  544SOL    HW2 2532   5.051   6.411  -0.009  0.2198 -1.7388  0.2595
  545SOL     OW 2533   0.611   6.602   6.462 -0.0079 -0.0755 -0.1613
  545SOL    HW1 2534   0.624   6.700   6.473 -1.6059  0.3981 -1.9270
  545SOL    HW2 2535   0.518   6.584   6.428 -0.0281 -2.2685  0.8401
  546SOL     OW 2536   6.053   5.497   0.573 -0.1337 -0.3781  0.1495
  546SOL    HW1 2537   6.082   5.572   0.633  0.9791 -1.3668  0.9022
  546SOL    HW2 2538   6.119   5.485   0.500 -0.7063 -0.1505 -0.4163
  547SOL     OW 2539   6.534   0.222   6.804  0.1328 -0.3509 -0.3213
  547SOL    HW1 2540   6.482   0.235   6.889 -0.2384 -1.2050 -0.4052
  547SOL    HW2 2541   6.516   0.299   6.742 -2.1860 -1.2658 -0.9170
  548SOL     OW 2542   6.296   5.709   1.973  0.7780 -0.5596  0.6743
  548SOL    HW1 2543   6.208   5.725   1.930  1.5544  2.0600 -0.0920
  548SOL    HW2 2544   6.357   5.662   1.908  0.8773  0.3364  0.1086
  549SOL     OW 2545   5.626   6.862   4.233 -1.3338  0.6430 -0.4263
  549SOL    HW1 2546   5.568   6.814   4.299  0.1474 -0.7198 -0.0373
  549SOL    HW2 2547   5.657   6.797   4.163 -0.5280  1.3909 -0.7814
  550SOL     OW 2548   4.465   1.384   5.834  0.0871  0.2535  0.2469
  550SOL    HW1 2549   4.401   1.310   5.814  0.7836 -1.0187  2.3789
  550SOL    HW2 2550   4.556   1.359   5.801 -0.2532  1.6645 -1.9696
  551SOL     OW 2551   1.224   6.017   6.219 -0.7811 -0.6626  0.2854
  551SOL    HW1 2552   1.160   6.068   6.277 -1.1627 -1.3557  0.4749
  551SOL    HW2 2553   1.196   6.024   6.123 -1.3307 -1.2308  0.3993
  552SOL     OW 2554   1.786   3.397   1.481 -0.4699 -0.3797  0.4354
  552SOL    HW1 2555   1.837   3.481   1.463 -1.3013  0.0349 -0.0894
  552SOL    HW2 2556   1.691   3.410   1.453 -0.4892 -1.6871 -0.1825
  553SOL     OW 2557   5.213   5.856   4.212 -0.3463  0.1031  0.0206
  553SOL    HW1 2558   5.149   5.781   4.226 -0.7450  0.4586  0.0948
  553SOL    HW2 2559   5.198   5.926   4.281 -0.0452  0.3029 -0.1163
  554SOL     OW 2560   1.072   5.735   5.817 -0.7088  0.1762  0.2686
  554SOL    HW1 2561   1.020   5.801   5.872 -2.4037 -0.7716 -0.1315
  554SOL    HW2 2562   1.059   5.755   5.720  0.1536  0.2502  0.1553
  555SOL     OW 2563   5.571   1.395   2.536 -0.4696 -0.0492 -0.3084
  555SOL    HW1 2564   5.649   1.453   2.560  0.7945 -1.2094 -1.4519
  555SOL    HW2 2565   5.548   1.408   2.440 -0.1353 -1.4499 -0.5972
  556SOL     OW 2566   2.687   6.574   3.670  0.1822  0.0465 -0.5469
  556SOL    HW1 2567   2.610   6.533   3.718  1.2572  0.1796  1.3990
  556SOL    HW2 2568   2.657   6.658   3.624 -1.0714 -0.5436 -0.8488
  557SOL     OW 2569   2.721   6.823   4.570 -0.6266  0.0827  0.1152
  557SOL    HW1 2570   2.642   6.762   4.573 -0.7285  0.2352  0.7662
  557SOL    HW2 2571   2.788   6.793   4.638  0.1505 -0.4075 -0.8500
  558SOL     OW 2572   3.384   4.951   3.709 -0.4983  0.5839  0.0214
  558SOL    HW1 2573   3.435   4.886   3.653 -0.5550  1.4860 -1.1022
  558SOL    HW2 2574   3.446   4.991   3.778 -0.2283  0.0797  0.0732
  559SOL     OW 2575   4.800   0.744   4.588  0.8063  0.0661 -0.3183
  559SOL    HW1 2576   4.761   0.766   4.499 -0.1266 -1.9433 -0.4445
  559SOL    HW2 2577   4.733   0.763   4.660  0.7066 -0.4974 -0.2601
  560SOL     OW 2578   2.232   4.951   4.831 -0.3986 -0.5085 -0.0940
  560SOL    HW1 2579   2.181   4.956   4.917  0.9249  0.2606  0.6874
  560SOL    HW2 2580   2.215   4.863   4.787  0.7401 -1.9713  2.1659
  561SOL     OW 2581   6.823   4.780   2.443 -0.0513  0.7846  0.2596
  561SOL    HW1 2582   6.827   4.831   2.357 -1.4441 -0.5985 -0.6880
  561SOL    HW2 2583   6.743   4.721   2.442  1.4680 -1.4013  1.3111
  562SOL     OW 2584   3.357   1.669   2.463 -0.3101  0.0832  0.2185
  562SOL    HW1 2585   3.293   1.606   2.507 -1.7795  0.9310 -0.6418
  562SOL    HW2 2586   3.310   1.718   2.390  0.4719  2.9653  1.5324
  563SOL     OW 2587   1.525   3.284   0.913  0.1694  0.6759 -1.0455
  563SOL    HW1 2588   1.504   3.276   1.011 -0.3389 -0.3088 -1.2237
  563SOL    HW2 2589   1.616   3.325   0.902  0.5654  0.0720 -0.1426
  564SOL     OW 2590   3.734   2.041   1.158  0.0065  0.7110  0.1498
  564SOL    HW1 2591   3.701   2.127   1.120 -2.5877  0.2767  1.2110
  564SOL    HW2 2592   3.755   1.978   1.084 -1.8113  0.9812 -0.6489
  565SOL     OW 2593   1.635   0.381   6.466  0.1205 -0.1634 -0.1173
  565SOL    HW1 2594   1.606   0.310   6.402 -4.1429 -0.1694  1.5281
  565SOL    HW2 2595   1.678   0.339   6.545  2.8950 -0.3370 -1.5971
  566SOL     OW 2596   5.955   4.229   2.335  0.2534  0.0315 -0.4216
  566SOL    HW1 2597   6.017   4.163   2.377 -1.1849 -0.9712  0.2422
  566SOL    HW2 2598   5.885   4.255   2.402 -1.6640 -1.0406 -1.9143
  567SOL     OW 2599   2.234   5.634   6.095 -0.3028 -0.2360  0.0332
  567SOL    HW1 2600   2.139   5.604   6.095 -0.1811 -0.6365  0.6520
  567SOL    HW2 2601   2.294   5.556   6.077  0.0834 -0.6888  2.8138
  568SOL     OW 2602   0.766   1.274   1.380  0.0019 -0.5094 -0.3303
  568SOL    HW1 2603   0.674   1.237   1.382  0.4907 -1.8040 -0.7717
  568SOL    HW2 2604   0.782   1.329   1.462 -1.2645  0.0395 -0.4256
  569SOL     OW 2605   1.221   6.968   4.438 -0.5165 -0.8413 -0.1346
  569SOL    HW1 2606   1.228   7.063   4.410 -0.0399 -1.2117 -1.3541
  569SOL    HW2 2607   1.205   6.963   4.537  0.3885  0.4695  0.1053
  570SOL     OW 2608   4.223   0.214   3.108  0.2200 -0.1279  0.5368
  570SOL    HW1 2609   4.255   0.252   3.194  0.8424  1.1849 -0.2549
  570SOL    HW2 2610   4.267   0.261   3.031  0.6740 -2.1195 -0.5085
  571SOL     OW 2611   5.037   2.109   2.007  0.3184 -0.0210  0.1123
  571SOL    HW1 2612   5.028   2.183   1.941  0.1007 -1.9349 -2.1439
  571SOL    HW2 2613   5.108   2.045   1.977 -0.3295 -1.3855  1.3035
  572SOL     OW 2614   0.984   3.048   2.503 -0.1008 -0.4525 -0.2102
  572SOL    HW1 2615   0.981   2.948   2.501  1.2695 -0.7252  3.2347
  572SOL    HW2 2616   1.066   3.080   2.456  0.0063 -1.0482 -0.4304
  573SOL     OW 2617   2.427   4.269   1.102  0.3276 -0.1792  0.4223
  573SOL    HW1 2618   2.426   4.336   1.028  0.2185 -0.0577  0.5319
  573SOL    HW2 2619   2.412   4.177   1.065  2.7719 -0.4487 -0.0325
  574SOL     OW 2620   1.816   0.278   4.325 -0.4152  0.6690  0.2711
  574SOL    HW1 2621   1.763   0.208   4.277 -0.9336  1.8953 -1.0325
  574SOL    HW2 2622   1.911   0.273   4.297 -0.8816  2.0085 -1.7822
  575SOL     OW 2623   4.957   2.893   5.412 -0.1266 -0.4010 -0.1722
  575SOL    HW1 2624   4.932   2.943   5.329  0.2713 -0.9975 -0.6639
  575SOL    HW2 2625   4.902   2.926   5.488  0.7429  1.4085 -0.2707
  576SOL     OW 2626   1.938   5.386   0.132  0.8731  0.4959  0.2122
  576SOL    HW1 2627   2.000   5.441   0.076  0.8517 -1.0842 -1.4656
  576SOL    HW2 2628   1.937   5.292   0.098  0.8672 -0.5839  2.9178
  577SOL     OW 2629   1.575   3.826   5.688  0.4642 -0.0235  0.0877
  577SOL    HW1 2630   1.562   3.768   5.607  1.3651  3.0578 -2.4662
  577SOL    HW2 2631   1.671   3.852   5.695 -0.2666  3.1635 -0.4598
  578SOL     OW 2632   2.266   5.731   6.928 -0.1821 -0.0756  0.2620
  578SOL    HW1 2633   2.319   5.646   6.919 -0.9372 -0.6594  1.1757
  578SOL    HW2 2634   2.299   5.782   7.007 -0.0749  0.2434  0.0153
  579SOL     OW 2635   6.809   6.503   4.991  0.0667  0.3263  0.6665
  579SOL    HW1 2636   6.888   6.501   4.929 -0.1811 -0.4035  0.3564
  579SOL    HW2 2637   6.733   6.453   4.949 -0.4788  0.8075  1.0709
  580SOL     OW 2638   2.022   2.017   3.515 -0.2832 -0.2429 -0.4551
  580SOL    HW1 2639   1.927   2.006   3.546 -0.2986 -2.2856 -1.0234
  580SOL    HW2 2640   2.081   1.956   3.568  0.5965  0.4552 -0.6173
  581SOL     OW 2641   2.437   3.843   6.420  0.6225 -0.1471 -0.5109
  581SOL    HW1 2642   2.432   3.943   6.422 -1.9040 -0.1965  1.2650
  581SOL    HW2 2643   2.525   3.814   6.458  1.0112  1.4030 -0.1266
  582SOL     OW 2644   2.570   6.474   4.744 -0.1911  0.5975 -1.0492
  582SOL    HW1 2645   2.651   6.443   4.794 -0.6454 -1.1643 -1.3349
  582SOL    HW2 2646   2.495   6.410   4.760 -0.6845  0.6010 -3.0693
  583SOL     OW 2647   2.157   3.841   3.520  0.4227 -0.2583  0.6091
  583SOL    HW1 2648   2.202   3.770   3.465 -0.3434 -0.8086  0.6766
  583SOL    HW2 2649   2.102   3.798   3.591 -3.7983  0.0844 -2.1027
  584SOL     OW 2650   3.169   2.964   5.065  0.5052 -0.5780  0.0723
  584SOL    HW1 2651   3.131   2.982   5.156 -1.0253 -1.5865 -0.3423
  584SOL    HW2 2652   3.196   2.868   5.059 -0.9205 -0.9370 -1.0430
  585SOL     OW 2653   6.801   4.921   2.686  0.4522  0.1473  0.3444
  585SOL    HW1 2654   6.848   4.867   2.616 -2.6590 -0.1117 -1.7410
  585SOL    HW2 2655   6.839   5.013   2.687  1.2837 -0.1446 -0.9503
  586SOL     OW 2656   1.740   5.791   6.269 -0.4141  0.9819 -0.3304
  586SOL    HW1 2657   1.779   5.800   6.178 -1.0966 -2.2443 -1.0661
  586SOL    HW2 2658   1.644   5.819   6.268  0.2040  3.2681  0.0511
  587SOL     OW 2659   5.724   1.668   0.206  0.1590 -0.3775 -0.4070
  587SOL    HW1 2660   5.784   1.718   0.144 -1.5151  1.9609 -0.2903
  587SOL    HW2 2661   5.637   1.648   0.161 -0.4719 -0.0889  0.6264
  588SOL     OW 2662   2.471   4.446   0.899  0.1147 -0.0016  0.0401
  588SOL    HW1 2663   2.560   4.401   0.911  0.3578  0.7365  1.2844
  588SOL    HW2 2664   2.470   4.531   0.953 -0.4423  1.3299 -1.9652
  589SOL     OW 2665   1.720   3.609   0.178 -0.0421  0.3733  0.0384
  589SOL    HW1 2666   1.644   3.557   0.217  0.7086 -1.2906 -0.6164
  589SOL    HW2 2667   1.728   3.697   0.225 -1.0260 -0.3108  1.5664
  590SOL     OW 2668   5.341   5.115   3.236 -0.0020  0.3678  0.1268
  590SOL    HW1 2669   5.265   5.102   3.172  0.6170  1.0955 -0.7936
  590SOL    HW2 2670   5.328   5.201   3.285 -1.1860 -0.8339  2.0417
  591SOL     OW 2671   0.900   4.403   3.969  0.4118 -0.5152  0.1159
  591SOL    HW1 2672   0.946   4.467   4.030  0.8371 -1.5965  0.9654
  591SOL    HW2 2673   0.881   4.448   3.881  4.1084 -0.2839 -0.7200
  592SOL     OW 2674   4.675   0.812   4.349 -0.3057  0.0028 -1.0246
  592SOL    HW1 2675   4.586   0.768   4.363 -0.4685 -0.1117 -2.2987
  592SOL    HW2 2676   4.727   0.761   4.280  0.9137 -0.1489 -0.0229
  593SOL     OW 2677   3.188   1.819   2.861 -0.1600 -0.7266 -0.2756
  593SOL    HW1 2678   3.210   1.914   2.883  0.1869 -1.3956  2.6166
  593SOL    HW2 2679   3.266   1.775   2.816  0.7010 -0.3596  0.8388
  594SOL     OW 2680   2.087   2.355   3.846 -0.6788  0.5157 -0.1279
  594SOL    HW1 2681   2.090   2.455   3.853 -0.2199  0.4853  0.1745
  594SOL    HW2 2682   2.169   2.316   3.888 -0.6214  0.0328 -0.6672
  595SOL     OW 2683   3.113   6.101   4.144  0.5685 -0.3475  0.0976
  595SOL    HW1 2684   3.205   6.081   4.176  1.4846  2.8324 -0.1887
  595SOL    HW2 2685   3.110   6.096   4.044  0.4122 -0.4417  0.1059
  596SOL     OW 2686   2.942   3.653   0.417 -0.2249 -0.1052 -0.0396
  596SOL    HW1 2687   3.036   3.685   0.409 -0.2114  0.0535  0.6791
  596SOL    HW2 2688   2.888   3.721   0.467 -0.8409  0.0302 -0.8624
  597SOL     OW 2689   1.386   2.102   3.642 -0.2589  0.2075  0.8707
  597SOL    HW1 2690   1.381   2.007   3.673 -0.4247 -0.3963 -0.9007
  597SOL    HW2 2691   1.339   2.161   3.708  0.6597 -0.7861  2.4779
  598SOL     OW 2692   4.889   0.729   1.870  0.9924 -0.9055  0.1754
  598SOL    HW1 2693   4.917   0.819   1.902  0.3987 -1.1454  1.4392
  598SOL    HW2 2694   4.795   0.710   1.899  1.2482 -2.0879  0.3217
  599SOL     OW 2695   1.717   4.678   3.127  0.6956  0.0241  0.8297
  599SOL    HW1 2696   1.633   4.661   3.075  1.1359  0.7482 -0.1562
  599SOL    HW2 2697   1.694   4.690   3.224 -0.4256  0.7964  0.5010
  600SOL     OW 2698   1.616   2.738   6.870  0.3794 -0.3874 -0.2912
  600SOL    HW1 2699   1.682   2.775   6.805 -0.0313  0.4673 -0.2241
  600SOL    HW2 2700   1.602   2.802   6.945 -1.5091  0.0654 -0.9666
  601SOL     OW 2701   0.342   5.559   6.181  0.1142 -0.2709  0.7813
  601SOL    HW1 2702   0.395   5.639   6.154  1.2918 -0.9819  0.9428
  601SOL    HW2 2703   0.244   5.577   6.165  0.3833  1.0771  0.5525
  602SOL     OW 2704   5.693   1.829   5.451 -0.2160 -0.6095 -0.1113
  602SOL    HW1 2705   5.746   1.792   5.527 -0.4602 -0.0992  0.3093
  602SOL    HW2 2706   5.596   1.827   5.473 -0.1812  1.4190  0.4573
  603SOL     OW 2707   5.509   2.150   0.642  0.1722 -0.1240 -0.5425
  603SOL    HW1 2708   5.476   2.127   0.550 -2.6986 -0.4766  0.4599
  603SOL    HW2 2709   5.507   2.068   0.699  1.0123  0.2888  0.1031
  604SOL     OW 2710   0.145   4.352   5.614  0.2202  0.1950  0.2707
  604SOL    HW1 2711   0.146   4.366   5.713 -1.3450  1.7259  0.1172
  604SOL    HW2 2712   0.059   4.307   5.587 -0.2597  1.5277 -0.5486
  605SOL     OW 2713   3.425   5.551   6.695 -0.5690 -0.2588  0.0953
  605SOL    HW1 2714   3.506   5.608   6.677 -0.3637 -0.7791 -0.6610
  605SOL    HW2 2715   3.418   5.533   6.793  0.3713 -0.4116  0.1398
  606SOL     OW 2716   5.241   3.986   6.650  0.2789 -0.2861 -0.5962
  606SOL    HW1 2717   5.317   4.048   6.627 -0.4649  0.3301 -1.4795
  606SOL    HW2 2718   5.155   4.027   6.620 -0.4462 -0.8244  0.6991
  607SOL     OW 2719   5.675   3.343   5.504 -0.2632  0.3272  0.3869
  607SOL    HW1 2720   5.668   3.288   5.587 -0.4411  1.5392  1.2021
  607SOL    HW2 2721   5.767   3.381   5.498  0.1412 -0.7608 -0.6510
  608SOL     OW 2722   3.693   0.744   5.053  0.6616  0.5652  0.0071
  608SOL    HW1 2723   3.758   0.799   5.000 -0.9056  4.2097  1.5644
  608SOL    HW2 2724   3.723   0.739   5.148 -0.0897  0.1817  0.2302
  609SOL     OW 2725   3.319   2.392   6.669  0.7684  0.1624 -0.2151
  609SOL    HW1 2726   3.267   2.367   6.587  0.0023  0.8700  0.0449
  609SOL    HW2 2727   3.314   2.317   6.735  1.4789 -0.4596 -0.8343
  610SOL     OW 2728   4.535   5.790   0.555  0.3124 -0.6357 -0.3036
  610SOL    HW1 2729   4.509   5.878   0.596 -0.4533 -0.0210 -2.0198
  610SOL    HW2 2730   4.619   5.758   0.598  0.6348  0.9500  0.3443
  611SOL     OW 2731   3.654   0.828   6.922  0.0263  0.0430 -0.5868
  611SOL    HW1 2732   3.686   0.880   6.842 -0.2592  2.4886  0.7927
  611SOL    HW2 2733   3.557   0.805   6.910  0.3317 -0.8336 -1.5149
  612SOL     OW 2734   1.455   5.594   4.530 -0.1454 -0.5370  0.1010
  612SOL    HW1 2735   1.534   5.569   4.587  0.2823 -0.7137 -0.5563
  612SOL    HW2 2736   1.385   5.637   4.587  0.1209 -1.0380  0.8214
  613SOL     OW 2737   2.357   3.279   0.922  0.6485  0.4200  0.8059
  613SOL    HW1 2738   2.335   3.191   0.963  1.9997  0.4701  1.7030
  613SOL    HW2 2739   2.418   3.330   0.983  0.5850  1.6165 -0.0899
  614SOL     OW 2740   6.083   1.886   2.180 -0.3556 -0.2435  0.2992
  614SOL    HW1 2741   6.167   1.880   2.127 -0.3992  0.8833  0.0831
  614SOL    HW2 2742   6.013   1.932   2.126 -0.7523 -0.1188  0.9135
  615SOL     OW 2743   3.618   2.722   0.862 -0.6649  0.5088  0.7844
  615SOL    HW1 2744   3.621   2.802   0.802  0.9013  1.6571  2.3104
  615SOL    HW2 2745   3.687   2.731   0.934 -0.9760 -1.8656  1.4705
  616SOL     OW 2746   4.329   6.671   4.899 -0.4361  0.0189 -0.1445
  616SOL    HW1 2747   4.357   6.730   4.975  0.9956 -1.6144  0.6634
  616SOL    HW2 2748   4.232   6.646   4.911 -0.7648  1.3049  0.0686
  617SOL     OW 2749   2.765   4.785   1.694 -0.0708  0.1476  0.3797
  617SOL    HW1 2750   2.760   4.719   1.619 -4.0761  1.2972 -0.5722
  617SOL    HW2 2751   2.741   4.740   1.780  2.5008 -0.6959  0.7490
  618SOL     OW 2752   1.248   6.533   5.900  0.4215  0.0768  0.1170
  618SOL    HW1 2753   1.346   6.523   5.917  0.2695 -2.4294 -0.0999
  618SOL    HW2 2754   1.232   6.551   5.803  0.6130 -1.8445 -0.3050
  619SOL     OW 2755   4.125   1.615   4.035  0.0384 -0.6064 -0.2450
  619SOL    HW1 2756   4.071   1.673   4.096  0.3836  0.7265 -1.1829
  619SOL    HW2 2757   4.215   1.599   4.076 -0.0290 -0.4110 -0.0188
  620SOL     OW 2758   6.552   4.907   0.029  0.0454  0.1586  0.4095
  620SOL    HW1 2759   6.560   4.934  -0.067  1.2800  0.3097  0.5442
  620SOL    HW2 2760   6.608   4.826   0.046  0.0588  0.2981  1.0609
  621SOL     OW 2761   2.945   0.819   6.386 -0.7919  0.7773 -0.2215
  621SOL    HW1 2762   3.016   0.793   6.321 -1.4555  0.8157 -0.9807
  621SOL    HW2 2763   2.856   0.814   6.341 -1.1837  1.6450  0.4390
  622SOL     OW 2764   4.926   2.375   6.204  0.0738  0.0712  0.5744
  622SOL    HW1 2765   4.882   2.314   6.138  0.7238  0.2115  0.0078
  622SOL    HW2 2766   5.012   2.335   6.235  0.4224  0.6112  0.3235
  623SOL     OW 2767   3.195   3.402   5.868 -0.2685  0.2515 -0.7789
  623SOL    HW1 2768   3.253   3.361   5.798  0.4203  0.4514 -0.3308
  623SOL    HW2 2769   3.155   3.329   5.925  1.2567  0.1766  0.2601
  624SOL     OW 2770   6.633   6.396   4.511  0.1008 -0.3969 -0.2494
  624SOL    HW1 2771   6.673   6.304   4.514 -1.0109 -0.9056  2.6448
  624SOL    HW2 2772   6.706   6.464   4.519  0.8358 -1.0439 -1.1967
  625SOL     OW 2773   3.675   0.909   6.155 -0.1530  0.4092 -0.3730
  625SOL    HW1 2774   3.599   0.939   6.211 -0.4134 -0.7624 -0.0742
  625SOL    HW2 2775   3.669   0.952   6.064 -2.3540 -1.1986 -1.0756
  626SOL     OW 2776   1.401   2.921   3.914 -1.2805  0.0131  0.0546
  626SOL    HW1 2777   1.335   2.977   3.963 -1.3002 -1.7070  2.1728
  626SOL    HW2 2778   1.364   2.895   3.824 -1.2450  3.2486 -1.0175
  627SOL     OW 2779   1.335   5.285   5.248 -0.2419  0.2586  0.1469
  627SOL    HW1 2780   1.287   5.303   5.162 -0.7908 -1.0093  0.1701
  627SOL    HW2 2781   1.269   5.276   5.322  0.2177  1.1436  0.6822
  628SOL     OW 2782   1.651   5.776   3.467 -0.5374 -0.2535 -0.0326
  628SOL    HW1 2783   1.634   5.874   3.455 -0.0426 -0.2963 -1.1981
  628SOL    HW2 2784   1.690   5.760   3.557  0.2980  0.7584 -0.1953
  629SOL     OW 2785   3.600   6.573   2.715 -0.4971 -0.3646  0.2563
  629SOL    HW1 2786   3.674   6.536   2.658 -1.0599 -0.6361 -0.3161
  629SOL    HW2 2787   3.628   6.660   2.755  0.1119 -0.4392 -0.0044
  630SOL     OW 2788   6.212   3.041   4.687  0.1432  0.4187  0.1373
  630SOL    HW1 2789   6.214   3.029   4.588  1.8146 -2.1062  0.3706
  630SOL    HW2 2790   6.252   3.129   4.711 -2.5930  2.2425 -1.4492
  631SOL     OW 2791   2.670   1.651   0.086 -0.6239  0.7012  0.1825
  631SOL    HW1 2792   2.635   1.561   0.062  0.3561 -0.2549  2.1249
  631SOL    HW2 2793   2.605   1.721   0.057 -1.7356 -0.6600 -0.7307
  632SOL     OW 2794   5.518   3.822   0.958 -0.7762 -0.1029  0.0371
  632SOL    HW1 2795   5.428   3.850   0.991 -0.1919  3.4907 -0.9620
  632SOL    HW2 2796   5.533   3.859   0.866  3.2657  3.4186  1.7732
  633SOL     OW 2797   2.398   2.228   4.504  0.4630  0.0596  0.3736
  633SOL    HW1 2798   2.409   2.176   4.588  0.3719 -1.6762 -0.6490
  633SOL    HW2 2799   2.302   2.251   4.491  0.4817  0.3585  0.7466
  634SOL     OW 2800   2.575   3.798   0.910 -0.4583  0.9358 -0.2864
  634SOL    HW1 2801   2.545   3.858   0.984  0.9938  1.8057 -0.3619
  634SOL    HW2 2802   2.508   3.725   0.897 -1.0977  1.1677  1.4064
  635SOL     OW 2803   1.388   4.063   1.969 -0.8841  0.1097  0.5688
  635SOL    HW1 2804   1.484   4.043   1.992 -0.9692 -0.1990  0.6582
  635SOL    HW2 2805   1.371   4.039   1.873 -0.5886  1.1867  0.2272
  636SOL     OW 2806   3.810   3.259   4.898 -0.1268 -0.3576  0.6495
  636SOL    HW1 2807   3.715   3.272   4.870  0.3850  0.1712 -0.9432
  636SOL    HW2 2808   3.833   3.162   4.893 -0.4859 -0.4538  0.7837
  637SOL     OW 2809   2.675   1.819   2.542 -0.4558  0.0126  0.2734
  637SOL    HW1 2810   2.697   1.843   2.447  0.6448 -0.7756  0.2979
  637SOL    HW2 2811   2.718   1.731   2.564  2.3823  1.7802  2.5675
  638SOL     OW 2812   0.532   4.108   4.783  0.2224  0.1216  0.6066
  638SOL    HW1 2813   0.489   4.147   4.702  2.7523 -0.0427 -0.8922
  638SOL    HW2 2814   0.494   4.017   4.800  0.3375 -0.2395 -0.9767
  639SOL     OW 2815   1.364   6.725   2.751 -0.3001 -0.6426 -0.4528
  639SOL    HW1 2816   1.417   6.694   2.673 -0.9021  1.7134 -1.9136
  639SOL    HW2 2817   1.288   6.662   2.767 -0.0783 -1.2500 -1.6937
  640SOL     OW 2818   6.786   1.091   7.007 -0.6738 -0.3628  0.0683
  640SOL    HW1 2819   6.847   1.121   6.933  1.4546 -1.2765  1.3456
  640SOL    HW2 2820   6.830   1.018   7.059 -1.4914  1.0665  3.0219
  641SOL     OW 2821   2.223   2.021   6.371  0.0006 -0.7590  0.1777
  641SOL    HW1 2822   2.162   2.032   6.449  1.0165  0.0866  0.8695
  641SOL    HW2 2823   2.318   2.027   6.401  0.4711 -2.5045 -0.8078
  642SOL     OW 2824   6.442   1.589   2.289  0.2074 -0.3622  0.2904
  642SOL    HW1 2825   6.515   1.657   2.290  1.9598 -2.1297  0.4311
  642SOL    HW2 2826   6.415   1.569   2.195 -0.2769  0.4441  0.2471
  643SOL     OW 2827   2.715   4.750   5.303  0.2000  0.1287  0.2792
  643SOL    HW1 2828   2.765   4.704   5.230  3.0422  2.8446  0.2827
  643SOL    HW2 2829   2.620   4.762   5.276  0.9813  0.4266 -2.7481
  644SOL     OW 2830   0.805   6.485   4.127  0.4584  0.3713  0.0765
  644SOL    HW1 2831   0.781   6.453   4.035 -0.1377  0.6596  0.1290
  644SOL    HW2 2832   0.819   6.407   4.187  0.3441  0.1887 -0.1309
  645SOL     OW 2833   1.430   2.265   3.077  0.3328  0.3699  0.8876
  645SOL    HW1 2834   1.366   2.210   3.131 -1.5268  2.7332  1.2675
  645SOL    HW2 2835   1.424   2.238   2.981 -1.1613  0.4302  0.9397
  646SOL     OW 2836   5.764   4.091   0.708  0.6149  0.6202 -0.1407
  646SOL    HW1 2837   5.774   4.085   0.608  1.8480  0.7205 -0.0412
  646SOL    HW2 2838   5.668   4.099   0.731 -0.3792 -4.5956 -1.0517
  647SOL     OW 2839   6.294   2.377   6.989 -0.3263  0.3119  0.3852
  647SOL    HW1 2840   6.250   2.465   6.970 -2.0777 -1.0543 -2.5177
  647SOL    HW2 2841   6.230   2.303   6.970  1.6607 -1.6813  1.0282
  648SOL     OW 2842   0.500   5.350   0.319  0.6236  0.2835 -0.4204
  648SOL    HW1 2843   0.554   5.340   0.236 -0.1560  1.1264 -1.0423
  648SOL    HW2 2844   0.403   5.360   0.295  0.5454  2.1279  0.4842
  649SOL     OW 2845   5.392   4.959   5.178 -0.2127  0.0329  0.4413
  649SOL    HW1 2846   5.305   4.994   5.214 -0.3410  0.7535 -0.5320
  649SOL    HW2 2847   5.458   5.034   5.173  0.0681 -0.2429 -0.0113
  650SOL     OW 2848   3.189   6.664   6.903 -0.0837  0.9395  0.0072
  650SOL    HW1 2849   3.137   6.670   6.818 -0.8678 -0.6352  0.3315
  650SOL    HW2 2850   3.274   6.613   6.886  0.1347  1.2996  0.0108
  651SOL     OW 2851   5.379   1.954   4.112 -0.0434  0.1363  0.3884
  651SOL    HW1 2852   5.435   1.881   4.154 -0.2061 -0.2184 -0.0059
  651SOL    HW2 2853   5.428   2.041   4.120  0.7882 -0.2442 -0.3625
  652SOL     OW 2854   0.981   3.283   3.508  0.9491 -0.3326 -0.0693
  652SOL    HW1 2855   0.949   3.206   3.453  1.7207 -0.1725 -0.7660
  652SOL    HW2 2856   0.903   3.331   3.547  0.3265 -0.0929 -1.5348
  653SOL     OW 2857   5.726   5.472   0.167  0.4228  0.2517  0.2122
  653SOL    HW1 2858   5.767   5.548   0.116  0.0334  0.3747  0.0777
  653SOL    HW2 2859   5.712   5.500   0.262  0.5587  0.2419  0.2357
  654SOL     OW 2860   5.300   2.567   4.912 -0.1408 -0.1752 -0.0299
  654SOL    HW1 2861   5.297   2.571   4.812  1.4886  0.0905 -0.0983
  654SOL    HW2 2862   5.305   2.472   4.941 -2.6153 -0.3827 -0.0699
  655SOL     OW 2863   6.083   3.659   4.616  0.4145 -0.6288  0.1455
  655SOL    HW1 2864   6.168   3.610   4.635 -0.2449 -2.1672 -0.6730
  655SOL    HW2 2865   6.064   3.654   4.518 -2.2298 -3.1483  0.6570
  656SOL     OW 2866   6.689   6.033   5.544 -0.1421 -0.5922  0.1694
  656SOL    HW1 2867   6.762   6.013   5.610 -1.8529 -3.0601  1.5113
  656SOL    HW2 2868   6.701   5.975   5.463 -0.3779 -0.6686  0.1906
  657SOL     OW 2869   3.821   0.513   6.643  0.2276 -0.6555 -0.2279
  657SOL    HW1 2870   3.736   0.535   6.595 -0.4265  0.5068  1.3811
  657SOL    HW2 2871   3.890   0.486   6.576 -0.5877  1.0471 -1.8605
  658SOL     OW 2872   1.290   5.565   5.570  0.5377 -0.3929 -0.4391
  658SOL    HW1 2873   1.337   5.543   5.656 -0.5827  1.5423  0.7566
  658SOL    HW2 2874   1.270   5.481   5.520  0.6892 -1.6450  1.4842
  659SOL     OW 2875   1.884   1.559   4.817  0.1760  0.3574 -0.0312
  659SOL    HW1 2876   1.891   1.544   4.718  0.6266 -1.5127  0.2481
  659SOL    HW2 2877   1.790   1.546   4.846  0.5276 -2.0710  0.1788
  660SOL     OW 2878   5.822   2.971   6.555 -0.2336  0.0928  0.5979
  660SOL    HW1 2879   5.833   3.057   6.604 -1.1091 -1.0916  3.0547
  660SOL    HW2 2880   5.727   2.959   6.528 -0.2409 -0.3216  0.7836
  661SOL     OW 2881   5.281   2.823   6.470 -0.5457 -0.0750  0.2904
  661SOL    HW1 2882   5.309   2.743   6.523 -0.8826  0.1927  0.8856
  661SOL    HW2 2883   5.361   2.870   6.434 -0.3443 -0.6685 -0.0491
  662SOL     OW 2884   0.928   3.043   4.937 -0.3018  0.1297  0.0839
  662SOL    HW1 2885   0.911   2.953   4.977 -0.9254  0.2978  0.2134
  662SOL    HW2 2886   1.016   3.043   4.890 -0.0558 -0.3872  0.5434
  663SOL     OW 2887   1.872   4.895   4.657  0.1087  0.0362  0.1617
  663SOL    HW1 2888   1.898   4.981   4.612 -0.6261 -0.8862 -2.1902
  663SOL    HW2 2889   1.787   4.909   4.707  0.7308  1.0061  0.9923
  664SOL     OW 2890   0.875   6.095   5.632  0.5613  0.1511 -0.2996
  664SOL    HW1 2891   0.872   6.184   5.677  0.9458 -0.0364  0.1125
  664SOL    HW2 2892   0.825   6.028   5.687  1.0919 -0.0941 -0.1001
  665SOL     OW 2893   0.692   3.353   5.469 -0.4397 -0.0787 -0.3187
  665SOL    HW1 2894   0.675   3.414   5.391 -0.8132  0.0239 -0.1571
  665SOL    HW2 2895   0.640   3.385   5.548  1.2661  0.8420  0.4939
  666SOL     OW 2896   2.233   3.310   0.652 -0.3082 -0.4466  0.3794
  666SOL    HW1 2897   2.183   3.229   0.620 -1.7691 -0.1291  1.7406
  666SOL    HW2 2898   2.249   3.302   0.751  3.5825 -1.1449 -0.1481
  667SOL     OW 2899   1.342   0.849   5.538 -0.3607  0.2224  0.1586
  667SOL    HW1 2900   1.363   0.822   5.444  0.4935 -1.9562  0.9091
  667SOL    HW2 2901   1.245   0.836   5.555 -0.2550 -0.8312  0.0039
  668SOL     OW 2902   4.448   2.863   5.352  0.3933 -0.6182  0.0418
  668SOL    HW1 2903   4.358   2.820   5.346  0.6651 -0.9772 -2.5789
  668SOL    HW2 2904   4.437   2.963   5.352 -0.0280 -0.6104 -2.0734
  669SOL     OW 2905   2.536   0.301   6.618  0.4500 -0.0444 -0.3907
  669SOL    HW1 2906   2.601   0.350   6.677  0.3251  2.0874 -1.8839
  669SOL    HW2 2907   2.533   0.345   6.528 -2.2733 -0.7066 -0.7263
  670SOL     OW 2908   4.294   1.244   0.112 -0.4544 -0.2587  0.1492
  670SOL    HW1 2909   4.319   1.193   0.194 -0.2024 -0.7950 -0.2516
  670SOL    HW2 2910   4.292   1.181   0.034 -3.0114 -0.2724  0.1434
  671SOL     OW 2911   1.356   4.062   2.415 -0.5047  0.1487  0.3952
  671SOL    HW1 2912   1.421   4.003   2.463 -0.9965 -2.0408 -1.4608
  671SOL    HW2 2913   1.303   4.114   2.482  0.7998 -0.5653  2.0645
  672SOL     OW 2914   2.518   6.689   1.395  0.9125  0.0991 -0.1228
  672SOL    HW1 2915   2.424   6.712   1.372  0.1647 -0.6889  1.9025
  672SOL    HW2 2916   2.534   6.592   1.377 -0.2091 -0.9843  3.7359
  673SOL     OW 2917   4.159   6.000   1.667  0.2421  0.1807 -0.7422
  673SOL    HW1 2918   4.202   5.978   1.754 -3.0251  2.7969  1.8044
  673SOL    HW2 2919   4.204   6.079   1.626  2.7410 -1.9400 -2.4052
  674SOL     OW 2920   5.339   3.214   3.522 -0.4008 -0.0442  0.2558
  674SOL    HW1 2921   5.379   3.260   3.443 -0.3195 -0.4583  0.0506
  674SOL    HW2 2922   5.274   3.275   3.567 -1.6356 -0.3305 -1.0666
  675SOL     OW 2923   2.926   6.456   3.353  0.5260  0.0332 -0.0292
  675SOL    HW1 2924   2.884   6.412   3.275  0.1254  0.0535  0.1736
  675SOL    HW2 2925   3.025   6.438   3.352  0.5305  0.0690 -0.5558
  676SOL     OW 2926   5.818   2.267   1.297 -0.0541 -0.0338  0.0269
  676SOL    HW1 2927   5.766   2.283   1.213 -0.1493  0.2807  0.1473
  676SOL    HW2 2928   5.816   2.348   1.355 -1.2282 -0.7370  1.0096
  677SOL     OW 2929   1.896   2.992   3.907 -0.6130  0.1890  0.6268
  677SOL    HW1 2930   1.904   3.090   3.923 -0.8154  0.1395  1.0545
  677SOL    HW2 2931   1.886   2.974   3.809 -1.3400  0.6461  0.6121
  678SOL     OW 2932   1.722   1.932   0.949  0.0835 -0.8377  0.1212
  678SOL    HW1 2933   1.816   1.952   0.922 -0.1281 -0.7160 -0.5218
  678SOL    HW2 2934   1.702   1.978   1.036  0.4965 -0.5606  0.0711
  679SOL     OW 2935   3.036   2.811   0.099  0.3863 -0.3675 -0.0141
  679SOL    HW1 2936   3.025   2.778   0.193 -1.2706  2.2661  0.8171
  679SOL    HW2 2937   3.125   2.856   0.090  0.4539 -0.4226  0.3684
  680SOL     OW 2938   2.801   1.036   1.895 -0.3386 -0.2264 -0.1353
  680SOL    HW1 2939   2.864   1.104   1.932  0.6923 -1.2453  0.0598
  680SOL    HW2 2940   2.712   1.078   1.877  0.0266  0.9674  0.7385
  681SOL     OW 2941   1.165   4.761   0.249  0.3446 -0.4103 -0.3405
  681SOL    HW1 2942   1.135   4.798   0.337 -1.4320  0.9426 -1.4522
  681SOL    HW2 2943   1.228   4.684   0.265 -1.6461 -1.6672  2.1165
  682SOL     OW 2944   5.454   6.629   4.642 -0.9621  0.2596 -0.0461
  682SOL    HW1 2945   5.359   6.641   4.613 -0.4118  1.2910 -1.5421
  682SOL    HW2 2946   5.502   6.717   4.637  0.5554 -0.5749 -1.2224
  683SOL     OW 2947   0.445   1.970   0.916  0.5667  0.0677 -0.4257
  683SOL    HW1 2948   0.536   1.944   0.883  0.7653 -1.1765  1.0368
  683SOL    HW2 2949   0.376   1.931   0.856  0.9637 -0.0024 -0.8457
  684SOL     OW 2950   1.857   4.709   1.128 -0.1613  0.0143  0.7550
  684SOL    HW1 2951   1.825   4.693   1.222  0.1424  0.3635  0.9230
  684SOL    HW2 2952   1.921   4.637   1.102  0.0767  0.1464  0.9709
  685SOL     OW 2953   0.786   6.582   1.553  0.0256  0.1337  0.3403
  685SOL    HW1 2954   0.885   6.575   1.540  0.1451 -1.2053  1.6987
  685SOL    HW2 2955   0.749   6.492   1.574 -0.7678  1.1670  4.1345
  686SOL     OW 2956   2.309   3.387   6.411 -0.5179 -0.6531  0.1616
  686SOL    HW1 2957   2.409   3.391   6.408 -0.5822  0.8585 -1.6025
  686SOL    HW2 2958   2.274   3.356   6.323 -1.6838  2.3687 -0.5446
  687SOL     OW 2959   4.786   0.830   3.343  0.7664 -0.9019 -0.2575
  687SOL    HW1 2960   4.875   0.802   3.308  0.4333 -3.2459  0.5898
  687SOL    HW2 2961   4.794   0.853   3.440  0.3364 -1.7570 -0.0175
  688SOL     OW 2962   4.708   2.504   0.884  0.3790 -0.4408 -0.0889
  688SOL    HW1 2963   4.774   2.578   0.878 -0.4868  0.3055 -0.6463
  688SOL    HW2 2964   4.694   2.479   0.979  1.2339 -0.3999  0.0503
  689SOL     OW 2965   4.778   3.993   3.076 -0.1246  0.0066  0.3664
  689SOL    HW1 2966   4.717   4.068   3.099  1.4295  1.0083  1.3763
  689SOL    HW2 2967   4.776   3.978   2.977 -1.3864  0.5235  0.2970
  690SOL     OW 2968   0.595   3.186   6.692  0.1879  0.7346 -0.3729
  690SOL    HW1 2969   0.687   3.154   6.669 -1.0738 -2.4981 -1.5267
  690SOL    HW2 2970   0.567   3.145   6.778 -0.5676  0.7539 -0.6074
  691SOL     OW 2971   3.392   5.206   0.413 -0.5144  0.2297  0.3756
  691SOL    HW1 2972   3.426   5.290   0.371  1.5674 -1.1166 -0.8105
  691SOL    HW2 2973   3.419   5.203   0.509 -0.2660  0.7370  0.3239
  692SOL     OW 2974   4.904   6.822   0.374  0.0937  0.1549  0.1150
  692SOL    HW1 2975   4.922   6.763   0.452  0.7574  1.0639  0.6783
  692SOL    HW2 2976   4.947   6.911   0.390 -1.4989  1.0480 -0.3623
  693SOL     OW 2977   6.801   2.485   1.736 -0.5345 -0.2698 -0.0670
  693SOL    HW1 2978   6.730   2.527   1.680 -2.0933 -1.6190  0.8178
  693SOL    HW2 2979   6.889   2.530   1.718 -1.6232  1.5662 -1.0501
  694SOL     OW 2980   2.324   1.440   0.147  0.1950 -0.2836  0.7418
  694SOL    HW1 2981   2.333   1.492   0.062  2.9403 -3.8484 -1.4643
  694SOL    HW2 2982   2.230   1.407   0.156  0.1419 -1.0551 -1.8081
  695SOL     OW 2983   6.625   4.027   6.183 -0.2615  0.1635  0.3018
  695SOL    HW1 2984   6.544   4.005   6.129 -0.3659 -0.9499  0.8991
  695SOL    HW2 2985   6.600   4.094   6.253 -0.4230  0.6046 -0.1671
  696SOL     OW 2986   2.900   2.251   0.309  0.6197 -0.2383 -0.3459
  696SOL    HW1 2987   2.960   2.213   0.239  0.0537 -0.8865 -0.4807
  696SOL    HW2 2988   2.862   2.177   0.365 -0.2456  0.1453 -0.4136
  697SOL     OW 2989   4.745   6.502   4.770  0.3813 -0.1726  0.1960
  697SOL    HW1 2990   4.671   6.525   4.707  0.3839 -0.3950  0.1122
  697SOL    HW2 2991   4.717   6.426   4.829  0.9790 -1.0569 -0.6435
  698SOL     OW 2992   6.855   3.025   3.912 -0.3747  0.6139  0.5111
  698SOL    HW1 2993   6.851   3.116   3.952  1.1062  2.3165 -2.8411
  698SOL    HW2 2994   6.767   3.002   3.871 -0.5660  0.8240  0.8078
  699SOL     OW 2995   6.829   0.776   1.825 -0.6783 -0.0705  0.0206
  699SOL    HW1 2996   6.879   0.708   1.771  0.8437 -0.3648  1.7047
  699SOL    HW2 2997   6.777   0.730   1.897 -0.3573  0.4660  0.6121
  700SOL     OW 2998   0.368   6.865   5.346 -0.1576 -0.3387  0.5056
  700SOL    HW1 2999   0.307   6.786   5.347 -2.1964  1.1081 -0.4745
  700SOL    HW2 3000   0.382   6.896   5.252 -0.6482  1.2990  0.9238
  701SOL     OW 3001   4.370   6.409   3.395 -0.9060  0.0597 -0.2565
  701SOL    HW1 3002   4.322   6.331   3.355  0.4544 -0.0739 -1.7436
  701SOL    HW2 3003   4.379   6.480   3.326  1.2794 -0.0484 -0.1266
  702SOL     OW 3004   6.175   6.842   5.411 -0.2398 -0.1334 -0.1809
  702SOL    HW1 3005   6.258   6.874   5.456 -0.4875  1.9131 -1.0491
  702SOL    HW2 3006   6.101   6.835   5.478  0.0542  0.3517  0.2019
  703SOL     OW 3007   6.982   2.062   1.141  0.3821  0.0838 -0.1279
  703SOL    HW1 3008   7.042   1.989   1.173  0.3660  0.7949  1.6607
  703SOL    HW2 3009   6.890   2.049   1.178  0.3632  0.9460  0.1772
  704SOL     OW 3010   0.162   2.854   1.386 -0.3248  0.5345  0.0029
  704SOL    HW1 3011   0.237   2.847   1.320  0.2811  1.2047  0.5936
  704SOL    HW2 3012   0.106   2.772   1.382  0.6904 -0.1658 -0.1645
  705SOL     OW 3013   2.918   1.851   3.598 -0.9460 -0.3549 -0.0936
  705SOL    HW1 3014   2.859   1.799   3.537 -0.7905 -0.5646 -0.0650
  705SOL    HW2 3015   2.972   1.789   3.654 -0.8683 -0.1636  0.0459
  706SOL     OW 3016   1.524   0.833   4.557 -0.2802 -0.0032 -0.0207
  706SOL    HW1 3017   1.556   0.833   4.652 -0.0957 -1.6139 -0.0550
  706SOL    HW2 3018   1.532   0.741   4.519 -2.2569  0.1508 -0.9537
  707SOL     OW 3019   6.998   6.889   5.841 -0.0528  0.1835  0.5090
  707SOL    HW1 3020   7.095   6.910   5.833 -0.2384  0.5834 -0.9365
  707SOL    HW2 3021   6.945   6.956   5.790 -1.0204 -0.7107  0.3046
  708SOL     OW 3022   5.260   1.426   2.891 -0.1927 -0.3020  0.0408
  708SOL    HW1 3023   5.348   1.438   2.938 -0.1482 -0.1914 -0.0665
  708SOL    HW2 3024   5.214   1.344   2.925  0.3485 -0.8462 -0.5157
  709SOL     OW 3025   5.865   4.190   4.117 -0.4455 -0.5598 -0.2687
  709SOL    HW1 3026   5.947   4.242   4.092 -0.9171 -1.1698 -3.3635
  709SOL    HW2 3027   5.878   4.151   4.208  1.4832  1.7188  0.5564
  710SOL     OW 3028   5.852   5.819   2.797 -0.6131  0.2264 -0.6653
  710SOL    HW1 3029   5.812   5.783   2.882  0.6498 -1.6066 -0.7695
  710SOL    HW2 3030   5.931   5.876   2.819 -0.1255 -0.4602 -0.5695
  711SOL     OW 3031   0.080   6.221   1.622 -0.3738  0.2579 -0.3533
  711SOL    HW1 3032   0.163   6.165   1.633 -0.5733 -0.1522 -0.9549
  711SOL    HW2 3033   0.062   6.235   1.525 -1.9909 -1.1259 -0.2931
  712SOL     OW 3034   4.656   0.925   0.527 -0.3605 -0.0837  0.3450
  712SOL    HW1 3035   4.738   0.955   0.477 -0.6629 -1.1931 -0.8608
  712SOL    HW2 3036   4.683   0.893   0.619  0.6793 -1.0623 -0.2693
  713SOL     OW 3037   3.450   1.024   0.730  0.0379 -0.4011  0.3482
  713SOL    HW1 3038   3.491   1.033   0.820 -1.3182 -0.5365  0.9955
  713SOL    HW2 3039   3.505   0.961   0.675  0.5746 -0.7444  1.2574
  714SOL     OW 3040   0.842   2.678   4.079  0.5668  0.4419  0.8597
  714SOL    HW1 3041   0.885   2.590   4.101 -0.1209  0.2611  1.5315
  714SOL    HW2 3042   0.791   2.669   3.994  3.4863  1.2243 -1.1437
  715SOL     OW 3043   5.826   0.919   0.580 -0.1095  0.3100  0.1340
  715SOL    HW1 3044   5.909   0.912   0.634 -0.6498  0.5298  1.0163
  715SOL    HW2 3045   5.746   0.920   0.641 -0.7051  1.1361 -0.6271
  716SOL     OW 3046   4.141   6.961   2.514  0.1685 -0.2048 -0.0059
  716SOL    HW1 3047   4.151   6.889   2.582  3.0865  0.7833  0.7659
  716SOL    HW2 3048   4.132   6.920   2.423  3.4815 -1.6753  0.1925
  717SOL     OW 3049   0.789   1.566   2.668  0.4241  0.4383  0.7065
  717SOL    HW1 3050   0.858   1.502   2.634  0.5345  0.2214  1.3259
  717SOL    HW2 3051   0.834   1.643   2.713  0.3535  1.6862 -1.2238
  718SOL     OW 3052   2.705   6.824   3.885  0.4118  0.0655 -0.8325
  718SOL    HW1 3053   2.768   6.746   3.894  0.6675  0.4527  1.0017
  718SOL    HW2 3054   2.652   6.813   3.801  1.8307 -1.0655 -1.6351
  719SOL     OW 3055   6.224   4.659   1.214  0.1635 -0.0711  0.0142
  719SOL    HW1 3056   6.136   4.687   1.175 -0.2006  0.0530  0.9161
  719SOL    HW2 3057   6.237   4.702   1.303  1.6858  0.8852 -0.6089
  720SOL     OW 3058   3.699   2.128   2.854  0.6150  0.4621 -0.1725
  720SOL    HW1 3059   3.629   2.125   2.783 -1.1364  0.6634  1.4606
  720SOL    HW2 3060   3.656   2.116   2.944  2.9534 -1.6808  0.7721
  721SOL     OW 3061   5.538   1.679   1.358  0.3185  1.0190 -0.2841
  721SOL    HW1 3062   5.515   1.626   1.440  0.1336  1.1519 -0.2496
  721SOL    HW2 3063   5.579   1.619   1.290  1.6057  1.1329  0.3682
  722SOL     OW 3064   2.739   2.106   3.621  0.0256 -0.1464  0.1608
  722SOL    HW1 3065   2.824   2.055   3.606 -0.6840 -0.9913 -1.2352
  722SOL    HW2 3066   2.748   2.197   3.582  0.7030  0.2412  1.1519
  723SOL     OW 3067   6.944   4.171   4.641  0.1612  0.5186 -0.7505
  723SOL    HW1 3068   7.015   4.113   4.601 -0.1717 -0.0649 -0.5202
  723SOL    HW2 3069   6.905   4.124   4.720 -0.0528  1.1083 -0.5039
  724SOL     OW 3070   6.681   6.926   0.625  0.1689 -0.2560 -0.2518
  724SOL    HW1 3071   6.629   6.999   0.581  0.6845  0.5446  0.4378
  724SOL    HW2 3072   6.726   6.962   0.707 -1.3512 -1.8343  1.3931
  725SOL     OW 3073   0.079   0.602   2.543  0.5357 -0.9043  0.8443
  725SOL    HW1 3074   0.146   0.650   2.486  1.5649 -2.9460  0.2337
  725SOL    HW2 3075   0.011   0.667   2.577  1.6768  0.8920 -0.1699
  726SOL     OW 3076   1.612   5.943   4.194 -0.1902 -0.0517 -1.0747
  726SOL    HW1 3077   1.539   5.976   4.254  1.3326 -1.9879  2.1391
  726SOL    HW2 3078   1.697   5.989   4.218  0.2556  0.0245 -2.7072
  727SOL     OW 3079   4.299   6.943   5.815 -0.6771 -0.0809 -0.2921
  727SOL    HW1 3080   4.216   6.937   5.871  0.4877  1.7322  1.7637
  727SOL    HW2 3081   4.286   7.012   5.744 -1.7894 -1.6582 -1.7165
  728SOL     OW 3082   3.154   0.034   3.339 -0.4886 -0.5830  0.0867
  728SOL    HW1 3083   3.159  -0.023   3.257  0.9052  1.5706 -1.4202
  728SOL    HW2 3084   3.156  -0.025   3.420 -0.6000 -2.7171 -1.3637
  729SOL     OW 3085   6.120   1.590   5.553 -0.7126 -0.2517  0.1884
  729SOL    HW1 3086   6.074   1.677   5.536 -1.9629 -0.6583  1.3222
  729SOL    HW2 3087   6.052   1.520   5.573  0.3285 -1.2828  0.2247
  730SOL     OW 3088   6.277   0.952   6.249 -0.3222 -0.2277  0.1864
  730SOL    HW1 3089   6.364   0.984   6.286  0.3186 -0.4021 -1.1085
  730SOL    HW2 3090   6.284   0.854   6.229  0.0455  0.2054 -2.1426
  731SOL     OW 3091   6.785   1.809   1.211  0.2970  0.3774 -0.5196
  731SOL    HW1 3092   6.696   1.787   1.172  0.2829 -3.5833  1.2645
  731SOL    HW2 3093   6.857   1.768   1.155  0.8187  1.2951 -0.5308
  732SOL     OW 3094   6.572   6.303   1.190 -0.5649 -0.6519  0.5738
  732SOL    HW1 3095   6.587   6.292   1.091  0.9129 -0.0757  0.7044
  732SOL    HW2 3096   6.475   6.320   1.207 -0.9122 -1.2000 -0.7352
  733SOL     OW 3097   3.960   6.704   5.558 -0.1173 -0.1264  0.2556
  733SOL    HW1 3098   4.059   6.721   5.564  0.3146 -2.0999 -0.5041
  733SOL    HW2 3099   3.925   6.684   5.650 -0.2676  2.5342  0.8553
  734SOL     OW 3100   1.512   0.455   4.897  0.0206 -0.2018 -0.2434
  734SOL    HW1 3101   1.568   0.432   4.818  0.2731 -0.2010 -0.0632
  734SOL    HW2 3102   1.570   0.472   4.976 -0.2193  0.0278 -0.1142
  735SOL     OW 3103   2.957   2.150   6.135 -0.1441  0.3180 -0.2251
  735SOL    HW1 3104   2.869   2.111   6.163  0.4143 -1.7200 -1.1469
  735SOL    HW2 3105   3.018   2.155   6.214 -0.5364  0.2520  0.0900
  736SOL     OW 3106   6.625   0.044   5.555  0.6223 -0.2116 -0.4988
  736SOL    HW1 3107   6.587   0.117   5.498  0.9598  1.3365  1.1803
  736SOL    HW2 3108   6.568  -0.038   5.547 -0.8186  0.8032 -1.0160
  737SOL     OW 3109   1.825   6.219   5.117  0.2368  0.2736 -0.6573
  737SOL    HW1 3110   1.792   6.131   5.153  0.1431  1.1127  1.4387
  737SOL    HW2 3111   1.802   6.225   5.019 -0.0083 -1.8895 -0.7997
  738SOL     OW 3112   3.322   4.322   1.652 -0.0092 -0.1803  0.0321
  738SOL    HW1 3113   3.391   4.253   1.629 -0.0918  0.0725 -1.0292
  738SOL    HW2 3114   3.233   4.278   1.664  0.1430 -0.3862  0.3937
  739SOL     OW 3115   0.239   3.620   0.294 -0.5283  0.3815 -0.1587
  739SOL    HW1 3116   0.286   3.684   0.356  0.1054  0.2263 -0.4647
  739SOL    HW2 3117   0.304   3.587   0.225 -0.8426 -0.6183  0.0083
  740SOL     OW 3118   1.602   0.564   0.711 -0.2336  0.1144  0.3432
  740SOL    HW1 3119   1.668   0.551   0.786 -0.2458  0.6772  0.4566
  740SOL    HW2 3120   1.641   0.628   0.644 -0.4589  0.0557  0.1575
  741SOL     OW 3121   2.772   6.325   4.857  0.0539  0.0659  0.3702
  741SOL    HW1 3122   2.767   6.252   4.788 -0.5967  1.6634 -1.3752
  741SOL    HW2 3123   2.863   6.327   4.897  0.1822 -1.4728  0.2436
  742SOL     OW 3124   0.118   0.975   5.407 -0.5960 -0.2849 -0.2493
  742SOL    HW1 3125   0.058   1.009   5.479  0.6486  2.9703 -0.5837
  742SOL    HW2 3126   0.213   0.981   5.437 -0.1070  0.3397 -1.8124
  743SOL     OW 3127   6.560   0.777   6.325  0.1925  1.0324 -0.1832
  743SOL    HW1 3128   6.612   0.773   6.410  0.4238 -0.9301 -0.3714
  743SOL    HW2 3129   6.619   0.749   6.249 -0.6123  0.6047 -0.6630
  744SOL     OW 3130   5.076   2.816   6.278  0.0742 -0.0974  0.3414
  744SOL    HW1 3131   5.119   2.870   6.206 -0.4727  0.4043  0.3859
  744SOL    HW2 3132   5.146   2.790   6.345  0.4482  0.0659  0.0228
  745SOL     OW 3133   5.656   0.669   6.288  0.4655  0.3170 -0.2136
  745SOL    HW1 3134   5.696   0.747   6.336  1.5873 -0.5066  0.2398
  745SOL    HW2 3135   5.610   0.700   6.206  1.8846  1.3549 -0.6611
  746SOL     OW 3136   6.401   1.313   4.079 -0.4496  0.1667  1.0543
  746SOL    HW1 3137   6.336   1.360   4.139 -0.8555  1.0093 -0.0007
  746SOL    HW2 3138   6.369   1.220   4.061 -0.9983  0.3349  1.1264
  747SOL     OW 3139   1.494   1.552   6.064  0.5843  0.8266 -0.2495
  747SOL    HW1 3140   1.571   1.569   6.126 -0.1447 -1.2697  1.3652
  747SOL    HW2 3141   1.457   1.460   6.082 -1.6816  1.3974 -1.6409
  748SOL     OW 3142   1.500   4.763   0.480  0.5227 -0.0708 -0.2300
  748SOL    HW1 3143   1.564   4.711   0.537  1.9277  1.0480 -0.7073
  748SOL    HW2 3144   1.510   4.861   0.500 -1.4718  0.1108  0.0708
  749SOL     OW 3145   4.021   5.535   0.574  0.0867  0.0238 -0.4199
  749SOL    HW1 3146   4.016   5.535   0.674  1.0100  0.3823 -0.3704
  749SOL    HW2 3147   3.948   5.592   0.537 -1.3344 -1.4467 -0.0274
  750SOL     OW 3148   2.415   5.977   6.518 -0.4071  0.1592  0.1996
  750SOL    HW1 3149   2.404   6.073   6.547 -2.9438 -0.3772  1.3149
  750SOL    HW2 3150   2.367   5.963   6.432  3.0327  0.6194 -1.9635
  751SOL     OW 3151   3.500   6.777   1.838  0.3004 -0.2013  0.5029
  751SOL    HW1 3152   3.462   6.695   1.881 -0.6182  0.0083  0.1212
  751SOL    HW2 3153   3.455   6.858   1.875  2.2151  0.2829  1.9544
  752SOL     OW 3154   6.660   2.327   3.551 -0.0805 -0.0827 -0.0704
  752SOL    HW1 3155   6.677   2.287   3.461  1.9415 -2.4311  1.2278
  752SOL    HW2 3156   6.708   2.414   3.558 -0.1967  0.0906 -1.2200
  753SOL     OW 3157   4.427   4.718   5.705  0.2618 -0.6479  0.1550
  753SOL    HW1 3158   4.329   4.736   5.709  0.1288 -1.5440  1.6647
  753SOL    HW2 3159   4.463   4.746   5.615 -1.0965  0.9257  0.0677
  754SOL     OW 3160   3.398   4.979   5.186  0.4006 -0.3971  0.1125
  754SOL    HW1 3161   3.333   4.947   5.117  1.2082 -1.9081  0.0253
  754SOL    HW2 3162   3.491   4.967   5.152  0.7665  0.8903  0.6055
  755SOL     OW 3163   5.294   2.038   3.843 -0.1133 -0.2595  0.3722
  755SOL    HW1 3164   5.376   2.058   3.789 -0.7203 -0.4244 -0.6423
  755SOL    HW2 3165   5.320   1.994   3.929  0.8550 -0.2865  0.0777
  756SOL     OW 3166   0.348   0.150   4.730  0.2552 -0.2892 -0.5991
  756SOL    HW1 3167   0.416   0.085   4.697 -1.6046 -1.3328 -2.6693
  756SOL    HW2 3168   0.329   0.218   4.659 -0.4984  0.2923  0.1332
  757SOL     OW 3169   4.018   5.728   4.937  0.4002  0.1955  0.6039
  757SOL    HW1 3170   4.087   5.776   4.883 -1.6271  1.4344 -1.0307
  757SOL    HW2 3171   3.997   5.781   5.019  0.8488  0.1575  0.7503
  758SOL     OW 3172   6.275   2.031   4.094  0.1599 -0.3569 -0.2897
  758SOL    HW1 3173   6.216   2.101   4.054 -0.9860 -1.4896 -0.6565
  758SOL    HW2 3174   6.233   1.996   4.178 -1.0082 -2.8887 -1.8228
  759SOL     OW 3175   6.665   1.986   5.077  0.0075  0.1487 -0.4331
  759SOL    HW1 3176   6.574   2.021   5.056 -1.1706 -1.6695  1.1897
  759SOL    HW2 3177   6.664   1.944   5.168  2.7094  0.7726 -0.0186
  760SOL     OW 3178   5.565   2.892   6.313  0.1823 -0.1394 -0.4758
  760SOL    HW1 3179   5.484   2.871   6.258  0.9590  0.4614 -1.8997
  760SOL    HW2 3180   5.607   2.807   6.344  1.1794 -0.6805 -3.0271
  761SOL     OW 3181   2.712   2.347   4.436 -0.1293 -0.0682 -0.2795
  761SOL    HW1 3182   2.759   2.335   4.348  3.2550  1.3102  1.1534
  761SOL    HW2 3183   2.751   2.284   4.503  0.3391  1.6793  1.1778
  762SOL     OW 3184   0.078   3.629   1.139 -0.3227 -0.2687 -0.3934
  762SOL    HW1 3185   0.160   3.654   1.190 -0.9415 -1.9139  1.5166
  762SOL    HW2 3186   0.103   3.611   1.044  1.1510  1.1723 -0.3409
  763SOL     OW 3187   2.656   5.528   0.213 -0.2794 -0.1760 -0.0548
  763SOL    HW1 3188   2.743   5.564   0.180 -0.0847 -1.4204 -0.9535
  763SOL    HW2 3189   2.673   5.454   0.278 -0.6784  0.2682  0.5719
  764SOL     OW 3190   6.259   0.941   3.444 -0.5150 -0.4570  0.6979
  764SOL    HW1 3191   6.232   0.850   3.478 -2.4328  0.9797  3.4243
  764SOL    HW2 3192   6.357   0.942   3.428 -0.3589 -2.8876  0.9941
  765SOL     OW 3193   0.106   5.151   0.162 -0.5043  0.1331 -0.1929
  765SOL    HW1 3194   0.031   5.110   0.213 -2.7518  1.5271 -2.1289
  765SOL    HW2 3195   0.149   5.223   0.217  1.1136 -2.2296  1.8377
  766SOL     OW 3196   3.679   5.627   4.497 -0.5066  0.0606  0.1609
  766SOL    HW1 3197   3.757   5.572   4.528 -1.0127  0.0868  1.5693
  766SOL    HW2 3198   3.595   5.586   4.532 -0.9626  1.2183  0.4660
  767SOL     OW 3199   1.578   4.432   3.499 -0.2787  0.4629 -0.2916
  767SOL    HW1 3200   1.529   4.380   3.569  0.6331 -1.4347 -0.9904
  767SOL    HW2 3201   1.516   4.455   3.424 -0.8973  1.1916  0.4229
  768SOL     OW 3202   5.671   3.557   6.925  0.2951  1.0046  0.2945
  768SOL    HW1 3203   5.616   3.539   6.844 -0.4039  0.2508  0.9176
  768SOL    HW2 3204   5.629   3.514   7.005  1.2709  1.2415  0.9656
  769SOL     OW 3205   0.268   1.753   0.143  0.2045  0.3615 -0.3507
  769SOL    HW1 3206   0.266   1.653   0.139  1.5017  0.2238  1.3410
  769SOL    HW2 3207   0.193   1.785   0.202  0.6089  0.2813  0.2157
  770SOL     OW 3208   1.747   6.399   5.313  0.0410 -0.0632 -0.6017
  770SOL    HW1 3209   1.714   6.492   5.293  0.8953  0.0643 -1.4935
  770SOL    HW2 3210   1.782   6.357   5.230  0.0320 -1.0495 -0.1254
  771SOL     OW 3211   4.806   0.578   6.999  0.3404  0.0250 -0.6028
  771SOL    HW1 3212   4.827   0.482   7.017 -0.7315 -0.4214 -1.6597
  771SOL    HW2 3213   4.714   0.599   7.032 -0.6956 -0.1745 -3.1681
  772SOL     OW 3214   3.341   1.224   6.565  0.2184  0.1239  0.2961
  772SOL    HW1 3215   3.266   1.159   6.554 -0.8823  0.9320  2.4109
  772SOL    HW2 3216   3.322   1.283   6.643  2.2723  1.4975 -0.1706
  773SOL     OW 3217   3.220   1.386   5.436 -0.1133 -0.1196  0.3846
  773SOL    HW1 3218   3.258   1.467   5.392  1.5355  0.0010  1.8920
  773SOL    HW2 3219   3.201   1.406   5.532 -2.6290 -0.6630  0.0735
  774SOL     OW 3220   0.967   6.180   6.515  0.2378 -0.2658  0.1172
  774SOL    HW1 3221   0.935   6.268   6.551 -2.9049 -1.0732 -0.3563
  774SOL    HW2 3222   0.984   6.187   6.417  1.3847  0.1076  0.3270
  775SOL     OW 3223   2.761   5.669   1.645  0.3096  0.1654 -0.4812
  775SOL    HW1 3224   2.792   5.582   1.684  1.0391 -0.3693 -2.1511
  775SOL    HW2 3225   2.683   5.703   1.697 -0.8939 -2.2012 -0.6033
  776SOL     OW 3226   5.380   2.690   0.420  0.0789  0.4355 -0.4144
  776SOL    HW1 3227   5.465   2.668   0.468 -0.6773  0.7624  1.1312
  776SOL    HW2 3228   5.361   2.619   0.351  0.4801 -0.8411  0.7407
  777SOL     OW 3229   6.932   2.679   3.317  0.2844  0.0921  0.3385
  777SOL    HW1 3230   6.932   2.748   3.244  0.3064  1.1834  1.3356
  777SOL    HW2 3231   6.944   2.588   3.277 -1.6059  0.4462 -1.2053
  778SOL     OW 3232   2.946   1.036   5.728  0.9294 -0.5493  0.1156
  778SOL    HW1 3233   2.878   0.964   5.726  0.0424  0.2701 -0.9951
  778SOL    HW2 3234   2.997   1.036   5.642  0.0642  0.8963 -0.4336
  779SOL     OW 3235   4.627   1.488   4.008  0.1430  0.0634  0.4770
  779SOL    HW1 3236   4.592   1.435   3.930 -0.0909  2.1004 -0.8804
  779SOL    HW2 3237   4.561   1.485   4.083  1.0572 -3.2422  1.3319
  780SOL     OW 3238   3.014   6.125   6.938  0.0072 -0.1876  0.2070
  780SOL    HW1 3239   3.093   6.083   6.893  0.6428  1.4013 -0.2267
  780SOL    HW2 3240   3.021   6.112   7.037  0.5725 -0.4571  0.1363
  781SOL     OW 3241   4.250   3.347   1.025 -0.2984 -0.3863  0.1047
  781SOL    HW1 3242   4.165   3.296   1.037 -0.7673  0.4170  0.2545
  781SOL    HW2 3243   4.238   3.413   0.951  0.8076 -1.5413 -1.1743
  782SOL     OW 3244   3.688   0.211   5.444  0.1777 -0.1037 -0.5285
  782SOL    HW1 3245   3.699   0.138   5.512  0.9482 -0.5582 -1.1114
  782SOL    HW2 3246   3.773   0.218   5.390  0.0495  1.1292 -0.5761
  783SOL     OW 3247   3.515   0.403   2.283 -0.4119 -0.3313  0.8125
  783SOL    HW1 3248   3.440   0.448   2.234 -0.4131 -1.3480 -0.1576
  783SOL    HW2 3249   3.589   0.469   2.299 -0.9944  0.3657  0.6801
  784SOL     OW 3250   4.357   1.644   3.674  0.1476  0.4875  0.4411
  784SOL    HW1 3251   4.360   1.575   3.602 -0.7215  0.3926  0.4781
  784SOL    HW2 3252   4.407   1.612   3.754 -0.2213 -0.0858  0.4450
  785SOL     OW 3253   6.381   0.643   0.954 -0.3353 -0.3305  0.3877
  785SOL    HW1 3254   6.284   0.621   0.968 -1.0611  1.9756 -0.5925
  785SOL    HW2 3255   6.417   0.687   1.036  0.3382 -2.3903  1.2766
  786SOL     OW 3256   1.205   2.038   4.016 -0.0192 -0.3838  0.0449
  786SOL    HW1 3257   1.237   1.963   4.074  1.2537 -1.0674 -1.4686
  786SOL    HW2 3258   1.127   2.007   3.961 -1.1040  0.2067  1.1945
  787SOL     OW 3259   6.216   3.932   1.754  0.0775 -0.5160 -0.4509
  787SOL    HW1 3260   6.244   3.850   1.805  0.7678  0.1229  0.2194
  787SOL    HW2 3261   6.120   3.952   1.773 -0.1994 -1.3691 -0.9009
  788SOL     OW 3262   4.306   1.758   3.223  0.0567 -0.1807  0.4570
  788SOL    HW1 3263   4.362   1.794   3.297  3.3639  1.6059 -2.5914
  788SOL    HW2 3264   4.297   1.827   3.151 -3.0717 -1.7662 -0.8879
  789SOL     OW 3265   2.063   6.274   6.900 -0.2715  0.2169  0.4378
  789SOL    HW1 3266   2.023   6.305   6.814 -2.8695 -1.6532  0.8546
  789SOL    HW2 3267   2.026   6.326   6.976 -1.4327 -1.0101  0.7575
  790SOL     OW 3268   4.770   1.937   0.988  0.1130  0.0569 -0.0292
  790SOL    HW1 3269   4.684   1.896   0.960 -0.5361  0.9623  0.5943
  790SOL    HW2 3270   4.846   1.887   0.947 -0.7411  1.4008 -3.6472
  791SOL     OW 3271   3.262   0.500   6.378  0.0702  0.0565  0.1191
  791SOL    HW1 3272   3.271   0.400   6.383  0.8145  0.0945 -0.3357
  791SOL    HW2 3273   3.301   0.541   6.460 -0.5536 -0.0401  0.4683
  792SOL     OW 3274   2.298   1.735   2.770  0.5055 -0.0621 -0.3723
  792SOL    HW1 3275   2.314   1.640   2.743 -1.8080 -0.3148 -1.0901
  792SOL    HW2 3276   2.246   1.737   2.856  0.6794  0.5639 -0.2741
  793SOL     OW 3277   6.891   4.677   4.403  0.2540 -0.4246  0.0669
  793SOL    HW1 3278   6.942   4.721   4.328 -0.8433 -1.2881 -1.2468
  793SOL    HW2 3279   6.894   4.578   4.392 -1.5646 -0.5107  0.0042
  794SOL     OW 3280   2.187   2.661   5.805  0.2659  0.0353  0.7507
  794SOL    HW1 3281   2.193   2.689   5.901  4.0981  0.5457  0.5122
  794SOL    HW2 3282   2.229   2.571   5.794  1.1165  0.5693 -0.6070
  795SOL     OW 3283   6.261   0.276   4.135  0.1110  0.0294 -0.2761
  795SOL    HW1 3284   6.308   0.339   4.196 -0.0846  1.9569 -1.9928
  795SOL    HW2 3285   6.166   0.263   4.165  0.1596  0.5539  0.1031
  796SOL     OW 3286   5.049   1.852   4.932  0.2075  0.0318  0.0310
  796SOL    HW1 3287   4.994   1.802   4.999  1.9530 -2.6036 -0.3181
  796SOL    HW2 3288   5.055   1.948   4.958 -2.1647 -0.1532  1.5753
  797SOL     OW 3289   1.147   4.379   3.604  0.4396 -0.7370  0.1937
  797SOL    HW1 3290   1.191   4.468   3.609  0.2430 -0.5369 -1.1837
  797SOL    HW2 3291   1.216   4.309   3.586  0.5807 -0.8540  1.1697
  798SOL     OW 3292   2.496   2.442   2.631 -0.6547 -0.2132 -0.1723
  798SOL    HW1 3293   2.586   2.424   2.671 -0.6948 -1.6956 -0.6892
  798SOL    HW2 3294   2.506   2.462   2.533 -0.7662  1.0461  0.0673
  799SOL     OW 3295   1.228   6.997   1.636 -0.6312  0.6377  0.0380
  799SOL    HW1 3296   1.304   7.031   1.691  0.7988  0.1121 -1.5212
  799SOL    HW2 3297   1.145   6.993   1.692  0.5333  0.9781  1.8656
  800SOL     OW 3298   1.549   5.548   3.323 -0.1885  0.3031  0.7138
  800SOL    HW1 3299   1.569   5.480   3.394 -0.5124 -0.3046  0.2371
  800SOL    HW2 3300   1.590   5.635   3.348 -3.5596  1.2719  3.6813
  801SOL     OW 3301   6.827   0.342   1.694 -0.3030 -0.2999  0.1918
  801SOL    HW1 3302   6.892   0.280   1.650 -1.3419 -0.9494 -0.4477
  801SOL    HW2 3303   6.734   0.321   1.663 -0.8918  0.2342  1.5392
  802SOL     OW 3304   2.666   3.836   5.496 -0.2547 -0.3148 -0.2471
  802SOL    HW1 3305   2.634   3.832   5.590 -2.1529 -0.3840 -0.8551
  802SOL    HW2 3306   2.680   3.931   5.469  2.5658 -0.3523  0.7658
  803SOL     OW 3307   4.067   3.263   4.650 -0.3784  0.2705  0.0527
  803SOL    HW1 3308   4.114   3.278   4.563 -0.8428 -0.7096 -0.3765
  803SOL    HW2 3309   4.025   3.172   4.650 -0.5297  0.3317  1.2347
  804SOL     OW 3310   6.696   5.588   3.699  0.3804  0.4061  0.1254
  804SOL    HW1 3311   6.630   5.587   3.774  2.0802 -0.3482  1.6784
  804SOL    HW2 3312   6.661   5.533   3.623 -2.2413  2.7297 -0.5221
  805SOL     OW 3313   6.504   1.903   1.696  0.1486  0.2614  0.6565
  805SOL    HW1 3314   6.539   1.868   1.609  1.4360 -0.3813  1.4036
  805SOL    HW2 3315   6.425   1.849   1.725  0.3826 -0.2107  0.4167
  806SOL     OW 3316   4.133   3.618   6.589  0.0190  0.2259  0.6551
  806SOL    HW1 3317   4.208   3.642   6.527 -0.9718  1.6606 -0.0361
  806SOL    HW2 3318   4.062   3.570   6.537 -1.0861  1.9588  0.4803
  807SOL     OW 3319   0.342   0.775   2.991  0.2469 -0.7234 -0.4081
  807SOL    HW1 3320   0.345   0.709   2.916  0.5551 -0.7250 -0.3972
  807SOL    HW2 3321   0.355   0.867   2.955 -0.2600 -0.6573 -0.4324
  808SOL     OW 3322   3.900   3.685   3.786  0.3421 -0.2604 -0.2835
  808SOL    HW1 3323   3.880   3.590   3.764  3.2860 -0.9897 -0.2940
  808SOL    HW2 3324   3.935   3.691   3.880  1.5910  0.5211 -0.7587
  809SOL     OW 3325   0.724   3.920   4.095  0.0223  0.0692 -0.2080
  809SOL    HW1 3326   0.636   3.897   4.053  0.0294  0.0461 -0.2098
  809SOL    HW2 3327   0.734   4.020   4.095 -0.8018  0.1852  1.3913
  810SOL     OW 3328   1.027   4.880   0.799  0.5289 -0.1460  0.0030
  810SOL    HW1 3329   1.122   4.850   0.805  0.8732  0.9221 -0.0469
  810SOL    HW2 3330   0.971   4.805   0.761  1.4283 -0.5889 -0.4729
  811SOL     OW 3331   2.828   0.103   0.731  0.6665  0.7773  0.4569
  811SOL    HW1 3332   2.808   0.190   0.685  0.2550 -0.1475 -1.1816
  811SOL    HW2 3333   2.748   0.074   0.783 -0.6953 -0.5117 -2.1737
  812SOL     OW 3334   1.621   2.071   6.671  0.1651 -0.2901  0.7514
  812SOL    HW1 3335   1.591   2.088   6.577  1.3317 -0.8596  0.2452
  812SOL    HW2 3336   1.590   1.981   6.700 -1.7092  0.5837  1.5851
  813SOL     OW 3337   4.827   4.576   3.582 -0.4827 -0.0159  0.4063
  813SOL    HW1 3338   4.831   4.480   3.609  0.9357 -0.3065 -0.7121
  813SOL    HW2 3339   4.907   4.624   3.617  0.2893  0.0804 -1.3679
  814SOL     OW 3340   3.892   0.042   4.110 -0.1291 -0.4326  0.0528
  814SOL    HW1 3341   3.937  -0.033   4.158  1.4576 -0.0966 -0.8388
  814SOL    HW2 3342   3.894   0.025   4.012  2.4570  1.7922 -0.4163
  815SOL     OW 3343   4.357   5.208   3.395  0.1862  0.1212  0.3080
  815SOL    HW1 3344   4.364   5.302   3.431  1.1270 -0.3595  1.4567
  815SOL    HW2 3345   4.432   5.192   3.332  1.0477 -0.3755  1.4195
  816SOL     OW 3346   4.069   6.025   2.667 -0.0609 -0.8476  0.7422
  816SOL    HW1 3347   4.058   6.033   2.568  1.1195  1.5224  0.7174
  816SOL    HW2 3348   4.116   6.107   2.702  0.8285 -2.2598  3.0815
  817SOL     OW 3349   6.595   4.026   2.784  0.5202 -0.2481 -0.1150
  817SOL    HW1 3350   6.653   4.069   2.715  0.6627 -0.1909  0.0389
  817SOL    HW2 3351   6.580   3.930   2.760 -0.3189  0.0404 -0.7894
  818SOL     OW 3352   6.611   6.991   2.382  0.4736 -0.0285  0.6721
  818SOL    HW1 3353   6.669   6.913   2.355 -0.7396 -0.3343 -1.2865
  818SOL    HW2 3354   6.529   6.957   2.428 -0.8775 -0.1526 -1.6586
  819SOL     OW 3355   6.499   6.454   4.861  0.3096  0.1754 -0.2795
  819SOL    HW1 3356   6.431   6.506   4.914  3.2161  3.1214  0.9234
  819SOL    HW2 3357   6.487   6.356   4.877 -2.2605  0.6903  1.5524
  820SOL     OW 3358   5.075   1.225   3.793 -0.1829  0.2778 -0.5606
  820SOL    HW1 3359   5.171   1.197   3.787  0.0224  0.9544 -0.4668
  820SOL    HW2 3360   5.067   1.322   3.770 -0.5592  0.7577  1.4133
  821SOL     OW 3361   0.162   5.707   3.346  0.9503  0.0721  0.1956
  821SOL    HW1 3362   0.079   5.684   3.398  0.3348  0.5511 -0.5500
  821SOL    HW2 3363   0.173   5.807   3.345  3.3808 -0.0018  3.0886
  822SOL     OW 3364   4.784   5.127   3.689 -0.1990 -0.0770  0.5042
  822SOL    HW1 3365   4.734   5.196   3.743  0.8813  1.4792 -0.4122
  822SOL    HW2 3366   4.733   5.107   3.606 -1.2488 -1.5540  1.4443
  823SOL     OW 3367   3.934   1.361   5.960  0.0044 -0.5487 -0.4092
  823SOL    HW1 3368   3.946   1.326   5.867  0.3034 -0.0019 -0.5759
  823SOL    HW2 3369   4.000   1.433   5.978 -0.0423 -0.6595  0.2368
  824SOL     OW 3370   4.610   2.810   1.746  0.5928 -0.1914 -0.3875
  824SOL    HW1 3371   4.708   2.792   1.750  0.6792 -0.1831 -1.8433
  824SOL    HW2 3372   4.592   2.905   1.771  1.2185  0.4440 -2.1587
  825SOL     OW 3373   5.151   3.780   3.724 -0.5414  0.0531 -0.3678
  825SOL    HW1 3374   5.206   3.722   3.664 -0.7489  1.5605 -2.1207
  825SOL    HW2 3375   5.206   3.807   3.803  1.7433  2.2203 -2.4662
  826SOL     OW 3376   3.984   2.209   5.169 -0.4376  0.6707 -0.0343
  826SOL    HW1 3377   3.934   2.180   5.087  0.6807 -1.3218 -0.0843
  826SOL    HW2 3378   4.046   2.284   5.145  0.0954 -0.0767 -1.1326
  827SOL     OW 3379   4.621   5.200   0.929 -0.7378 -0.0785  0.2946
  827SOL    HW1 3380   4.536   5.215   0.879  0.3430 -1.0522 -2.0063
  827SOL    HW2 3381   4.623   5.107   0.966 -0.3491 -0.3501 -0.3908
  828SOL     OW 3382   0.478   1.918   0.607  0.2780  0.0055  0.0646
  828SOL    HW1 3383   0.395   1.951   0.561  1.2926 -0.2268 -2.0439
  828SOL    HW2 3384   0.493   1.822   0.584  1.2158  0.0893  0.2841
  829SOL     OW 3385   6.155   1.112   5.210  0.2308  0.6222 -0.1079
  829SOL    HW1 3386   6.179   1.208   5.192 -0.5247  0.9446  0.5601
  829SOL    HW2 3387   6.081   1.108   5.278  0.0475 -0.4254 -0.3540
  830SOL     OW 3388   5.651   0.959   1.151  0.8585 -0.2527 -0.0810
  830SOL    HW1 3389   5.568   0.904   1.159  0.2297  0.5159 -1.0184
  830SOL    HW2 3390   5.721   0.924   1.213 -0.9125  0.4508  2.4568
  831SOL     OW 3391   5.554   0.425   4.997  0.1917 -0.3431 -0.2512
  831SOL    HW1 3392   5.539   0.345   5.055  0.4356 -1.3434 -1.5157
  831SOL    HW2 3393   5.648   0.423   4.962  0.8577  1.5742  1.2382
  832SOL     OW 3394   3.702   0.374   1.212 -0.3105 -0.5020  0.3245
  832SOL    HW1 3395   3.647   0.418   1.142 -0.4687 -0.6404  0.3607
  832SOL    HW2 3396   3.735   0.442   1.277  0.7353 -0.2103 -0.4803
  833SOL     OW 3397   0.606   1.330   2.080  0.3938 -0.2673 -0.3501
  833SOL    HW1 3398   0.536   1.330   2.152 -0.6187  0.3495 -1.3086
  833SOL    HW2 3399   0.662   1.412   2.089  0.3653 -0.2651 -0.1823
  834SOL     OW 3400   4.722   2.307   5.239  0.3762  0.3110  0.0946
  834SOL    HW1 3401   4.654   2.272   5.174  0.8901  1.6019 -1.2110
  834SOL    HW2 3402   4.685   2.386   5.287  0.8735  0.9450 -0.5335
  835SOL     OW 3403   5.965   5.582   5.346 -0.1044 -0.0266 -0.5314
  835SOL    HW1 3404   5.959   5.605   5.249  0.1614 -0.0594 -0.5554
  835SOL    HW2 3405   5.882   5.533   5.374  0.3292 -1.0494 -1.0124
  836SOL     OW 3406   6.394   4.848   3.460 -0.9492 -0.3121  0.0560
  836SOL    HW1 3407   6.481   4.885   3.493 -1.5550  1.1023  0.1306
  836SOL    HW2 3408   6.322   4.868   3.527 -1.2070 -2.2847  0.4499
  837SOL     OW 3409   1.406   4.257   1.696  0.0327 -0.0096 -0.0342
  837SOL    HW1 3410   1.374   4.261   1.791  1.1084  0.6619  0.3235
  837SOL    HW2 3411   1.437   4.348   1.668 -1.0523 -0.0172 -1.3232
  838SOL     OW 3412   2.177   2.435   2.030  0.1404  0.2162  0.2843
  838SOL    HW1 3413   2.086   2.474   2.023  0.5376  1.4454  1.5296
  838SOL    HW2 3414   2.170   2.338   2.053 -0.8401 -0.2522 -1.7694
  839SOL     OW 3415   2.064   6.910   6.094 -0.1539  0.6336 -0.4201
  839SOL    HW1 3416   1.986   6.865   6.052  1.2778 -2.2735 -0.2120
  839SOL    HW2 3417   2.085   6.866   6.181  0.8142  2.3628  0.2768
  840SOL     OW 3418   4.063   4.843   4.384  0.1111  0.1955  0.2619
  840SOL    HW1 3419   4.075   4.856   4.482  1.1121  2.7054 -0.1017
  840SOL    HW2 3420   4.086   4.749   4.359 -1.7930 -0.9810  2.6053
  841SOL     OW 3421   6.703   0.835   3.783  0.6575  0.1896  0.2905
  841SOL    HW1 3422   6.652   0.754   3.811  0.6852  0.3180  0.7217
  841SOL    HW2 3423   6.801   0.815   3.782  0.5426 -0.6576 -2.4654
  842SOL     OW 3424   6.379   0.005   0.075 -0.4961  0.2069  0.9309
  842SOL    HW1 3425   6.367  -0.069   0.008 -1.7790  2.4871 -1.5265
  842SOL    HW2 3426   6.475   0.032   0.076 -0.1912 -0.8333  1.1428
  843SOL     OW 3427   1.493   4.501   6.045 -0.1445  0.0215  0.9054
  843SOL    HW1 3428   1.467   4.533   6.135  0.7709  1.5265  0.6678
  843SOL    HW2 3429   1.427   4.532   5.977  0.1350  0.4496  0.8256
  844SOL     OW 3430   1.485   1.853   2.564  1.0934 -0.1553  0.2505
  844SOL    HW1 3431   1.493   1.889   2.471  1.2315 -1.3824 -0.2356
  844SOL    HW2 3432   1.575   1.852   2.607  0.8712  1.4203  0.8153
  845SOL     OW 3433   5.523   0.397   6.075 -0.5700  0.5541 -0.5271
  845SOL    HW1 3434   5.464   0.412   6.154 -1.2068 -1.5447 -0.5478
  845SOL    HW2 3435   5.544   0.300   6.067  2.0697  1.0993 -1.1413
  846SOL     OW 3436   1.702   4.495   5.848 -0.8351  0.2037 -0.4830
  846SOL    HW1 3437   1.731   4.400   5.841  1.4734  0.8284 -0.4340
  846SOL    HW2 3438   1.681   4.517   5.944 -0.8665 -0.1302 -0.4133
  847SOL     OW 3439   0.453   0.711   2.022 -0.1620 -0.5144  0.0684
  847SOL    HW1 3440   0.445   0.715   1.923  0.7867 -0.5496 -0.0154
  847SOL    HW2 3441   0.549   0.719   2.049 -0.5696  2.0011  1.0937
  848SOL     OW 3442   6.277   5.451   2.230 -0.3334 -0.0640 -0.0991
  848SOL    HW1 3443   6.261   5.357   2.200 -1.2469  0.0860 -0.0942
  848SOL    HW2 3444   6.262   5.514   2.154  3.0224 -0.0706 -0.9320
  849SOL     OW 3445   1.242   5.378   5.951 -0.1392  0.1306  0.3577
  849SOL    HW1 3446   1.217   5.394   6.047  0.2933 -0.3433  0.5510
  849SOL    HW2 3447   1.339   5.399   5.939 -0.1245 -0.1065  0.0885
  850SOL     OW 3448   5.171   1.661   6.423  0.1129  0.6957 -0.5558
  850SOL    HW1 3449   5.127   1.628   6.507 -2.4747  0.6081 -1.8286
  850SOL    HW2 3450   5.267   1.634   6.422 -0.1491 -0.5503  1.6971
  851SOL     OW 3451   5.799   5.110   2.202 -0.0780 -0.0338  0.1493
  851SOL    HW1 3452   5.773   5.055   2.123 -1.6638  0.5997  0.1978
  851SOL    HW2 3453   5.810   5.206   2.174  0.4725  0.0098  0.4932
  852SOL     OW 3454   2.624   4.393   5.757 -0.0470 -0.9714  0.5065
  852SOL    HW1 3455   2.594   4.302   5.784  0.7550 -1.3012  0.3027
  852SOL    HW2 3456   2.685   4.386   5.678 -0.1847 -0.2351  0.3263
  853SOL     OW 3457   5.235   3.431   2.515  0.4158  0.2695 -0.1842
  853SOL    HW1 3458   5.250   3.349   2.461  2.4464  0.6069 -0.1827
  853SOL    HW2 3459   5.223   3.510   2.454 -1.1283  0.0901 -0.1734
  854SOL     OW 3460   1.923   3.257   6.642 -0.3135 -0.0289  0.2860
  854SOL    HW1 3461   1.889   3.181   6.699 -0.3260 -0.2091  0.0401
  854SOL    HW2 3462   1.932   3.226   6.548 -0.7117  0.3955  0.1053
  855SOL     OW 3463   2.037   4.198   4.692 -0.0970  0.3458 -0.1057
  855SOL    HW1 3464   1.951   4.219   4.739  0.2816 -0.3089  0.9151
  855SOL    HW2 3465   2.110   4.188   4.760  0.3741 -1.0726 -0.7823
  856SOL     OW 3466   4.257   1.997   6.651 -0.1118  0.5177 -0.4384
  856SOL    HW1 3467   4.178   1.937   6.664 -1.4632  2.3127 -0.0496
  856SOL    HW2 3468   4.340   1.950   6.684 -1.4621 -0.2197  2.2275
  857SOL     OW 3469   0.963   1.861   5.533 -0.1099  0.7306 -0.6011
  857SOL    HW1 3470   0.923   1.817   5.613 -1.8604  2.7690 -0.2784
  857SOL    HW2 3471   0.941   1.807   5.451  0.4439 -0.5889  0.0997
  858SOL     OW 3472   2.415   5.732   4.734 -0.1691  0.1010  0.3339
  858SOL    HW1 3473   2.397   5.799   4.806 -0.9110 -0.3953  0.6311
  858SOL    HW2 3474   2.332   5.678   4.719  0.3005 -0.4832 -0.1713
  859SOL     OW 3475   2.711   5.190   6.453 -0.3671  0.8584 -0.2141
  859SOL    HW1 3476   2.659   5.110   6.424  0.4317 -0.8704  2.6229
  859SOL    HW2 3477   2.665   5.274   6.423 -2.6747 -0.6120 -1.0308
  860SOL     OW 3478   2.414   4.512   3.976  0.3884 -0.4185  0.3478
  860SOL    HW1 3479   2.453   4.514   3.884 -1.8063  1.0624 -0.6261
  860SOL    HW2 3480   2.325   4.465   3.973  0.7676 -1.3008  1.9484
  861SOL     OW 3481   5.275   0.825   5.790  0.7328 -0.5564 -0.2971
  861SOL    HW1 3482   5.352   0.783   5.838  1.2153 -0.9902 -1.4131
  861SOL    HW2 3483   5.280   0.802   5.693  0.4159  1.2380 -0.7753
  862SOL     OW 3484   6.416   4.803   4.726  0.5358 -0.4412  0.2097
  862SOL    HW1 3485   6.363   4.876   4.682  2.0125  0.2862 -0.4263
  862SOL    HW2 3486   6.493   4.778   4.667  0.2259 -2.3340  0.5504
  863SOL     OW 3487   0.642   1.881   5.471  0.1889 -0.3969  0.0394
  863SOL    HW1 3488   0.616   1.788   5.448 -2.6149  0.2196  0.4444
  863SOL    HW2 3489   0.677   1.927   5.389 -1.3814 -0.8849 -0.9498
  864SOL     OW 3490   6.616   2.702   5.728 -0.0458  0.0324 -0.3041
  864SOL    HW1 3491   6.648   2.616   5.688  1.1331 -0.6569  1.9723
  864SOL    HW2 3492   6.520   2.694   5.752  0.0402 -0.6454 -0.1642
  865SOL     OW 3493   6.175   4.522   6.392 -0.1096 -0.1974  0.2973
  865SOL    HW1 3494   6.128   4.563   6.313  1.1147 -1.2799 -1.0423
  865SOL    HW2 3495   6.219   4.595   6.445 -0.8061  0.5369 -0.1038
  866SOL     OW 3496   0.226   4.248   0.223  0.4558  0.0546  0.0504
  866SOL    HW1 3497   0.255   4.333   0.267  0.7209 -0.9275  1.8711
  866SOL    HW2 3498   0.301   4.212   0.166  0.5953  0.6701 -0.1567
  867SOL     OW 3499   6.926   5.605   6.101  0.0016 -0.0054 -0.0747
  867SOL    HW1 3500   6.962   5.676   6.039 -1.4992  0.5699 -0.3252
  867SOL    HW2 3501   6.914   5.644   6.192 -0.6845  0.0301 -0.1761
  868SOL     OW 3502   1.045   5.047   4.604 -0.6443 -0.5218  0.1406
  868SOL    HW1 3503   1.063   5.000   4.691  0.4434  0.2489  0.3543
  868SOL    HW2 3504   1.019   5.142   4.622 -0.6995 -0.4341 -0.3770
  869SOL     OW 3505   3.339   5.367   2.950 -0.6528 -0.0785  0.3059
  869SOL    HW1 3506   3.339   5.284   2.893 -0.3254  0.5581 -0.6379
  869SOL    HW2 3507   3.398   5.352   3.030  0.2550 -0.3897 -0.4133
  870SOL     OW 3508   5.395   5.112   4.078  0.2316 -0.0949  0.3673
  870SOL    HW1 3509   5.316   5.065   4.038 -0.6007  1.0171  0.6460
  870SOL    HW2 3510   5.476   5.093   4.023 -0.4075 -0.5401 -0.4511
  871SOL     OW 3511   4.869   5.079   4.286  0.1626  0.2102  0.2880
  871SOL    HW1 3512   4.864   5.154   4.220 -0.3324 -0.1384 -0.0787
  871SOL    HW2 3513   4.943   5.017   4.262  0.6506  0.6434  0.6612
  872SOL     OW 3514   0.527   0.551   6.942 -0.8461 -0.5564  0.0408
  872SOL    HW1 3515   0.502   0.611   6.866  1.5566 -0.8108 -1.0321
  872SOL    HW2 3516   0.564   0.605   7.017 -0.3739 -0.5213 -0.2102
  873SOL     OW 3517   0.976   5.397   6.878  0.6539  0.2840  0.6417
  873SOL    HW1 3518   1.064   5.433   6.907  0.8987  0.2250  0.0015
  873SOL    HW2 3519   0.922   5.372   6.958  1.3009  0.1212  1.0356
  874SOL     OW 3520   2.149   3.157   3.290 -0.0655 -0.1441 -0.0281
  874SOL    HW1 3521   2.120   3.091   3.359 -0.6328 -1.1030 -1.1510
  874SOL    HW2 3522   2.194   3.109   3.214  1.1403  0.9506 -0.0408
  875SOL     OW 3523   1.915   3.238   6.364 -0.0213 -0.5965  0.0937
  875SOL    HW1 3524   1.897   3.323   6.315 -0.2696 -0.3329  0.6333
  875SOL    HW2 3525   1.836   3.178   6.355 -0.5801 -0.0568  1.1752
  876SOL     OW 3526   2.943   1.991   4.556 -0.3357 -0.0309 -0.0242
  876SOL    HW1 3527   2.860   1.942   4.528  0.1502  0.2227 -2.0710
  876SOL    HW2 3528   2.922   2.088   4.568 -0.5021 -0.1020  0.2673
  877SOL     OW 3529   3.088   5.902   3.402 -0.7966  0.5701  0.4225
  877SOL    HW1 3530   3.113   5.922   3.497 -1.3902  0.2911  0.6372
  877SOL    HW2 3531   3.010   5.959   3.375 -1.6639 -0.4937  0.6245
  878SOL     OW 3532   1.650   0.420   2.464  0.8921  0.5337 -0.3945
  878SOL    HW1 3533   1.589   0.492   2.431  1.3745  0.9082 -0.4709
  878SOL    HW2 3534   1.675   0.361   2.388  1.2085  0.8108 -0.5063
  879SOL     OW 3535   1.940   3.424   0.145 -0.7281 -0.0270 -0.1148
  879SOL    HW1 3536   1.951   3.377   0.057 -0.2184 -0.4092  0.1518
  879SOL    HW2 3537   1.907   3.518   0.128 -0.7367 -0.1294 -0.7041
  880SOL     OW 3538   3.443   6.540   4.300  0.5675  0.1484 -0.1007
  880SOL    HW1 3539   3.422   6.534   4.397  1.4872  2.5916  0.3044
  880SOL    HW2 3540   3.408   6.625   4.262 -0.5895 -1.1579 -2.1903
  881SOL     OW 3541   6.749   5.092   5.504 -0.3218 -0.5491 -0.3706
  881SOL    HW1 3542   6.709   5.156   5.439  1.1520  0.6555 -0.1624
  881SOL    HW2 3543   6.707   5.105   5.594  0.0906  0.2931 -0.2859
  882SOL     OW 3544   4.149   1.581   5.353 -0.2144  0.8031  0.6269
  882SOL    HW1 3545   4.164   1.485   5.375  1.2292  0.4761 -1.5086
  882SOL    HW2 3546   4.094   1.588   5.269  2.6884  1.6628 -1.3465
  883SOL     OW 3547   3.401   4.115   0.454 -0.2324 -0.7797 -0.2269
  883SOL    HW1 3548   3.438   4.103   0.362 -0.7661 -0.4112 -0.4968
  883SOL    HW2 3549   3.315   4.064   0.463  0.0249 -1.1438  0.1990
  884SOL     OW 3550   6.660   0.077   3.873 -1.0164  0.1569 -0.1990
  884SOL    HW1 3551   6.659  -0.019   3.845 -1.3603 -0.0421  0.4803
  884SOL    HW2 3552   6.727   0.126   3.818 -2.6263  0.0931 -2.3434
  885SOL     OW 3553   5.882   0.274   5.254  0.3942 -0.1407  0.4569
  885SOL    HW1 3554   5.793   0.295   5.293  0.6204  0.5514  0.6109
  885SOL    HW2 3555   5.927   0.359   5.225  1.2992 -0.4006  1.0439
  886SOL     OW 3556   0.868   5.921   0.774  0.3767 -0.1190 -0.2071
  886SOL    HW1 3557   0.847   5.823   0.779  0.5967 -0.1614 -0.0486
  886SOL    HW2 3558   0.791   5.970   0.735 -0.1562 -0.2140  0.7209
  887SOL     OW 3559   0.911   6.163   4.594 -0.1607  0.8376 -0.7400
  887SOL    HW1 3560   0.918   6.086   4.658  2.1454  1.6138  0.0271
  887SOL    HW2 3561   0.896   6.128   4.501  0.9825 -0.5545 -0.4233
  888SOL     OW 3562   1.427   5.847   1.669  0.1800  0.2130  0.0853
  888SOL    HW1 3563   1.477   5.931   1.689  1.0304 -0.6263  1.7535
  888SOL    HW2 3564   1.381   5.815   1.752 -1.2582 -0.2711 -0.8579
  889SOL     OW 3565   3.910   5.431   6.624  0.1450 -0.1284  0.4874
  889SOL    HW1 3566   3.989   5.416   6.565 -0.8235 -0.6489 -0.7028
  889SOL    HW2 3567   3.893   5.529   6.633  0.8088 -0.0196  0.6187
  890SOL     OW 3568   3.246   4.015   1.210 -0.1165 -0.2596 -0.2690
  890SOL    HW1 3569   3.340   4.048   1.200  0.1467 -1.3565 -1.8494
  890SOL    HW2 3570   3.227   3.948   1.138 -2.1617  0.0368 -0.0501
  891SOL     OW 3571   4.848   5.707   4.060  0.0321  0.4769 -0.6185
  891SOL    HW1 3572   4.913   5.632   4.072 -0.5907 -0.0168 -0.3123
  891SOL    HW2 3573   4.780   5.681   3.992 -0.3063  0.6887 -0.3598
  892SOL     OW 3574   3.470   1.277   1.354  0.0744  0.4188  0.4369
  892SOL    HW1 3575   3.375   1.247   1.345 -0.2925  1.2697  1.2804
  892SOL    HW2 3576   3.517   1.220   1.421  0.4487 -0.6074 -0.6621
  893SOL     OW 3577   2.149   5.726   0.692 -0.6354 -0.0971 -0.6773
  893SOL    HW1 3578   2.117   5.633   0.707 -2.0959  0.4531 -0.1302
  893SOL    HW2 3579   2.180   5.736   0.597  2.4885 -1.8952  0.0262
  894SOL     OW 3580   1.552   6.937   5.664 -0.5127  0.0800  0.4564
  894SOL    HW1 3581   1.616   6.861   5.677  0.2044  0.4010 -0.9370
  894SOL    HW2 3582   1.482   6.910   5.598 -1.0284  0.1978  0.9462
  895SOL     OW 3583   5.098   3.818   6.946  0.1911  0.3070 -0.1555
  895SOL    HW1 3584   5.047   3.733   6.961  1.3056 -0.2534  0.6088
  895SOL    HW2 3585   5.147   3.812   6.859  3.0317 -1.3304  1.4429
  896SOL     OW 3586   0.679   2.747   3.206 -0.5693  0.0394  0.1604
  896SOL    HW1 3587   0.745   2.783   3.272 -1.7471 -1.1068  2.0626
  896SOL    HW2 3588   0.587   2.778   3.230 -1.0451 -0.5688 -0.8241
  897SOL     OW 3589   5.038   0.668   1.363 -0.5906  0.3783  0.1595
  897SOL    HW1 3590   5.000   0.581   1.334 -0.1551  0.2417 -0.0015
  897SOL    HW2 3591   5.038   0.673   1.463 -0.1015 -0.0369  0.1818
  898SOL     OW 3592   4.916   0.632   4.916  0.2311 -0.3076 -0.3259
  898SOL    HW1 3593   4.984   0.690   4.872 -0.6831  0.4924 -0.7309
  898SOL    HW2 3594   4.945   0.611   5.009  1.9264 -1.5609 -1.0919
  899SOL     OW 3595   4.697   6.792   0.839  0.2497 -0.5271  0.3113
  899SOL    HW1 3596   4.635   6.738   0.896 -0.6739 -0.4111 -0.5589
  899SOL    HW2 3597   4.787   6.750   0.839 -0.3153 -1.7866  0.0746
  900SOL     OW 3598   3.482   6.249   4.011  0.3637 -0.4026  0.4933
  900SOL    HW1 3599   3.582   6.253   4.017  0.2700  3.1379  2.4319
  900SOL    HW2 3600   3.444   6.244   4.103 -1.2337  0.3318 -0.0949
  901SOL     OW 3601   1.826   5.710   4.914 -0.0097 -0.1176 -0.2450
  901SOL    HW1 3602   1.840   5.809   4.904 -1.0385  0.0952  0.1976
  901SOL    HW2 3603   1.914   5.664   4.923  0.5358  0.6345 -1.5067
  902SOL     OW 3604   0.123   0.139   1.843 -0.7398  0.3382 -0.2015
  902SOL    HW1 3605   0.215   0.105   1.826 -1.3900 -1.7655  0.2563
  902SOL    HW2 3606   0.082   0.167   1.756  0.6288  2.2332 -0.2964
  903SOL     OW 3607   4.990   5.399   6.173  0.2831 -0.3314 -0.2501
  903SOL    HW1 3608   4.965   5.487   6.131  0.6014 -0.2568 -0.2871
  903SOL    HW2 3609   5.084   5.404   6.207  0.1423 -0.5091  0.1624
  904SOL     OW 3610   1.692   5.745   0.505  0.1800  0.2945 -0.3334
  904SOL    HW1 3611   1.709   5.663   0.559 -0.7341 -0.8803 -1.7530
  904SOL    HW2 3612   1.606   5.787   0.534  0.8972  1.0964  0.7417
  905SOL     OW 3613   5.869   5.456   1.132  0.2604  0.1937 -0.2737
  905SOL    HW1 3614   5.868   5.371   1.079  1.1673  0.7525 -1.2276
  905SOL    HW2 3615   5.901   5.436   1.225 -0.9547 -0.7325 -0.0296
  906SOL     OW 3616   0.531   3.587   4.807 -0.3825 -0.3277  0.1436
  906SOL    HW1 3617   0.459   3.517   4.804  1.5282 -2.3890 -1.2578
  906SOL    HW2 3618   0.497   3.669   4.852 -2.8698 -2.0220  1.5430
  907SOL     OW 3619   6.012   6.301   2.138 -0.5943  0.1918  0.7223
  907SOL    HW1 3620   6.111   6.316   2.135 -0.7430  1.2296  0.7431
  907SOL    HW2 3621   5.974   6.350   2.217 -1.1535 -0.0658  0.6154
  908SOL     OW 3622   2.852   5.117   5.954 -0.4373 -0.0158  0.2741
  908SOL    HW1 3623   2.846   5.201   6.008  0.9887  1.4609 -1.7289
  908SOL    HW2 3624   2.947   5.085   5.953 -0.5152 -0.2380 -1.0181
  909SOL     OW 3625   3.145   0.916   2.711 -0.7151 -0.2571 -0.0394
  909SOL    HW1 3626   3.068   0.864   2.747 -0.2201 -0.6356  0.4777
  909SOL    HW2 3627   3.209   0.855   2.665 -1.1478  0.1683 -1.2492
  910SOL     OW 3628   3.093   4.672   1.195  0.4768  0.2773 -0.0001
  910SOL    HW1 3629   3.032   4.724   1.135  1.3252  3.3225  1.5810
  910SOL    HW2 3630   3.050   4.661   1.284  0.5210 -1.4170 -0.1592
  911SOL     OW 3631   4.856   3.982   4.704 -0.1176 -0.1367 -0.1706
  911SOL    HW1 3632   4.913   4.057   4.669 -0.6595  1.2649  1.7699
  911SOL    HW2 3633   4.767   4.018   4.733 -0.2499 -1.4423  1.1711
  912SOL     OW 3634   1.860   5.887   0.053  0.1667 -0.4628 -0.1844
  912SOL    HW1 3635   1.927   5.949   0.013 -0.9953  1.0563  0.1459
  912SOL    HW2 3636   1.783   5.876  -0.010  0.4201 -1.6926 -0.2970
  913SOL     OW 3637   6.862   3.297   6.832 -0.3214 -0.0984 -0.2535
  913SOL    HW1 3638   6.807   3.247   6.898 -2.4846  1.1110 -1.0355
  913SOL    HW2 3639   6.934   3.347   6.879 -0.3595 -1.0766  0.8986
  914SOL     OW 3640   0.133   6.322   3.208 -0.2665  0.0672  0.5896
  914SOL    HW1 3641   0.199   6.338   3.282  0.3880  0.2665 -0.0247
  914SOL    HW2 3642   0.148   6.389   3.136  0.2218 -1.1621 -0.4807
  915SOL     OW 3643   6.334   4.284   3.388  0.4380  0.3222  0.2386
  915SOL    HW1 3644   6.322   4.230   3.305  0.0891 -0.5679  0.8548
  915SOL    HW2 3645   6.267   4.256   3.457  1.4605  0.1983  1.2338
  916SOL     OW 3646   5.628   4.302   6.260  0.9395 -0.4406 -0.3308
  916SOL    HW1 3647   5.625   4.225   6.325 -0.0130 -0.0274  0.1366
  916SOL    HW2 3648   5.713   4.353   6.273  0.6124 -0.1533  0.8727
  917SOL     OW 3649   5.279   4.752   6.032  0.4522  0.1524  0.3067
  917SOL    HW1 3650   5.182   4.769   6.014  0.9340 -0.3996 -3.6702
  917SOL    HW2 3651   5.333   4.830   6.001  1.4255 -0.2759  0.8589
  918SOL     OW 3652   5.757   6.616   2.993  0.3394  0.0751 -0.5257
  918SOL    HW1 3653   5.680   6.612   3.057  0.1800  2.1281 -0.5228
  918SOL    HW2 3654   5.723   6.623   2.900  0.5565 -0.4410 -0.6497
  919SOL     OW 3655   0.918   3.781   3.548  0.7359 -0.4444  0.3838
  919SOL    HW1 3656   0.965   3.702   3.587  1.8409  0.8950  1.9030
  919SOL    HW2 3657   0.973   3.863   3.563 -0.6963  0.7356 -0.5305
  920SOL     OW 3658   1.359   6.299   2.668 -0.2051  0.2339  0.3546
  920SOL    HW1 3659   1.405   6.212   2.652  1.6935  1.3235 -0.5445
  920SOL    HW2 3660   1.317   6.299   2.759 -1.1058 -1.9278 -0.0167
  921SOL     OW 3661   5.787   6.301   5.620  0.2901  0.3147 -0.2170
  921SOL    HW1 3662   5.838   6.309   5.534 -0.0796 -2.0883 -0.7334
  921SOL    HW2 3663   5.749   6.391   5.645  3.2447  1.8187 -0.7094
  922SOL     OW 3664   6.554   5.696   5.847  0.1239  0.2658 -0.2491
  922SOL    HW1 3665   6.513   5.767   5.905  0.3177 -0.2391  0.5292
  922SOL    HW2 3666   6.606   5.633   5.904  0.3702 -0.2171 -0.9939
  923SOL     OW 3667   6.540   1.102   6.257  0.4540  0.1752 -0.8200
  923SOL    HW1 3668   6.522   1.167   6.183  1.2734  2.0621  0.5471
  923SOL    HW2 3669   6.480   1.123   6.334  0.0015 -1.4095 -0.7022
  924SOL     OW 3670   3.205   5.637   6.506  0.0481  0.7498  0.0430
  924SOL    HW1 3671   3.274   5.627   6.577  0.1582 -0.8064 -0.2439
  924SOL    HW2 3672   3.115   5.615   6.544  0.2361 -1.1419 -0.5021
  925SOL     OW 3673   6.183   4.030   0.384 -0.6887  0.2818 -0.0663
  925SOL    HW1 3674   6.215   4.073   0.469 -0.4369 -0.7946  0.3931
  925SOL    HW2 3675   6.230   3.943   0.371 -1.4344 -0.0163 -0.8205
  926SOL     OW 3676   5.220   3.804   4.967 -0.8267 -0.1021 -0.4715
  926SOL    HW1 3677   5.121   3.808   4.951 -0.5608  0.9164 -2.0685
  926SOL    HW2 3678   5.245   3.872   5.036 -1.3204 -0.9283  0.5535
  927SOL     OW 3679   5.382   1.817   3.182 -0.2767 -0.4489 -0.1848
  927SOL    HW1 3680   5.349   1.766   3.103  0.5882 -1.7822  0.2770
  927SOL    HW2 3681   5.428   1.754   3.246 -0.1135  0.7431  0.9202
  928SOL     OW 3682   2.555   5.789   6.197  0.3080 -0.4031  0.2363
  928SOL    HW1 3683   2.587   5.698   6.223 -1.0429 -0.9159  0.1727
  928SOL    HW2 3684   2.508   5.784   6.109 -0.4093  0.2129  0.5730
  929SOL     OW 3685   4.957   5.713   5.736 -0.4931  0.5801 -0.3581
  929SOL    HW1 3686   4.945   5.744   5.642 -0.2602  0.7126 -0.3467
  929SOL    HW2 3687   4.976   5.615   5.737  2.0623  0.9924 -0.6714
  930SOL     OW 3688   5.476   6.359   3.811  0.5811 -0.3527  0.3789
  930SOL    HW1 3689   5.379   6.371   3.790  0.5150 -0.4772  0.6140
  930SOL    HW2 3690   5.526   6.340   3.726  0.3388 -0.6894  0.3085
  931SOL     OW 3691   1.825   1.156   3.040  0.4241  0.0975 -0.1217
  931SOL    HW1 3692   1.868   1.192   3.123 -0.5622  0.1668  0.3782
  931SOL    HW2 3693   1.886   1.088   2.998  0.3038 -1.1166  1.5406
  932SOL     OW 3694   3.088   6.813   5.346  0.0712 -0.2686 -0.6602
  932SOL    HW1 3695   3.122   6.820   5.252 -2.1195 -0.2600 -1.5152
  932SOL    HW2 3696   2.988   6.825   5.346  0.0752  0.2122  1.7394
  933SOL     OW 3697   6.646   3.427   5.623 -0.1658  0.3868  0.0958
  933SOL    HW1 3698   6.580   3.480   5.676 -1.2673 -0.8162 -0.0143
  933SOL    HW2 3699   6.709   3.380   5.685 -2.2016 -1.9996  0.5197
  934SOL     OW 3700   6.249   5.074   5.137  0.0811 -0.2948 -0.3745
  934SOL    HW1 3701   6.205   5.133   5.205 -1.4066 -1.1344 -0.5781
  934SOL    HW2 3702   6.310   5.009   5.183 -0.9526 -0.8891  0.1876
  935SOL     OW 3703   6.119   4.273   5.343  0.3724  0.0177  0.2558
  935SOL    HW1 3704   6.165   4.238   5.262  1.0636  0.0157  0.6433
  935SOL    HW2 3705   6.187   4.307   5.408 -0.0827 -1.2333  1.4299
  936SOL     OW 3706   5.218   5.242   2.802 -0.2293  0.6620 -0.5031
  936SOL    HW1 3707   5.201   5.332   2.761  1.6002  0.9160 -0.7907
  936SOL    HW2 3708   5.311   5.212   2.779 -0.8054 -1.3257 -0.4235
  937SOL     OW 3709   7.003   5.417   6.431  0.1850  0.6721 -0.1771
  937SOL    HW1 3710   6.908   5.387   6.437  0.0873  0.7932 -0.9938
  937SOL    HW2 3711   7.006   5.517   6.419  0.4574  0.8167  0.9191
  938SOL     OW 3712   2.728   1.713   2.840  0.2193  0.2435 -0.0344
  938SOL    HW1 3713   2.791   1.791   2.835  1.5781 -0.7526  0.8008
  938SOL    HW2 3714   2.723   1.670   2.750 -0.5784  1.2883 -0.5164
  939SOL     OW 3715   0.827   1.789   5.754  0.2702 -0.3665 -0.0896
  939SOL    HW1 3716   0.796   1.708   5.804 -0.5937 -1.2973 -2.0460
  939SOL    HW2 3717   0.765   1.865   5.772 -0.2929 -0.8187 -0.1201
  940SOL     OW 3718   0.110   5.848   4.157 -0.5546  0.3894  0.1581
  940SOL    HW1 3719   0.105   5.802   4.069  0.8680  1.9262 -0.7859
  940SOL    HW2 3720   0.033   5.819   4.214 -1.2179 -1.0283 -1.3748
  941SOL     OW 3721   3.084   1.661   1.028  0.0877 -0.5190  0.5311
  941SOL    HW1 3722   3.002   1.612   1.055 -0.3768 -0.1042 -0.1054
  941SOL    HW2 3723   3.132   1.609   0.957 -0.5340  0.0389 -0.3206
  942SOL     OW 3724   0.592   3.436   0.328  0.3274 -0.7743  0.8044
  942SOL    HW1 3725   0.678   3.474   0.362 -0.5896  0.8601  1.3774
  942SOL    HW2 3726   0.527   3.426   0.404 -2.0230  3.6212 -0.2711
  943SOL     OW 3727   4.784   0.519   3.358 -0.1638 -0.0211 -0.9983
  943SOL    HW1 3728   4.860   0.501   3.420 -0.1530  0.6704 -0.8006
  943SOL    HW2 3729   4.714   0.573   3.406 -0.0192  0.7864 -1.6685
  944SOL     OW 3730   0.785   5.946   2.135 -0.4852  0.1350  0.3672
  944SOL    HW1 3731   0.797   5.962   2.037 -0.0597  0.3722  0.4556
  944SOL    HW2 3732   0.798   5.849   2.155  1.1969  0.3594  0.4385
  945SOL     OW 3733   2.525   0.520   6.153 -0.1498 -0.2532 -0.1615
  945SOL    HW1 3734   2.527   0.422   6.132  0.7783 -0.9443  2.7180
  945SOL    HW2 3735   2.430   0.551   6.158 -0.4553 -1.0099 -0.9849
  946SOL     OW 3736   5.379   5.477   4.729  0.4251 -0.3661 -0.4881
  946SOL    HW1 3737   5.425   5.547   4.783 -0.7362  0.7204 -0.8440
  946SOL    HW2 3738   5.377   5.505   4.633 -2.2716  0.4531 -0.2963
  947SOL     OW 3739   3.844   6.139   0.792 -0.3984  0.3817 -0.2363
  947SOL    HW1 3740   3.869   6.232   0.763 -1.3503  1.3604  1.8521
  947SOL    HW2 3741   3.749   6.138   0.824 -0.5027 -1.3955 -0.4937
  948SOL     OW 3742   5.358   1.914   1.134 -0.0509  0.0003 -0.0786
  948SOL    HW1 3743   5.314   1.913   1.045 -0.4947  2.6491  0.0356
  948SOL    HW2 3744   5.454   1.886   1.125  0.4045  1.9025 -1.7398
  949SOL     OW 3745   4.726   0.059   5.108 -0.0167  0.6410 -0.0711
  949SOL    HW1 3746   4.813   0.095   5.074  0.8576 -1.0068  0.3425
  949SOL    HW2 3747   4.690  -0.009   5.044 -0.3876  0.4384  0.3479
  950SOL     OW 3748   0.822   4.540   6.658 -0.3240 -0.0962  0.5037
  950SOL    HW1 3749   0.728   4.537   6.625 -0.2956 -0.4898  0.4536
  950SOL    HW2 3750   0.873   4.462   6.622  0.2251  0.5180 -0.0790
  951SOL     OW 3751   4.053   6.684   2.338  0.2472  0.0968  0.3654
  951SOL    HW1 3752   3.961   6.648   2.351  0.4422 -0.4402  0.2736
  951SOL    HW2 3753   4.048   6.773   2.291 -0.1702 -0.4242 -0.5948
  952SOL     OW 3754   1.157   1.664   5.778 -0.5237  0.6261  0.1619
  952SOL    HW1 3755   1.251   1.675   5.811 -0.2731  1.7678 -0.8894
  952SOL    HW2 3756   1.096   1.720   5.834 -0.3220  1.3248 -0.3191
  953SOL     OW 3757   5.750   4.415   1.316 -0.0753 -0.4218  0.0146
  953SOL    HW1 3758   5.715   4.432   1.223  1.1375  1.5752 -0.1219
  953SOL    HW2 3759   5.686   4.453   1.382 -0.2625 -0.6226 -0.0476
  954SOL     OW 3760   1.759   5.765   3.735 -0.3620  0.1997 -0.3378
  954SOL    HW1 3761   1.853   5.796   3.751 -0.7178  1.5606 -0.7697
  954SOL    HW2 3762   1.697   5.809   3.799 -0.4895 -2.4560  1.5459
  955SOL     OW 3763   0.452   5.322   1.352  0.0170  0.3659 -0.4215
  955SOL    HW1 3764   0.547   5.330   1.382  0.3551  1.8131 -1.7290
  955SOL    HW2 3765   0.446   5.260   1.274  0.1563  1.3937 -1.2768
  956SOL     OW 3766   2.386   0.803   2.076  0.4359  0.3200  0.0795
  956SOL    HW1 3767   2.401   0.815   1.978  0.6671  1.0390  0.2003
  956SOL    HW2 3768   2.361   0.890   2.117 -1.2939 -0.2873  0.3857
  957SOL     OW 3769   3.083   0.064   0.466  0.3867  0.4927  0.6024
  957SOL    HW1 3770   3.078  -0.035   0.449  1.1688  0.4741  0.4650
  957SOL    HW2 3771   3.138   0.081   0.547 -0.3082  0.7878  1.0212
  958SOL     OW 3772   3.602   0.613   2.522  0.2314  0.1344  0.0271
  958SOL    HW1 3773   3.648   0.699   2.547 -0.5465  0.6248 -0.1671
  958SOL    HW2 3774   3.659   0.562   2.459  0.3497  0.9145 -0.5136
  959SOL     OW 3775   3.185   4.084   5.601 -0.0582  0.1287 -0.1196
  959SOL    HW1 3776   3.209   4.088   5.504  0.6569 -2.0520 -0.0814
  959SOL    HW2 3777   3.169   3.989   5.628 -2.5275  0.8816  1.3988
  960SOL     OW 3778   6.889   2.968   6.933  0.2776 -0.0342  0.0112
  960SOL    HW1 3779   6.973   2.957   6.881 -0.1066  0.2514 -0.6919
  960SOL    HW2 3780   6.903   3.033   7.008  1.0919 -1.1673  0.8565
  961SOL     OW 3781   5.820   4.031   5.291  0.3578  0.3341 -0.7044
  961SOL    HW1 3782   5.872   4.101   5.338 -0.2498  0.3452 -0.0321
  961SOL    HW2 3783   5.875   3.948   5.283  0.4702  0.3298  0.0373
  962SOL     OW 3784   2.759   4.176   1.219  0.0096  0.1969 -0.8796
  962SOL    HW1 3785   2.843   4.122   1.224  0.1086  0.3518 -0.8506
  962SOL    HW2 3786   2.736   4.210   1.310 -1.9417 -2.6308 -0.2118
  963SOL     OW 3787   2.775   5.495   2.560  0.0519  0.4635 -0.1071
  963SOL    HW1 3788   2.802   5.553   2.482  0.5581 -0.2770 -0.4940
  963SOL    HW2 3789   2.684   5.522   2.591 -0.2535  0.6241 -1.1040
  964SOL     OW 3790   3.895   1.093   5.800  0.2482  0.2945  0.4996
  964SOL    HW1 3791   3.931   1.003   5.826 -0.4607 -1.3799 -3.5390
  964SOL    HW2 3792   3.953   1.133   5.729 -0.7599  1.9446  0.5388
  965SOL     OW 3793   4.697   0.556   0.571 -0.0037 -0.5124  0.0822
  965SOL    HW1 3794   4.697   0.542   0.472 -0.3357  0.4946 -0.0838
  965SOL    HW2 3795   4.619   0.615   0.595  0.9822  0.5800  0.7232
  966SOL     OW 3796   0.375   4.405   2.060  0.4180  0.7579  0.4101
  966SOL    HW1 3797   0.446   4.336   2.073  0.1557  0.1636 -1.1424
  966SOL    HW2 3798   0.414   4.485   2.016  0.6168  1.4264  1.7650
  967SOL     OW 3799   5.988   5.045   5.511 -0.2069  0.4752 -0.0684
  967SOL    HW1 3800   5.930   4.992   5.573  1.2195 -0.0266  0.8916
  967SOL    HW2 3801   5.999   4.996   5.425 -1.4315  0.7259 -0.3903
  968SOL     OW 3802   1.880   6.998   2.944 -0.0438  0.3646  0.4499
  968SOL    HW1 3803   1.872   7.020   2.847  0.5934  2.1325  0.7781
  968SOL    HW2 3804   1.966   6.948   2.960  0.4901  1.2035  0.2743
  969SOL     OW 3805   1.752   5.784   2.569  0.6573  0.2525 -0.0441
  969SOL    HW1 3806   1.653   5.777   2.580  0.3159  0.8648 -2.1476
  969SOL    HW2 3807   1.774   5.782   2.471  2.7228  0.1968  0.3844
  970SOL     OW 3808   0.595   3.287   1.686  0.2598 -0.0767  0.0983
  970SOL    HW1 3809   0.625   3.242   1.601 -0.0448 -3.3755  1.5550
  970SOL    HW2 3810   0.502   3.257   1.708  0.4958  0.3287  1.8185
  971SOL     OW 3811   0.985   1.098   6.806  0.5012 -0.5262 -0.1279
  971SOL    HW1 3812   1.007   1.169   6.874  0.7845 -0.7143 -0.0215
  971SOL    HW2 3813   1.060   1.090   6.741  0.4661 -0.7256 -0.1440
  972SOL     OW 3814   2.081   5.568   4.858  0.0013 -0.0841  0.0943
  972SOL    HW1 3815   2.101   5.480   4.900 -0.5574  0.2552  1.1144
  972SOL    HW2 3816   2.120   5.641   4.915 -0.0720  0.3491 -0.4072
  973SOL     OW 3817   1.652   1.190   0.876  0.0973  0.6696  0.2625
  973SOL    HW1 3818   1.747   1.207   0.904  0.4144 -0.8762  0.1966
  973SOL    HW2 3819   1.611   1.276   0.846  0.8730  1.7170  2.0359
  974SOL     OW 3820   0.055   6.399   3.536  0.4492 -0.7234  0.0072
  974SOL    HW1 3821   0.145   6.385   3.496  0.6241  1.1562 -0.3691
  974SOL    HW2 3822   0.065   6.429   3.631  0.2666  0.0552 -0.2108
  975SOL     OW 3823   5.284   6.549   3.456  0.0508  0.7316 -0.1900
  975SOL    HW1 3824   5.380   6.523   3.467 -0.3405 -0.7474 -0.0803
  975SOL    HW2 3825   5.278   6.632   3.400  1.3502  0.4210 -0.8146
  976SOL     OW 3826   2.287   4.887   2.437 -0.1914  0.9974  0.2268
  976SOL    HW1 3827   2.286   4.986   2.449  1.7149  0.9686  0.9473
  976SOL    HW2 3828   2.307   4.843   2.525  1.7794  0.1454 -0.5811
  977SOL     OW 3829   3.579   1.252   0.642  0.0161 -0.0286 -0.4174
  977SOL    HW1 3830   3.549   1.288   0.554  1.0396 -0.6932 -1.0649
  977SOL    HW2 3831   3.521   1.174   0.668  0.8598 -1.0329 -1.4468
  978SOL     OW 3832   1.910   5.697   6.461  0.5468 -0.4310  0.0054
  978SOL    HW1 3833   1.963   5.779   6.484  1.5487 -1.3702  1.2130
  978SOL    HW2 3834   1.848   5.717   6.385 -1.3942  2.2816  2.1059
  979SOL     OW 3835   1.702   6.976   1.612 -0.4319  0.0732  0.2578
  979SOL    HW1 3836   1.768   6.945   1.681  0.0555 -0.4748 -0.4306
  979SOL    HW2 3837   1.665   6.896   1.565 -0.5688  0.4499 -0.2778
  980SOL     OW 3838   0.660   0.394   5.526  0.0148  0.1432  0.7295
  980SOL    HW1 3839   0.632   0.330   5.598  0.0509  0.1773  0.7738
  980SOL    HW2 3840   0.692   0.479   5.568  1.1066 -0.2451  0.7278
  981SOL     OW 3841   3.071   6.260   6.538 -0.5684  1.1260  0.8996
  981SOL    HW1 3842   2.988   6.206   6.546 -0.9422  1.5969  0.2578
  981SOL    HW2 3843   3.123   6.230   6.458  0.3342  0.2420  1.7762
  982SOL     OW 3844   4.451   1.075   2.877  1.2818 -0.4641 -0.0656
  982SOL    HW1 3845   4.485   0.986   2.909 -0.0521 -0.9365  0.0942
  982SOL    HW2 3846   4.368   1.098   2.927  1.5024  0.7900 -0.2625
  983SOL     OW 3847   2.280   4.356   3.749  0.1218  0.3575  0.0803
  983SOL    HW1 3848   2.379   4.362   3.759  0.6250 -0.9012 -3.1773
  983SOL    HW2 3849   2.253   4.261   3.737 -1.2715  0.8133 -0.6481
  984SOL     OW 3850   3.019   6.144   3.048 -0.3338  0.1005  0.3145
  984SOL    HW1 3851   3.042   6.048   3.033 -0.1601 -0.0575  1.5137
  984SOL    HW2 3852   3.089   6.203   3.008  0.4031 -0.3155  0.9629
  985SOL     OW 3853   2.022   0.043   2.140  0.0511 -0.1105 -0.1889
  985SOL    HW1 3854   2.016  -0.033   2.205  0.4551 -0.2208 -0.2765
  985SOL    HW2 3855   2.030   0.129   2.190 -0.7364 -0.0957 -0.0879
  986SOL     OW 3856   2.959   6.076   0.523  0.2215  0.1842 -0.4733
  986SOL    HW1 3857   2.861   6.077   0.500  0.1138  0.6057 -0.0067
  986SOL    HW2 3858   2.976   6.138   0.600  0.5625 -1.2217  0.6198
  987SOL     OW 3859   6.071   1.010   4.479  0.4527  0.0817 -0.2288
  987SOL    HW1 3860   6.071   0.992   4.577  2.0146 -0.9114 -0.3734
  987SOL    HW2 3861   6.013   1.089   4.459 -1.4537 -0.8641  1.2499
  988SOL     OW 3862   5.782   5.637   3.307  0.2168  0.0982  0.0431
  988SOL    HW1 3863   5.842   5.692   3.365  0.5886  1.8091 -1.8646
  988SOL    HW2 3864   5.835   5.563   3.266  0.5004  0.2774  0.0833
  989SOL     OW 3865   2.054   3.578   6.356  0.1495 -0.0215  0.1727
  989SOL    HW1 3866   2.133   3.579   6.294  0.3461  0.5441  0.4187
  989SOL    HW2 3867   2.080   3.533   6.442  0.0195 -0.3793  0.0265
  990SOL     OW 3868   0.874   0.162   2.106  0.8853  0.0396  0.7479
  990SOL    HW1 3869   0.850   0.090   2.041  1.5352  2.3053 -2.2629
  990SOL    HW2 3870   0.957   0.136   2.156 -0.1703 -2.1798  1.4656
  991SOL     OW 3871   1.299   0.658   2.946 -0.5911  0.4577 -0.4202
  991SOL    HW1 3872   1.379   0.718   2.946 -0.3543  0.3201 -3.2807
  991SOL    HW2 3873   1.326   0.565   2.923 -1.3387 -0.0467  0.6889
  992SOL     OW 3874   1.026   3.527   5.080 -0.4086  0.3657  0.1938
  992SOL    HW1 3875   0.950   3.530   5.015 -1.6549  0.9596  1.6135
  992SOL    HW2 3876   1.044   3.433   5.108  0.1986  0.0934 -1.0282
  993SOL     OW 3877   2.556   5.969   3.940  0.0418  0.0650 -0.0850
  993SOL    HW1 3878   2.519   5.876   3.947  1.1203 -0.7023 -2.8564
  993SOL    HW2 3879   2.647   5.972   3.981  0.4516 -0.4380 -0.9238
  994SOL     OW 3880   4.611   3.670   6.430 -0.1123  0.0999 -0.1539
  994SOL    HW1 3881   4.573   3.578   6.426  0.0052 -0.0631  1.7243
  994SOL    HW2 3882   4.565   3.722   6.502  0.9242  0.9911 -0.1071
  995SOL     OW 3883   3.614   1.798   3.684  0.2103 -0.0917  0.0130
  995SOL    HW1 3884   3.581   1.874   3.740  0.2021 -1.3879  1.8733
  995SOL    HW2 3885   3.651   1.833   3.599 -0.3938  1.9281  0.5185
  996SOL     OW 3886   0.824   4.724   3.815 -0.1478  0.0679  0.1291
  996SOL    HW1 3887   0.874   4.740   3.730 -1.4198  0.3613 -0.5806
  996SOL    HW2 3888   0.847   4.797   3.881 -1.1560  1.3692 -0.8999
  997SOL     OW 3889   4.878   1.318   1.821 -0.2798  0.0213 -0.5341
  997SOL    HW1 3890   4.799   1.379   1.810  0.0045  0.0726 -2.6041
  997SOL    HW2 3891   4.846   1.229   1.856 -0.8003  1.0211  1.6860
  998SOL     OW 3892   1.624   2.591   3.156 -0.2408 -0.0140  0.4491
  998SOL    HW1 3893   1.572   2.521   3.205 -2.2625  1.6092  0.7839
  998SOL    HW2 3894   1.575   2.678   3.161  1.9356  1.3347 -0.3631
  999SOL     OW 3895   4.730   0.230   2.128  0.2159 -0.2830 -0.2146
  999SOL    HW1 3896   4.793   0.154   2.142  0.3930 -0.1331 -0.2035
  999SOL    HW2 3897   4.780   0.316   2.125 -0.1048 -0.0206  1.1810
 1000SOL     OW 3898   5.339   3.870   4.697  0.1860  0.3773 -0.0256
 1000SOL    HW1 3899   5.413   3.933   4.719  2.1617 -1.6486 -0.5374
 1000SOL    HW2 3900   5.290   3.845   4.781  0.5155  1.2066  0.4227
 1001SOL     OW 3901   1.477   2.434   2.734  0.1324  0.1054 -0.7564
 1001SOL    HW1 3902   1.383   2.451   2.703  0.5487 -0.0290 -2.1095
 1001SOL    HW2 3903   1.504   2.506   2.798 -0.5935  0.6179 -1.0118
 1002SOL     OW 3904   2.439   3.999   1.470 -0.0665 -0.3282  0.2742
 1002SOL    HW1 3905   2.535   3.971   1.480 -0.0229 -0.1903  0.2311
 1002SOL    HW2 3906   2.384   3.950   1.538 -0.1865 -1.4814 -0.6226
 1003SOL     OW 3907   1.082   5.032   2.205 -0.2913 -0.4118  0.6840
 1003SOL    HW1 3908   1.145   5.007   2.132 -0.2355 -1.3830  1.0499
 1003SOL    HW2 3909   1.071   5.131   2.207 -0.8765 -0.4170 -1.1106
 1004SOL     OW 3910   1.329   5.920   2.478  0.3592 -1.1647 -0.6352
 1004SOL    HW1 3911   1.353   5.906   2.382  1.0070  0.8185 -0.8075
 1004SOL    HW2 3912   1.256   5.988   2.485  0.9010 -0.6489  0.3058
 1005SOL     OW 3913   5.517   4.599   2.290 -0.3003  0.2275 -0.5018
 1005SOL    HW1 3914   5.570   4.551   2.220  0.1827 -2.2527  1.4353
 1005SOL    HW2 3915   5.450   4.659   2.246 -0.3835 -1.6110 -3.0795
 1006SOL     OW 3916   1.132   3.045   0.117 -0.3999  0.4914 -0.1039
 1006SOL    HW1 3917   1.168   3.115   0.055 -1.7317  0.9223 -0.4121
 1006SOL    HW2 3918   1.203   2.977   0.135 -0.2001 -0.0723 -2.6842
 1007SOL     OW 3919   4.668   3.336   0.426 -0.3795 -0.1031  0.1926
 1007SOL    HW1 3920   4.698   3.390   0.505  0.9838 -2.1653  1.1702
 1007SOL    HW2 3921   4.601   3.388   0.374 -1.0988  1.4518  2.5211
 1008SOL     OW 3922   6.889   4.546   3.384 -0.0343 -0.1001 -0.5992
 1008SOL    HW1 3923   6.951   4.507   3.315 -0.1033 -0.9584 -0.1831
 1008SOL    HW2 3924   6.869   4.477   3.454 -1.1901  0.2659 -0.5425
 1009SOL     OW 3925   0.136   0.873   4.422 -0.6886  0.2486  0.8588
 1009SOL    HW1 3926   0.090   0.787   4.443 -1.0783  0.5495  1.2494
 1009SOL    HW2 3927   0.218   0.855   4.368 -2.0305 -0.2124 -1.1738
 1010SOL     OW 3928   1.203   6.914   3.895 -0.5201 -0.4978 -0.0969
 1010SOL    HW1 3929   1.302   6.913   3.906 -0.5505 -0.5030  0.2044
 1010SOL    HW2 3930   1.161   6.945   3.981 -0.6914  1.5957 -0.8654
 1011SOL     OW 3931   1.069   5.104   0.927  0.2811  0.5425  0.1646
 1011SOL    HW1 3932   1.048   5.018   0.880 -1.3090  0.9053  0.1599
 1011SOL    HW2 3933   1.026   5.103   1.017  3.3271 -0.1705  1.7550
 1012SOL     OW 3934   3.023   6.359   2.788 -0.0723  0.1206  0.9858
 1012SOL    HW1 3935   2.938   6.311   2.810 -0.2087  0.2327  0.7133
 1012SOL    HW2 3936   3.008   6.417   2.708  0.3445 -0.0905  0.7555
 1013SOL     OW 3937   5.816   0.433   0.614  0.3221  0.1977 -0.6881
 1013SOL    HW1 3938   5.756   0.416   0.692  0.2275  0.3211 -0.7313
 1013SOL    HW2 3939   5.872   0.514   0.633  0.9529 -0.3114 -0.3776
 1014SOL     OW 3940   2.438   1.278   3.479  0.3352  0.4686  0.7727
 1014SOL    HW1 3941   2.385   1.198   3.508  0.1828  0.2735 -0.0030
 1014SOL    HW2 3942   2.389   1.326   3.406  1.4453 -0.0324 -0.3518
 1015SOL     OW 3943   2.777   0.469   2.235  0.0823  0.3299 -0.3596
 1015SOL    HW1 3944   2.808   0.386   2.188 -0.8264 -1.0344  1.3688
 1015SOL    HW2 3945   2.697   0.506   2.189  0.3068  0.0892 -0.9513
 1016SOL     OW 3946   0.707   4.270   4.895 -0.7099  0.3223  0.2545
 1016SOL    HW1 3947   0.644   4.207   4.850 -0.0510 -0.2559  0.1141
 1016SOL    HW2 3948   0.672   4.293   4.986 -1.1935  0.1351  0.1177
 1017SOL     OW 3949   2.352   0.271   0.717  0.5930  0.0576  0.1267
 1017SOL    HW1 3950   2.430   0.263   0.655 -0.0971  2.0131 -1.0809
 1017SOL    HW2 3951   2.292   0.191   0.707 -0.2503  0.9452 -2.8916
 1018SOL     OW 3952   2.674   1.877   3.215 -0.4267 -0.5469  0.5585
 1018SOL    HW1 3953   2.719   1.795   3.250 -0.6805 -0.9562 -0.0471
 1018SOL    HW2 3954   2.725   1.912   3.136 -0.5707 -0.3866  0.5352
 1019SOL     OW 3955   1.616   6.384   0.367  0.2046  0.0253  0.0257
 1019SOL    HW1 3956   1.546   6.455   0.375 -0.5055 -0.5202 -1.0365
 1019SOL    HW2 3957   1.599   6.313   0.434  0.7168  0.6787  0.8651
 1020SOL     OW 3958   6.580   1.872   6.777 -0.0941  0.3148  0.2065
 1020SOL    HW1 3959   6.649   1.822   6.828 -0.5876 -0.6727 -0.0733
 1020SOL    HW2 3960   6.625   1.936   6.715  0.6133 -0.7713 -0.4394
 1021SOL     OW 3961   1.536   5.476   0.240 -0.1049  0.1253  0.0970
 1021SOL    HW1 3962   1.613   5.467   0.177  0.8402 -0.9289  1.3516
 1021SOL    HW2 3963   1.497   5.568   0.232  1.4989  0.8052 -0.3037
 1022SOL     OW 3964   5.904   3.981   3.355  0.1388 -0.0724 -0.8393
 1022SOL    HW1 3965   5.861   3.955   3.268  0.0264 -0.5354 -0.6487
 1022SOL    HW2 3966   5.840   3.967   3.430 -0.3670  1.9408 -0.8389
 1023SOL     OW 3967   5.258   4.318   0.364  0.3383 -0.1892 -0.0343
 1023SOL    HW1 3968   5.205   4.383   0.308  1.4391 -0.5027 -1.4826
 1023SOL    HW2 3969   5.199   4.242   0.389  0.1573 -0.7963 -2.0695
 1024SOL     OW 3970   3.112   3.148   6.553 -0.4465  0.3805 -0.2044
 1024SOL    HW1 3971   3.184   3.216   6.568 -0.6480  0.8035 -1.0488
 1024SOL    HW2 3972   3.092   3.101   6.638  1.5808 -0.5103 -0.1622
 1025SOL     OW 3973   5.819   4.778   6.388 -0.5371 -0.3801  0.3706
 1025SOL    HW1 3974   5.851   4.832   6.466  0.6370 -0.4990 -0.0059
 1025SOL    HW2 3975   5.728   4.810   6.361  0.1257  1.4380  0.1301
 1026SOL     OW 3976   2.568   6.432   1.339 -0.4725  0.2617  0.4121
 1026SOL    HW1 3977   2.617   6.472   1.261 -1.3376 -1.6265 -1.1810
 1026SOL    HW2 3978   2.627   6.367   1.386 -0.8065 -0.6401 -0.3828
 1027SOL     OW 3979   0.465   3.685   2.678 -0.1718 -0.6028 -1.0436
 1027SOL    HW1 3980   0.555   3.654   2.648  0.8067  0.7249  0.3580
 1027SOL    HW2 3981   0.471   3.779   2.712 -1.7339 -1.0232  0.5919
 1028SOL     OW 3982   4.125   6.172   5.959  0.0356  0.2604 -0.2637
 1028SOL    HW1 3983   4.192   6.143   6.026  2.1292  1.5522 -1.6727
 1028SOL    HW2 3984   4.133   6.115   5.877 -1.0817 -0.0007 -0.2080
 1029SOL     OW 3985   4.632   6.038   2.560  0.0636 -0.4534 -0.3912
 1029SOL    HW1 3986   4.587   5.984   2.632 -0.4717 -0.8224 -0.9936
 1029SOL    HW2 3987   4.573   6.113   2.532  0.5887  0.1500  0.0741
 1030SOL     OW 3988   1.522   0.314   5.376 -0.0066  0.0078  0.0404
 1030SOL    HW1 3989   1.569   0.256   5.310 -0.7678  0.5378 -1.0057
 1030SOL    HW2 3990   1.424   0.295   5.373  0.1834 -2.3949  3.4756
 1031SOL     OW 3991   5.211   6.792   4.382 -0.1871  0.0801  0.1946
 1031SOL    HW1 3992   5.162   6.873   4.414  1.3920  0.5750  1.5019
 1031SOL    HW2 3993   5.174   6.764   4.294 -3.2889 -0.0390  1.4112
 1032SOL     OW 3994   4.912   3.687   5.719  0.3926 -0.1214 -0.2328
 1032SOL    HW1 3995   4.874   3.723   5.804 -0.8265  0.0240 -0.8182
 1032SOL    HW2 3996   4.972   3.755   5.678  0.2180  0.1920  0.0241
 1033SOL     OW 3997   0.701   4.954   3.074 -0.6985  0.1508  0.2344
 1033SOL    HW1 3998   0.746   4.865   3.069 -1.9662 -0.4832 -0.2790
 1033SOL    HW2 3999   0.770   5.025   3.089  0.6546 -0.6269 -1.7755
 1034SOL     OW 4000   0.798   5.217   4.700 -0.1983  0.4330 -0.2620
 1034SOL    HW1 4001   0.799   5.256   4.792 -0.5476  0.6349 -0.3421
 1034SOL    HW2 4002   0.799   5.291   4.632 -4.6579  0.5979 -0.4656
 1035SOL     OW 4003   4.203   0.597   6.609  0.3739  0.5063 -0.2300
 1035SOL    HW1 4004   4.119   0.561   6.568 -0.9145  1.9796  0.9866
 1035SOL    HW2 4005   4.283   0.563   6.558 -0.9039 -1.4544 -1.0159
 1036SOL     OW 4006   5.160   4.887   4.917  0.6218 -0.1552  0.4120
 1036SOL    HW1 4007   5.141   4.900   4.819  0.1975  1.0799  0.6350
 1036SOL    HW2 4008   5.254   4.856   4.929  0.8029  0.0655 -0.3728
 1037SOL     OW 4009   2.845   4.632   5.540 -0.1436  0.2255  0.4843
 1037SOL    HW1 4010   2.812   4.649   5.448  0.4791 -1.1790 -0.0197
 1037SOL    HW2 4011   2.771   4.649   5.606 -1.4550 -1.3716 -0.4978
 1038SOL     OW 4012   4.556   3.241   6.720  0.8773 -0.7000  0.2288
 1038SOL    HW1 4013   4.541   3.144   6.736  0.1724 -0.8604 -1.2274
 1038SOL    HW2 4014   4.480   3.278   6.666  1.4395  0.5152  0.2402
 1039SOL     OW 4015   6.879   3.405   0.561  0.3201  0.3298 -0.0813
 1039SOL    HW1 4016   6.929   3.338   0.617  0.4151  0.6167  0.1843
 1039SOL    HW2 4017   6.857   3.365   0.472 -0.7547 -0.5072  0.5359
 1040SOL     OW 4018   4.416   6.713   1.783 -0.2189 -0.3155 -0.2640
 1040SOL    HW1 4019   4.410   6.812   1.769  0.0587 -0.2212  0.2427
 1040SOL    HW2 4020   4.507   6.680   1.757 -0.0808 -0.3213  0.2107
 1041SOL     OW 4021   0.487   0.538   6.275 -0.0120  0.5361 -0.1651
 1041SOL    HW1 4022   0.538   0.455   6.254 -0.2605  0.0183  1.1722
 1041SOL    HW2 4023   0.410   0.548   6.212 -0.5814 -0.7999  0.2968
 1042SOL     OW 4024   1.007   2.279   1.873 -0.1546  0.3543 -0.5203
 1042SOL    HW1 4025   1.038   2.308   1.782 -0.7353  0.2179 -0.7681
 1042SOL    HW2 4026   0.908   2.261   1.870 -0.1097  0.0004  0.0499
 1043SOL     OW 4027   0.336   4.617   3.427 -0.8570  0.4066  0.2703
 1043SOL    HW1 4028   0.351   4.543   3.362  0.6643  0.9965 -0.0782
 1043SOL    HW2 4029   0.317   4.579   3.518  1.4210 -0.4559  0.4378
 1044SOL     OW 4030   5.030   0.869   4.149 -0.1049  0.5133  0.1249
 1044SOL    HW1 4031   5.129   0.864   4.136 -0.2994 -0.5628 -1.1546
 1044SOL    HW2 4032   4.995   0.780   4.179 -0.7092  0.8162  0.3342
 1045SOL     OW 4033   5.279   4.958   2.157  0.4225 -0.2157 -0.1297
 1045SOL    HW1 4034   5.302   4.885   2.093 -3.0669 -0.8238 -0.8860
 1045SOL    HW2 4035   5.285   4.923   2.251  2.6373 -0.2129 -0.2326
 1046SOL     OW 4036   0.807   5.794   2.448 -0.2590 -0.1147 -0.5671
 1046SOL    HW1 4037   0.794   5.893   2.436 -1.7076  0.0531  1.7797
 1046SOL    HW2 4038   0.734   5.745   2.402 -0.0980 -0.0440 -0.9003
 1047SOL     OW 4039   5.615   4.296   4.672 -0.4921 -0.0770  0.0688
 1047SOL    HW1 4040   5.547   4.225   4.692 -0.7418  0.6028  1.8163
 1047SOL    HW2 4041   5.636   4.346   4.756  1.8500  0.0439 -0.5261
 1048SOL     OW 4042   6.245   6.641   0.513  0.4969  0.0336 -0.2607
 1048SOL    HW1 4043   6.239   6.546   0.542  0.0882 -0.1998 -1.0787
 1048SOL    HW2 4044   6.254   6.645   0.413  1.6824  0.8127 -0.1509
 1049SOL     OW 4045   0.030   1.863   0.262 -0.6758 -0.0902  0.4722
 1049SOL    HW1 4046   0.006   1.943   0.207  2.5618  0.5194 -0.2647
 1049SOL    HW2 4047  -0.011   1.781   0.221 -1.8180  0.8393 -0.3313
 1050SOL     OW 4048   4.209   2.376   6.025  0.3479 -0.4478  0.4104
 1050SOL    HW1 4049   4.230   2.466   5.987 -0.3612 -0.2820  0.3924
 1050SOL    HW2 4050   4.187   2.313   5.950  1.7608 -0.9061  0.3453
 1051SOL     OW 4051   2.647   6.097   5.129  0.1690 -0.2144 -0.1301
 1051SOL    HW1 4052   2.590   6.179   5.122  0.4489  0.0696  0.7763
 1051SOL    HW2 4053   2.726   6.106   5.069  0.2766  0.2465  0.0777
 1052SOL     OW 4054   6.890   0.212   3.750  0.0749  0.7283 -0.5685
 1052SOL    HW1 4055   6.834   0.253   3.678  0.4866 -0.0508 -1.3461
 1052SOL    HW2 4056   6.975   0.264   3.759  0.0823  0.7491 -0.7432
 1053SOL     OW 4057   2.975   5.650   5.329  0.4438  0.0525 -0.0777
 1053SOL    HW1 4058   3.021   5.563   5.347  0.8696 -0.2329 -2.2687
 1053SOL    HW2 4059   2.887   5.652   5.377  0.4833 -1.5296  0.1263
 1054SOL     OW 4060   6.210   4.909   2.396 -0.3685  0.3830 -0.0513
 1054SOL    HW1 4061   6.167   4.884   2.310 -0.3793  0.3965 -0.0499
 1054SOL    HW2 4062   6.309   4.903   2.387 -0.3712  0.3231 -0.0459
 1055SOL     OW 4063   2.592   2.402   1.362  0.0553  0.8610 -0.2061
 1055SOL    HW1 4064   2.684   2.376   1.333  0.6942  2.1454  0.5661
 1055SOL    HW2 4065   2.543   2.446   1.286  0.4189  0.9985 -0.3608
 1056SOL     OW 4066   6.076   4.562   1.837  0.2050  0.2727  0.5944
 1056SOL    HW1 4067   6.008   4.532   1.904  0.0975 -0.1134  0.3145
 1056SOL    HW2 4068   6.166   4.526   1.862  0.4345  1.2987  1.3133
 1057SOL     OW 4069   4.367   5.809   5.685 -0.3246 -0.7519 -0.6496
 1057SOL    HW1 4070   4.467   5.806   5.684 -0.2667 -2.2938  1.6409
 1057SOL    HW2 4071   4.334   5.864   5.608  2.2793  0.3334 -1.0845
 1058SOL     OW 4072   5.345   1.256   5.809  0.5618  0.0614 -0.1813
 1058SOL    HW1 4073   5.279   1.294   5.874 -0.5500  0.4282 -1.4744
 1058SOL    HW2 4074   5.387   1.330   5.756  0.3597 -0.3114 -0.8804
 1059SOL     OW 4075   3.357   3.217   3.139  0.2769 -0.0239 -0.2029
 1059SOL    HW1 4076   3.441   3.242   3.188 -0.7315  0.5481  1.2995
 1059SOL    HW2 4077   3.370   3.234   3.041  1.5803  0.9679  0.1087
 1060SOL     OW 4078   1.961   2.637   1.257  0.1299 -0.4475  0.1316
 1060SOL    HW1 4079   1.936   2.625   1.352 -0.5482  1.7042  0.2777
 1060SOL    HW2 4080   2.049   2.685   1.252 -0.7374  1.1899 -0.2463
 1061SOL     OW 4081   1.940   7.003   4.313  0.6893  0.1819  0.4158
 1061SOL    HW1 4082   1.923   6.915   4.356 -2.2243  1.3789  1.9414
 1061SOL    HW2 4083   2.012   7.051   4.363 -0.1691  0.0753  1.8020
 1062SOL     OW 4084   6.431   4.363   2.476  0.0909  0.3690 -0.7148
 1062SOL    HW1 4085   6.434   4.463   2.483 -2.0698  0.4044  0.8975
 1062SOL    HW2 4086   6.505   4.331   2.418  0.3976  2.9640 -1.8861
 1063SOL     OW 4087   3.791   5.688   0.498 -0.1750  0.5250 -0.6111
 1063SOL    HW1 4088   3.742   5.770   0.529 -0.3732 -0.0480  0.6385
 1063SOL    HW2 4089   3.739   5.607   0.523  0.3302 -0.0118 -1.2808
 1064SOL     OW 4090   0.391   5.708   6.513  0.2827 -0.2639 -0.8401
 1064SOL    HW1 4091   0.467   5.760   6.475  0.1767 -0.6441 -1.5810
 1064SOL    HW2 4092   0.308   5.765   6.513  1.0011  0.9899  2.0921
 1065SOL     OW 4093   3.573   4.986   4.513 -0.0810  0.1335 -0.4708
 1065SOL    HW1 4094   3.598   4.950   4.603 -1.6701  0.3719  0.1022
 1065SOL    HW2 4095   3.649   4.972   4.449  1.5737  1.0562  1.1922
 1066SOL     OW 4096   1.771   1.336   1.307 -0.0376  0.3850  0.7581
 1066SOL    HW1 4097   1.739   1.425   1.275  0.4394  0.5060  0.6158
 1066SOL    HW2 4098   1.692   1.280   1.334 -0.4166  0.4271 -0.2398
 1067SOL     OW 4099   3.113   1.083   3.625 -0.3415 -0.1931 -0.1706
 1067SOL    HW1 4100   3.015   1.095   3.611 -0.5330 -1.6200 -0.2310
 1067SOL    HW2 4101   3.130   1.049   3.718  0.2963  1.9972  0.5832
 1068SOL     OW 4102   0.387   4.185   5.006  0.3665 -0.1016 -0.2626
 1068SOL    HW1 4103   0.441   4.173   5.089 -0.6424 -1.0571  0.2938
 1068SOL    HW2 4104   0.446   4.183   4.926  1.0768 -2.2440  0.2449
 1069SOL     OW 4105   1.663   5.102   2.566 -0.8924  0.0445 -0.4841
 1069SOL    HW1 4106   1.659   5.008   2.601  0.4030  0.7525  1.7611
 1069SOL    HW2 4107   1.720   5.104   2.483 -2.9965 -1.4776 -2.0761
 1070SOL     OW 4108   6.908   5.732   4.525  0.0819 -0.3261  0.5020
 1070SOL    HW1 4109   6.877   5.644   4.491  1.8061 -1.4248  1.6186
 1070SOL    HW2 4110   6.898   5.736   4.625  2.4771 -0.3927  0.8124
 1071SOL     OW 4111   1.471   1.966   2.300  1.0258  0.2210 -0.3932
 1071SOL    HW1 4112   1.401   1.908   2.258  0.2111  1.0440 -0.1935
 1071SOL    HW2 4113   1.467   2.057   2.260 -0.1928  1.2230  1.8135
 1072SOL     OW 4114   7.013   4.225   5.078 -0.3295  0.0450  0.5669
 1072SOL    HW1 4115   7.061   4.309   5.053  0.9580 -0.8931 -0.2203
 1072SOL    HW2 4116   6.928   4.219   5.025 -0.4584  0.8604  0.6623
 1073SOL     OW 4117   0.916   6.894   2.358 -0.1929  0.7244  0.0682
 1073SOL    HW1 4118   0.888   6.822   2.421  0.4201 -0.0128 -0.4870
 1073SOL    HW2 4119   0.848   6.902   2.285  0.5827 -0.5173 -0.8362
 1074SOL     OW 4120   6.159   1.028   0.149  0.2665  0.8327  0.4201
 1074SOL    HW1 4121   6.173   1.092   0.073 -2.8295  0.8860 -0.2115
 1074SOL    HW2 4122   6.203   1.064   0.231 -0.1039  3.0437 -0.2854
 1075SOL     OW 4123   4.920   0.876   6.956  0.2188  0.3573  0.1226
 1075SOL    HW1 4124   4.990   0.946   6.970  1.7305 -0.9074 -0.7612
 1075SOL    HW2 4125   4.834   0.920   6.930  0.9820  1.9033  0.0653
 1076SOL     OW 4126   2.747   5.980   3.486  0.0734  0.0397  0.4461
 1076SOL    HW1 4127   2.692   6.016   3.561 -1.2066 -1.1357  0.1010
 1076SOL    HW2 4128   2.767   6.053   3.421  0.9612  1.0103  1.7606
 1077SOL     OW 4129   3.223   6.883   1.155  0.2368 -0.3222 -0.0680
 1077SOL    HW1 4130   3.197   6.976   1.129  1.5542 -0.2117 -1.0582
 1077SOL    HW2 4131   3.258   6.883   1.248  0.7367  0.2698 -0.2522
 1078SOL     OW 4132   0.432   2.100   6.529 -0.1763 -0.2220 -0.3459
 1078SOL    HW1 4133   0.359   2.084   6.595  0.7783 -2.6457  0.2279
 1078SOL    HW2 4134   0.393   2.142   6.447 -2.5423 -2.6565 -0.6326
 1079SOL     OW 4135   0.603   0.645   3.071  0.5038  0.2919  0.2840
 1079SOL    HW1 4136   0.505   0.663   3.084  0.4970 -0.1140  0.7933
 1079SOL    HW2 4137   0.639   0.711   3.005 -0.5909 -0.9311 -1.6365
 1080SOL     OW 4138   4.897   1.668   0.348  0.2537  0.0757  0.4490
 1080SOL    HW1 4139   4.819   1.700   0.402 -0.2547  0.6539 -0.5990
 1080SOL    HW2 4140   4.982   1.694   0.395 -0.1716  0.3897  1.0663
 1081SOL     OW 4141   2.703   6.956   3.479  0.2424  0.1792 -0.3641
 1081SOL    HW1 4142   2.787   6.908   3.452  0.4654 -0.7484  1.7847
 1081SOL    HW2 4143   2.640   6.891   3.521 -2.1214  0.6162 -2.9636
 1082SOL     OW 4144   3.275   2.206   6.043 -0.5343 -0.2480 -0.1143
 1082SOL    HW1 4145   3.249   2.301   6.056 -0.5954 -0.6409  3.8890
 1082SOL    HW2 4146   3.367   2.191   6.080 -0.8133 -1.8505 -0.0012
 1083SOL     OW 4147   1.181   3.406   2.538 -0.5548  0.3814  0.0529
 1083SOL    HW1 4148   1.166   3.505   2.539 -0.7565  0.3460  0.4740
 1083SOL    HW2 4149   1.107   3.361   2.588 -0.6217 -0.0041 -0.3861
 1084SOL     OW 4150   0.479   3.907   3.923  0.0734 -0.2340  0.3324
 1084SOL    HW1 4151   0.435   3.817   3.923 -3.0736  1.0692 -2.2493
 1084SOL    HW2 4152   0.561   3.904   3.866 -0.8656 -1.2057 -1.0499
 1085SOL     OW 4153   5.967   4.312   3.156  0.1106  0.0648  0.1400
 1085SOL    HW1 4154   6.018   4.276   3.078 -0.9920  0.2861 -0.7054
 1085SOL    HW2 4155   5.934   4.404   3.134  1.7154  1.0879  1.7433
 1086SOL     OW 4156   5.968   6.858   2.592  0.3338  0.7828  0.1883
 1086SOL    HW1 4157   6.025   6.844   2.511 -2.2522  0.5084 -1.6916
 1086SOL    HW2 4158   5.954   6.771   2.639  0.6799  0.6891  0.1228
 1087SOL     OW 4159   5.357   5.140   0.177 -0.3455 -0.2382 -0.7818
 1087SOL    HW1 4160   5.266   5.118   0.142  0.1267 -2.6618 -0.6728
 1087SOL    HW2 4161   5.396   5.059   0.221  1.7888  0.7903 -0.6539
 1088SOL     OW 4162   3.198   4.032   4.258 -0.1635 -0.1006 -0.0199
 1088SOL    HW1 4163   3.175   4.017   4.354  1.4673 -0.8015  0.3056
 1088SOL    HW2 4164   3.248   4.119   4.249 -1.2646  0.5046 -0.4195
 1089SOL     OW 4165   6.576   6.120   2.085  0.2626 -0.4335 -0.3375
 1089SOL    HW1 4166   6.636   6.169   2.022  3.5775 -1.2206  1.9632
 1089SOL    HW2 4167   6.501   6.077   2.034  1.3526  0.9650 -3.3146
 1090SOL     OW 4168   1.395   2.395   4.225  0.2824 -0.1397 -0.0078
 1090SOL    HW1 4169   1.326   2.324   4.236  0.3553 -0.1253  0.5758
 1090SOL    HW2 4170   1.355   2.473   4.176  0.8951 -1.5702 -2.9560
 1091SOL     OW 4171   4.626   4.400   5.040 -0.1379  0.1141 -0.3589
 1091SOL    HW1 4172   4.544   4.457   5.042  0.4338  0.9608  0.2439
 1091SOL    HW2 4173   4.700   4.451   4.997  0.3399 -0.2388  0.0336
 1092SOL     OW 4174   1.318   0.077   5.706 -0.0396  0.1687  0.0851
 1092SOL    HW1 4175   1.283   0.100   5.616 -0.5989  2.3604  0.7961
 1092SOL    HW2 4176   1.389   0.006   5.698  0.4026  0.8092 -2.1238
 1093SOL     OW 4177   6.372   6.389   5.723  0.1652  0.2418 -0.1096
 1093SOL    HW1 4178   6.448   6.415   5.783  0.3602 -0.2634 -0.1303
 1093SOL    HW2 4179   6.340   6.470   5.673  0.6151  0.4841 -0.0148
 1094SOL     OW 4180   4.972   4.598   1.816  0.5040 -0.0973  0.4070
 1094SOL    HW1 4181   4.920   4.519   1.847  0.4180 -0.2988 -0.2365
 1094SOL    HW2 4182   4.976   4.666   1.889 -0.7767 -0.0220  0.4282
 1095SOL     OW 4183   4.886   6.905   6.507 -0.1078  0.1287  0.1188
 1095SOL    HW1 4184   4.942   6.861   6.578  2.2915 -0.5714 -2.0758
 1095SOL    HW2 4185   4.921   6.881   6.417 -2.9178  1.1782 -1.3651
 1096SOL     OW 4186   4.494   6.071   5.333  0.5054 -0.2233 -0.0918
 1096SOL    HW1 4187   4.415   6.021   5.369  1.1126 -0.8559  0.3803
 1096SOL    HW2 4188   4.462   6.146   5.275 -0.4518 -0.1941  0.4532
 1097SOL     OW 4189   1.429   1.103   5.897  0.5706  0.4250  0.1488
 1097SOL    HW1 4190   1.346   1.064   5.939  1.6677  0.7756  2.8087
 1097SOL    HW2 4191   1.480   1.029   5.853 -0.9303  0.1451 -1.2418
 1098SOL     OW 4192   4.410   0.236   4.591 -0.2761 -0.2478  0.2838
 1098SOL    HW1 4193   4.396   0.333   4.610 -0.4194 -0.1834 -0.1449
 1098SOL    HW2 4194   4.492   0.224   4.535 -0.6073 -0.3133 -0.1988
 1099SOL     OW 4195   6.287   1.597   0.395  0.5324  0.3848 -0.3169
 1099SOL    HW1 4196   6.315   1.663   0.326 -1.1338  0.7321 -0.7098
 1099SOL    HW2 4197   6.228   1.528   0.353  0.4442 -0.0708  0.5320
 1100SOL     OW 4198   5.192   1.599   0.645 -0.3490 -0.1261  0.3756
 1100SOL    HW1 4199   5.207   1.611   0.547 -0.7317 -1.0052  0.2000
 1100SOL    HW2 4200   5.094   1.597   0.664 -0.2964  1.4316  0.9705
 1101SOL     OW 4201   6.711   5.772   6.703 -0.1463  0.5813 -0.0971
 1101SOL    HW1 4202   6.664   5.687   6.677 -0.3460  1.1225 -1.6108
 1101SOL    HW2 4203   6.789   5.751   6.761  0.1660 -0.6965 -0.9449
 1102SOL     OW 4204   3.686   2.899   6.418 -0.2331 -0.6039 -0.5136
 1102SOL    HW1 4205   3.749   2.840   6.366 -0.7426 -1.6764  0.0432
 1102SOL    HW2 4206   3.632   2.953   6.354  0.1147 -0.8785 -1.0551
 1103SOL     OW 4207   5.482   3.454   5.256 -0.7639 -0.3571 -0.0836
 1103SOL    HW1 4208   5.511   3.402   5.176 -0.4809 -0.7337  0.2586
 1103SOL    HW2 4209   5.397   3.503   5.235 -0.7909 -0.6008 -0.5554
 1104SOL     OW 4210   6.140   4.124   2.563 -0.5388  0.3411 -0.4916
 1104SOL    HW1 4211   6.229   4.130   2.608  0.6127  0.8140 -2.6587
 1104SOL    HW2 4212   6.068   4.119   2.631  1.1069  0.5582  1.3455
 1105SOL     OW 4213   1.869   5.979   4.861  0.1504  0.2730 -0.8274
 1105SOL    HW1 4214   1.887   6.025   4.948 -0.6639 -0.0919 -0.4621
 1105SOL    HW2 4215   1.935   6.011   4.793  1.0431  0.2900  0.0133
 1106SOL     OW 4216   5.858   3.538   5.729 -0.4347 -0.1365  0.2997
 1106SOL    HW1 4217   5.948   3.508   5.699  0.4901  2.0933  0.6614
 1106SOL    HW2 4218   5.835   3.625   5.685 -2.4466 -0.6603  0.1946
 1107SOL     OW 4219   2.198   5.007   6.031  0.7208 -0.0726 -0.1583
 1107SOL    HW1 4220   2.289   4.965   6.034  0.1473 -1.3607  1.2402
 1107SOL    HW2 4221   2.134   4.950   6.084 -0.9449  0.6974 -1.2538
 1108SOL     OW 4222   5.789   3.640   4.334 -0.0136 -0.5890  0.2966
 1108SOL    HW1 4223   5.877   3.598   4.356 -0.3904 -1.5162  0.0573
 1108SOL    HW2 4224   5.802   3.739   4.322  1.0101 -0.7242  0.1690
 1109SOL     OW 4225   1.640   5.463   1.335  0.4904  0.1906 -0.1730
 1109SOL    HW1 4226   1.631   5.540   1.398  0.2777 -0.4074  0.5364
 1109SOL    HW2 4227   1.576   5.391   1.361 -1.1041  0.7208 -2.2782
 1110SOL     OW 4228   3.086   1.401   6.482  0.0187  0.0399 -0.0277
 1110SOL    HW1 4229   3.026   1.399   6.563 -0.0261 -1.1782 -0.0742
 1110SOL    HW2 4230   3.142   1.484   6.484 -1.9781  1.4691 -0.2204
 1111SOL     OW 4231   6.490   4.074   5.744  0.1805 -0.0301  0.8381
 1111SOL    HW1 4232   6.556   4.127   5.798  0.3345  0.5260  0.1243
 1111SOL    HW2 4233   6.517   3.978   5.744  2.5748  0.5069 -1.5673
 1112SOL     OW 4234   6.404   2.692   6.298  0.2704 -0.3949 -0.2140
 1112SOL    HW1 4235   6.368   2.748   6.372  1.6928  1.9573 -1.2047
 1112SOL    HW2 4236   6.451   2.612   6.336 -1.2383 -0.6481  1.2530
 1113SOL     OW 4237   4.485   3.259   0.108  0.0518 -0.4258  0.3569
 1113SOL    HW1 4238   4.429   3.206   0.045  0.8705  0.7155 -1.4279
 1113SOL    HW2 4239   4.438   3.267   0.196 -2.8793  0.9223 -1.1839
 1114SOL     OW 4240   1.155   1.028   6.631 -0.3975  0.1578  0.6069
 1114SOL    HW1 4241   1.209   0.950   6.601 -1.0947 -0.4877  0.9913
 1114SOL    HW2 4242   1.178   1.108   6.576  1.0648 -0.0532  0.8776
 1115SOL     OW 4243   2.004   6.639   6.667 -0.2208  0.8843  0.0874
 1115SOL    HW1 4244   1.984   6.689   6.751  1.1760  0.6606  0.5723
 1115SOL    HW2 4245   2.100   6.612   6.666 -0.2601  0.7097 -1.4985
 1116SOL     OW 4246   0.334   2.612   3.094  0.4911  0.0755 -0.0288
 1116SOL    HW1 4247   0.259   2.678   3.090  0.3763  0.0075  0.7259
 1116SOL    HW2 4248   0.301   2.528   3.138  0.3983 -0.8308 -1.7329
 1117SOL     OW 4249   0.824   0.464   3.103 -0.4273  0.0772  0.1187
 1117SOL    HW1 4250   0.911   0.484   3.057  1.3106  0.4870  3.2963
 1117SOL    HW2 4251   0.763   0.543   3.094  0.6462  0.9399  0.1977
 1118SOL     OW 4252   4.620   0.283   5.993 -0.4897 -0.2899  1.2049
 1118SOL    HW1 4253   4.609   0.374   5.953 -0.4777 -0.2502  1.2930
 1118SOL    HW2 4254   4.536   0.230   5.978 -0.1021 -0.6517  0.1646
 1119SOL     OW 4255   1.519   4.272   0.572  0.4745  0.3076 -0.1075
 1119SOL    HW1 4256   1.498   4.176   0.588 -0.5235  0.4985 -0.1710
 1119SOL    HW2 4257   1.442   4.316   0.525  0.3967  1.4157  0.9945
 1120SOL     OW 4258   1.093   4.675   4.613 -0.0267 -0.0091 -0.4908
 1120SOL    HW1 4259   1.117   4.580   4.595  0.1965  0.1813 -1.2502
 1120SOL    HW2 4260   1.177   4.728   4.625 -0.1649 -0.3043  2.2170
 1121SOL     OW 4261   0.309   4.194   1.818  0.0724 -0.0814 -0.0735
 1121SOL    HW1 4262   0.244   4.253   1.867 -0.6346 -1.7841  1.1384
 1121SOL    HW2 4263   0.294   4.203   1.719 -2.0432 -0.4156  0.1653
 1122SOL     OW 4264   0.930   6.444   4.509 -0.3468  0.1529  0.5589
 1122SOL    HW1 4265   0.857   6.502   4.545 -1.7941 -1.1970 -0.1119
 1122SOL    HW2 4266   0.912   6.349   4.531  0.0654 -0.4431 -1.4565
 1123SOL     OW 4267   5.385   2.620   1.349 -0.1754 -0.0066  0.2331
 1123SOL    HW1 4268   5.347   2.528   1.335 -2.3244  1.1003 -2.1775
 1123SOL    HW2 4269   5.311   2.684   1.369  0.9306  1.5769 -0.4963
 1124SOL     OW 4270   4.555   5.765   0.288  0.1873  0.3788 -0.3356
 1124SOL    HW1 4271   4.466   5.797   0.253  1.3276  3.2726 -0.9280
 1124SOL    HW2 4272   4.553   5.765   0.388 -0.7368 -0.4566 -0.3392
 1125SOL     OW 4273   4.875   2.722   6.845 -0.5916 -0.4231 -0.0335
 1125SOL    HW1 4274   4.869   2.787   6.920 -0.2631  0.4271 -0.7326
 1125SOL    HW2 4275   4.863   2.769   6.758  3.1245 -0.5876 -0.8272
 1126SOL     OW 4276   2.804   6.141   4.676 -0.0601 -1.1150  0.3462
 1126SOL    HW1 4277   2.849   6.193   4.603  0.8367 -1.3915  0.6912
 1126SOL    HW2 4278   2.716   6.108   4.643 -0.6780  0.6394  0.1164
 1127SOL     OW 4279   2.788   3.839   0.553 -0.1367 -0.1509  0.1572
 1127SOL    HW1 4280   2.759   3.868   0.461  1.2896  1.1286  0.0821
 1127SOL    HW2 4281   2.718   3.778   0.591 -2.3400  1.8155 -0.4831
 1128SOL     OW 4282   1.004   6.884   4.311 -0.2592  0.5490  0.0811
 1128SOL    HW1 4283   1.016   6.785   4.309 -0.7439  0.4648  0.9252
 1128SOL    HW2 4284   1.083   6.926   4.356  0.0923  0.5806 -0.5510
 1129SOL     OW 4285   6.415   0.299   5.622  0.1813  0.1603  0.1024
 1129SOL    HW1 4286   6.385   0.392   5.642  0.5301  0.0273  1.3494
 1129SOL    HW2 4287   6.399   0.241   5.703  1.3866 -0.5008 -0.1140
 1130SOL     OW 4288   6.844   2.916   1.488 -0.2162 -0.5846  0.3075
 1130SOL    HW1 4289   6.875   2.948   1.399 -0.3354 -0.2941  0.3710
 1130SOL    HW2 4290   6.872   2.980   1.560  1.7060 -1.8533  0.7529
 1131SOL     OW 4291   5.421   3.777   6.669  0.3120 -0.4713 -0.5002
 1131SOL    HW1 4292   5.344   3.841   6.660 -0.0547 -0.7127  0.6344
 1131SOL    HW2 4293   5.401   3.694   6.618 -1.3575 -1.5372  1.6764
 1132SOL     OW 4294   2.342   0.570   4.807  0.0270 -0.9473  0.0059
 1132SOL    HW1 4295   2.318   0.656   4.761  0.3150 -1.9583 -2.1501
 1132SOL    HW2 4296   2.422   0.530   4.762  0.5172 -1.8737  1.6294
 1133SOL     OW 4297   3.306   3.466   1.536 -0.0380 -0.1278  0.0282
 1133SOL    HW1 4298   3.355   3.379   1.533  1.0368  0.4675 -0.3371
 1133SOL    HW2 4299   3.254   3.472   1.621  1.3264 -0.3674  0.9124
 1134SOL     OW 4300   6.544   1.481   5.846  0.1206  0.0947  0.3941
 1134SOL    HW1 4301   6.573   1.448   5.936 -3.3321 -1.8475  0.9568
 1134SOL    HW2 4302   6.621   1.472   5.782  2.4619  0.8618  2.8812
 1135SOL     OW 4303   5.708   1.729   0.871  0.1563 -0.5416 -0.0079
 1135SOL    HW1 4304   5.795   1.764   0.905  0.5618 -1.1523 -0.3867
 1135SOL    HW2 4305   5.690   1.639   0.910 -0.8211  0.0210  0.8714
 1136SOL     OW 4306   3.070   1.615   4.517 -0.2283  0.0516  0.1451
 1136SOL    HW1 4307   2.997   1.573   4.463 -0.2268  1.1687 -0.7687
 1136SOL    HW2 4308   3.046   1.709   4.538  0.0855 -0.1629  1.5499
 1137SOL     OW 4309   0.913   5.697   2.138  0.4186 -0.2260  0.7053
 1137SOL    HW1 4310   1.012   5.712   2.140  0.4904 -0.4424 -0.4743
 1137SOL    HW2 4311   0.891   5.611   2.184  0.7643 -0.1155  1.0812
 1138SOL     OW 4312   1.578   5.085   6.846 -0.1294  0.0690 -0.2539
 1138SOL    HW1 4313   1.663   5.137   6.842 -0.6599  1.1000  1.0550
 1138SOL    HW2 4314   1.503   5.140   6.809 -0.3370 -0.6280 -0.9090
 1139SOL     OW 4315   3.491   2.168   4.188 -0.4410 -0.0524  0.3348
 1139SOL    HW1 4316   3.562   2.179   4.257 -0.1339 -0.4204  0.0783
 1139SOL    HW2 4317   3.525   2.112   4.113 -0.8673  0.1078  0.0158
 1140SOL     OW 4318   2.657   0.940   1.342 -0.1836 -0.0212 -0.2322
 1140SOL    HW1 4319   2.677   0.878   1.266  0.6078 -1.1358  0.8268
 1140SOL    HW2 4320   2.558   0.951   1.351 -0.3094 -0.5269 -0.9354
 1141SOL     OW 4321   5.993   6.624   3.722 -0.4773  0.2718 -0.7315
 1141SOL    HW1 4322   6.011   6.665   3.811  0.1056 -1.6287  0.0579
 1141SOL    HW2 4323   6.043   6.676   3.652 -0.4663  1.4206  0.0873
 1142SOL     OW 4324   2.718   5.583   3.576  0.1977  0.2468 -0.3761
 1142SOL    HW1 4325   2.661   5.501   3.579 -0.9615  0.9957 -0.9866
 1142SOL    HW2 4326   2.812   5.557   3.553 -0.0358 -0.9487 -0.0778
 1143SOL     OW 4327   2.163   4.650   4.996  0.6016 -0.1150  0.5428
 1143SOL    HW1 4328   2.261   4.664   5.011  0.6060  0.8672 -0.3396
 1143SOL    HW2 4329   2.113   4.674   5.080  1.0022  0.7363  0.5467
 1144SOL     OW 4330   6.645   2.489   0.670 -0.3858  0.4290  0.2691
 1144SOL    HW1 4331   6.643   2.435   0.586  3.0025 -0.2020  0.4231
 1144SOL    HW2 4332   6.552   2.512   0.697 -1.7081 -1.0073 -2.5513
 1145SOL     OW 4333   2.322   1.283   4.921 -0.0953 -0.2493  0.3670
 1145SOL    HW1 4334   2.263   1.230   4.982  0.4905 -0.7608  0.4957
 1145SOL    HW2 4335   2.269   1.359   4.882 -0.3929  0.2936  1.7700
 1146SOL     OW 4336   0.705   4.560   1.839  0.3564 -0.4163 -0.1692
 1146SOL    HW1 4337   0.728   4.483   1.898  3.1720 -0.5517 -1.2910
 1146SOL    HW2 4338   0.735   4.540   1.746  0.2240  1.6136 -0.6914
 1147SOL     OW 4339   1.296   4.769   5.971  0.0472 -0.7292 -0.1865
 1147SOL    HW1 4340   1.275   4.748   6.066  0.2674  0.0894  0.0490
 1147SOL    HW2 4341   1.243   4.849   5.941  0.8656 -0.2360 -0.3728
 1148SOL     OW 4342   6.679   0.721   4.435 -0.5330  0.1327 -0.1978
 1148SOL    HW1 4343   6.645   0.807   4.473 -0.9083  0.3779 -1.0567
 1148SOL    HW2 4344   6.779   0.719   4.442 -0.4774  0.8729 -0.6218
 1149SOL     OW 4345   6.063   3.111   0.104 -0.5598  0.0774  0.3532
 1149SOL    HW1 4346   6.100   3.150   0.189  0.2917 -0.8511  0.4388
 1149SOL    HW2 4347   6.012   3.181   0.054  2.0442  1.7389 -0.1928
 1150SOL     OW 4348   2.020   0.025   3.375  0.0284  0.0913  0.3331
 1150SOL    HW1 4349   2.068   0.072   3.449  0.2018  0.4293  0.0089
 1150SOL    HW2 4350   2.074  -0.055   3.347  0.1285  0.1557  0.3417
 1151SOL     OW 4351   0.907   1.185   2.688  0.3766 -0.1396 -0.5722
 1151SOL    HW1 4352   0.950   1.118   2.627 -1.0670  0.5816 -2.4613
 1151SOL    HW2 4353   0.912   1.276   2.647  2.4126  1.0592  2.0036
 1152SOL     OW 4354   4.842   3.911   6.484 -0.3609 -0.2993 -0.0239
 1152SOL    HW1 4355   4.751   3.880   6.456 -0.2989 -0.4857 -0.0197
 1152SOL    HW2 4356   4.839   4.008   6.507 -0.4905 -0.2290 -0.3322
 1153SOL     OW 4357   4.251   2.348   3.514 -0.1674  0.0999  0.2081
 1153SOL    HW1 4358   4.284   2.288   3.586 -0.7877  0.1198  0.5199
 1153SOL    HW2 4359   4.172   2.306   3.470 -0.0061  0.2474 -0.2253
 1154SOL     OW 4360   1.991   1.706   6.471  0.0456 -0.2647  0.4682
 1154SOL    HW1 4361   1.946   1.617   6.474 -1.8687  0.6685  0.3401
 1154SOL    HW2 4362   2.012   1.730   6.376 -0.0443 -0.2743  0.4466
 1155SOL     OW 4363   6.207   5.948   0.077 -0.3936  0.3858  0.7216
 1155SOL    HW1 4364   6.161   6.036   0.083  0.3839  0.8842 -0.3669
 1155SOL    HW2 4365   6.175   5.899  -0.004  1.7562  1.2312 -0.7166
 1156SOL     OW 4366   6.322   0.220   4.423 -0.0177  0.2727  0.6644
 1156SOL    HW1 4367   6.366   0.249   4.508  0.4896  0.9431  0.1792
 1156SOL    HW2 4368   6.223   0.229   4.432  0.0444  0.5386  1.1092
 1157SOL     OW 4369   5.266   6.917   1.862 -0.1102  0.3918  0.7054
 1157SOL    HW1 4370   5.293   6.970   1.782  0.4311  1.3174  1.4893
 1157SOL    HW2 4371   5.195   6.851   1.836  0.5371  0.2003 -0.6777
 1158SOL     OW 4372   3.924   1.919   1.601 -0.7026  0.0941  0.3290
 1158SOL    HW1 4373   3.868   1.951   1.524  0.4669  2.3297  0.3334
 1158SOL    HW2 4374   3.897   1.967   1.684  1.1191  1.1596  0.3469
 1159SOL     OW 4375   0.956   6.916   5.989 -0.2609  0.0300  0.1910
 1159SOL    HW1 4376   0.940   6.857   6.068  0.9102 -1.6951 -0.7881
 1159SOL    HW2 4377   0.980   6.860   5.910  0.5558  1.8076 -0.8967
 1160SOL     OW 4378   5.525   0.860   5.287 -0.6741 -0.2001 -0.1239
 1160SOL    HW1 4379   5.618   0.896   5.276 -0.3430 -0.3869  1.8457
 1160SOL    HW2 4380   5.471   0.885   5.207  0.4458  1.8173 -0.3220
 1161SOL     OW 4381   1.821   0.141   0.794  0.1035  0.2961 -0.4481
 1161SOL    HW1 4382   1.736   0.130   0.845  1.5733 -2.8510  1.5901
 1161SOL    HW2 4383   1.876   0.212   0.838 -0.3458  0.4620 -0.1397
 1162SOL     OW 4384   1.526   6.470   5.909  0.0079  0.1206 -0.1557
 1162SOL    HW1 4385   1.481   6.453   5.996 -0.3306  0.7354 -0.2037
 1162SOL    HW2 4386   1.587   6.393   5.887  1.2231  0.6139  1.3282
 1163SOL     OW 4387   4.414   5.503   4.292  0.2005  0.2122  0.0105
 1163SOL    HW1 4388   4.464   5.563   4.354 -2.5327  1.4481  1.1977
 1163SOL    HW2 4389   4.459   5.414   4.286  2.3529  1.1760  1.0951
 1164SOL     OW 4390   3.362   6.952   1.978  0.4663  0.5812  0.0039
 1164SOL    HW1 4391   3.367   7.052   1.973 -0.4676  0.6477  0.2921
 1164SOL    HW2 4392   3.301   6.926   2.052  0.0163 -0.1975 -0.6370
 1165SOL     OW 4393   0.525   5.106   3.247 -0.9121  0.2678 -0.7099
 1165SOL    HW1 4394   0.432   5.070   3.255 -0.4297 -0.9239 -0.1685
 1165SOL    HW2 4395   0.576   5.050   3.183 -0.1512  0.0047  0.1099
 1166SOL     OW 4396   1.124   2.439   0.087  0.1958 -0.2422  0.3440
 1166SOL    HW1 4397   1.141   2.525   0.038 -0.0251 -1.1539 -1.4130
 1166SOL    HW2 4398   1.183   2.435   0.168  0.2709  1.5117  0.4245
 1167SOL     OW 4399   1.359   0.419   2.817  0.7434 -0.8266 -0.1105
 1167SOL    HW1 4400   1.441   0.362   2.829  1.9535  0.2421 -2.5535
 1167SOL    HW2 4401   1.319   0.401   2.727 -1.5053 -0.9823  0.8513
 1168SOL     OW 4402   0.152   4.878   6.817 -0.2214  0.0594  0.4865
 1168SOL    HW1 4403   0.177   4.806   6.882  2.0614  1.3407  1.1139
 1168SOL    HW2 4404   0.095   4.946   6.863 -0.2225 -0.0275  0.6140
 1169SOL     OW 4405   5.411   6.972   3.479 -0.1217 -0.3359  0.3045
 1169SOL    HW1 4406   5.497   7.000   3.522  0.1748 -0.2754 -0.3270
 1169SOL    HW2 4407   5.408   7.004   3.384 -0.3475 -1.3124 -0.0298
 1170SOL     OW 4408   5.671   4.792   0.669  0.0174  0.4744 -0.0632
 1170SOL    HW1 4409   5.713   4.843   0.594 -1.4071  1.1377 -0.4346
 1170SOL    HW2 4410   5.643   4.856   0.741 -2.5874  0.4093 -0.9188
 1171SOL     OW 4411   1.379   3.361   5.295  0.1067  0.1626  0.3069
 1171SOL    HW1 4412   1.398   3.358   5.393  2.2612 -0.0111 -0.0518
 1171SOL    HW2 4413   1.439   3.428   5.251 -0.0701 -0.5028 -1.0289
 1172SOL     OW 4414   3.128   5.035   6.011 -0.4678  0.0677  0.3352
 1172SOL    HW1 4415   3.195   4.998   5.946  0.7135  0.9809  1.0024
 1172SOL    HW2 4416   3.176   5.075   6.089 -1.6592  2.9668 -0.3028
 1173SOL     OW 4417   3.101   0.169   6.642  0.7740  0.4092 -0.3299
 1173SOL    HW1 4418   3.105   0.258   6.687  0.2356 -0.7598  2.2217
 1173SOL    HW2 4419   3.193   0.136   6.623  1.0553  2.6856 -4.1463
 1174SOL     OW 4420   0.441   1.395   3.981  0.0810 -0.1364 -0.3156
 1174SOL    HW1 4421   0.538   1.382   3.963  0.2482  0.7982 -0.1012
 1174SOL    HW2 4422   0.389   1.380   3.897  0.2807 -1.8050 -0.1777
 1175SOL     OW 4423   1.020   1.807   2.196  0.0012 -0.2130 -0.2578
 1175SOL    HW1 4424   0.989   1.880   2.134 -0.4589 -0.5542 -0.4349
 1175SOL    HW2 4425   1.120   1.803   2.194  0.0497  0.6124 -0.0151
 1176SOL     OW 4426   5.454   2.073   0.369  0.2721 -0.1335 -0.2823
 1176SOL    HW1 4427   5.487   2.126   0.290  0.2631  0.2122 -0.0571
 1176SOL    HW2 4428   5.354   2.070   0.368  0.2248  0.8056  0.3088
 1177SOL     OW 4429   6.639   6.949   1.122  0.3048 -0.4877 -0.1752
 1177SOL    HW1 4430   6.624   6.851   1.110 -0.1864 -0.4492  0.1135
 1177SOL    HW2 4431   6.706   6.964   1.195 -0.4092 -0.5858  0.5140
 1178SOL     OW 4432   1.933   0.501   0.638  0.5884 -0.2328  0.5319
 1178SOL    HW1 4433   1.883   0.502   0.725 -0.4146 -2.7220  0.0797
 1178SOL    HW2 4434   1.869   0.514   0.562  1.2853  0.7388  0.0951
 1179SOL     OW 4435   1.462   2.385   1.357  0.6507 -0.3359 -0.1018
 1179SOL    HW1 4436   1.398   2.358   1.285 -0.6588  0.1917  0.8129
 1179SOL    HW2 4437   1.533   2.443   1.319 -0.2965  0.3321 -0.8896
 1180SOL     OW 4438   1.703   1.619   1.250 -0.0211  0.0127  0.2268
 1180SOL    HW1 4439   1.780   1.652   1.195 -1.1163  1.2848 -0.5956
 1180SOL    HW2 4440   1.638   1.694   1.264 -0.3139 -0.5725  2.3404
 1181SOL     OW 4441   4.976   6.001   2.164  0.7536 -0.0889  0.3336
 1181SOL    HW1 4442   5.014   6.093   2.174  0.2414  0.1862 -0.1966
 1181SOL    HW2 4443   4.883   5.999   2.200  0.6474 -0.3229  0.0464
 1182SOL     OW 4444   4.862   6.512   6.016  0.3832 -0.0338  0.1216
 1182SOL    HW1 4445   4.958   6.537   5.998 -0.2332  0.8117 -2.3893
 1182SOL    HW2 4446   4.824   6.469   5.934 -1.5854  0.2754  0.8416
 1183SOL     OW 4447   4.282   7.008   0.318 -0.2945  0.5220 -0.1104
 1183SOL    HW1 4448   4.196   7.047   0.351 -1.2999 -0.4964 -1.4124
 1183SOL    HW2 4449   4.262   6.927   0.263  1.5125  0.2934 -0.4713
 1184SOL     OW 4450   0.797   5.278   5.808 -0.4770  0.2056 -0.0715
 1184SOL    HW1 4451   0.871   5.335   5.772  0.7574 -0.5886  1.1258
 1184SOL    HW2 4452   0.817   5.182   5.791 -2.3124  0.0501 -1.6493
 1185SOL     OW 4453   2.326   4.633   1.758 -0.0978  0.2520 -0.1728
 1185SOL    HW1 4454   2.411   4.605   1.802  0.7396  0.8508 -1.3781
 1185SOL    HW2 4455   2.301   4.725   1.789 -0.7123 -0.1867  0.7106
 1186SOL     OW 4456   6.948   3.380   1.260  0.3101  0.4450 -0.4821
 1186SOL    HW1 4457   6.867   3.345   1.307  2.5998 -2.3425  1.7740
 1186SOL    HW2 4458   6.965   3.474   1.289 -0.0882 -0.1769  2.0221
 1187SOL     OW 4459   2.385   5.103   5.006 -0.0604  0.0088 -0.3583
 1187SOL    HW1 4460   2.395   5.045   5.087  2.3679  0.8284  0.0072
 1187SOL    HW2 4461   2.371   5.045   4.926 -0.6852 -0.9093  0.3947
 1188SOL     OW 4462   1.883   0.761   4.808  0.0274 -0.3018 -0.4560
 1188SOL    HW1 4463   1.942   0.829   4.850  0.1036 -0.1229 -0.8515
 1188SOL    HW2 4464   1.804   0.807   4.767 -0.6066 -0.5723  0.4288
 1189SOL     OW 4465   2.429   2.676   2.738  0.3458  0.0022 -0.4509
 1189SOL    HW1 4466   2.449   2.598   2.679  1.6543  0.2282 -0.3358
 1189SOL    HW2 4467   2.444   2.651   2.833  1.4324  0.5573 -0.4547
 1190SOL     OW 4468   4.257   1.082   5.260 -0.0256 -0.0865  0.4509
 1190SOL    HW1 4469   4.346   1.046   5.232  0.4008  0.9900  0.4030
 1190SOL    HW2 4470   4.197   1.088   5.181  0.3722  0.6271  0.1914
 1191SOL     OW 4471   2.736   2.120   0.488 -0.0105 -0.1949 -0.2061
 1191SOL    HW1 4472   2.710   2.187   0.558 -1.4669  1.1407 -1.9413
 1191SOL    HW2 4473   2.657   2.063   0.466  0.6801 -1.1845 -0.1908
 1192SOL     OW 4474   0.932   6.488   1.823  0.0001  0.2467 -0.5079
 1192SOL    HW1 4475   1.019   6.502   1.776 -0.4350  1.7699 -0.9115
 1192SOL    HW2 4476   0.886   6.576   1.835 -2.1043 -0.6324 -1.5135
 1193SOL     OW 4477   0.670   5.519   4.164  0.0905 -0.0137 -0.5815
 1193SOL    HW1 4478   0.705   5.465   4.241  1.0726 -1.3388 -1.9144
 1193SOL    HW2 4479   0.579   5.554   4.187  0.1866 -0.7213  1.0147
 1194SOL     OW 4480   4.602   1.490   6.092 -0.4413  0.7141  0.3546
 1194SOL    HW1 4481   4.537   1.449   6.028  1.4097 -2.9327  0.5813
 1194SOL    HW2 4482   4.558   1.499   6.182 -1.2844  0.3813 -0.0093
 1195SOL     OW 4483   2.269   1.891   0.198  0.3255 -0.7887  0.2690
 1195SOL    HW1 4484   2.224   1.851   0.277  0.3378 -2.4053 -0.4826
 1195SOL    HW2 4485   2.205   1.894   0.121  0.9693 -1.5143 -0.3182
 1196SOL     OW 4486   3.122   1.025   4.620 -0.1995 -0.4190 -0.3877
 1196SOL    HW1 4487   3.086   1.118   4.614 -0.2635 -0.4750 -0.9079
 1196SOL    HW2 4488   3.191   1.021   4.692  0.4306  0.2353 -0.9450
 1197SOL     OW 4489   3.691   0.782   3.093  0.1483  0.9440  0.0564
 1197SOL    HW1 4490   3.653   0.718   3.159  1.5954 -1.2930 -1.1676
 1197SOL    HW2 4491   3.653   0.873   3.110 -2.6348 -0.3285  1.3607
 1198SOL     OW 4492   0.210   6.879   2.704  0.0616 -0.1058  0.0021
 1198SOL    HW1 4493   0.186   6.883   2.607  1.4816  0.1142 -0.3656
 1198SOL    HW2 4494   0.247   6.789   2.725  1.1206  0.3140 -0.0144
 1199SOL     OW 4495   5.950   3.155   0.808 -0.1169 -0.0185  0.2869
 1199SOL    HW1 4496   5.989   3.247   0.819 -0.7733  0.2191  0.6850
 1199SOL    HW2 4497   5.961   3.104   0.893  0.5763 -0.4455 -0.0507
 1200SOL     OW 4498   3.198   3.635   3.591  0.5664 -0.7803 -0.6347
 1200SOL    HW1 4499   3.107   3.676   3.597  0.5422 -0.8245 -0.6914
 1200SOL    HW2 4500   3.262   3.684   3.650  0.0170 -2.0716  1.1149
 1201SOL     OW 4501   5.105   1.329   2.058  0.0180 -0.5048  0.2021
 1201SOL    HW1 4502   5.027   1.350   2.000  0.5346 -2.9118 -1.5493
 1201SOL    HW2 4503   5.119   1.229   2.060  1.3195 -0.3587  2.8070
 1202SOL     OW 4504   1.780   5.315   3.903  0.0244 -0.1781  0.1204
 1202SOL    HW1 4505   1.741   5.394   3.857  0.9670  0.5427  0.5285
 1202SOL    HW2 4506   1.851   5.345   3.968 -0.4058 -1.2491  1.1378
 1203SOL     OW 4507   5.987   2.286   3.272  0.1040 -0.0525  0.5723
 1203SOL    HW1 4508   5.966   2.206   3.217 -1.6796  0.1446  0.9163
 1203SOL    HW2 4509   5.913   2.353   3.264  1.4300  1.4843  0.4757
 1204SOL     OW 4510   4.469   0.504   2.840 -1.1912 -0.0847 -0.1938
 1204SOL    HW1 4511   4.550   0.555   2.868 -0.7023 -1.1668  0.4092
 1204SOL    HW2 4512   4.433   0.543   2.755 -0.8794  1.2919  0.2772
 1205SOL     OW 4513   1.934   4.161   3.881 -0.3678 -0.4945  0.2390
 1205SOL    HW1 4514   1.992   4.235   3.917 -1.0452  0.2202 -0.1196
 1205SOL    HW2 4515   1.935   4.164   3.781 -0.1163 -1.2085  0.2111
 1206SOL     OW 4516   5.036   2.677   3.404 -0.1575 -0.0305 -0.5683
 1206SOL    HW1 4517   5.039   2.596   3.345  0.8619 -1.1091  0.9077
 1206SOL    HW2 4518   5.072   2.755   3.353  0.1321 -0.7885 -1.5703
 1207SOL     OW 4519   0.672   0.163   2.653 -0.8288  0.0720 -0.1511
 1207SOL    HW1 4520   0.653   0.072   2.617 -2.1444  0.6000 -0.8285
 1207SOL    HW2 4521   0.712   0.154   2.745  1.5250 -1.2505 -1.1965
 1208SOL     OW 4522   4.233   0.851   5.011  0.2976  0.4567  0.2860
 1208SOL    HW1 4523   4.300   0.915   4.973 -0.2923  0.9086 -0.0046
 1208SOL    HW2 4524   4.175   0.816   4.937  0.3773 -0.1359  0.4985
 1209SOL     OW 4525   5.416   6.395   1.874 -0.0351  0.1642 -0.1888
 1209SOL    HW1 4526   5.459   6.356   1.956  1.0415 -0.3690 -0.9728
 1209SOL    HW2 4527   5.355   6.328   1.832 -0.1354  0.2247 -0.1387
 1210SOL     OW 4528   5.151   2.762   1.398 -0.0446  0.2501 -0.5596
 1210SOL    HW1 4529   5.103   2.764   1.310 -2.5606  1.3453  0.7332
 1210SOL    HW2 4530   5.086   2.738   1.471  1.8589 -0.2150  1.0862
 1211SOL     OW 4531   4.725   4.715   0.853 -0.1732 -0.0735 -0.1623
 1211SOL    HW1 4532   4.664   4.749   0.781 -1.7552  0.9826  1.5862
 1211SOL    HW2 4533   4.695   4.624   0.881  0.2423 -0.3478 -0.5989
 1212SOL     OW 4534   2.025   4.388   2.067 -0.2799 -0.2189  0.6176
 1212SOL    HW1 4535   2.016   4.484   2.092 -0.9565 -0.2727  0.6187
 1212SOL    HW2 4536   2.111   4.352   2.102  0.5303  0.6909 -0.4202
 1213SOL     OW 4537   4.801   5.367   4.813  0.5057  0.3079 -0.7945
 1213SOL    HW1 4538   4.767   5.460   4.826  1.7653  0.7310 -0.3429
 1213SOL    HW2 4539   4.798   5.344   4.716 -0.5092  0.5334 -0.8267
 1214SOL     OW 4540   6.398   1.579   5.470 -0.0149 -0.0924  0.6092
 1214SOL    HW1 4541   6.472   1.595   5.536  0.4418 -1.3046  0.4001
 1214SOL    HW2 4542   6.310   1.582   5.518  0.0942  1.7864  0.7885
 1215SOL     OW 4543   6.010   0.677   4.046  0.3103 -0.0796  0.2821
 1215SOL    HW1 4544   5.972   0.732   3.971 -2.9178  0.8672  2.3675
 1215SOL    HW2 4545   6.038   0.738   4.120  1.1432 -1.0777  0.8008
 1216SOL     OW 4546   4.003   1.833   0.292  1.0729 -0.1167  0.3460
 1216SOL    HW1 4547   4.062   1.899   0.245 -0.1559  1.1748  0.5511
 1216SOL    HW2 4548   3.970   1.765   0.226  1.8141 -0.1453 -0.0055
 1217SOL     OW 4549   0.127   2.520   2.659 -0.2007 -0.1899 -0.0814
 1217SOL    HW1 4550   0.218   2.489   2.686 -0.6104 -2.4550 -1.0369
 1217SOL    HW2 4551   0.131   2.614   2.627  2.1763 -0.8197 -1.8483
 1218SOL     OW 4552   3.127   2.431   0.317 -0.3724 -0.0889 -0.3350
 1218SOL    HW1 4553   3.093   2.525   0.308  0.5846  0.3601  0.5675
 1218SOL    HW2 4554   3.049   2.368   0.322 -1.0216  0.5279 -1.9853
 1219SOL     OW 4555   0.891   2.900   0.711 -0.4830 -0.0945 -0.8005
 1219SOL    HW1 4556   0.903   2.952   0.627 -0.5310  0.7298 -0.3131
 1219SOL    HW2 4557   0.795   2.904   0.740 -0.1084  1.4220  0.3928
 1220SOL     OW 4558   1.863   4.446   4.579  0.5155  0.1885 -0.4813
 1220SOL    HW1 4559   1.877   4.452   4.678  2.3815  0.2148 -0.7012
 1220SOL    HW2 4560   1.851   4.538   4.542 -0.3157  0.1684 -0.2724
 1221SOL     OW 4561   6.554   2.921   5.555 -0.4743 -0.0040  0.3753
 1221SOL    HW1 4562   6.583   2.879   5.641  0.1148 -2.0971 -0.7549
 1221SOL    HW2 4563   6.533   2.849   5.488 -1.8623  1.5307 -0.9526
 1222SOL     OW 4564   6.698   1.308   2.223 -0.1533  0.3227 -0.0276
 1222SOL    HW1 4565   6.629   1.303   2.296 -0.4735  0.9904 -0.2709
 1222SOL    HW2 4566   6.652   1.327   2.136  0.3015  0.3104 -0.2700
 1223SOL     OW 4567   3.271   6.942   6.038  0.3257 -0.2358  0.0244
 1223SOL    HW1 4568   3.289   6.962   5.942 -0.6323  0.1916 -0.0861
 1223SOL    HW2 4569   3.321   7.007   6.096 -0.6278  0.7808 -0.2572
 1224SOL     OW 4570   3.018   4.832   0.970  0.0904  0.7047 -0.0738
 1224SOL    HW1 4571   3.083   4.773   0.923 -2.1371 -0.0760 -2.4610
 1224SOL    HW2 4572   2.974   4.892   0.903 -1.3670  1.4423  1.4823
 1225SOL     OW 4573   2.370   1.467   4.390  0.0818 -0.2464  0.5062
 1225SOL    HW1 4574   2.318   1.466   4.305 -1.2189  1.2144  1.2106
 1225SOL    HW2 4575   2.421   1.382   4.400 -0.8950 -1.0576 -1.0260
 1226SOL     OW 4576   6.678   5.550   1.441  0.2363 -0.5488  0.3582
 1226SOL    HW1 4577   6.603   5.561   1.375  0.4159 -1.7944 -0.0797
 1226SOL    HW2 4578   6.762   5.527   1.392  1.0141  1.1884  0.8169
 1227SOL     OW 4579   2.633   1.055   3.740 -0.2137  0.1701  0.1459
 1227SOL    HW1 4580   2.561   1.119   3.767  0.3548  0.9092 -0.0532
 1227SOL    HW2 4581   2.600   0.998   3.665  0.1656  2.1542 -1.6513
 1228SOL     OW 4582   5.640   3.721   4.561  0.1979  0.0012  0.4216
 1228SOL    HW1 4583   5.662   3.705   4.464  0.4163  2.4282  0.0220
 1228SOL    HW2 4584   5.704   3.670   4.618  2.2265  1.1108 -0.7385
 1229SOL     OW 4585   5.371   1.795   0.661 -0.1081 -0.1328 -0.1107
 1229SOL    HW1 4586   5.459   1.747   0.661  0.6535  1.2001 -1.3634
 1229SOL    HW2 4587   5.297   1.728   0.675  0.9971 -1.4923 -0.4992
 1230SOL     OW 4588   6.791   5.211   6.508  0.1404  0.0208  0.4508
 1230SOL    HW1 4589   6.798   5.122   6.553  1.1581  0.1733  0.6059
 1230SOL    HW2 4590   6.698   5.222   6.473 -0.2942 -0.6662  1.3246
 1231SOL     OW 4591   1.778   4.764   2.429 -0.3892  0.3080  0.2543
 1231SOL    HW1 4592   1.873   4.777   2.456 -0.3069 -1.3960  0.9322
 1231SOL    HW2 4593   1.721   4.753   2.510 -0.7227 -1.2736 -0.1476
 1232SOL     OW 4594   4.621   0.825   6.574 -0.0042  0.2048  0.8033
 1232SOL    HW1 4595   4.720   0.835   6.580  0.1554 -0.0571 -0.8780
 1232SOL    HW2 4596   4.598   0.773   6.492 -1.5852  1.0386  0.6830
 1233SOL     OW 4597   6.122   0.432   5.435  0.2200 -0.0718 -0.1759
 1233SOL    HW1 4598   6.100   0.431   5.337  0.5321 -1.0277 -0.2429
 1233SOL    HW2 4599   6.211   0.476   5.448 -0.5183  1.4893 -0.1494
 1234SOL     OW 4600   1.134   4.883   1.515 -0.1541 -0.2534  0.2014
 1234SOL    HW1 4601   1.077   4.961   1.488 -0.9531 -0.5998  0.8285
 1234SOL    HW2 4602   1.085   4.829   1.583  0.8825 -0.6448  0.6522
 1235SOL     OW 4603   5.275   2.262   2.472 -0.1083  0.5217 -0.3214
 1235SOL    HW1 4604   5.241   2.335   2.532  2.4144  0.8235  0.8714
 1235SOL    HW2 4605   5.232   2.271   2.382 -2.1680  1.5565  0.6922
 1236SOL     OW 4606   4.704   5.647   2.094  0.3984 -0.0821 -0.3734
 1236SOL    HW1 4607   4.796   5.684   2.084  0.8869 -0.1845  2.8640
 1236SOL    HW2 4608   4.709   5.555   2.132 -1.0474  0.0147  0.0899
 1237SOL     OW 4609   0.063   3.892   5.319  0.2633 -0.0293  0.0800
 1237SOL    HW1 4610   0.111   3.976   5.292  1.2210 -0.6846 -0.2930
 1237SOL    HW2 4611   0.017   3.853   5.239 -1.0612  0.6778  0.4660
 1238SOL     OW 4612   4.792   6.477   0.273  0.3842  0.4435 -0.0453
 1238SOL    HW1 4613   4.811   6.386   0.310 -0.1771 -0.4276 -1.7792
 1238SOL    HW2 4614   4.861   6.501   0.205  0.2026  1.0589 -0.0196
 1239SOL     OW 4615   6.991   2.064   2.659  0.4669  0.0502  0.1048
 1239SOL    HW1 4616   6.926   2.072   2.734  0.3096 -0.4480  0.0271
 1239SOL    HW2 4617   6.991   2.148   2.605 -0.4207 -0.0897 -0.1334
 1240SOL     OW 4618   2.009   1.243   5.273  0.7632 -0.4349  0.2613
 1240SOL    HW1 4619   1.978   1.286   5.358 -0.2750 -2.6497  1.0813
 1240SOL    HW2 4620   1.947   1.270   5.198 -0.2367 -0.9397  0.8832
 1241SOL     OW 4621   5.688   0.867   6.942  0.1720 -0.1561  0.8477
 1241SOL    HW1 4622   5.740   0.827   7.016  0.1527  2.0996  2.1858
 1241SOL    HW2 4623   5.717   0.962   6.928  0.3649 -0.5487 -2.2552
 1242SOL     OW 4624   3.839   3.023   2.844  0.0833 -0.2730 -0.7151
 1242SOL    HW1 4625   3.781   3.040   2.924  0.3377 -0.8878 -0.3946
 1242SOL    HW2 4626   3.928   3.067   2.859  0.4306 -1.1032 -0.2752
 1243SOL     OW 4627   2.599   6.718   5.502  0.5068  0.4836 -0.1938
 1243SOL    HW1 4628   2.654   6.686   5.579  0.1294  2.0887  0.7998
 1243SOL    HW2 4629   2.515   6.759   5.537 -1.0467 -1.2864 -1.6309
 1244SOL     OW 4630   1.757   1.686   5.873  0.4381  0.0656  0.1789
 1244SOL    HW1 4631   1.772   1.749   5.948 -0.8575 -1.1181  1.4876
 1244SOL    HW2 4632   1.839   1.630   5.859  1.0456  0.9818  0.0102
 1245SOL     OW 4633   5.089   2.685   2.767  0.2226 -0.3159 -0.6303
 1245SOL    HW1 4634   5.124   2.701   2.859  0.6079 -0.7046 -0.7050
 1245SOL    HW2 4635   5.137   2.608   2.726 -0.2271 -0.4006 -1.0095
 1246SOL     OW 4636   4.483   6.035   4.341 -0.0654  0.5200 -0.7491
 1246SOL    HW1 4637   4.454   5.945   4.375 -1.0124  0.8245 -0.7356
 1246SOL    HW2 4638   4.571   6.059   4.382  0.0538 -0.2697 -0.5220
 1247SOL     OW 4639   0.965   0.739   2.735  0.9337  0.2404 -0.0088
 1247SOL    HW1 4640   0.879   0.726   2.685  0.5691 -2.3974  1.1490
 1247SOL    HW2 4641   0.959   0.823   2.790 -0.5878  0.5200 -0.5415
 1248SOL     OW 4642   1.757   4.822   2.765 -0.2619 -0.3486  0.2309
 1248SOL    HW1 4643   1.662   4.809   2.739 -0.3634  2.4308 -1.2044
 1248SOL    HW2 4644   1.761   4.885   2.843  0.4030 -1.4122  1.0893
 1249SOL     OW 4645   2.147   0.134   1.069  0.1049  0.0563 -0.1870
 1249SOL    HW1 4646   2.234   0.166   1.031  0.4829  0.1941  0.7628
 1249SOL    HW2 4647   2.123   0.046   1.028  0.7280 -0.0214 -0.3927
 1250SOL     OW 4648   2.992   3.331   2.642 -0.1986  0.0307 -0.3847
 1250SOL    HW1 4649   2.998   3.232   2.651  0.3203  0.2316  2.2928
 1250SOL    HW2 4650   3.073   3.373   2.684 -0.0179  1.5969 -2.1534
 1251SOL     OW 4651   1.012   1.430   5.855 -0.1001  0.7477 -0.0226
 1251SOL    HW1 4652   1.036   1.411   5.950  1.2928  0.6752 -0.3678
 1251SOL    HW2 4653   1.076   1.496   5.817 -1.0458  1.2893 -0.7310
 1252SOL     OW 4654   6.512   3.066   2.337 -0.2286 -0.0192 -0.1480
 1252SOL    HW1 4655   6.493   3.004   2.412 -0.7801  0.5209  0.1662
 1252SOL    HW2 4656   6.580   3.134   2.366 -0.2555  0.0371 -0.2162
 1253SOL     OW 4657   3.060   2.695   5.506  0.1965  0.0122  0.0019
 1253SOL    HW1 4658   2.961   2.685   5.499  0.2614 -0.6354 -0.0487
 1253SOL    HW2 4659   3.081   2.764   5.576 -0.2726 -1.3369  1.5328
 1254SOL     OW 4660   1.220   1.978   1.336 -0.4544 -0.4654 -0.0165
 1254SOL    HW1 4661   1.229   2.051   1.404 -0.1319  0.1142 -0.6714
 1254SOL    HW2 4662   1.123   1.955   1.326 -0.8432  1.4818 -1.4302
 1255SOL     OW 4663   1.377   5.364   4.935 -0.2484  0.0447 -0.1139
 1255SOL    HW1 4664   1.446   5.393   5.001 -2.3897  1.5432  1.6013
 1255SOL    HW2 4665   1.404   5.277   4.894  2.3342  0.2976  0.8777
 1256SOL     OW 4666   5.766   4.344   2.515 -0.2205 -0.0936 -0.1542
 1256SOL    HW1 4667   5.764   4.350   2.615  0.4419 -0.7781 -0.0919
 1256SOL    HW2 4668   5.672   4.350   2.479 -0.5010 -0.2886  0.5313
 1257SOL     OW 4669   2.318   1.859   4.373 -0.2874 -0.1575 -0.1602
 1257SOL    HW1 4670   2.347   1.951   4.345 -1.0477  0.7253  1.7655
 1257SOL    HW2 4671   2.391   1.793   4.352 -0.0747  0.6966 -2.3699
 1258SOL     OW 4672   2.602   5.007   1.128  0.1304  0.7696 -0.2239
 1258SOL    HW1 4673   2.528   4.971   1.185  0.2382 -0.4620 -0.8159
 1258SOL    HW2 4674   2.656   4.930   1.093  2.5485  1.6548  1.3004
 1259SOL     OW 4675   6.815   5.177   3.860  0.2209 -0.1108  0.0099
 1259SOL    HW1 4676   6.782   5.129   3.941 -0.2188 -0.9489 -0.6407
 1259SOL    HW2 4677   6.823   5.112   3.784  0.1942  0.7426 -0.7413
 1260SOL     OW 4678   3.059   6.014   1.420 -0.5771 -0.5532  0.8000
 1260SOL    HW1 4679   3.027   6.066   1.341 -0.6512 -2.5846 -0.5840
 1260SOL    HW2 4680   3.024   5.920   1.415 -0.9616 -0.6519  3.5090
 1261SOL     OW 4681   2.080   0.561   5.345  0.1338  0.2582  0.2243
 1261SOL    HW1 4682   2.101   0.493   5.274  1.5829 -0.3561  1.1976
 1261SOL    HW2 4683   2.030   0.637   5.304  0.9520 -0.0699 -1.4689
 1262SOL     OW 4684   3.923   5.888   0.368  0.1662  0.2748 -0.3912
 1262SOL    HW1 4685   3.887   5.802   0.404 -1.7984  1.2287  0.0818
 1262SOL    HW2 4686   3.899   5.962   0.431 -0.2910  1.4898 -1.9381
 1263SOL     OW 4687   3.336   2.126   3.211 -0.3466 -0.4848  0.2308
 1263SOL    HW1 4688   3.244   2.164   3.215 -0.1012  0.4765 -1.7762
 1263SOL    HW2 4689   3.365   2.097   3.303 -1.7525  1.3460  1.3193
 1264SOL     OW 4690   0.757   1.174   4.158 -0.8043  0.1062 -0.7613
 1264SOL    HW1 4691   0.800   1.162   4.248  0.0788  1.4544 -0.9843
 1264SOL    HW2 4692   0.676   1.115   4.153 -1.7723  1.1101  1.5056
 1265SOL     OW 4693   5.104   1.799   5.768  0.2728 -0.4324 -0.0106
 1265SOL    HW1 4694   5.154   1.726   5.815 -0.6642 -0.6230  0.7246
 1265SOL    HW2 4695   5.007   1.776   5.765  0.0433  0.5385 -0.2574
 1266SOL     OW 4696   1.528   6.564   0.929 -0.1520 -0.0454 -0.0997
 1266SOL    HW1 4697   1.479   6.615   0.858 -0.6047 -1.9947 -1.2896
 1266SOL    HW2 4698   1.550   6.473   0.894 -1.1177 -1.3977  2.5400
 1267SOL     OW 4699   5.839   6.962   3.922  0.1275  0.3398 -0.6467
 1267SOL    HW1 4700   5.916   6.899   3.912 -0.1035  0.1883 -1.5364
 1267SOL    HW2 4701   5.843   7.004   4.013  2.1097  1.4471 -1.1794
 1268SOL     OW 4702   2.309   4.219   3.031 -0.3864 -0.5237  0.3876
 1268SOL    HW1 4703   2.317   4.270   2.945 -1.9469 -0.9254 -0.0184
 1268SOL    HW2 4704   2.246   4.143   3.019  0.7218 -1.6546  1.4241
 1269SOL     OW 4705   2.829   0.714   5.881  0.3091  0.2223  0.3032
 1269SOL    HW1 4706   2.854   0.618   5.869  1.2469  0.1257  2.5971
 1269SOL    HW2 4707   2.768   0.723   5.960  0.4668  1.5468  0.2898
 1270SOL     OW 4708   5.194   3.728   5.912  0.0506 -0.0716  0.5046
 1270SOL    HW1 4709   5.235   3.784   5.841 -0.2862 -0.1401  0.2537
 1270SOL    HW2 4710   5.108   3.769   5.942 -1.0990 -1.3186 -0.9099
 1271SOL     OW 4711   3.858   1.470   4.520 -0.0988  0.0691 -0.4124
 1271SOL    HW1 4712   3.896   1.554   4.559 -0.1054 -0.1630  0.1038
 1271SOL    HW2 4713   3.906   1.448   4.435 -0.8102  1.1715 -1.1292
 1272SOL     OW 4714   4.830   2.336   6.931  0.1790 -0.1544  0.3447
 1272SOL    HW1 4715   4.854   2.373   6.841 -1.2757  1.4747  0.5810
 1272SOL    HW2 4716   4.834   2.409   6.999 -0.6170 -0.9288  1.2537
 1273SOL     OW 4717   4.765   3.568   0.228  0.6060 -0.0640  0.1751
 1273SOL    HW1 4718   4.833   3.504   0.263  0.0114 -0.9984 -0.3523
 1273SOL    HW2 4719   4.754   3.643   0.294  1.5806 -0.2920  0.6228
 1274SOL     OW 4720   1.819   1.834   6.103  0.8441 -0.8753 -0.3775
 1274SOL    HW1 4721   1.795   1.930   6.090  0.3370 -1.0095 -0.4986
 1274SOL    HW2 4722   1.905   1.827   6.153  2.1589 -0.3383 -2.4388
 1275SOL     OW 4723   2.300   0.855   6.770 -0.2141  0.1681 -0.1208
 1275SOL    HW1 4724   2.215   0.808   6.750 -1.0621  1.1015  1.1680
 1275SOL    HW2 4725   2.339   0.822   6.856  0.4979  0.0550 -0.4769
 1276SOL     OW 4726   3.777   6.259   3.306  0.8089 -0.0341 -0.0403
 1276SOL    HW1 4727   3.805   6.209   3.388 -1.3395  0.1565  0.8823
 1276SOL    HW2 4728   3.788   6.200   3.226 -0.1322 -1.4520  0.8248
 1277SOL     OW 4729   5.291   1.516   4.968 -0.2425 -0.1522 -0.0924
 1277SOL    HW1 4730   5.305   1.466   5.053 -0.5741  0.4913  0.3443
 1277SOL    HW2 4731   5.225   1.467   4.911 -0.3963 -0.3280  0.2339
 1278SOL     OW 4732   2.970   5.401   5.793 -0.1206 -0.3042 -0.6030
 1278SOL    HW1 4733   2.883   5.352   5.794  0.0136 -0.7100 -2.7672
 1278SOL    HW2 4734   3.038   5.345   5.745  0.4566  1.3249 -1.7680
 1279SOL     OW 4735   3.957   0.697   4.340 -0.6854 -0.6401 -0.5556
 1279SOL    HW1 4736   3.870   0.699   4.388 -1.3272 -2.5905 -1.5262
 1279SOL    HW2 4737   3.955   0.760   4.263 -0.7093  0.3183  0.2069
 1280SOL     OW 4738   1.928   2.257   4.826 -0.2460  0.4258 -0.1402
 1280SOL    HW1 4739   1.931   2.302   4.916 -0.3797  0.5718 -0.2087
 1280SOL    HW2 4740   1.900   2.323   4.757 -2.4231 -0.2225  0.0550
 1281SOL     OW 4741   4.689   6.994   1.793 -0.6364  0.0922  0.1879
 1281SOL    HW1 4742   4.661   6.913   1.740 -0.6093  0.2383 -0.0544
 1281SOL    HW2 4743   4.616   7.020   1.855  0.0260 -1.1715  1.5476
 1282SOL     OW 4744   5.442   4.417   4.046  0.0452 -0.3769  0.2550
 1282SOL    HW1 4745   5.421   4.354   3.971  2.7143 -1.4758  0.3146
 1282SOL    HW2 4746   5.396   4.387   4.129  1.6657 -2.6572  0.4068
 1283SOL     OW 4747   3.864   3.756   5.494 -0.7854 -0.2046 -0.3510
 1283SOL    HW1 4748   3.960   3.739   5.470 -0.5703  1.3997 -0.7418
 1283SOL    HW2 4749   3.805   3.696   5.442  0.0439 -2.2016  0.8957
 1284SOL     OW 4750   0.252   5.837   2.778 -0.3198 -0.5907 -0.2504
 1284SOL    HW1 4751   0.323   5.856   2.846 -0.4523 -2.7312  0.5639
 1284SOL    HW2 4752   0.171   5.800   2.824 -1.1883 -0.1342 -1.3803
 1285SOL     OW 4753   4.565   6.338   0.103 -0.0754  0.1709 -0.9085
 1285SOL    HW1 4754   4.509   6.279   0.044  0.9104 -0.7710 -0.9297
 1285SOL    HW2 4755   4.547   6.317   0.199  1.1930 -1.0941 -0.9189
 1286SOL     OW 4756   0.761   3.297   4.200 -0.1400 -0.0877  0.2292
 1286SOL    HW1 4757   0.847   3.304   4.150  0.5946  1.8668  1.6450
 1286SOL    HW2 4758   0.690   3.350   4.152 -0.1719 -0.4540 -0.1373
 1287SOL     OW 4759   1.745   0.111   0.470 -0.3737  0.1384  0.0340
 1287SOL    HW1 4760   1.735   0.111   0.569  1.4294  1.1516  0.2579
 1287SOL    HW2 4761   1.814   0.043   0.444  0.6842  1.2955 -0.2980
 1288SOL     OW 4762   6.370   6.332   0.331  0.5967 -0.3837  0.0844
 1288SOL    HW1 4763   6.285   6.313   0.380  1.2058 -0.7742  1.0141
 1288SOL    HW2 4764   6.396   6.252   0.277 -0.5474  0.3552 -1.6454
 1289SOL     OW 4765   5.106   1.716   3.418 -0.0307  0.0779  0.9677
 1289SOL    HW1 4766   5.022   1.762   3.447  1.8278  1.2799  5.1879
 1289SOL    HW2 4767   5.106   1.622   3.451  0.1567  0.0047  0.7608
 1290SOL     OW 4768   5.404   3.308   5.714 -0.7736  0.2798  0.5704
 1290SOL    HW1 4769   5.330   3.375   5.715 -0.7434  0.3152  0.3366
 1290SOL    HW2 4770   5.367   3.218   5.737 -0.9610  0.2247  0.0579
 1291SOL     OW 4771   5.631   2.347   1.098 -0.8115 -0.3770  0.5254
 1291SOL    HW1 4772   5.690   2.427   1.087  1.1182 -1.5807  1.6348
 1291SOL    HW2 4773   5.543   2.365   1.055 -0.0898  1.9548 -0.1253
 1292SOL     OW 4774   0.353   6.723   6.323 -0.3873 -0.3251 -0.2863
 1292SOL    HW1 4775   0.307   6.812   6.328  0.2361  0.0337 -0.7404
 1292SOL    HW2 4776   0.421   6.726   6.250 -0.2984 -1.1519 -0.2369
 1293SOL     OW 4777   2.354   2.764   4.831  0.4107 -0.1125 -0.3329
 1293SOL    HW1 4778   2.383   2.849   4.876 -1.6677  0.3944  0.1828
 1293SOL    HW2 4779   2.324   2.699   4.901  1.3345 -1.0134 -0.7678
 1294SOL     OW 4780   1.647   5.641   4.315  0.1517 -0.1889 -0.0054
 1294SOL    HW1 4781   1.577   5.623   4.384  0.7395  0.5755  0.8162
 1294SOL    HW2 4782   1.633   5.731   4.276  0.9616  0.1798  0.5296
 1295SOL     OW 4783   3.490   3.247   0.366  0.7322 -0.4765 -0.1084
 1295SOL    HW1 4784   3.481   3.148   0.356  0.1348 -0.5770  1.2419
 1295SOL    HW2 4785   3.579   3.276   0.333  1.5221 -1.6808  0.8846
 1296SOL     OW 4786   5.555   4.774   6.655 -0.3102  0.3175  0.4975
 1296SOL    HW1 4787   5.546   4.868   6.624  0.6254 -0.0187 -0.8863
 1296SOL    HW2 4788   5.651   4.746   6.649 -0.6698 -0.9236  0.3099
 1297SOL     OW 4789   5.077   6.148   1.519 -0.3471  0.3006 -0.8606
 1297SOL    HW1 4790   5.145   6.126   1.450 -0.8703 -0.4117 -1.1547
 1297SOL    HW2 4791   4.986   6.151   1.477 -0.5822  0.5831 -0.3453
 1298SOL     OW 4792   4.352   2.199   3.717  0.1444  0.3857  0.1362
 1298SOL    HW1 4793   4.446   2.185   3.749  0.1233 -0.3593 -0.1118
 1298SOL    HW2 4794   4.302   2.113   3.720  0.1414  0.2552 -1.8858
 1299SOL     OW 4795   3.215   1.693   0.463  0.6674 -0.3182 -0.2974
 1299SOL    HW1 4796   3.178   1.617   0.517  1.6576 -0.1905  0.5891
 1299SOL    HW2 4797   3.142   1.732   0.406 -0.5876 -0.0244  1.4230
 1300SOL     OW 4798   2.306   2.552   5.337 -0.0167 -0.3476  0.3382
 1300SOL    HW1 4799   2.268   2.594   5.255 -0.2808 -2.2498 -0.5713
 1300SOL    HW2 4800   2.303   2.617   5.412 -0.7955  1.0768 -0.8723
 1301SOL     OW 4801   5.444   2.494   3.403 -0.0116 -0.7709 -0.0699
 1301SOL    HW1 4802   5.458   2.588   3.371 -1.9580 -0.5440 -0.4093
 1301SOL    HW2 4803   5.490   2.430   3.343 -0.0273 -0.1050 -0.8026
 1302SOL     OW 4804   0.725   4.074   3.580 -0.1083  0.2415  0.0928
 1302SOL    HW1 4805   0.797   4.133   3.618  1.2286 -0.3846 -1.3341
 1302SOL    HW2 4806   0.715   3.993   3.638 -2.1404  1.8573  2.2152
 1303SOL     OW 4807   6.087   1.610   5.096 -0.2964 -0.2663 -0.0425
 1303SOL    HW1 4808   6.067   1.678   5.025  0.5448 -0.1559 -0.1941
 1303SOL    HW2 4809   6.179   1.627   5.132  0.3596 -1.9616 -0.8197
 1304SOL     OW 4810   6.838   5.541   4.341 -0.0637 -0.1073 -0.2147
 1304SOL    HW1 4811   6.747   5.554   4.300 -0.2181  0.0982  0.1937
 1304SOL    HW2 4812   6.868   5.447   4.326 -0.0603  0.0011 -0.9250
 1305SOL     OW 4813   0.099   6.213   0.895 -0.0668  0.3195  0.0724
 1305SOL    HW1 4814   0.153   6.153   0.836  0.8566  0.1620  1.0408
 1305SOL    HW2 4815   0.034   6.265   0.840  3.2428  2.9470 -1.6704
 1306SOL     OW 4816   0.340   0.421   3.736 -0.2028 -0.0173 -0.4769
 1306SOL    HW1 4817   0.427   0.430   3.786 -0.3093 -0.7846 -0.1283
 1306SOL    HW2 4818   0.358   0.418   3.638  0.0172  1.4294 -0.4980
 1307SOL     OW 4819   3.517   1.395   5.137 -0.2705  0.4105  0.5170
 1307SOL    HW1 4820   3.445   1.396   5.067  1.2373 -2.4656 -1.2712
 1307SOL    HW2 4821   3.506   1.314   5.195  1.6946 -0.3517 -0.0829
 1308SOL     OW 4822   5.161   0.293   2.728  0.2227 -0.3326 -0.3503
 1308SOL    HW1 4823   5.260   0.301   2.743  0.0582 -1.1973  1.4178
 1308SOL    HW2 4824   5.123   0.226   2.792 -1.7434  1.0472 -0.0056
 1309SOL     OW 4825   6.993   3.815   6.346 -0.2435 -0.2148  0.4590
 1309SOL    HW1 4826   6.933   3.806   6.425  0.0254 -0.0360  0.6862
 1309SOL    HW2 4827   7.036   3.727   6.326 -0.3331 -0.2665  0.4962
 1310SOL     OW 4828   0.716   3.184   5.829  0.4885  0.3576 -0.1749
 1310SOL    HW1 4829   0.750   3.269   5.789 -2.1863  1.8422  0.5083
 1310SOL    HW2 4830   0.664   3.204   5.912  0.8960 -2.0993  0.7647
 1311SOL     OW 4831   4.858   1.472   4.409  0.1810  0.6767 -0.3094
 1311SOL    HW1 4832   4.788   1.403   4.423 -0.4083  1.3024 -0.1498
 1311SOL    HW2 4833   4.863   1.496   4.311 -0.2728  1.0871 -0.2372
 1312SOL     OW 4834   0.129   4.619   5.560 -0.5617 -0.0850  0.2512
 1312SOL    HW1 4835   0.030   4.634   5.558 -0.8020 -1.2219 -2.7375
 1312SOL    HW2 4836   0.147   4.521   5.569  0.2531  0.0339 -0.0491
 1313SOL     OW 4837   0.985   1.801   2.659  0.0178  0.2462 -0.4569
 1313SOL    HW1 4838   0.954   1.891   2.690 -0.3993  0.6855 -2.0607
 1313SOL    HW2 4839   1.084   1.793   2.671 -0.2027  0.0977  1.6165
 1314SOL     OW 4840   0.241   2.749   4.433 -0.2240  0.5214 -0.3104
 1314SOL    HW1 4841   0.251   2.664   4.381 -0.7201 -0.0370  0.4691
 1314SOL    HW2 4842   0.147   2.780   4.428  0.2480  1.8390 -1.7698
 1315SOL     OW 4843   1.216   6.037   4.048  0.2711  0.2937  0.1824
 1315SOL    HW1 4844   1.148   5.974   4.011  0.1992 -0.2331  1.1918
 1315SOL    HW2 4845   1.173   6.095   4.118  1.1105 -0.9218  1.7747
 1316SOL     OW 4846   5.635   0.528   3.695  0.0451  0.0923 -0.2976
 1316SOL    HW1 4847   5.587   0.448   3.730  0.4527 -0.0931 -0.1562
 1316SOL    HW2 4848   5.645   0.595   3.768  2.0873 -0.8465  0.3637
 1317SOL     OW 4849   3.905   2.554   0.529 -0.1881  0.3260 -0.1468
 1317SOL    HW1 4850   3.898   2.522   0.624  0.1444  0.7196  0.0191
 1317SOL    HW2 4851   3.881   2.480   0.466  0.9579 -0.3758  0.2086
 1318SOL     OW 4852   5.234   2.871   4.432 -0.1661  0.0778 -0.1815
 1318SOL    HW1 4853   5.235   2.879   4.332  1.0713  1.3817 -0.0888
 1318SOL    HW2 4854   5.139   2.880   4.464 -0.7048 -1.2725 -1.2656
 1319SOL     OW 4855   2.532   3.131   1.376 -0.2758 -0.0737 -0.3928
 1319SOL    HW1 4856   2.563   3.067   1.447 -0.3032 -0.7304 -0.9651
 1319SOL    HW2 4857   2.592   3.124   1.297  1.9960  3.2101  0.8190
 1320SOL     OW 4858   5.660   1.260   5.542 -0.4389  0.2748  1.0605
 1320SOL    HW1 4859   5.645   1.163   5.558  0.9170  0.2390  2.3371
 1320SOL    HW2 4860   5.611   1.313   5.612  1.6225  0.3270  2.5418
 1321SOL     OW 4861   0.337   0.779   4.261 -0.2324 -0.0790 -0.3217
 1321SOL    HW1 4862   0.358   0.693   4.307  1.1641  1.1130  1.4530
 1321SOL    HW2 4863   0.398   0.790   4.182  0.0757 -0.4070 -0.1320
 1322SOL     OW 4864   1.402   0.550   3.681 -0.0181  0.1316 -0.0813
 1322SOL    HW1 4865   1.331   0.578   3.745  0.2514  0.9347 -0.1275
 1322SOL    HW2 4866   1.370   0.565   3.587 -0.5638 -1.4025 -0.1708
 1323SOL     OW 4867   2.418   4.123   5.600  0.2402  0.3803 -0.1192
 1323SOL    HW1 4868   2.464   4.113   5.689 -2.4641 -0.7004  1.2822
 1323SOL    HW2 4869   2.335   4.177   5.613  0.6984  1.7545 -2.4244
 1324SOL     OW 4870   0.141   3.917   3.492 -0.2649  0.2918  0.2134
 1324SOL    HW1 4871   0.082   3.903   3.571 -1.3458  1.9417 -0.2579
 1324SOL    HW2 4872   0.212   3.984   3.515 -0.7488  0.9830 -0.2745
 1325SOL     OW 4873   5.048   0.730   1.089 -0.4089  0.1305 -0.0891
 1325SOL    HW1 4874   5.136   0.703   1.050 -0.4968  0.9095 -0.8656
 1325SOL    HW2 4875   5.044   0.703   1.185  0.2618 -0.8324 -0.3223
 1326SOL     OW 4876   4.176   2.247   1.285  0.0202  0.0936 -0.4378
 1326SOL    HW1 4877   4.161   2.282   1.192 -2.0653 -0.2324 -0.2612
 1326SOL    HW2 4878   4.148   2.152   1.290  0.0147  0.1395  0.5554
 1327SOL     OW 4879   4.709   3.218   1.681  0.0792 -0.4088 -0.4331
 1327SOL    HW1 4880   4.665   3.158   1.748  1.5710  0.4103  1.3351
 1327SOL    HW2 4881   4.784   3.168   1.636  1.4055  0.0846  1.1315
 1328SOL     OW 4882   0.496   0.309   1.868  0.0986 -0.1247  0.6727
 1328SOL    HW1 4883   0.519   0.279   1.776  0.5400 -1.8359  1.3021
 1328SOL    HW2 4884   0.538   0.398   1.886  0.5219 -0.0625 -0.5557
 1329SOL     OW 4885   2.566   1.611   5.315  0.5767 -0.5727  0.6765
 1329SOL    HW1 4886   2.585   1.673   5.239  0.1821  0.5322  1.4421
 1329SOL    HW2 4887   2.529   1.525   5.280  0.2323 -0.0173 -0.3663
 1330SOL     OW 4888   1.867   6.204   1.264  0.0432 -0.2949  0.0238
 1330SOL    HW1 4889   1.882   6.119   1.315  1.7042  0.0531  0.1648
 1330SOL    HW2 4890   1.871   6.282   1.327 -1.4805 -0.0767 -0.1024
 1331SOL     OW 4891   3.707   3.297   1.797  0.1264 -0.6990 -0.9994
 1331SOL    HW1 4892   3.646   3.360   1.847 -0.7519  0.4249 -3.3587
 1331SOL    HW2 4893   3.800   3.333   1.800  0.0717 -0.5912 -0.2866
 1332SOL     OW 4894   2.486   0.622   5.810 -0.5695 -0.0361 -0.3678
 1332SOL    HW1 4895   2.412   0.683   5.782  0.2284  0.6031 -1.1155
 1332SOL    HW2 4896   2.510   0.641   5.905 -0.3540  0.8020 -0.5818
 1333SOL     OW 4897   4.097   3.482   2.839 -0.2848 -1.0338  0.2810
 1333SOL    HW1 4898   4.036   3.432   2.777 -0.4468 -0.2345 -0.2141
 1333SOL    HW2 4899   4.110   3.575   2.806  1.6519 -1.3447  0.0780
 1334SOL     OW 4900   3.024   3.428   6.686  0.6473  0.0642  0.2089
 1334SOL    HW1 4901   2.989   3.479   6.765 -0.2907  1.8876 -1.3148
 1334SOL    HW2 4902   3.124   3.421   6.693  0.9060  2.6341  0.2499
 1335SOL     OW 4903   0.071   0.140   2.874  0.4956 -0.0207  0.5181
 1335SOL    HW1 4904   0.106   0.227   2.909 -1.7681  0.8304  0.7824
 1335SOL    HW2 4905   0.064   0.145   2.775 -3.0212  1.5577  0.7092
 1336SOL     OW 4906   1.475   3.460   0.678  0.1458  0.1960  0.6103
 1336SOL    HW1 4907   1.448   3.402   0.755  1.8060 -1.0935  0.3034
 1336SOL    HW2 4908   1.498   3.402   0.600  1.6168  1.2772  0.1965
 1337SOL     OW 4909   0.869   5.816   3.237  0.0303 -0.3168  0.1383
 1337SOL    HW1 4910   0.812   5.856   3.165  0.5710  0.7866  0.2911
 1337SOL    HW2 4911   0.848   5.861   3.324 -0.6679 -1.6897  0.7054
 1338SOL     OW 4912   2.909   6.625   1.434  0.3841 -0.3449  0.5956
 1338SOL    HW1 4913   2.858   6.658   1.355 -0.1320  0.4588  1.2470
 1338SOL    HW2 4914   2.950   6.702   1.483  0.4282 -0.7970  1.2993
 1339SOL     OW 4915   2.442   1.077   6.100  0.4929 -0.5619  0.1327
 1339SOL    HW1 4916   2.486   1.074   6.011  0.9951  1.8137  0.2344
 1339SOL    HW2 4917   2.477   1.004   6.158  1.7224 -0.8342 -0.9278
 1340SOL     OW 4918   5.756   5.198   0.105  0.6331 -0.1739  0.3550
 1340SOL    HW1 4919   5.744   5.294   0.132 -0.8916 -0.5261  0.9770
 1340SOL    HW2 4920   5.812   5.151   0.173 -0.0834 -0.1455  0.9719
 1341SOL     OW 4921   0.800   0.065   5.425  0.3001 -0.0169  0.3321
 1341SOL    HW1 4922   0.864   0.065   5.502 -0.5372 -2.9150  1.1542
 1341SOL    HW2 4923   0.833   0.001   5.355 -1.2585 -0.9674  0.4324
 1342SOL     OW 4924   6.621   0.508   4.075  0.2875 -0.3206 -0.1217
 1342SOL    HW1 4925   6.570   0.425   4.057 -1.3161  0.3471  1.0810
 1342SOL    HW2 4926   6.717   0.486   4.093  0.3046 -1.6754 -1.7413
 1343SOL     OW 4927   6.802   5.095   6.774  0.2504 -0.0675 -1.0443
 1343SOL    HW1 4928   6.864   5.048   6.837  0.2785  0.7108 -0.4892
 1343SOL    HW2 4929   6.718   5.041   6.764 -0.6836  0.8220  1.3637
 1344SOL     OW 4930   2.598   4.573   4.171  0.0815  0.2725 -0.4719
 1344SOL    HW1 4931   2.516   4.556   4.116  1.3543 -0.7633 -2.1581
 1344SOL    HW2 4932   2.601   4.510   4.249 -0.7998  0.4414 -0.2987
 1345SOL     OW 4933   0.488   5.967   6.456  0.2506  0.1978  0.0685
 1345SOL    HW1 4934   0.395   5.993   6.429 -0.0479 -0.3556  0.5401
 1345SOL    HW2 4935   0.505   5.999   6.550  0.5770  0.3837 -0.0502
 1346SOL     OW 4936   6.068   3.624   3.268  0.1395 -0.1071 -0.4051
 1346SOL    HW1 4937   6.067   3.674   3.181 -3.2080 -0.2591 -0.5973
 1346SOL    HW2 4938   5.995   3.555   3.267  0.4266 -0.5508  2.2999
 1347SOL     OW 4939   2.627   5.008   2.756  0.1815 -0.6858 -0.2573
 1347SOL    HW1 4940   2.720   5.021   2.790  0.0367  0.6800 -0.3145
 1347SOL    HW2 4941   2.615   4.914   2.725  1.0183 -1.3607  1.3393
 1348SOL     OW 4942   4.915   3.280   5.220 -0.0473 -0.5389  0.1511
 1348SOL    HW1 4943   4.907   3.189   5.179  0.1581  0.0709 -1.3143
 1348SOL    HW2 4944   4.831   3.303   5.269 -1.8187  0.0850 -2.9315
 1349SOL     OW 4945   6.044   3.046   4.903 -0.3529 -0.4022 -0.3478
 1349SOL    HW1 4946   5.966   3.068   4.844 -0.3014  1.3425  0.1646
 1349SOL    HW2 4947   6.129   3.055   4.851 -0.3019  1.2079 -0.0602
 1350SOL     OW 4948   1.305   5.179   6.524 -0.3194  0.5242 -0.2477
 1350SOL    HW1 4949   1.208   5.168   6.505 -0.3839 -0.7910  0.7148
 1350SOL    HW2 4950   1.317   5.219   6.614  0.0316  3.6764 -1.5798
 1351SOL     OW 4951   4.767   4.784   2.624 -0.8622  0.1403  0.2893
 1351SOL    HW1 4952   4.691   4.838   2.660 -0.9588 -0.1091  0.4642
 1351SOL    HW2 4953   4.853   4.819   2.662 -0.4552  2.8361 -2.6970
 1352SOL     OW 4954   1.384   4.608   6.267 -0.1246 -0.5784 -0.0007
 1352SOL    HW1 4955   1.470   4.643   6.305 -0.0482  0.1031 -0.7705
 1352SOL    HW2 4956   1.308   4.663   6.301 -0.3160 -1.4084  0.9719
 1353SOL     OW 4957   0.900   1.209   1.175 -0.3675  0.3320 -0.1219
 1353SOL    HW1 4958   0.837   1.233   1.249 -0.3569  0.1753 -0.0619
 1353SOL    HW2 4959   0.994   1.212   1.208 -0.4437 -1.6447  0.4299
 1354SOL     OW 4960   6.747   3.241   3.596  0.1511  0.4651 -0.9901
 1354SOL    HW1 4961   6.839   3.229   3.558  0.4704 -0.2403 -0.0633
 1354SOL    HW2 4962   6.679   3.222   3.526  0.7164 -1.6123 -1.0528
 1355SOL     OW 4963   3.514   4.244   6.241 -0.5622  0.1613  0.2339
 1355SOL    HW1 4964   3.452   4.177   6.200 -2.9498  0.9136  2.3374
 1355SOL    HW2 4965   3.576   4.197   6.304  0.1528 -0.4327 -0.8775
 1356SOL     OW 4966   3.353   2.904   2.659  0.2104  0.6562  0.3737
 1356SOL    HW1 4967   3.402   2.989   2.677 -0.0358  0.6864  0.9215
 1356SOL    HW2 4968   3.391   2.860   2.577  1.1579  0.6796  0.7869
 1357SOL     OW 4969   5.436   0.490   6.345  0.4823 -0.8924  0.7996
 1357SOL    HW1 4970   5.497   0.563   6.376  0.8100 -0.4490 -0.8053
 1357SOL    HW2 4971   5.341   0.520   6.355  0.5780 -0.7545  1.3332
 1358SOL     OW 4972   4.994   3.866   2.327  0.2791  0.0954 -0.8293
 1358SOL    HW1 4973   4.930   3.790   2.343  1.5705 -1.2432 -1.7146
 1358SOL    HW2 4974   4.951   3.932   2.265  0.3529 -1.7307 -2.9595
 1359SOL     OW 4975   5.776   2.897   3.307  0.4075  0.0080 -0.6073
 1359SOL    HW1 4976   5.855   2.836   3.302  0.0622 -0.4816 -0.1658
 1359SOL    HW2 4977   5.718   2.871   3.384 -0.1077  0.4549 -0.8336
 1360SOL     OW 4978   6.869   5.976   2.057 -0.1843 -0.1465 -0.0286
 1360SOL    HW1 4979   6.851   6.034   1.977  0.9663 -2.0912 -1.7830
 1360SOL    HW2 4980   6.784   5.963   2.108 -0.7691  1.8607 -0.3843
 1361SOL     OW 4981   6.143   6.077   5.275 -0.3122 -0.0747 -0.3363
 1361SOL    HW1 4982   6.067   6.076   5.210  0.0685  2.2816 -0.9004
 1361SOL    HW2 4983   6.115   6.029   5.359 -1.2944 -1.9378 -1.6485
 1362SOL     OW 4984   1.264   2.030   5.816  0.4039 -0.7591 -0.3898
 1362SOL    HW1 4985   1.257   1.989   5.724 -0.4550  0.2645 -0.8028
 1362SOL    HW2 4986   1.181   2.010   5.868 -0.3151  0.9011 -0.8152
 1363SOL     OW 4987   5.335   6.388   5.608  0.6034  0.0457 -0.0672
 1363SOL    HW1 4988   5.361   6.326   5.682 -0.4073 -3.5528 -2.4434
 1363SOL    HW2 4989   5.392   6.369   5.528 -2.5751 -1.0390 -2.2386
 1364SOL     OW 4990   6.317   4.451   1.823 -0.2287 -0.3151 -0.6098
 1364SOL    HW1 4991   6.331   4.523   1.754 -1.8856  0.7328  0.0774
 1364SOL    HW2 4992   6.307   4.363   1.777  1.0564 -0.0156 -1.5312
 1365SOL     OW 4993   6.654   0.032   0.099 -0.1887  0.1503 -0.4217
 1365SOL    HW1 4994   6.727   0.098   0.118  0.6961 -0.3830 -1.7235
 1365SOL    HW2 4995   6.664  -0.048   0.159  0.4592 -0.0132 -0.7329
 1366SOL     OW 4996   6.017   0.363   6.456  0.1880  0.4864 -0.2688
 1366SOL    HW1 4997   6.066   0.388   6.373 -0.4634  0.0996 -0.7853
 1366SOL    HW2 4998   5.991   0.266   6.451  0.5853  0.3201  0.6187
 1367SOL     OW 4999   5.701   2.247   2.327 -0.0447 -0.3879  0.2735
 1367SOL    HW1 5000   5.708   2.299   2.412 -1.5679  1.7300 -0.8047
 1367SOL    HW2 5001   5.778   2.269   2.267  0.7726 -1.5215  0.8639
 1368SOL     OW 5002   3.660   2.304   6.759  0.2205 -0.2784  0.0648
 1368SOL    HW1 5003   3.717   2.363   6.816 -1.5528  1.5758  0.0270
 1368SOL    HW2 5004   3.567   2.341   6.756 -0.6643 -2.4320 -0.9870
 1369SOL     OW 5005   2.503   2.629   6.599  1.0217 -0.9908 -0.4888
 1369SOL    HW1 5006   2.444   2.549   6.588  2.4116 -2.3034  1.0994
 1369SOL    HW2 5007   2.478   2.677   6.683  1.1732 -0.6216 -0.6513
 1370SOL     OW 5008   4.921   5.817   6.370 -0.0727  0.1861 -0.0535
 1370SOL    HW1 5009   5.013   5.777   6.366 -0.3370 -0.4731  0.2495
 1370SOL    HW2 5010   4.918   5.887   6.441  0.8511  1.9815 -1.6929
 1371SOL     OW 5011   1.774   0.364   1.194  0.6205 -0.0133 -0.1459
 1371SOL    HW1 5012   1.789   0.270   1.223 -0.0320  0.1069  0.6433
 1371SOL    HW2 5013   1.854   0.420   1.215  0.5230 -0.1346  0.5582
 1372SOL     OW 5014   5.764   0.505   6.491  0.3105 -0.4292 -0.1733
 1372SOL    HW1 5015   5.723   0.546   6.410  0.1958  0.4406  0.3165
 1372SOL    HW2 5016   5.849   0.553   6.513 -0.9956  1.1326  1.7708
 1373SOL     OW 5017   4.518   1.024   3.620 -0.0379 -0.1560  0.3645
 1373SOL    HW1 5018   4.548   0.961   3.692 -0.1412  0.6847  1.1664
 1373SOL    HW2 5019   4.443   1.080   3.655 -1.3989 -1.0184 -1.0275
 1374SOL     OW 5020   2.949   5.064   2.109 -0.2740  0.0522  0.2678
 1374SOL    HW1 5021   2.887   5.136   2.078 -1.3052 -0.7705  0.3679
 1374SOL    HW2 5022   2.950   5.060   2.209  0.3197  0.3764  0.2795
 1375SOL     OW 5023   1.626   0.978   3.655 -0.6091  0.2602  0.1245
 1375SOL    HW1 5024   1.653   0.908   3.721  0.2571  2.2111  1.9627
 1375SOL    HW2 5025   1.708   1.015   3.610 -1.1173 -0.3683 -1.3747
 1376SOL     OW 5026   2.932   3.464   4.906 -0.3697  0.2692 -0.0817
 1376SOL    HW1 5027   2.961   3.368   4.911  0.8666  0.5929 -0.7689
 1376SOL    HW2 5028   2.873   3.477   4.826  0.8898  0.4204 -1.0147
 1377SOL     OW 5029   2.308   1.492   5.411 -0.3786  0.2351  0.2607
 1377SOL    HW1 5030   2.364   1.424   5.460  1.4954  1.1919 -0.4481
 1377SOL    HW2 5031   2.268   1.450   5.329 -0.1470 -0.2961  0.4152
 1378SOL     OW 5032   0.667   4.419   0.253  0.6033  0.6946 -0.0731
 1378SOL    HW1 5033   0.718   4.341   0.219  2.0338  1.1838  0.8625
 1378SOL    HW2 5034   0.668   4.492   0.185  2.1440  1.1090  0.3623
 1379SOL     OW 5035   1.617   2.339   3.937 -1.0854 -0.9468 -0.5558
 1379SOL    HW1 5036   1.662   2.390   3.863 -1.8176  0.4383 -0.0867
 1379SOL    HW2 5037   1.676   2.337   4.017 -1.6581  0.5721 -0.0562
 1380SOL     OW 5038   1.033   3.707   2.645  0.2526  0.6129  0.4890
 1380SOL    HW1 5039   1.124   3.725   2.607  0.6280 -0.5975  0.7778
 1380SOL    HW2 5040   1.043   3.659   2.731 -0.6842 -0.6058 -0.0656
 1381SOL     OW 5041   5.180   6.869   3.020  0.3407  0.0280 -0.1651
 1381SOL    HW1 5042   5.099   6.836   3.070 -0.3471  1.4911 -0.2561
 1381SOL    HW2 5043   5.263   6.836   3.065 -0.2870 -1.1772  0.1605
 1382SOL     OW 5044   2.465   4.127   6.342 -0.4823 -0.1386 -0.1672
 1382SOL    HW1 5045   2.505   4.190   6.409  0.0897  0.9045 -1.4372
 1382SOL    HW2 5046   2.381   4.167   6.305 -0.0884 -0.0715 -1.0216
 1383SOL     OW 5047   0.875   3.669   4.433 -0.1257 -0.1005  0.4300
 1383SOL    HW1 5048   0.970   3.687   4.459 -0.3202 -0.8632  1.7748
 1383SOL    HW2 5049   0.813   3.710   4.500 -0.7671  0.3902 -0.4350
 1384SOL     OW 5050   1.940   6.247   3.956  0.6421  0.2239 -0.7715
 1384SOL    HW1 5051   1.997   6.329   3.965 -1.0651  1.4554 -0.6404
 1384SOL    HW2 5052   1.882   6.256   3.875  1.2569 -1.4385 -1.4537
 1385SOL     OW 5053   0.281   3.324   2.740 -0.3242  0.0090 -0.2020
 1385SOL    HW1 5054   0.269   3.422   2.756 -1.0324 -0.0706 -0.2279
 1385SOL    HW2 5055   0.252   3.302   2.646 -1.3279 -0.4203  0.1950
 1386SOL     OW 5056   6.482   6.931   6.139 -0.1541 -0.1957  0.2666
 1386SOL    HW1 5057   6.579   6.926   6.165  0.1158 -0.3812 -0.7229
 1386SOL    HW2 5058   6.425   6.919   6.220  0.6122  3.5012  1.5222
 1387SOL     OW 5059   5.374   4.316   3.774 -0.0515  0.1874 -0.6625
 1387SOL    HW1 5060   5.439   4.240   3.771  0.5930  0.6914  0.1255
 1387SOL    HW2 5061   5.281   4.281   3.787  0.3242 -0.4280  0.4283
 1388SOL     OW 5062   0.343   2.370   5.763  0.5800 -0.1014 -0.1479
 1388SOL    HW1 5063   0.424   2.366   5.705 -0.6400  1.1808 -2.0556
 1388SOL    HW2 5064   0.321   2.465   5.784 -2.1322 -0.1357 -2.3061
 1389SOL     OW 5065   0.945   5.376   5.530  0.1593  0.2701 -0.2434
 1389SOL    HW1 5066   0.868   5.438   5.511 -0.5161 -0.6187 -0.4664
 1389SOL    HW2 5067   0.982   5.397   5.620 -0.9170  0.1339  0.2463
 1390SOL     OW 5068   1.034   4.369   0.437 -0.0369 -0.1460 -0.8611
 1390SOL    HW1 5069   1.013   4.296   0.502  0.4897  0.5573  0.1183
 1390SOL    HW2 5070   0.966   4.441   0.444  1.2721  0.9976  0.5736
 1391SOL     OW 5071   2.401   6.677   6.803 -0.0302  0.3906  0.2880
 1391SOL    HW1 5072   2.391   6.631   6.891 -1.0101  0.4287  0.2080
 1391SOL    HW2 5073   2.357   6.767   6.807 -0.2575  0.3123 -0.2960
 1392SOL     OW 5074   3.463   5.748   2.728 -0.4842  0.2418 -0.1403
 1392SOL    HW1 5075   3.474   5.661   2.680  0.6495 -0.4815  1.3574
 1392SOL    HW2 5076   3.461   5.732   2.826 -0.7149  1.8802  0.1467
 1393SOL     OW 5077   4.214   5.900   4.822  0.4409  0.2776  0.2240
 1393SOL    HW1 5078   4.194   5.974   4.759 -0.0951  0.2937  0.4011
 1393SOL    HW2 5079   4.313   5.886   4.829  0.4970  0.0593 -0.8617
 1394SOL     OW 5080   4.890   3.490   4.629 -0.0016 -0.4342  0.1542
 1394SOL    HW1 5081   4.889   3.506   4.728 -4.1604  1.7148 -0.0043
 1394SOL    HW2 5082   4.889   3.578   4.581 -1.3083 -1.3703 -1.6568
 1395SOL     OW 5083   2.356   2.936   0.570  0.1353  0.0913  0.4875
 1395SOL    HW1 5084   2.281   2.959   0.631 -0.5061  0.7262 -0.5204
 1395SOL    HW2 5085   2.440   2.979   0.602 -0.0910  0.0320  1.1747
 1396SOL     OW 5086   2.050   5.575   1.571 -0.1299  0.3717 -0.6372
 1396SOL    HW1 5087   2.088   5.598   1.481 -2.8649 -0.5976 -2.1882
 1396SOL    HW2 5088   2.007   5.485   1.566 -0.6937  0.4799  1.5529
 1397SOL     OW 5089   3.692   0.611   1.560 -0.5882 -0.1807 -0.7376
 1397SOL    HW1 5090   3.770   0.565   1.518 -0.3648 -0.6982  0.2157
 1397SOL    HW2 5091   3.722   0.660   1.642 -1.4390 -1.3760  0.3309
 1398SOL     OW 5092   2.349   4.443   2.090  0.1099 -0.5393 -0.1059
 1398SOL    HW1 5093   2.345   4.519   2.154  1.7777 -0.8154  0.3778
 1398SOL    HW2 5094   2.356   4.357   2.141 -1.1926 -0.9996 -0.6540
 1399SOL     OW 5095   1.814   2.595   1.821  0.3628 -0.1997  0.0355
 1399SOL    HW1 5096   1.898   2.541   1.826  0.5603 -0.5470 -3.8785
 1399SOL    HW2 5097   1.773   2.602   1.912  3.7971 -1.2614  1.8258
 1400SOL     OW 5098   1.871   4.551   3.552  0.4688  0.0678  0.0864
 1400SOL    HW1 5099   1.939   4.591   3.491  0.6424 -0.6711 -0.2128
 1400SOL    HW2 5100   1.857   4.455   3.527 -0.2860  0.0718  0.4903
 1401SOL     OW 5101   0.905   4.879   2.344  0.1267 -0.1669  0.4560
 1401SOL    HW1 5102   0.948   4.825   2.417  1.0260 -2.2372 -1.4916
 1401SOL    HW2 5103   0.975   4.929   2.294  0.0963 -1.8646 -1.3936
 1402SOL     OW 5104   0.963   5.400   6.135  0.4745  0.0007 -0.3185
 1402SOL    HW1 5105   0.867   5.422   6.116 -0.5095 -1.0539  2.8336
 1402SOL    HW2 5106   1.014   5.485   6.149 -0.0719  0.5619 -1.5668
 1403SOL     OW 5107   5.021   1.054   2.426 -0.7056  0.6715 -0.4064
 1403SOL    HW1 5108   5.016   1.027   2.522 -0.8323 -1.3283 -0.9391
 1403SOL    HW2 5109   5.093   1.122   2.414 -0.6451  0.8972  1.0889
 1404SOL     OW 5110   6.711   3.963   4.003  1.1430  0.3661  0.3626
 1404SOL    HW1 5111   6.666   4.044   3.965  0.5914 -0.2206 -0.2533
 1404SOL    HW2 5112   6.702   3.886   3.939 -0.1367 -0.7611  1.8238
 1405SOL     OW 5113   5.025   5.605   5.366 -0.1176 -0.1143  0.0201
 1405SOL    HW1 5114   5.048   5.654   5.282 -1.0689  0.1495 -0.0962
 1405SOL    HW2 5115   4.940   5.553   5.352  0.2916 -0.9320  0.4829
 1406SOL     OW 5116   5.997   0.901   0.823  0.0813 -0.0683 -0.0514
 1406SOL    HW1 5117   6.064   0.948   0.881 -0.7442  1.6186 -0.4065
 1406SOL    HW2 5118   5.927   0.859   0.881  0.0767  0.3281  0.2372
 1407SOL     OW 5119   1.194   3.976   5.815  0.4316  0.3259  0.5451
 1407SOL    HW1 5120   1.203   3.946   5.720  0.2884 -1.1368  0.9697
 1407SOL    HW2 5121   1.209   4.074   5.820  0.7076  0.3870 -0.9515
 1408SOL     OW 5122   2.785   6.162   6.528 -0.5252 -0.3097  0.0452
 1408SOL    HW1 5123   2.738   6.129   6.446 -0.9754 -0.1391  0.2327
 1408SOL    HW2 5124   2.726   6.227   6.577  0.3087  0.7120 -0.2707
 1409SOL     OW 5125   2.191   2.368   0.521 -0.6204 -0.3260  0.6615
 1409SOL    HW1 5126   2.164   2.293   0.461  0.0125  0.8869 -1.2293
 1409SOL    HW2 5127   2.291   2.377   0.521 -0.6604  0.2147  1.2668
 1410SOL     OW 5128   4.639   2.037   6.329 -0.5010  0.1391 -0.4491
 1410SOL    HW1 5129   4.593   2.096   6.263 -0.4580 -0.7050 -1.2507
 1410SOL    HW2 5130   4.714   2.088   6.372 -1.1593  1.0108 -0.3109
 1411SOL     OW 5131   1.754   6.166   6.792  0.2453  0.0743 -0.0850
 1411SOL    HW1 5132   1.777   6.069   6.794  1.7717  0.4175  1.5847
 1411SOL    HW2 5133   1.823   6.216   6.741  1.5870  0.7000  2.1932
 1412SOL     OW 5134   5.140   0.928   2.678 -0.1412 -0.3552  0.6546
 1412SOL    HW1 5135   5.068   0.943   2.746  1.2821  0.2456  2.1089
 1412SOL    HW2 5136   5.176   0.835   2.687 -0.8008 -0.6996 -0.1608
 1413SOL     OW 5137   1.626   6.626   5.229  0.1462 -0.5858  0.1847
 1413SOL    HW1 5138   1.683   6.708   5.223  2.3100 -1.9228  1.2639
 1413SOL    HW2 5139   1.539   6.642   5.181  0.7079  2.1104 -0.0845
 1414SOL     OW 5140   6.870   5.297   6.946 -0.1988 -0.5857 -0.6908
 1414SOL    HW1 5141   6.774   5.315   6.925 -0.2326 -1.1242 -1.0082
 1414SOL    HW2 5142   6.901   5.216   6.897 -0.0757 -1.4791  0.7960
 1415SOL     OW 5143   2.990   3.171   4.947 -0.2189 -0.4127  0.8268
 1415SOL    HW1 5144   3.033   3.187   4.858 -1.6259  2.4600  0.5624
 1415SOL    HW2 5145   3.037   3.095   4.994  3.6063  1.0053 -0.3689
 1416SOL     OW 5146   5.122   2.921   2.382  0.4242  0.4770  0.6517
 1416SOL    HW1 5147   5.062   2.960   2.313  2.1690  1.6012 -0.3128
 1416SOL    HW2 5148   5.067   2.881   2.456 -1.4850 -0.5118 -1.2162
 1417SOL     OW 5149   3.150   1.946   5.697  0.0194 -0.4093  0.0608
 1417SOL    HW1 5150   3.224   1.950   5.764  0.4124  1.9865 -0.4483
 1417SOL    HW2 5151   3.064   1.926   5.744  0.7329 -1.7967  0.8400
 1418SOL     OW 5152   2.186   3.050   0.044 -0.0915 -0.1948 -0.1446
 1418SOL    HW1 5153   2.222   3.004   0.126 -1.0660 -0.5599  0.1011
 1418SOL    HW2 5154   2.234   3.136   0.030  1.4398 -1.0510 -0.3190
 1419SOL     OW 5155   1.335   2.634   6.923 -0.4567  0.3311 -0.2794
 1419SOL    HW1 5156   1.320   2.568   6.850 -0.0761 -0.6015  0.4770
 1419SOL    HW2 5157   1.416   2.689   6.903 -0.5335  0.2981 -0.6975
 1420SOL     OW 5158   3.689   5.309   5.237  0.7710 -0.5384 -0.0798
 1420SOL    HW1 5159   3.760   5.335   5.303  0.3221 -1.7433  0.9239
 1420SOL    HW2 5160   3.635   5.390   5.212  0.0861 -0.2333  2.1145
 1421SOL     OW 5161   2.232   5.473   0.428  0.0411  0.0516  0.0089
 1421SOL    HW1 5162   2.263   5.455   0.334 -2.3833  0.5944 -0.9660
 1421SOL    HW2 5163   2.200   5.568   0.435  1.0890  0.3359  1.7031
 1422SOL     OW 5164   6.411   5.752   5.074  0.1883  0.2070 -0.3543
 1422SOL    HW1 5165   6.500   5.720   5.106 -0.5199 -0.5860  0.9022
 1422SOL    HW2 5166   6.417   5.777   4.977  0.8525 -3.7626 -1.5407
 1423SOL     OW 5167   5.893   1.113   4.069 -0.0371 -0.6557  0.3779
 1423SOL    HW1 5168   5.935   1.131   4.158 -0.5758 -0.1068  0.5292
 1423SOL    HW2 5169   5.941   1.164   3.998 -0.7830  0.4092  0.6286
 1424SOL     OW 5170   5.262   1.573   1.281 -0.0361  0.0587 -0.0473
 1424SOL    HW1 5171   5.359   1.554   1.269  0.1929  1.2298 -0.1698
 1424SOL    HW2 5172   5.251   1.659   1.331 -1.0130 -0.6296  0.9737
 1425SOL     OW 5173   0.247   5.777   2.368  0.4404  0.0135  0.2599
 1425SOL    HW1 5174   0.169   5.717   2.348 -1.4634  1.9670  1.3107
 1425SOL    HW2 5175   0.304   5.736   2.439 -0.3760 -0.8978  0.4140
 1426SOL     OW 5176   2.896   0.224   5.669  0.1522  0.5034  0.0517
 1426SOL    HW1 5177   2.896   0.157   5.594  0.6794 -1.1738  1.4944
 1426SOL    HW2 5178   2.988   0.234   5.705  0.0818  2.0755 -0.1634
 1427SOL     OW 5179   2.304   1.212   3.022  0.2562  0.5964 -0.3584
 1427SOL    HW1 5180   2.376   1.281   3.011  1.1529 -0.6399 -3.0843
 1427SOL    HW2 5181   2.225   1.238   2.965  0.9967 -1.0095 -2.2336
 1428SOL     OW 5182   5.690   3.627   1.031 -0.3730  0.1550  0.2684
 1428SOL    HW1 5183   5.645   3.699   0.979  0.2168  0.4689  0.1845
 1428SOL    HW2 5184   5.764   3.587   0.977  0.2109  0.4441  0.8334
 1429SOL     OW 5185   0.235   5.704   1.275 -0.3070 -0.2063  0.6078
 1429SOL    HW1 5186   0.203   5.783   1.327  1.6501 -0.2897  2.0459
 1429SOL    HW2 5187   0.330   5.718   1.248 -0.5326 -1.2511 -0.8666
 1430SOL     OW 5188   3.858   5.435   5.540  0.1330 -0.2086 -0.3719
 1430SOL    HW1 5189   3.816   5.506   5.596  1.3224  0.5761 -0.4358
 1430SOL    HW2 5190   3.925   5.385   5.594 -1.4034 -2.0029 -0.0286
 1431SOL     OW 5191   4.821   2.221   3.232 -0.1107  0.5455 -0.7032
 1431SOL    HW1 5192   4.914   2.214   3.267  0.1901  2.5551 -0.9485
 1431SOL    HW2 5193   4.756   2.224   3.308  0.0723 -0.1665 -0.5123
 1432SOL     OW 5194   1.467   2.831   6.615  0.7329  0.0312 -0.3183
 1432SOL    HW1 5195   1.525   2.804   6.538 -0.2042 -1.3409 -0.5827
 1432SOL    HW2 5196   1.524   2.870   6.687  1.9199 -0.7453 -0.7977
 1433SOL     OW 5197   2.597   1.579   1.923 -0.3495 -1.2041  0.5741
 1433SOL    HW1 5198   2.670   1.515   1.898 -0.2351 -0.5267 -0.9343
 1433SOL    HW2 5199   2.630   1.641   1.994  0.8981 -0.3307 -0.7124
 1434SOL     OW 5200   6.292   1.224   6.978  0.7101 -0.3333 -0.8676
 1434SOL    HW1 5201   6.389   1.210   6.993  0.7069  0.9086  0.5822
 1434SOL    HW2 5202   6.270   1.321   6.987 -0.9360 -0.7849  0.7431
 1435SOL     OW 5203   7.007   5.179   1.464  0.0363  0.1910 -0.5818
 1435SOL    HW1 5204   7.065   5.216   1.537 -1.9248 -0.7407  1.5993
 1435SOL    HW2 5205   7.028   5.082   1.452  0.2950  0.3242 -1.2151
 1436SOL     OW 5206   1.533   2.838   5.636  0.1943 -0.3781 -0.4397
 1436SOL    HW1 5207   1.493   2.883   5.557  1.6920 -1.4906 -1.9136
 1436SOL    HW2 5208   1.584   2.757   5.606  0.9197 -0.7703  1.6595
 1437SOL     OW 5209   3.325   6.080   5.287 -1.0312  0.0344  0.0136
 1437SOL    HW1 5210   3.263   6.002   5.275 -0.2110 -0.3562 -2.1691
 1437SOL    HW2 5211   3.376   6.095   5.203  1.0035  1.0895  1.3434
 1438SOL     OW 5212   4.397   0.506   4.698 -0.2953  0.4234  0.0374
 1438SOL    HW1 5213   4.352   0.483   4.784 -1.7148  0.9381 -0.5482
 1438SOL    HW2 5214   4.406   0.605   4.690  1.3557  0.3258  0.3249
 1439SOL     OW 5215   6.970   6.068   5.750 -0.1602 -0.4379  0.3664
 1439SOL    HW1 5216   6.928   6.133   5.686 -2.1693 -2.0072  0.0016
 1439SOL    HW2 5217   7.036   6.012   5.700 -0.1795 -0.2790  0.1561
 1440SOL     OW 5218   2.764   1.123   6.089 -0.0590  0.1048 -0.5376
 1440SOL    HW1 5219   2.723   1.213   6.100 -1.6850 -0.6396 -0.2081
 1440SOL    HW2 5220   2.701   1.063   6.039  0.4363 -1.2136  0.3461
 1441SOL     OW 5221   1.938   1.235   4.107  0.5226  0.4620 -0.1057
 1441SOL    HW1 5222   1.899   1.205   4.020  2.2160 -0.7954 -0.4845
 1441SOL    HW2 5223   1.997   1.164   4.144 -1.2275  0.3849  2.8433
 1442SOL     OW 5224   2.965   1.243   0.301  0.6825 -0.2989  0.5317
 1442SOL    HW1 5225   3.050   1.249   0.248 -0.2107  1.6969 -0.8275
 1442SOL    HW2 5226   2.954   1.326   0.355 -1.1121  0.2294 -0.5395
 1443SOL     OW 5227   1.232   3.757   2.080  0.1762  0.0763  0.1765
 1443SOL    HW1 5228   1.293   3.833   2.059  0.5359 -0.4780 -0.8263
 1443SOL    HW2 5229   1.156   3.755   2.016  1.6345 -2.0188 -1.6608
 1444SOL     OW 5230   1.921   0.919   1.018 -0.1938  0.5121 -0.2253
 1444SOL    HW1 5231   1.946   0.826   1.044  1.1262  1.1738  1.0579
 1444SOL    HW2 5232   1.827   0.938   1.048  0.0669  0.0805  0.9086
 1445SOL     OW 5233   6.762   0.854   6.801  0.9682 -0.1973  0.2547
 1445SOL    HW1 5234   6.815   0.873   6.884  0.9197 -0.2655  0.3012
 1445SOL    HW2 5235   6.733   0.759   6.801 -0.9702  0.3370  1.2800
 1446SOL     OW 5236   3.996   2.883   6.894 -0.1008  0.2281  0.4317
 1446SOL    HW1 5237   3.988   2.918   6.987  0.1323  0.8996  0.2007
 1446SOL    HW2 5238   3.986   2.958   6.829 -1.1697 -0.3637 -0.1198
 1447SOL     OW 5239   0.915   6.473   5.552  0.0458 -0.0389  0.6028
 1447SOL    HW1 5240   0.877   6.403   5.492  0.3321  0.4346 -0.1484
 1447SOL    HW2 5241   0.990   6.520   5.505  0.8844 -0.2694  1.6801
 1448SOL     OW 5242   3.102   0.481   5.197 -0.4741 -0.9590  0.0268
 1448SOL    HW1 5243   3.061   0.486   5.288  0.2387 -1.8952  0.4092
 1448SOL    HW2 5244   3.190   0.435   5.202  0.4375  0.5961 -0.8659
 1449SOL     OW 5245   0.751   5.409   4.436  0.0267  0.1299  0.1447
 1449SOL    HW1 5246   0.822   5.478   4.445 -0.0099  0.4202 -1.4905
 1449SOL    HW2 5247   0.679   5.426   4.503  0.5758  0.9842  0.5286
 1450SOL     OW 5248   0.558   3.297   6.052 -0.1283 -0.0137 -0.1410
 1450SOL    HW1 5249   0.530   3.230   6.121 -0.5495  0.3005 -0.0035
 1450SOL    HW2 5250   0.626   3.359   6.091  0.8182 -0.8072 -0.4888
 1451SOL     OW 5251   5.383   2.327   5.412  0.3391  0.2200 -0.4479
 1451SOL    HW1 5252   5.302   2.313   5.469  0.4813  1.6743  0.1406
 1451SOL    HW2 5253   5.385   2.421   5.379  0.2413 -0.5741 -2.9506
 1452SOL     OW 5254   5.945   4.104   2.734 -0.6608 -0.2700 -0.3896
 1452SOL    HW1 5255   5.891   4.067   2.659  0.1010 -1.4337 -0.4063
 1452SOL    HW2 5256   5.885   4.136   2.807 -1.3974  0.6214 -1.3759
 1453SOL     OW 5257   6.889   4.667   0.310  0.3960 -0.2378 -0.3168
 1453SOL    HW1 5258   6.932   4.629   0.229 -1.1199 -1.2656 -0.6783
 1453SOL    HW2 5259   6.790   4.658   0.303  0.2012  0.1070  1.4320
 1454SOL     OW 5260   5.537   4.309   1.727 -0.4020  0.5440  0.3095
 1454SOL    HW1 5261   5.475   4.369   1.677 -1.0926  0.2102  0.7410
 1454SOL    HW2 5262   5.591   4.364   1.792  0.9493  1.0650 -1.1996
 1455SOL     OW 5263   6.934   4.580   0.051  0.2866 -0.2982  0.1474
 1455SOL    HW1 5264   6.934   4.486   0.015 -0.7137 -0.6071  0.9085
 1455SOL    HW2 5265   6.840   4.608   0.070  0.7120  0.1714  1.6627
 1456SOL     OW 5266   3.012   5.327   4.221  0.4692 -0.0576  0.6609
 1456SOL    HW1 5267   2.925   5.324   4.171  1.0316  0.3164 -0.3801
 1456SOL    HW2 5268   2.997   5.368   4.311 -0.0306  2.2412 -0.3990
 1457SOL     OW 5269   6.826   7.016   2.905 -0.3135 -0.1330 -0.3208
 1457SOL    HW1 5270   6.766   7.094   2.885 -1.2329 -0.7277  0.0234
 1457SOL    HW2 5271   6.921   7.041   2.888 -0.7560  0.4229 -2.1669
 1458SOL     OW 5272   1.810   5.251   1.063 -0.3598 -0.0160 -0.4851
 1458SOL    HW1 5273   1.836   5.347   1.079  0.8018 -0.5913  1.4552
 1458SOL    HW2 5274   1.848   5.221   0.975 -0.8525  1.3155 -1.1843
 1459SOL     OW 5275   6.754   6.663   3.124  0.3296  0.0636  0.0088
 1459SOL    HW1 5276   6.698   6.700   3.050 -0.1170 -0.3103  0.1507
 1459SOL    HW2 5277   6.760   6.564   3.115 -0.5132 -0.0972  0.9841
 1460SOL     OW 5278   0.933   1.895   3.234  0.3360 -0.3145 -0.9108
 1460SOL    HW1 5279   0.992   1.814   3.223 -0.1654 -1.4818  3.1610
 1460SOL    HW2 5280   0.982   1.965   3.286 -0.7791 -0.0334 -0.1935
 1461SOL     OW 5281   5.991   0.444   5.939 -0.0899  0.0654 -0.0292
 1461SOL    HW1 5282   5.964   0.523   5.994 -0.5094 -0.1018  0.0152
 1461SOL    HW2 5283   6.011   0.473   5.846  0.7833  0.3751  0.2480
 1462SOL     OW 5284   3.810   3.912   3.655 -0.2613 -0.0017  0.0113
 1462SOL    HW1 5285   3.751   3.908   3.575  1.6786 -2.6164 -1.4853
 1462SOL    HW2 5286   3.836   3.819   3.682  0.6733  0.8923  2.5245
 1463SOL     OW 5287   4.350   3.177   6.284 -0.6608 -0.5641  0.8605
 1463SOL    HW1 5288   4.325   3.096   6.230 -0.8319 -2.2768  3.3279
 1463SOL    HW2 5289   4.268   3.232   6.301 -0.6998 -0.3007 -0.1535
 1464SOL     OW 5290   3.146   4.869   4.752 -0.8368 -0.4799 -0.3063
 1464SOL    HW1 5291   3.133   4.823   4.664 -0.3502  0.2758 -0.7798
 1464SOL    HW2 5292   3.210   4.815   4.808  0.2448 -0.0805 -1.1096
 1465SOL     OW 5293   0.320   4.470   6.198  0.2597  0.0376  0.3007
 1465SOL    HW1 5294   0.392   4.535   6.225  0.0252  1.5488 -2.2911
 1465SOL    HW2 5295   0.363   4.390   6.155  0.4517  0.0231  0.5150
 1466SOL     OW 5296   2.360   5.107   2.719  0.4922  0.4266 -0.3862
 1466SOL    HW1 5297   2.333   5.126   2.624  1.0438  0.6067 -0.5103
 1466SOL    HW2 5298   2.454   5.075   2.721  0.7644  1.2217  0.1801
 1467SOL     OW 5299   3.726   6.043   6.619  0.1938  0.4646 -0.1826
 1467SOL    HW1 5300   3.678   6.121   6.660  0.6250 -0.1715  1.6562
 1467SOL    HW2 5301   3.766   6.070   6.532  0.1801  2.2434  0.3293
 1468SOL     OW 5302   0.517   5.439   3.774 -0.2110  0.3394  0.1324
 1468SOL    HW1 5303   0.435   5.396   3.813  0.1600  0.5101  1.1340
 1468SOL    HW2 5304   0.561   5.376   3.711  1.3981 -1.6214  3.0082
 1469SOL     OW 5305   4.071   1.075   2.193 -0.2030 -0.1679  0.2612
 1469SOL    HW1 5306   4.036   0.985   2.167 -2.6201 -0.0126  2.5460
 1469SOL    HW2 5307   4.013   1.146   2.153  0.3311  0.2964  0.2940
 1470SOL     OW 5308   0.386   6.241   1.168  0.1079  0.0242 -0.2605
 1470SOL    HW1 5309   0.393   6.143   1.152  1.1920  0.2957 -1.6842
 1470SOL    HW2 5310   0.290   6.268   1.169 -0.2739 -1.2722  1.7888
 1471SOL     OW 5311   2.059   5.453   2.172  0.3659 -0.1740 -0.3952
 1471SOL    HW1 5312   2.153   5.434   2.199 -0.8747 -1.8121  3.4943
 1471SOL    HW2 5313   2.019   5.372   2.130  0.3217  0.1348 -0.9629
 1472SOL     OW 5314   4.520   5.230   4.558  0.0248 -0.2634  0.0945
 1472SOL    HW1 5315   4.532   5.194   4.651 -1.0208  0.1196  0.3843
 1472SOL    HW2 5316   4.434   5.197   4.520  0.7828 -1.0125 -1.0422
 1473SOL     OW 5317   0.433   0.940   3.340  0.8425  0.3609 -0.3396
 1473SOL    HW1 5318   0.382   0.898   3.415  2.3987 -1.2192 -0.0958
 1473SOL    HW2 5319   0.369   0.975   3.272 -0.5745  0.2999  0.8962
 1474SOL     OW 5320   1.353   5.148   4.748 -0.1513 -0.4547 -0.1143
 1474SOL    HW1 5321   1.327   5.212   4.676 -1.8759  0.6207  1.3790
 1474SOL    HW2 5322   1.271   5.113   4.793  0.8698 -0.4763  1.8468
 1475SOL     OW 5323   1.450   2.185   2.136  0.1351  0.3213 -0.2985
 1475SOL    HW1 5324   1.390   2.224   2.066 -0.1371 -0.7693 -0.6799
 1475SOL    HW2 5325   1.527   2.247   2.151 -0.6890  1.3832 -0.3288
 1476SOL     OW 5326   6.271   6.653   3.724 -0.4215 -0.3545 -0.2632
 1476SOL    HW1 5327   6.304   6.632   3.632 -0.8261  2.0393 -1.0064
 1476SOL    HW2 5328   6.287   6.574   3.783  1.2401 -1.4121 -1.9944
 1477SOL     OW 5329   5.579   4.962   1.565 -0.1844 -0.3153 -0.2052
 1477SOL    HW1 5330   5.496   5.019   1.561  0.7279  0.9923 -2.4442
 1477SOL    HW2 5331   5.653   5.014   1.605  0.5407 -0.0066 -1.8517
 1478SOL     OW 5332   0.744   6.893   4.335 -0.5693  0.5600  0.3033
 1478SOL    HW1 5333   0.842   6.899   4.319 -0.5631 -0.4712 -0.1504
 1478SOL    HW2 5334   0.723   6.920   4.429 -0.0489  2.2543 -0.0431
 1479SOL     OW 5335   6.947   5.839   1.740  0.2701  0.4801  0.0564
 1479SOL    HW1 5336   6.986   5.789   1.662 -0.0916  2.5814 -1.5821
 1479SOL    HW2 5337   6.936   5.777   1.817 -0.9445 -2.1773 -2.0704
 1480SOL     OW 5338   2.125   4.027   2.994  0.0615  0.0403 -0.0207
 1480SOL    HW1 5339   2.029   4.054   2.993 -0.2677 -1.1035 -0.0635
 1480SOL    HW2 5340   2.138   3.947   3.052  1.1701  0.7699  0.7912
 1481SOL     OW 5341   1.114   5.930   2.704 -0.1865 -0.0239  0.8750
 1481SOL    HW1 5342   1.170   5.906   2.624  0.4041 -0.8271  1.5140
 1481SOL    HW2 5343   1.157   5.895   2.787  0.2413  2.4696  1.7978
 1482SOL     OW 5344   3.926   5.954   6.916 -0.3199 -0.2835  0.1908
 1482SOL    HW1 5345   4.004   6.004   6.878 -0.6300  0.3884  0.4230
 1482SOL    HW2 5346   3.953   5.913   7.003 -0.9004  2.0691  1.5672
 1483SOL     OW 5347   3.117   2.109   2.088 -0.1897 -0.1654 -0.0216
 1483SOL    HW1 5348   3.190   2.101   2.019 -0.2646  0.2053 -0.1456
 1483SOL    HW2 5349   3.043   2.165   2.051 -0.7381 -0.9083 -0.0557
 1484SOL     OW 5350   2.064   3.410   4.332 -0.1431 -0.1591  0.2467
 1484SOL    HW1 5351   2.055   3.508   4.349 -1.4273 -0.4104  1.1663
 1484SOL    HW2 5352   2.097   3.365   4.415 -1.2169 -0.7199  0.3794
 1485SOL     OW 5353   3.021   0.889   1.737  0.9037  0.1521 -0.1539
 1485SOL    HW1 5354   3.014   0.844   1.827  1.1302  1.3176  0.4639
 1485SOL    HW2 5355   2.955   0.964   1.732 -0.6377 -1.2299 -1.8044
 1486SOL     OW 5356   5.283   6.639   5.516 -0.2322 -0.3600  0.0231
 1486SOL    HW1 5357   5.269   6.551   5.561 -0.3647  0.7267  2.2653
 1486SOL    HW2 5358   5.318   6.705   5.582 -0.1719  1.3034 -1.5750
 1487SOL     OW 5359   3.269   0.477   1.751  0.3683 -0.6148  0.2283
 1487SOL    HW1 5360   3.171   0.462   1.762  0.6500 -1.7983  1.3554
 1487SOL    HW2 5361   3.296   0.560   1.800 -0.1727  0.1312 -0.7078
 1488SOL     OW 5362   0.965   1.416   2.491 -0.0966 -0.5704  0.3829
 1488SOL    HW1 5363   1.065   1.421   2.492 -0.1429  1.5244 -0.0250
 1488SOL    HW2 5364   0.931   1.450   2.404 -1.2083  0.6470  1.2524
 1489SOL     OW 5365   5.234   4.422   3.159 -0.3481  0.1141 -0.4524
 1489SOL    HW1 5366   5.319   4.444   3.206  0.9154  1.1200 -3.0029
 1489SOL    HW2 5367   5.184   4.353   3.210  2.0316 -0.5626  1.1027
 1490SOL     OW 5368   1.372   0.280   5.093 -0.6135 -0.1503  0.2216
 1490SOL    HW1 5369   1.470   0.301   5.086 -0.9034  1.2095 -0.0098
 1490SOL    HW2 5370   1.328   0.295   5.005 -1.1968  0.1160  0.5546
 1491SOL     OW 5371   4.929   5.208   5.563 -0.5584  0.4059  0.3768
 1491SOL    HW1 5372   4.870   5.287   5.583  1.6871  2.2140  0.3267
 1491SOL    HW2 5373   5.017   5.220   5.610  0.7810 -0.8107 -1.6628
 1492SOL     OW 5374   5.502   1.413   0.643 -0.6661  0.2439 -0.1895
 1492SOL    HW1 5375   5.583   1.355   0.632 -0.7793 -0.0451  0.4357
 1492SOL    HW2 5376   5.530   1.506   0.665 -0.4976  0.1227  0.1210
 1493SOL     OW 5377   6.639   2.291   3.834 -0.4876  0.5794 -0.5334
 1493SOL    HW1 5378   6.632   2.294   3.734  0.4260 -2.0015 -0.7519
 1493SOL    HW2 5379   6.566   2.233   3.871  0.2121  0.0728  0.1012
 1494SOL     OW 5380   1.820   2.423   1.561 -0.5064  0.1019 -0.0083
 1494SOL    HW1 5381   1.787   2.518   1.557  0.8327  0.6036  0.2461
 1494SOL    HW2 5382   1.867   2.408   1.648 -0.8753 -0.8664  0.0300
 1495SOL     OW 5383   0.243   1.672   3.624  0.1435 -0.2653  0.0923
 1495SOL    HW1 5384   0.176   1.663   3.698 -1.6929  1.0538 -1.3365
 1495SOL    HW2 5385   0.300   1.753   3.639 -0.0592 -0.1425  0.1990
 1496SOL     OW 5386   1.906   5.284   6.524  0.0514 -0.0066 -0.1799
 1496SOL    HW1 5387   1.950   5.373   6.532  1.0474 -0.3584 -1.3604
 1496SOL    HW2 5388   1.868   5.274   6.432 -3.0680  0.4895  0.9219
 1497SOL     OW 5389   1.353   0.683   6.056  0.3009  0.0319 -0.0523
 1497SOL    HW1 5390   1.279   0.617   6.071  0.2490  0.3743  1.2635
 1497SOL    HW2 5391   1.422   0.641   5.997 -0.0050 -1.0072  0.2972
 1498SOL     OW 5392   0.237   1.770   4.494  0.2118  0.0068 -0.2423
 1498SOL    HW1 5393   0.290   1.846   4.456  1.0968  0.5169  1.8852
 1498SOL    HW2 5394   0.142   1.777   4.464  0.4521  1.5013 -0.7371
 1499SOL     OW 5395   5.751   6.081   3.066  0.2526 -0.2414  0.2690
 1499SOL    HW1 5396   5.666   6.063   3.115 -0.0049 -0.0646 -0.1107
 1499SOL    HW2 5397   5.827   6.083   3.131  0.0335 -0.8601  0.5528
 1500SOL     OW 5398   2.248   3.715   0.535  0.5702  0.4521 -0.2633
 1500SOL    HW1 5399   2.301   3.644   0.487  0.5502  0.4321 -0.2561
 1500SOL    HW2 5400   2.197   3.673   0.610 -0.5010  0.2457 -1.0903
 1501SOL     OW 5401   6.764   1.052   1.565 -0.5160 -0.4599 -0.0389
 1501SOL    HW1 5402   6.789   1.047   1.662 -2.3320  2.2542  0.6976
 1501SOL    HW2 5403   6.835   1.101   1.514 -1.6832  2.6234  1.0257
 1502SOL     OW 5404   5.315   1.801   4.897  0.1841  0.1542  0.5434
 1502SOL    HW1 5405   5.326   1.704   4.913 -0.2404  0.1507  0.8392
 1502SOL    HW2 5406   5.218   1.826   4.906  0.5889  1.0965  3.2838
 1503SOL     OW 5407   5.884   1.711   3.126 -0.2451 -0.1890 -0.4194
 1503SOL    HW1 5408   5.975   1.746   3.149 -0.4653 -0.2310  0.5351
 1503SOL    HW2 5409   5.840   1.773   3.061  0.2475  0.1223 -0.4583
 1504SOL     OW 5410   5.346   6.833   5.755  0.0956 -0.3821  0.3843
 1504SOL    HW1 5411   5.358   6.911   5.817 -0.5811  0.9281 -1.0544
 1504SOL    HW2 5412   5.354   6.748   5.806  2.0734  0.5834  1.8296
 1505SOL     OW 5413   4.641   6.045   3.356 -0.0372  0.3686 -0.5599
 1505SOL    HW1 5414   4.553   6.066   3.315 -0.2399  0.3206 -0.1533
 1505SOL    HW2 5415   4.692   6.130   3.372  0.3414  0.3456 -1.5491
 1506SOL     OW 5416   1.191   0.129   1.882 -0.3628  0.5289 -0.0022
 1506SOL    HW1 5417   1.214   0.154   1.976  1.7956  1.7988 -0.7906
 1506SOL    HW2 5418   1.196   0.210   1.824 -2.2038 -0.1254 -1.1671
 1507SOL     OW 5419   3.419   2.969   1.721  0.3465 -0.0274  0.3844
 1507SOL    HW1 5420   3.423   2.966   1.821  0.6166  1.1141  0.4138
 1507SOL    HW2 5421   3.511   2.958   1.684  0.2563 -0.3695  0.2568
 1508SOL     OW 5422   1.292   1.649   3.903 -0.1570  0.1384  0.7692
 1508SOL    HW1 5423   1.366   1.685   3.960 -0.1169  0.6726  0.3895
 1508SOL    HW2 5424   1.251   1.569   3.947  0.4758 -0.0067  1.1077
 1509SOL     OW 5425   0.536   5.620   1.556 -0.0693  0.0579 -0.7610
 1509SOL    HW1 5426   0.513   5.700   1.500  1.1032  0.2270 -1.0149
 1509SOL    HW2 5427   0.522   5.537   1.501  0.2400  0.1762 -1.0216
 1510SOL     OW 5428   1.789   6.231   3.703  0.0469  1.0888  0.0791
 1510SOL    HW1 5429   1.817   6.241   3.608  1.1348 -0.4559  0.1903
 1510SOL    HW2 5430   1.692   6.254   3.712 -0.4843 -0.1661 -1.7158
 1511SOL     OW 5431   4.863   1.951   3.084  0.1691 -0.1407 -0.1369
 1511SOL    HW1 5432   4.840   2.045   3.060 -0.8439 -0.0496  1.0804
 1511SOL    HW2 5433   4.896   1.948   3.179  1.6124 -0.8155 -0.6311
 1512SOL     OW 5434   4.838   2.056   3.600  0.4576  0.3238 -0.6141
 1512SOL    HW1 5435   4.886   2.142   3.581  1.0877  0.7871  2.5473
 1512SOL    HW2 5436   4.889   2.004   3.668 -1.4822 -1.1266 -0.2014
 1513SOL     OW 5437   0.038   6.033   1.106 -0.2693  0.2581 -0.0190
 1513SOL    HW1 5438  -0.059   6.056   1.098  0.0041  1.4067 -0.2315
 1513SOL    HW2 5439   0.089   6.076   1.031  0.3930 -0.4318  0.0213
 1514SOL     OW 5440   6.700   4.488   4.882 -0.6769 -0.2613  0.4724
 1514SOL    HW1 5441   6.755   4.531   4.954  0.4422  0.4992 -0.7734
 1514SOL    HW2 5442   6.734   4.518   4.793 -0.5382 -2.9125 -0.4553
 1515SOL     OW 5443   6.514   4.289   4.157 -0.7686  0.2608  0.4593
 1515SOL    HW1 5444   6.507   4.294   4.057 -1.0232 -0.4535  0.4350
 1515SOL    HW2 5445   6.538   4.379   4.193  1.1457  0.1465 -0.3855
 1516SOL     OW 5446   0.929   0.526   6.843 -0.4670 -0.0930  0.3045
 1516SOL    HW1 5447   0.932   0.560   6.937  0.6802 -1.4278  0.7969
 1516SOL    HW2 5448   0.965   0.595   6.781 -0.2754  0.4235  0.9822
 1517SOL     OW 5449   2.361   3.033   1.084 -0.7087  0.6638  0.3658
 1517SOL    HW1 5450   2.275   3.007   1.128 -0.1646 -0.2469  0.9339
 1517SOL    HW2 5451   2.428   3.057   1.154  0.2802 -1.1431  0.0828
 1518SOL     OW 5452   3.606   6.796   5.532  0.5960 -0.2650 -0.4209
 1518SOL    HW1 5453   3.539   6.795   5.458 -0.1513 -0.7358  0.2341
 1518SOL    HW2 5454   3.650   6.885   5.537 -0.6456  0.3605 -0.2988
 1519SOL     OW 5455   4.484   3.151   5.362  0.3790 -0.4939  0.5078
 1519SOL    HW1 5456   4.567   3.205   5.375  0.6516 -1.0818  1.3059
 1519SOL    HW2 5457   4.416   3.205   5.312  1.1370  0.0883  0.0865
 1520SOL     OW 5458   5.578   3.917   6.822  0.6988 -0.4931 -0.7462
 1520SOL    HW1 5459   5.520   3.851   6.775 -2.3827  0.6140  1.1980
 1520SOL    HW2 5460   5.603   3.881   6.912  1.1958 -0.0431 -0.6947
 1521SOL     OW 5461   6.599   3.577   6.051 -0.5252 -0.3026  0.9175
 1521SOL    HW1 5462   6.603   3.482   6.080 -2.7971 -0.1487  1.9923
 1521SOL    HW2 5463   6.682   3.625   6.080  0.5461 -1.8551  0.5580
 1522SOL     OW 5464   0.338   2.971   2.951 -0.3296 -0.2900  0.1347
 1522SOL    HW1 5465   0.283   3.053   2.964 -0.6045 -0.3230 -0.7566
 1522SOL    HW2 5466   0.285   2.891   2.979  0.5140 -0.0741  2.5800
 1523SOL     OW 5467   1.047   1.060   4.662 -0.0865 -1.2568 -0.2907
 1523SOL    HW1 5468   1.095   1.109   4.735  1.1055 -0.3724 -1.6202
 1523SOL    HW2 5469   1.104   1.058   4.580 -1.4604 -2.0877 -1.2666
 1524SOL     OW 5470   1.125   5.248   2.780 -0.0854 -0.0021 -0.0446
 1524SOL    HW1 5471   1.041   5.204   2.813  0.7098 -1.5281  0.0021
 1524SOL    HW2 5472   1.190   5.178   2.751  1.6870  1.1061  1.1149
 1525SOL     OW 5473   2.541   5.040   3.662 -0.7221  0.1021 -0.1845
 1525SOL    HW1 5474   2.526   5.057   3.565 -0.1639 -1.2167 -0.5204
 1525SOL    HW2 5475   2.565   4.944   3.676 -0.4796  0.3447  1.2250
 1526SOL     OW 5476   6.651   1.230   3.155 -0.0223  0.2992  0.3651
 1526SOL    HW1 5477   6.597   1.310   3.130 -2.0365 -0.5855  1.7011
 1526SOL    HW2 5478   6.674   1.234   3.252 -2.1747 -1.7917  1.0593
 1527SOL     OW 5479   2.452   5.375   5.297 -0.2153  0.0325  0.5213
 1527SOL    HW1 5480   2.519   5.302   5.284 -1.0212 -0.5918 -0.2163
 1527SOL    HW2 5481   2.487   5.459   5.255  0.7804  0.1336  1.5034
 1528SOL     OW 5482   4.273   6.950   4.546 -0.4432  0.3834 -0.1225
 1528SOL    HW1 5483   4.247   7.003   4.627  0.5442 -0.1835  0.5782
 1528SOL    HW2 5484   4.369   6.967   4.524 -0.2222 -0.8041 -0.1188
 1529SOL     OW 5485   2.770   6.324   3.536  0.4449 -0.2572  0.3897
 1529SOL    HW1 5486   2.715   6.387   3.590  2.2773  2.4989 -0.7497
 1529SOL    HW2 5487   2.832   6.376   3.476  0.3484 -3.1317 -2.4882
 1530SOL     OW 5488   1.270   1.120   1.659  0.9903 -0.3237 -0.0162
 1530SOL    HW1 5489   1.286   1.191   1.591  0.7482  1.7956  2.0057
 1530SOL    HW2 5490   1.171   1.107   1.671  1.0305 -0.5463  0.0838
 1531SOL     OW 5491   7.013   0.024   3.358 -0.3269  0.7093 -0.2147
 1531SOL    HW1 5492   7.028  -0.021   3.446  1.9933  1.3198 -0.2171
 1531SOL    HW2 5493   6.988  -0.043   3.289  2.6318 -0.6427 -0.1260
 1532SOL     OW 5494   0.617   2.358   6.884 -0.6989 -0.2996 -0.1165
 1532SOL    HW1 5495   0.567   2.291   6.939 -1.0272 -0.7206 -0.9011
 1532SOL    HW2 5496   0.690   2.312   6.833 -1.7149 -0.3314 -1.6341
 1533SOL     OW 5497   6.953   2.423   6.354  0.4402  0.5910 -0.1447
 1533SOL    HW1 5498   6.918   2.364   6.281 -1.8407  1.2846  0.3011
 1533SOL    HW2 5499   7.004   2.499   6.314 -0.8628  1.0170 -1.0628
 1534SOL     OW 5500   6.074   3.751   2.336 -0.2579  0.1951  0.3319
 1534SOL    HW1 5501   5.976   3.747   2.354 -0.1629 -0.2281  0.7891
 1534SOL    HW2 5502   6.099   3.679   2.272  0.1840 -1.5802  2.3900
 1535SOL     OW 5503   0.279   1.381   2.167  0.0255 -0.0190 -0.4628
 1535SOL    HW1 5504   0.273   1.456   2.101  1.1875 -0.7181 -1.4210
 1535SOL    HW2 5505   0.190   1.336   2.174 -0.9383  1.9392  0.7946
 1536SOL     OW 5506   3.685   1.893   0.443 -0.3573  0.7532  0.0873
 1536SOL    HW1 5507   3.632   1.808   0.438 -0.1520  0.5795  0.7620
 1536SOL    HW2 5508   3.698   1.929   0.350 -0.8820  0.3227 -0.1619
 1537SOL     OW 5509   5.119   1.073   6.985  0.0830 -0.0035  0.1204
 1537SOL    HW1 5510   5.079   1.110   6.901 -1.0283  0.9231  1.0258
 1537SOL    HW2 5511   5.204   1.122   7.005 -0.4670  0.8810  0.3642
 1538SOL     OW 5512   2.667   3.790   6.545 -0.0304 -0.1202 -0.3821
 1538SOL    HW1 5513   2.624   3.710   6.586  0.0895  0.5878  1.1838
 1538SOL    HW2 5514   2.702   3.850   6.617 -0.0846  1.3282 -1.5140
 1539SOL     OW 5515   0.359   2.144   5.946 -0.5673 -0.4154 -0.3294
 1539SOL    HW1 5516   0.355   2.187   5.856 -1.6425  0.1392 -0.0373
 1539SOL    HW2 5517   0.290   2.185   6.005  0.6921 -0.1645  1.0224
 1540SOL     OW 5518   5.228   3.666   4.456 -0.1740  0.2590  0.0966
 1540SOL    HW1 5519   5.176   3.583   4.436  0.7830 -0.5876  0.9272
 1540SOL    HW2 5520   5.198   3.704   4.544  0.3055 -0.0116  0.3880
 1541SOL     OW 5521   0.484   6.028   5.871  0.3931 -0.0410 -0.1634
 1541SOL    HW1 5522   0.432   5.975   5.938  0.9640 -0.5120 -0.0883
 1541SOL    HW2 5523   0.425   6.050   5.793 -1.7433  4.2900  2.2885
 1542SOL     OW 5524   5.725   6.238   5.892  1.1946  0.3316 -0.8210
 1542SOL    HW1 5525   5.758   6.248   5.798  0.7647  0.0551 -1.0002
 1542SOL    HW2 5526   5.797   6.197   5.948  0.8558 -1.1159 -1.4110
 1543SOL     OW 5527   3.818   5.215   4.458  0.3535  0.5297 -0.3213
 1543SOL    HW1 5528   3.812   5.207   4.557  2.0628 -1.4731 -0.3247
 1543SOL    HW2 5529   3.860   5.303   4.434  3.6600 -0.5491  0.9711
 1544SOL     OW 5530   6.928   2.601   0.361  0.2942 -0.0370 -0.5842
 1544SOL    HW1 5531   6.832   2.576   0.372  0.2782  0.1086 -0.3761
 1544SOL    HW2 5532   6.941   2.644   0.272  0.2121 -0.2631 -0.7060
 1545SOL     OW 5533   5.732   3.875   1.507  0.3287  0.1343 -0.2507
 1545SOL    HW1 5534   5.803   3.818   1.465 -0.9287 -0.1484 -2.1139
 1545SOL    HW2 5535   5.725   3.961   1.456 -0.8925 -0.0003 -0.3251
 1546SOL     OW 5536   6.159   0.770   2.709 -0.2535  0.1466  0.1918
 1546SOL    HW1 5537   6.204   0.691   2.668  0.9502  1.5352 -1.2820
 1546SOL    HW2 5538   6.163   0.762   2.809  2.6379 -0.2151  0.1485
 1547SOL     OW 5539   1.514   6.818   4.981 -0.6154  0.4234 -0.5326
 1547SOL    HW1 5540   1.455   6.743   5.010  0.3216 -0.6355 -1.2867
 1547SOL    HW2 5541   1.576   6.786   4.909  1.9054  1.0323  1.2153
 1548SOL     OW 5542   4.487   3.833   1.194 -0.2673  0.7195  0.1231
 1548SOL    HW1 5543   4.517   3.740   1.214 -1.9473  0.3431  1.0120
 1548SOL    HW2 5544   4.416   3.831   1.124  0.3737  1.4317 -0.5631
 1549SOL     OW 5545   4.774   6.204   1.546  0.5400  0.0707 -0.0149
 1549SOL    HW1 5546   4.677   6.224   1.558  0.6531  1.0031 -0.5429
 1549SOL    HW2 5547   4.828   6.274   1.592  0.9523  0.2409 -0.7391
 1550SOL     OW 5548   4.028   6.196   3.788 -0.9857  0.4131  0.3679
 1550SOL    HW1 5549   4.061   6.146   3.708 -0.9156  2.2989 -0.8492
 1550SOL    HW2 5550   3.953   6.146   3.831 -2.0330  0.0536 -1.7673
 1551SOL     OW 5551   2.046   2.135   6.588  0.0806 -0.3604  0.0499
 1551SOL    HW1 5552   2.116   2.207   6.588 -0.2549 -0.0162 -1.0267
 1551SOL    HW2 5553   1.972   2.161   6.649  0.6593 -0.5008  0.8278
 1552SOL     OW 5554   1.375   0.318   3.785 -0.8035 -0.1496 -0.1429
 1552SOL    HW1 5555   1.460   0.266   3.769 -0.5292  0.3548 -0.3686
 1552SOL    HW2 5556   1.382   0.407   3.739 -1.2911  0.0632  0.1895
 1553SOL     OW 5557   2.036   2.656   4.117  0.4537 -0.6326 -0.2915
 1553SOL    HW1 5558   2.088   2.715   4.180  1.3843 -1.0191 -0.6771
 1553SOL    HW2 5559   1.939   2.675   4.126  0.7454  1.2435 -0.6506
 1554SOL     OW 5560   3.681   0.476   0.347  0.3848  0.4305  0.4339
 1554SOL    HW1 5561   3.643   0.557   0.302  0.4409 -0.1333 -0.6458
 1554SOL    HW2 5562   3.652   0.394   0.298  2.3954 -0.0657 -0.0208
 1555SOL     OW 5563   2.610   5.118   0.338  0.1011  0.1666 -1.0073
 1555SOL    HW1 5564   2.537   5.152   0.280 -0.5055 -0.9314 -0.9215
 1555SOL    HW2 5565   2.616   5.018   0.329 -0.4944 -0.1498  1.3275
 1556SOL     OW 5566   6.617   4.874   5.753 -0.1443  0.0360 -0.5837
 1556SOL    HW1 5567   6.715   4.879   5.775  0.4465 -2.3474 -2.3163
 1556SOL    HW2 5568   6.592   4.951   5.694  0.1732  1.7277  1.3684
 1557SOL     OW 5569   1.758   1.208   5.857 -0.0234  0.0492 -0.1385
 1557SOL    HW1 5570   1.678   1.170   5.810  0.0135 -2.1790  1.4444
 1557SOL    HW2 5571   1.833   1.143   5.853  0.8603  0.9861  0.6763
 1558SOL     OW 5572   3.294   5.203   6.340 -0.1384 -0.1073  0.2807
 1558SOL    HW1 5573   3.207   5.221   6.293  0.4109 -0.6552 -1.0171
 1558SOL    HW2 5574   3.311   5.104   6.341  0.9813  0.0568 -0.4922
 1559SOL     OW 5575   6.149   4.788   0.241 -0.0071 -0.1414  0.1372
 1559SOL    HW1 5576   6.075   4.722   0.233 -0.5844  0.5280 -0.1747
 1559SOL    HW2 5577   6.164   4.833   0.153 -1.5921  2.1919  0.9659
 1560SOL     OW 5578   1.451   2.324   4.719 -0.0535 -0.0616  0.3784
 1560SOL    HW1 5579   1.465   2.230   4.685  0.0949 -0.0962  0.5331
 1560SOL    HW2 5580   1.522   2.383   4.680  0.8562 -0.3395  1.5759
 1561SOL     OW 5581   0.065   2.077   0.887  0.4996 -0.2659  0.4263
 1561SOL    HW1 5582   0.011   2.091   0.970  1.4453 -0.7880  1.1502
 1561SOL    HW2 5583   0.081   2.165   0.843 -0.7156 -0.0753  0.3302
 1562SOL     OW 5584   0.713   3.921   5.280  0.3064 -0.5467 -0.2669
 1562SOL    HW1 5585   0.714   3.935   5.181 -0.9404  2.9141  0.0809
 1562SOL    HW2 5586   0.806   3.930   5.316  0.3404  1.8560 -0.8037
 1563SOL     OW 5587   3.361   6.842   4.457 -0.6693  0.1666 -0.1307
 1563SOL    HW1 5588   3.270   6.872   4.486 -0.0904  2.6020 -0.6070
 1563SOL    HW2 5589   3.366   6.841   4.358 -0.1638  0.1369 -0.1095
 1564SOL     OW 5590   3.824   3.794   0.448  0.0810  0.4289 -0.1585
 1564SOL    HW1 5591   3.832   3.696   0.467 -1.8851  0.3051  0.2361
 1564SOL    HW2 5592   3.905   3.842   0.482  1.1316 -1.0628 -0.4865
 1565SOL     OW 5593   6.038   0.361   0.281  0.0940 -0.3647 -0.6883
 1565SOL    HW1 5594   6.096   0.284   0.253 -1.9056 -2.6229  1.0311
 1565SOL    HW2 5595   5.942   0.338   0.266 -0.6637  1.0536  1.5814
 1566SOL     OW 5596   2.882   5.091   6.647  0.0914 -0.1268  1.1984
 1566SOL    HW1 5597   2.823   5.129   6.576  0.5620 -2.3313 -0.5075
 1566SOL    HW2 5598   2.975   5.126   6.635  0.2092 -0.6355  0.5834
 1567SOL     OW 5599   5.684   4.438   5.402 -0.2747  0.7848 -0.3982
 1567SOL    HW1 5600   5.745   4.423   5.324  0.0789 -0.9658  0.1777
 1567SOL    HW2 5601   5.591   4.410   5.377 -0.4581  1.5599 -0.6233
 1568SOL     OW 5602   0.824   3.785   4.802  0.4094 -0.1981  0.6197
 1568SOL    HW1 5603   0.913   3.831   4.807  0.3386 -0.0846  0.8217
 1568SOL    HW2 5604   0.833   3.691   4.835  0.4245 -0.1453  0.7648
 1569SOL     OW 5605   3.973   0.145   5.131  0.5419 -0.8200 -0.5195
 1569SOL    HW1 5606   4.068   0.120   5.114  0.5978 -1.1802  0.2783
 1569SOL    HW2 5607   3.916   0.062   5.133  0.0837 -0.5571 -1.6851
 1570SOL     OW 5608   6.472   2.064   3.626  0.0056 -0.4259 -0.0546
 1570SOL    HW1 5609   6.473   1.974   3.581 -2.0478 -1.0426  0.9402
 1570SOL    HW2 5610   6.415   2.127   3.573  1.1925  0.2293 -0.5866
 1571SOL     OW 5611   0.059   5.003   4.870  1.0986 -0.5801 -0.1978
 1571SOL    HW1 5612   0.018   4.968   4.955 -0.7929  2.5794  0.3597
 1571SOL    HW2 5613   0.153   5.033   4.888  0.6134  0.3636  0.9509
 1572SOL     OW 5614   1.846   3.061   0.993 -0.7783  0.3587 -0.2949
 1572SOL    HW1 5615   1.871   2.980   0.940 -0.4676  1.1785 -1.4329
 1572SOL    HW2 5616   1.926   3.096   1.041 -0.4735  1.0975 -1.3354
 1573SOL     OW 5617   6.016   6.807   1.417 -0.3098 -0.8884 -0.0720
 1573SOL    HW1 5618   6.072   6.758   1.483 -1.4196 -0.6545  1.0883
 1573SOL    HW2 5619   5.927   6.761   1.408 -1.6950  1.2482  1.6368
 1574SOL     OW 5620   0.007   2.595   4.616  0.0244 -0.0503 -0.0846
 1574SOL    HW1 5621   0.025   2.670   4.551  1.2075 -1.4963 -1.5049
 1574SOL    HW2 5622  -0.052   2.629   4.689  0.5862  2.2935 -0.6160
 1575SOL     OW 5623   2.727   4.066   6.256 -0.2104 -0.2015 -0.0081
 1575SOL    HW1 5624   2.628   4.078   6.269 -0.0736  0.8377  0.1111
 1575SOL    HW2 5625   2.758   4.126   6.183 -0.0319 -2.1065 -1.5937
 1576SOL     OW 5626   3.691   0.786   4.173  0.5920  0.2206  0.1077
 1576SOL    HW1 5627   3.689   0.717   4.246 -0.1910 -1.0232 -1.0494
 1576SOL    HW2 5628   3.723   0.744   4.088 -1.2349  0.9034 -0.9735
 1577SOL     OW 5629   1.175   2.237   5.527 -0.0369 -0.4806  0.6712
 1577SOL    HW1 5630   1.199   2.208   5.434  0.1443  2.9601 -0.5158
 1577SOL    HW2 5631   1.084   2.204   5.550 -0.8302  0.0072 -1.5018
 1578SOL     OW 5632   3.309   4.016   6.376  0.1616  0.4272 -0.3198
 1578SOL    HW1 5633   3.279   4.038   6.283  1.0259  0.5143 -0.5917
 1578SOL    HW2 5634   3.403   3.981   6.373 -1.1299 -3.5949  0.0578
 1579SOL     OW 5635   4.701   1.248   5.726  0.2606 -0.4794  0.0904
 1579SOL    HW1 5636   4.795   1.243   5.693  0.3673  1.6881 -0.0955
 1579SOL    HW2 5637   4.641   1.197   5.664  0.8989  0.8292 -1.6979
 1580SOL     OW 5638   5.954   4.638   5.397  0.1390 -0.1470 -0.2024
 1580SOL    HW1 5639   5.989   4.581   5.472 -1.2409 -0.0609  0.5379
 1580SOL    HW2 5640   6.028   4.692   5.358  1.1751 -1.3113  0.1002
 1581SOL     OW 5641   6.066   6.162   0.337  0.5999  0.3134  0.3478
 1581SOL    HW1 5642   6.077   6.066   0.366 -3.3307 -0.4068 -0.0111
 1581SOL    HW2 5643   6.076   6.168   0.238  0.9202  0.2827  0.3785
 1582SOL     OW 5644   2.316   1.584   6.925 -0.5104 -0.0289 -0.0190
 1582SOL    HW1 5645   2.303   1.682   6.941 -1.7252 -0.0800 -0.5610
 1582SOL    HW2 5646   2.259   1.556   6.848  2.4759 -0.4475 -2.2595
 1583SOL     OW 5647   4.974   1.037   3.169 -0.2301 -0.3348  0.2309
 1583SOL    HW1 5648   4.960   0.953   3.116  1.0924  0.5092 -1.5885
 1583SOL    HW2 5649   4.902   1.102   3.147 -0.5871 -0.5623  0.7216
 1584SOL     OW 5650   0.234   4.515   1.063 -0.4253 -0.4313 -0.2300
 1584SOL    HW1 5651   0.172   4.580   1.107  0.2746 -0.3917  0.7453
 1584SOL    HW2 5652   0.183   4.436   1.030 -1.0426 -0.2225  0.2164
 1585SOL     OW 5653   1.358   0.865   4.012  0.1593 -0.0846 -0.1246
 1585SOL    HW1 5654   1.446   0.833   4.047  0.8524  1.3611 -0.4708
 1585SOL    HW2 5655   1.312   0.919   4.083 -0.2372 -0.4315 -0.1127
 1586SOL     OW 5656   0.508   5.467   5.541  0.5780 -0.0180 -0.7130
 1586SOL    HW1 5657   0.518   5.446   5.639 -1.0745 -0.4977 -0.6049
 1586SOL    HW2 5658   0.541   5.389   5.487  1.8798  0.4138 -0.5726
 1587SOL     OW 5659   4.913   2.657   5.764  0.7856  0.2908  0.0369
 1587SOL    HW1 5660   4.915   2.690   5.669 -0.6493  0.8100  0.1639
 1587SOL    HW2 5661   4.859   2.720   5.820  1.7437  0.0696  1.2481
 1588SOL     OW 5662   4.760   4.643   3.326 -0.0650  0.2477  0.3446
 1588SOL    HW1 5663   4.848   4.673   3.289 -0.4292  2.2168  0.9948
 1588SOL    HW2 5664   4.773   4.608   3.419  0.0422  0.4180  0.3937
 1589SOL     OW 5665   4.139   3.619   2.235  0.0879 -0.3608  0.3699
 1589SOL    HW1 5666   4.235   3.592   2.237  0.3388  0.4400 -0.1980
 1589SOL    HW2 5667   4.108   3.639   2.328  1.1168  1.5023  0.3602
 1590SOL     OW 5668   1.330   6.466   6.467 -0.3012  0.8348  0.1390
 1590SOL    HW1 5669   1.329   6.376   6.510  2.3542 -0.8310 -2.8569
 1590SOL    HW2 5670   1.400   6.523   6.511  2.0424 -0.6708 -1.4306
 1591SOL     OW 5671   2.296   0.945   4.395  0.2486 -0.1967 -0.0089
 1591SOL    HW1 5672   2.297   0.884   4.474 -1.1481  0.7277  0.7794
 1591SOL    HW2 5673   2.204   0.984   4.384  0.4059 -0.2926 -2.1011
 1592SOL     OW 5674   3.835   0.923   4.893 -0.0327  0.2958 -0.2031
 1592SOL    HW1 5675   3.919   0.881   4.858  0.2595  0.7886 -0.1102
 1592SOL    HW2 5676   3.835   1.021   4.870  1.0155  1.0759  2.6387
 1593SOL     OW 5677   2.187   0.582   3.958 -0.2964 -0.5054 -0.7865
 1593SOL    HW1 5678   2.256   0.654   3.954  0.6904 -1.4818 -3.5192
 1593SOL    HW2 5679   2.097   0.624   3.976  0.4407  1.2485 -0.9532
 1594SOL     OW 5680   1.046   4.762   1.756 -0.2329 -0.5024  0.5443
 1594SOL    HW1 5681   0.967   4.804   1.800 -1.0779  0.6473 -1.8855
 1594SOL    HW2 5682   1.057   4.668   1.789 -3.2143 -1.0202  0.2933
 1595SOL     OW 5683   1.601   6.656   1.818 -0.3384  0.5246  0.1326
 1595SOL    HW1 5684   1.640   6.662   1.726 -0.7626 -0.1588 -0.1045
 1595SOL    HW2 5685   1.506   6.686   1.815 -0.3486  0.5121  0.3536
 1596SOL     OW 5686   1.618   1.156   0.022 -0.0744 -0.2988 -0.1884
 1596SOL    HW1 5687   1.563   1.097  -0.037 -0.8753 -0.1371  0.3855
 1596SOL    HW2 5688   1.563   1.186   0.100 -0.0260  2.0185 -0.9758
 1597SOL     OW 5689   1.245   3.153   5.166  0.0359  0.0469 -0.2439
 1597SOL    HW1 5690   1.291   3.236   5.200 -0.9730  0.1597  0.8993
 1597SOL    HW2 5691   1.146   3.163   5.176 -0.0451 -1.9931  1.6404
 1598SOL     OW 5692   5.903   4.369   5.188  0.1262  0.4472  0.5699
 1598SOL    HW1 5693   5.944   4.315   5.262 -0.9530  1.4899  1.9871
 1598SOL    HW2 5694   5.937   4.463   5.192  2.1127 -0.0509 -1.9679
 1599SOL     OW 5695   4.604   4.833   4.337  0.4567  0.5897  0.2210
 1599SOL    HW1 5696   4.651   4.845   4.250 -1.7086 -1.7072 -1.4126
 1599SOL    HW2 5697   4.606   4.737   4.363  0.1970  1.0874  2.2306
 1600SOL     OW 5698   5.105   2.188   1.180  0.3993  0.0840 -0.0938
 1600SOL    HW1 5699   5.019   2.140   1.192 -0.0953  0.9880  0.0087
 1600SOL    HW2 5700   5.164   2.171   1.259  0.0717 -0.0231  0.1287
 1601SOL     OW 5701   0.463   3.429   1.271 -0.2947  0.3049  0.0774
 1601SOL    HW1 5702   0.513   3.453   1.188  0.8605  0.1649  0.7126
 1601SOL    HW2 5703   0.510   3.466   1.351 -1.4295  0.5008  0.6762
 1602SOL     OW 5704   5.949   5.607   4.243  0.1299  0.1224  0.1380
 1602SOL    HW1 5705   5.936   5.511   4.219  0.6152 -0.0073  0.3922
 1602SOL    HW2 5706   6.037   5.639   4.209 -0.5436  0.8336 -1.0283
 1603SOL     OW 5707   6.560   2.519   3.217 -0.1697  0.4117 -0.1528
 1603SOL    HW1 5708   6.540   2.519   3.315  1.6894  1.1964  0.2728
 1603SOL    HW2 5709   6.508   2.593   3.173 -1.6847 -0.4839  0.0361
 1604SOL     OW 5710   5.735   0.700   0.180 -0.0616  0.3336  0.3279
 1604SOL    HW1 5711   5.824   0.738   0.206 -0.5265 -0.0985  2.9108
 1604SOL    HW2 5712   5.748   0.608   0.142  0.5688 -1.3221  4.0476
 1605SOL     OW 5713   2.545   0.618   1.167  0.1469  0.3996 -0.4930
 1605SOL    HW1 5714   2.568   0.556   1.092 -0.8326 -2.4194  1.3383
 1605SOL    HW2 5715   2.471   0.577   1.222 -1.6145  3.9350  0.0723
 1606SOL     OW 5716   2.605   0.505   5.315 -0.5461 -0.3144 -0.5930
 1606SOL    HW1 5717   2.662   0.425   5.335  0.2177  0.4651  0.4119
 1606SOL    HW2 5718   2.526   0.476   5.260  0.0956 -1.6301 -0.8620
 1607SOL     OW 5719   2.277   2.300   5.226  0.2472  0.2853  0.0031
 1607SOL    HW1 5720   2.307   2.384   5.271 -0.2815  0.8809 -0.7305
 1607SOL    HW2 5721   2.341   2.274   5.154  0.1569  0.3347 -0.0963
 1608SOL     OW 5722   1.430   4.548   3.953 -0.1776  0.0906 -0.3192
 1608SOL    HW1 5723   1.460   4.574   4.045  0.3378 -4.1199  0.9054
 1608SOL    HW2 5724   1.498   4.577   3.886  0.1755  1.9024  0.7425
 1609SOL     OW 5725   4.446   6.292   5.536  0.5693 -0.1615  0.1300
 1609SOL    HW1 5726   4.418   6.208   5.584 -1.5702  0.3412 -0.1184
 1609SOL    HW2 5727   4.442   6.276   5.437  0.8962  0.0112  0.0884
 1610SOL     OW 5728   3.364   0.195   1.129 -0.5335 -0.1722 -0.1192
 1610SOL    HW1 5729   3.410   0.191   1.218  1.1959 -1.6378 -1.0180
 1610SOL    HW2 5730   3.279   0.142   1.133 -0.8664  0.4058  0.8456
 1611SOL     OW 5731   5.964   6.856   0.763  0.4551 -0.3271  0.5605
 1611SOL    HW1 5732   6.008   6.809   0.840  0.9128 -0.5887  0.1488
 1611SOL    HW2 5733   5.865   6.844   0.769  0.6026 -2.2710 -0.0880
 1612SOL     OW 5734   5.443   0.183   5.568 -0.0897 -0.1025 -0.7049
 1612SOL    HW1 5735   5.367   0.121   5.588 -0.1885  0.6709  1.5599
 1612SOL    HW2 5736   5.414   0.277   5.584  1.7812  0.1187  1.8989
 1613SOL     OW 5737   3.261   5.650   1.274  0.3262  0.5179  0.3342
 1613SOL    HW1 5738   3.268   5.749   1.288 -1.0349  0.5817  0.7492
 1613SOL    HW2 5739   3.205   5.632   1.193  0.9959  0.0828 -0.0405
 1614SOL     OW 5740   0.778   2.767   6.470  0.2888 -0.9242 -0.2566
 1614SOL    HW1 5741   0.846   2.699   6.442  1.1666  0.1079 -0.7211
 1614SOL    HW2 5742   0.825   2.845   6.513 -0.7272 -0.7783  0.6338
 1615SOL     OW 5743   0.357   4.825   6.134  0.3061  0.5678 -0.6274
 1615SOL    HW1 5744   0.339   4.862   6.225  0.6991  1.6506 -0.9649
 1615SOL    HW2 5745   0.273   4.827   6.079  0.1819  0.3800 -0.4428
 1616SOL     OW 5746   3.337   5.479   4.619 -0.2374  0.3053 -0.1334
 1616SOL    HW1 5747   3.329   5.436   4.709 -2.7029 -2.9966 -1.7351
 1616SOL    HW2 5748   3.270   5.552   4.611 -1.5989 -0.8784  0.0400
 1617SOL     OW 5749   1.268   1.581   4.471  0.6711 -0.4193  0.0548
 1617SOL    HW1 5750   1.169   1.577   4.456  0.4004  1.6920  0.9194
 1617SOL    HW2 5751   1.316   1.549   4.390 -0.7221 -0.2808 -0.8466
 1618SOL     OW 5752   1.339   5.605   3.634 -0.1928  0.1083  0.1500
 1618SOL    HW1 5753   1.374   5.580   3.725 -1.8991  0.5680  0.9778
 1618SOL    HW2 5754   1.303   5.698   3.637 -1.5446 -0.3594 -0.5966
 1619SOL     OW 5755   5.026   2.576   4.564  0.1769 -0.1158 -0.3199
 1619SOL    HW1 5756   4.958   2.565   4.637  0.5064  0.8466  0.1507
 1619SOL    HW2 5757   5.008   2.661   4.514  0.3410 -0.4462 -0.9450
 1620SOL     OW 5758   6.761   1.816   7.000 -0.1644 -0.4931  0.1537
 1620SOL    HW1 5759   6.701   1.889   7.034  1.8987  0.5917  1.6443
 1620SOL    HW2 5760   6.797   1.764   7.077  0.7865 -1.1466 -0.7059
 1621SOL     OW 5761   2.988   0.451   0.398  0.0443 -0.1481 -0.3328
 1621SOL    HW1 5762   3.050   0.522   0.430 -0.5345 -0.1319  0.7982
 1621SOL    HW2 5763   2.919   0.492   0.338  0.8701 -0.1040 -1.2809
 1622SOL     OW 5764   6.245   1.448   4.879 -0.5944 -0.6848  0.2738
 1622SOL    HW1 5765   6.235   1.414   4.972 -1.3797 -0.7688  0.1597
 1622SOL    HW2 5766   6.340   1.476   4.865 -0.8193  1.0068  1.6764
 1623SOL     OW 5767   4.685   5.884   6.249 -0.3604  0.3616  0.1326
 1623SOL    HW1 5768   4.761   5.868   6.311 -0.2208 -1.0322 -0.3785
 1623SOL    HW2 5769   4.710   5.955   6.183  1.1467 -1.1878 -1.0521
 1624SOL     OW 5770   3.935   0.066   5.772  0.0918  0.1710 -0.4108
 1624SOL    HW1 5771   3.924   0.152   5.821  1.1839  0.6291 -0.9339
 1624SOL    HW2 5772   3.987   0.002   5.827 -0.5885 -0.1122 -0.0847
 1625SOL     OW 5773   2.707   3.344   1.429 -0.2876  0.6052 -0.0245
 1625SOL    HW1 5774   2.662   3.428   1.401 -1.2343  0.2808  0.4935
 1625SOL    HW2 5775   2.649   3.266   1.408  0.4861  0.0926 -0.3002
 1626SOL     OW 5776   0.405   1.829   5.879 -0.1352  0.4863 -0.0325
 1626SOL    HW1 5777   0.417   1.879   5.965  2.6692 -0.9744  0.5768
 1626SOL    HW2 5778   0.402   1.893   5.803  1.2798  1.7142  0.8891
 1627SOL     OW 5779   4.243   4.606   1.166 -0.2490  0.5531  0.0763
 1627SOL    HW1 5780   4.206   4.514   1.159 -1.3370  0.9113  0.7718
 1627SOL    HW2 5781   4.312   4.620   1.095 -2.5034  0.3268 -2.3070
 1628SOL     OW 5782   3.986   3.504   5.951 -0.1208 -0.0102 -0.2372
 1628SOL    HW1 5783   3.978   3.603   5.950 -0.6812 -0.0421  0.2882
 1628SOL    HW2 5784   4.042   3.476   6.029 -0.4970 -0.1363 -0.0087
 1629SOL     OW 5785   0.562   1.557   0.364  0.0729  0.1608 -0.1291
 1629SOL    HW1 5786   0.642   1.617   0.371  0.4128 -0.2963 -0.0199
 1629SOL    HW2 5787   0.593   1.463   0.353 -0.4572  0.1158 -1.3003
 1630SOL     OW 5788   5.943   5.978   0.782  0.0420 -0.2990  0.2253
 1630SOL    HW1 5789   6.030   6.027   0.784 -1.0837  1.8189  1.3501
 1630SOL    HW2 5790   5.899   5.991   0.694 -0.1534  0.5965  0.4445
 1631SOL     OW 5791   0.804   2.053   0.121 -0.3187 -0.4697  0.0300
 1631SOL    HW1 5792   0.775   2.046   0.026 -1.9051  1.5737  0.2967
 1631SOL    HW2 5793   0.737   2.007   0.180  1.5137 -3.2385  0.1432
 1632SOL     OW 5794   5.298   0.004   2.525 -0.0339  0.5842 -0.0775
 1632SOL    HW1 5795   5.227   0.073   2.539 -0.4204  0.0644  0.5879
 1632SOL    HW2 5796   5.269  -0.058   2.452 -0.3904  0.2280  0.3562
 1633SOL     OW 5797   5.581   4.273   5.022  0.3938  0.1304 -0.0442
 1633SOL    HW1 5798   5.669   4.226   5.028  1.2083  1.4694 -1.0776
 1633SOL    HW2 5799   5.557   4.311   5.112  1.3963  0.6566  0.0134
 1634SOL     OW 5800   1.501   1.472   0.511  0.1387 -0.2631  0.0468
 1634SOL    HW1 5801   1.526   1.376   0.521 -0.2164 -0.3363  0.2346
 1634SOL    HW2 5802   1.564   1.516   0.446 -0.6235 -0.9874 -1.2266
 1635SOL     OW 5803   3.471   5.349   1.187 -0.0054  0.3362  0.1089
 1635SOL    HW1 5804   3.402   5.354   1.115  0.2433 -0.8485 -0.2299
 1635SOL    HW2 5805   3.442   5.281   1.256  1.5894 -1.4852 -0.9206
 1636SOL     OW 5806   3.849   6.849   0.331  0.8572  0.6398 -0.0314
 1636SOL    HW1 5807   3.946   6.843   0.356  0.4960 -0.3509  1.3134
 1636SOL    HW2 5808   3.805   6.920   0.386  1.1849  2.4701 -2.0485
 1637SOL     OW 5809   0.852   3.484   0.404 -0.6404 -0.1745  0.0481
 1637SOL    HW1 5810   0.930   3.543   0.427  0.1960 -1.4336  0.5878
 1637SOL    HW2 5811   0.868   3.441   0.315 -0.8225 -0.2772  0.0659
 1638SOL     OW 5812   1.427   0.199   6.873 -0.6544  0.4961  0.0249
 1638SOL    HW1 5813   1.428   0.188   6.972  0.9723 -1.7960 -0.1797
 1638SOL    HW2 5814   1.450   0.112   6.829  0.0733  1.8009 -2.3504
 1639SOL     OW 5815   0.832   2.607   6.859  0.1460 -0.9113  0.0999
 1639SOL    HW1 5816   0.777   2.689   6.877 -1.3439 -1.5499 -1.2752
 1639SOL    HW2 5817   0.908   2.630   6.799 -1.5390 -0.8582 -2.1352
 1640SOL     OW 5818   5.490   3.974   2.603  0.1792 -0.1419  0.5802
 1640SOL    HW1 5819   5.430   3.965   2.523  1.2963  0.9734 -0.4343
 1640SOL    HW2 5820   5.436   3.974   2.686 -1.1507  0.0678 -0.2576
 1641SOL     OW 5821   0.723   0.134   0.121  0.0559  0.7323  0.2454
 1641SOL    HW1 5822   0.661   0.056   0.123 -0.4358  1.0932 -0.5126
 1641SOL    HW2 5823   0.691   0.200   0.053  0.7749  1.3370  0.4849
 1642SOL     OW 5824   0.990   5.116   1.426  0.1227 -0.1772 -0.3153
 1642SOL    HW1 5825   0.891   5.106   1.436  0.2111 -0.9563 -0.0930
 1642SOL    HW2 5826   1.019   5.206   1.459 -0.3570 -0.4153  0.8098
 1643SOL     OW 5827   5.594   3.882   4.094  1.1014  1.1505 -0.0847
 1643SOL    HW1 5828   5.554   3.802   4.138 -0.0051  1.2681 -0.8231
 1643SOL    HW2 5829   5.688   3.896   4.127  1.2932 -0.4068  0.0928
 1644SOL     OW 5830   3.143   3.266   6.256  0.4907  0.3364  0.1137
 1644SOL    HW1 5831   3.051   3.287   6.222  0.4786  0.7322  0.3770
 1644SOL    HW2 5832   3.138   3.248   6.354  0.7638  0.8583  0.2276
 1645SOL     OW 5833   5.427   3.578   5.511 -0.0174 -0.6436 -0.1684
 1645SOL    HW1 5834   5.361   3.654   5.513  1.2877  0.5252 -0.1686
 1645SOL    HW2 5835   5.518   3.613   5.489  0.5813 -2.2633 -0.4226
 1646SOL     OW 5836   2.535   5.296   2.471  0.5685  0.0535 -0.4752
 1646SOL    HW1 5837   2.515   5.372   2.409 -0.0831 -0.3155 -0.7254
 1646SOL    HW2 5838   2.563   5.332   2.560  0.3000  0.5839 -0.6027
 1647SOL     OW 5839   1.613   3.032   0.538 -0.2048  0.1310  0.0462
 1647SOL    HW1 5840   1.588   2.935   0.539  0.7348 -0.1241 -0.0364
 1647SOL    HW2 5841   1.711   3.041   0.555 -0.0263  0.9942 -1.3530
 1648SOL     OW 5842   6.962   1.215   2.197  0.7089 -0.6803 -0.3403
 1648SOL    HW1 5843   6.872   1.257   2.190  0.4409 -1.2125 -0.1620
 1648SOL    HW2 5844   7.003   1.236   2.286  0.0850 -1.7279  0.2157
 1649SOL     OW 5845   0.820   0.363   0.833  0.2308  0.6546  0.2114
 1649SOL    HW1 5846   0.867   0.400   0.753  0.4028  0.0955  0.0513
 1649SOL    HW2 5847   0.887   0.333   0.900  0.1153 -0.2342 -0.0572
 1650SOL     OW 5848   6.723   4.197   2.623 -0.6237 -0.4943 -0.1227
 1650SOL    HW1 5849   6.707   4.204   2.524 -0.6998  0.7639 -0.0404
 1650SOL    HW2 5850   6.714   4.287   2.664  1.4996 -0.6004  0.7255
 1651SOL     OW 5851   6.078   4.891   6.683  0.4941 -0.4889 -0.4443
 1651SOL    HW1 5852   6.097   4.975   6.631 -0.9283 -1.6978 -3.1198
 1651SOL    HW2 5853   5.996   4.905   6.739  1.2287  0.3938  0.4455
 1652SOL     OW 5854   2.033   3.608   4.896  0.0536 -1.4232  0.3145
 1652SOL    HW1 5855   2.073   3.625   4.985  1.3990 -0.2134 -0.4751
 1652SOL    HW2 5856   2.075   3.528   4.854  2.4182  0.3264 -0.8670
 1653SOL     OW 5857   5.837   1.950   5.014 -0.3150 -0.4054 -0.0515
 1653SOL    HW1 5858   5.880   2.035   4.984 -1.2994  0.1102 -0.0425
 1653SOL    HW2 5859   5.862   1.933   5.109 -0.2663 -0.0246  0.0080
 1654SOL     OW 5860   2.394   4.292   0.682  0.0825  0.0080  0.2312
 1654SOL    HW1 5861   2.405   4.363   0.751 -3.0438  1.8392 -0.9417
 1654SOL    HW2 5862   2.351   4.212   0.724  1.0972 -0.1410  1.0160
 1655SOL     OW 5863   2.935   1.414   2.813  0.4969 -0.0937 -0.0477
 1655SOL    HW1 5864   3.024   1.438   2.774 -0.6686  3.0628 -1.0792
 1655SOL    HW2 5865   2.931   1.444   2.908  0.7123 -0.6819  0.1448
 1656SOL     OW 5866   4.373   5.073   6.897 -0.2772  0.4305  0.0859
 1656SOL    HW1 5867   4.339   5.153   6.946 -0.4619 -0.0623  0.7734
 1656SOL    HW2 5868   4.318   5.058   6.815 -0.2407  1.0042 -0.0494
 1657SOL     OW 5869   1.205   5.937   1.442 -0.1894  0.3578  0.3255
 1657SOL    HW1 5870   1.268   5.884   1.499  0.0617 -0.1645 -0.4154
 1657SOL    HW2 5871   1.220   5.914   1.345 -1.9483 -0.2698  0.1661
 1658SOL     OW 5872   5.770   1.400   4.546  0.5090  0.0949  0.2118
 1658SOL    HW1 5873   5.830   1.354   4.612  0.3147  0.1245  0.4131
 1658SOL    HW2 5874   5.674   1.382   4.571  0.4324  0.5228  0.2343
 1659SOL     OW 5875   0.448   2.732   2.188  0.0086  0.0449 -0.3507
 1659SOL    HW1 5876   0.439   2.747   2.090  2.4107 -1.4794 -0.8786
 1659SOL    HW2 5877   0.535   2.767   2.220  0.7514 -2.3706  0.5252
 1660SOL     OW 5878   4.320   0.778   2.308 -0.1975 -0.1800 -0.2457
 1660SOL    HW1 5879   4.278   0.802   2.396  0.4004  1.0963 -0.2864
 1660SOL    HW2 5880   4.306   0.853   2.244  1.9878  0.2203 -0.3166
 1661SOL     OW 5881   4.629   1.860   5.771  0.0151  0.1174  0.0356
 1661SOL    HW1 5882   4.591   1.928   5.709  0.0782  1.2635  1.1997
 1661SOL    HW2 5883   4.559   1.792   5.794  0.1901 -0.7212 -1.7832
 1662SOL     OW 5884   6.906   3.592   4.896  0.3123  0.6830 -0.2554
 1662SOL    HW1 5885   6.915   3.494   4.909  0.3701  0.6330 -0.6353
 1662SOL    HW2 5886   6.922   3.614   4.799  0.7747  1.1176 -0.0866
 1663SOL     OW 5887   2.331   3.338   1.330 -0.2301  0.0677 -0.8356
 1663SOL    HW1 5888   2.341   3.419   1.388 -0.9945 -0.0771 -0.4770
 1663SOL    HW2 5889   2.399   3.270   1.356  0.0270  0.3594 -0.7314
 1664SOL     OW 5890   4.748   4.454   2.916 -0.0671  0.5581  0.3778
 1664SOL    HW1 5891   4.806   4.398   2.857 -0.0412  0.2350  0.7068
 1664SOL    HW2 5892   4.793   4.542   2.933  0.0471  0.5479  0.1377
 1665SOL     OW 5893   6.852   1.844   3.990 -0.3884  0.3808 -0.1976
 1665SOL    HW1 5894   6.863   1.757   4.039 -1.1973 -0.5094 -1.5280
 1665SOL    HW2 5895   6.821   1.826   3.897  3.1138  1.8481 -1.8215
 1666SOL     OW 5896   4.083   6.181   6.791 -0.4414 -0.0095  0.0002
 1666SOL    HW1 5897   4.083   6.212   6.696  1.3917 -1.0557 -0.3929
 1666SOL    HW2 5898   4.012   6.230   6.842  0.1538  2.3821 -1.3110
 1667SOL     OW 5899   1.578   6.985   1.292 -0.4865 -0.3540  0.3917
 1667SOL    HW1 5900   1.639   6.941   1.227 -1.0114  1.1169 -1.1917
 1667SOL    HW2 5901   1.622   7.068   1.328 -0.3221 -0.9933  1.7152
 1668SOL     OW 5902   1.753   0.194   3.135  0.1727 -0.2888 -0.2256
 1668SOL    HW1 5903   1.782   0.127   3.066 -1.5806 -0.1205 -1.1908
 1668SOL    HW2 5904   1.765   0.156   3.226 -0.1008 -1.6448 -0.7350
 1669SOL     OW 5905   5.256   1.961   2.215 -0.0276 -0.3210  0.2397
 1669SOL    HW1 5906   5.313   1.934   2.137 -0.4397 -0.5496  0.0152
 1669SOL    HW2 5907   5.259   2.060   2.226 -0.1632 -0.2637 -0.2208
 1670SOL     OW 5908   3.488   0.644   3.910  0.2488 -0.5996  0.6070
 1670SOL    HW1 5909   3.587   0.632   3.904  0.2469  0.0481 -1.5734
 1670SOL    HW2 5910   3.464   0.681   4.000  1.8709 -1.6115  1.4911
 1671SOL     OW 5911   2.485   0.914   3.228 -0.3512  0.4275  0.0610
 1671SOL    HW1 5912   2.508   0.926   3.325 -0.7035  0.0527  0.1955
 1671SOL    HW2 5913   2.415   0.982   3.202 -1.0714 -0.1883  0.3650
 1672SOL     OW 5914   1.219   2.459   2.681 -0.8344  0.6596  0.5977
 1672SOL    HW1 5915   1.141   2.423   2.629 -1.9475  1.6543  1.5241
 1672SOL    HW2 5916   1.217   2.559   2.679  2.0640  0.7928 -1.7179
 1673SOL     OW 5917   2.833   1.457   4.469  0.5106  0.1953  0.1843
 1673SOL    HW1 5918   2.908   1.411   4.515  1.0645 -1.0588 -1.8309
 1673SOL    HW2 5919   2.847   1.452   4.370 -1.3183  1.5358 -0.1974
 1674SOL     OW 5920   1.066   2.342   2.477  0.3566 -0.6922 -0.5038
 1674SOL    HW1 5921   1.139   2.274   2.479  0.9457 -0.1913 -2.5251
 1674SOL    HW2 5922   0.994   2.311   2.415  1.1739  0.9671 -2.4028
 1675SOL     OW 5923   5.473   2.741   3.324  0.1278  0.6048 -0.0347
 1675SOL    HW1 5924   5.435   2.813   3.381 -0.4082  0.2492  0.0680
 1675SOL    HW2 5925   5.449   2.758   3.228  2.6802  2.2828 -0.4938
 1676SOL     OW 5926   5.756   0.310   2.855  0.4118 -0.6614 -0.1675
 1676SOL    HW1 5927   5.840   0.280   2.808  0.5595  0.0466 -0.3702
 1676SOL    HW2 5928   5.728   0.399   2.819  0.4560 -0.1620  1.0019
 1677SOL     OW 5929   1.586   2.636   2.870 -0.2759 -0.1715 -0.2147
 1677SOL    HW1 5930   1.660   2.661   2.808 -0.6639  0.8031 -0.2990
 1677SOL    HW2 5931   1.620   2.636   2.965 -0.3546  1.0448 -0.1800
 1678SOL     OW 5932   0.799   0.966   6.604 -0.2819 -1.2187  0.4678
 1678SOL    HW1 5933   0.857   1.015   6.668  1.8988 -0.7819 -1.7051
 1678SOL    HW2 5934   0.715   1.018   6.588  0.2636 -0.1215  1.0904
 1679SOL     OW 5935   0.091   0.596   1.499 -0.2551 -0.1865 -0.1353
 1679SOL    HW1 5936   0.037   0.574   1.581 -0.3472 -1.7014 -0.5692
 1679SOL    HW2 5937   0.102   0.695   1.493 -0.8394  0.0078  1.3281
 1680SOL     OW 5938   1.665   0.695   2.876 -0.7336  0.1591 -0.2180
 1680SOL    HW1 5939   1.678   0.639   2.958  0.2009  1.6539  0.7058
 1680SOL    HW2 5940   1.682   0.639   2.794 -0.5937 -1.0840  0.6302
 1681SOL     OW 5941   2.214   2.907   5.276  1.0024  0.8548  0.3620
 1681SOL    HW1 5942   2.261   2.843   5.337  1.1134 -0.5857 -1.1379
 1681SOL    HW2 5943   2.281   2.947   5.213  0.4676 -0.1858 -0.9165
 1682SOL     OW 5944   0.696   1.369   3.836 -0.0109 -0.6185  0.0131
 1682SOL    HW1 5945   0.793   1.343   3.841  0.1069 -0.3336 -0.6440
 1682SOL    HW2 5946   0.689   1.468   3.822 -0.4014 -0.6112  0.2713
 1683SOL     OW 5947   0.473   2.108   3.791 -0.3126  0.2488 -0.0330
 1683SOL    HW1 5948   0.527   2.138   3.712  1.6035 -0.0119  1.1100
 1683SOL    HW2 5949   0.465   2.183   3.857  1.1212 -0.4955  1.0566
 1684SOL     OW 5950   1.928   5.916   2.710 -0.6987  0.8081  0.2750
 1684SOL    HW1 5951   1.877   5.844   2.665 -0.3355  0.7700 -0.0904
 1684SOL    HW2 5952   1.928   5.998   2.652  3.1029 -0.4158 -1.8451
 1685SOL     OW 5953   4.889   4.633   1.283 -0.1026 -0.4463  0.1195
 1685SOL    HW1 5954   4.801   4.600   1.248  0.1483  0.2765 -1.2675
 1685SOL    HW2 5955   4.874   4.707   1.348 -0.5301  1.4017 -1.9499
 1686SOL     OW 5956   1.798   4.155   2.730 -0.1400 -0.2288 -0.9985
 1686SOL    HW1 5957   1.798   4.254   2.715 -0.2506 -0.0620  0.0075
 1686SOL    HW2 5958   1.836   4.109   2.650  0.0587  0.6361 -1.4160
 1687SOL     OW 5959   3.595   2.997   6.163 -0.2216  0.6086  0.0907
 1687SOL    HW1 5960   3.513   3.054   6.154 -0.0748  0.6404 -1.3699
 1687SOL    HW2 5961   3.574   2.903   6.135  0.5905  0.9817 -1.9958
 1688SOL     OW 5962   5.999   0.109   6.187  0.4431 -0.7690 -0.4724
 1688SOL    HW1 5963   5.954   0.196   6.163  0.2885 -0.7909 -0.2612
 1688SOL    HW2 5964   5.976   0.085   6.281  1.9913 -0.0796  0.1218
 1689SOL     OW 5965   6.634   0.842   5.436  0.9745 -0.0770 -0.4319
 1689SOL    HW1 5966   6.578   0.913   5.394 -0.8188 -0.7635  0.6543
 1689SOL    HW2 5967   6.726   0.843   5.396  0.4125  1.5547 -1.7941
 1690SOL     OW 5968   3.574   2.876   4.310  0.0210  0.0248  0.5464
 1690SOL    HW1 5969   3.603   2.944   4.378 -1.0125  0.2384  0.7900
 1690SOL    HW2 5970   3.474   2.876   4.303  0.0844 -0.3335 -0.6302
 1691SOL     OW 5971   3.602   1.558   2.435  0.3349  0.0376  0.1348
 1691SOL    HW1 5972   3.511   1.597   2.452 -0.5333 -1.1060 -1.5702
 1691SOL    HW2 5973   3.643   1.528   2.521  0.1915  2.7772  1.2689
 1692SOL     OW 5974   3.923   4.926   1.819  0.3034 -0.1005  0.0029
 1692SOL    HW1 5975   4.005   4.924   1.876 -0.5618  0.4824  1.2928
 1692SOL    HW2 5976   3.919   5.012   1.769  0.5227 -0.1739 -0.1447
 1693SOL     OW 5977   3.373   2.832   6.774  0.2902 -0.0926  0.1451
 1693SOL    HW1 5978   3.294   2.848   6.714 -0.1502  1.2524  1.0255
 1693SOL    HW2 5979   3.342   2.835   6.870  1.3494  0.0302  0.4887
 1694SOL     OW 5980   2.018   6.513   5.127  0.8303 -0.1900 -0.4276
 1694SOL    HW1 5981   2.059   6.605   5.128  0.1745  0.1058 -0.5334
 1694SOL    HW2 5982   2.058   6.459   5.201  0.4032  0.5469  0.3590
 1695SOL     OW 5983   5.705   3.195   0.172 -0.3256 -0.2061 -0.4740
 1695SOL    HW1 5984   5.735   3.247   0.252 -2.2980  1.7178 -0.8940
 1695SOL    HW2 5985   5.631   3.133   0.198 -1.6362  1.1181 -0.9201
 1696SOL     OW 5986   6.992   1.711   1.039  0.2178  0.0228  0.4303
 1696SOL    HW1 5987   7.019   1.785   0.977 -1.3110  0.7312  0.5764
 1696SOL    HW2 5988   6.942   1.641   0.987 -1.1503  0.6638  0.8556
 1697SOL     OW 5989   2.015   5.993   3.439  0.0004  0.3326  0.4840
 1697SOL    HW1 5990   1.982   5.914   3.387  2.4249 -0.5842  0.2448
 1697SOL    HW2 5991   2.009   5.973   3.537  1.2324 -0.4650  0.4185
 1698SOL     OW 5992   5.834   1.448   4.281  0.2926  0.3038 -0.6428
 1698SOL    HW1 5993   5.753   1.442   4.223  0.3371 -3.6877 -0.6157
 1698SOL    HW2 5994   5.807   1.461   4.376 -0.2793  0.0425 -0.7633
 1699SOL     OW 5995   0.519   6.279   0.363 -0.0129  0.4051  0.0296
 1699SOL    HW1 5996   0.460   6.235   0.295 -1.3774  0.2117  1.2785
 1699SOL    HW2 5997   0.480   6.369   0.386  1.6806  1.4848 -1.0680
 1700SOL     OW 5998   0.680   5.101   1.390 -0.0472 -0.0145 -0.1635
 1700SOL    HW1 5999   0.682   5.094   1.290  1.0662  0.0530 -0.1553
 1700SOL    HW2 6000   0.669   5.197   1.416 -0.7934 -0.0815 -0.2179
 1701SOL     OW 6001   0.379   6.470   1.372  0.3427  0.0586  0.2541
 1701SOL    HW1 6002   0.373   6.372   1.350  2.4529 -0.0647 -0.0517
 1701SOL    HW2 6003   0.331   6.522   1.302  2.0548 -0.6430 -1.5569
 1702SOL     OW 6004   3.846   5.291   5.830  0.1219  0.5512  0.3649
 1702SOL    HW1 6005   3.932   5.306   5.781  0.5630  0.9752  1.2483
 1702SOL    HW2 6006   3.856   5.213   5.891 -0.5717 -0.2572 -0.5376
 1703SOL     OW 6007   2.831   5.051   1.379  0.8293  0.3994 -0.3753
 1703SOL    HW1 6008   2.752   5.025   1.323  1.1727 -1.7204  0.0229
 1703SOL    HW2 6009   2.809   5.035   1.476  1.8693 -0.6472 -0.2937
 1704SOL     OW 6010   0.086   6.379   5.245  0.2026  0.2608  0.3813
 1704SOL    HW1 6011  -0.010   6.380   5.272 -0.0846 -0.3778 -0.5412
 1704SOL    HW2 6012   0.092   6.385   5.145  1.0763 -0.6227  0.3662
 1705SOL     OW 6013   3.858   6.567   3.080 -0.1098 -0.1342  0.2016
 1705SOL    HW1 6014   3.916   6.623   3.140  1.0874  0.3570 -1.3346
 1705SOL    HW2 6015   3.907   6.485   3.053 -0.0324  0.3316 -1.1991
 1706SOL     OW 6016   0.935   0.801   3.320 -0.3661 -0.0253 -0.0963
 1706SOL    HW1 6017   0.838   0.799   3.295 -0.1867  0.8226 -0.9290
 1706SOL    HW2 6018   0.966   0.896   3.324  0.4762 -0.2977  0.0144
 1707SOL     OW 6019   0.542   4.995   4.839 -0.3144 -0.0787 -0.0177
 1707SOL    HW1 6020   0.577   4.907   4.871 -4.1727 -2.3057 -1.2571
 1707SOL    HW2 6021   0.570   5.010   4.744  0.0884 -0.1037  0.0952
 1708SOL     OW 6022   6.665   4.322   6.215  0.0729  0.5428 -0.1457
 1708SOL    HW1 6023   6.759   4.320   6.181  0.0299  0.7552 -0.2784
 1708SOL    HW2 6024   6.662   4.283   6.307 -0.0379 -1.3777 -0.9238
 1709SOL     OW 6025   0.065   1.795   4.922  0.5914 -0.3462 -0.3229
 1709SOL    HW1 6026   0.151   1.743   4.932  0.8204  0.1798  0.5645
 1709SOL    HW2 6027   0.024   1.774   4.833  1.9824 -0.0917 -1.0538
 1710SOL     OW 6028   6.769   3.234   2.005  0.1136 -0.3301  0.1633
 1710SOL    HW1 6029   6.835   3.234   1.930 -0.1905  0.2519 -0.1135
 1710SOL    HW2 6030   6.809   3.189   2.084  0.4412 -0.9554 -0.3441
 1711SOL     OW 6031   1.797   6.102   0.308 -0.2854  0.1021 -0.1533
 1711SOL    HW1 6032   1.842   6.191   0.300  1.8032 -0.9446 -0.6234
 1711SOL    HW2 6033   1.828   6.042   0.235 -1.8713 -0.9572 -0.0066
 1712SOL     OW 6034   0.375   4.168   6.134  0.4683 -0.0976  0.0651
 1712SOL    HW1 6035   0.426   4.145   6.217  0.3201 -0.9906 -0.0873
 1712SOL    HW2 6036   0.278   4.150   6.149  0.3857  0.1729 -0.1501
 1713SOL     OW 6037   2.466   6.690   5.179 -0.5101  0.3394  0.2181
 1713SOL    HW1 6038   2.564   6.679   5.163 -0.4103  0.3732  0.7886
 1713SOL    HW2 6039   2.443   6.787   5.180 -1.1103  0.3606 -3.1395
 1714SOL     OW 6040   0.061   2.642   5.657  0.2053  0.2389 -0.2763
 1714SOL    HW1 6041   0.079   2.549   5.626 -0.1395  0.2827 -0.6087
 1714SOL    HW2 6042  -0.018   2.679   5.609 -1.1328 -0.1378  1.5037
 1715SOL     OW 6043   2.058   1.333   2.360  0.9216 -0.0751 -0.0756
 1715SOL    HW1 6044   1.961   1.356   2.346 -0.1079 -1.9737  2.9848
 1715SOL    HW2 6045   2.095   1.390   2.434  1.5298 -0.7177  0.1254
 1716SOL     OW 6046   6.384   3.828   3.132  0.3102  0.4580  0.4017
 1716SOL    HW1 6047   6.373   3.729   3.133  1.9102  0.2615  0.6450
 1716SOL    HW2 6048   6.302   3.871   3.171 -0.7432 -0.7064 -0.4703
 1717SOL     OW 6049   3.336   0.559   5.899 -0.7378 -0.1868  0.1658
 1717SOL    HW1 6050   3.244   0.528   5.923 -0.4779 -0.5098  0.7564
 1717SOL    HW2 6051   3.403   0.490   5.927 -0.3802 -0.3593 -1.0522
 1718SOL     OW 6052   2.351   6.584   0.040 -0.2795  0.0293  0.2088
 1718SOL    HW1 6053   2.425   6.526   0.076 -0.7005 -0.9927 -0.5284
 1718SOL    HW2 6054   2.347   6.669   0.093  0.5929 -0.4473  1.0819
 1719SOL     OW 6055   1.306   4.538   0.721 -0.1958  0.4330 -0.2477
 1719SOL    HW1 6056   1.323   4.507   0.627  0.2051 -0.5369  0.1364
 1719SOL    HW2 6057   1.387   4.524   0.776 -0.7019  0.1816  0.4504
 1720SOL     OW 6058   0.510   3.759   3.085  0.2916 -0.2817 -0.4366
 1720SOL    HW1 6059   0.439   3.694   3.058  0.6277 -0.0957 -1.8662
 1720SOL    HW2 6060   0.470   3.829   3.144  0.0985 -2.2139  1.8885
 1721SOL     OW 6061   4.375   4.930   2.257  0.7978 -0.0325 -0.3925
 1721SOL    HW1 6062   4.302   4.862   2.264  0.5646  0.0623 -1.6195
 1721SOL    HW2 6063   4.391   4.952   2.160  2.6447 -0.2517 -0.1716
 1722SOL     OW 6064   6.944   3.173   3.264 -0.1354  0.2283  0.2014
 1722SOL    HW1 6065   6.998   3.252   3.292 -0.2399 -0.4941  2.6441
 1722SOL    HW2 6066   6.857   3.203   3.225  0.0666  1.3200  0.5742
 1723SOL     OW 6067   0.266   0.854   0.067  0.7597 -0.0879  0.0188
 1723SOL    HW1 6068   0.342   0.850   0.132 -0.2446 -0.3207  1.2167
 1723SOL    HW2 6069   0.264   0.944   0.024  2.8732 -0.6940 -1.5243
 1724SOL     OW 6070   0.314   0.835   4.712  0.1161  0.2279 -0.3717
 1724SOL    HW1 6071   0.405   0.876   4.714  1.0347 -1.5492 -1.9557
 1724SOL    HW2 6072   0.268   0.860   4.627 -0.4687  0.2913 -0.0428
 1725SOL     OW 6073   0.449   3.851   4.896  0.5037 -0.0338  0.0371
 1725SOL    HW1 6074   0.415   3.815   4.983  0.5931 -0.2645 -0.0199
 1725SOL    HW2 6075   0.373   3.879   4.839  0.4306 -0.1508  0.0765
 1726SOL     OW 6076   4.523   2.617   3.582 -0.3138  0.4207  0.0072
 1726SOL    HW1 6077   4.466   2.579   3.509 -0.1228  0.7934 -0.3448
 1726SOL    HW2 6078   4.615   2.633   3.547  0.0639 -0.3431  0.6239
 1727SOL     OW 6079   0.434   6.385   2.690 -0.3576 -0.2088  0.0334
 1727SOL    HW1 6080   0.416   6.411   2.595 -0.8124  0.7678  0.3780
 1727SOL    HW2 6081   0.398   6.293   2.707  0.3986 -0.7025 -0.9386
 1728SOL     OW 6082   1.393   3.261   1.512  0.2006 -0.5834  0.3021
 1728SOL    HW1 6083   1.426   3.172   1.542  2.0862 -0.2879 -0.6977
 1728SOL    HW2 6084   1.334   3.250   1.432  0.5263 -0.9418  0.1082
 1729SOL     OW 6085   5.186   3.732   1.027  0.2280  0.2424  0.0916
 1729SOL    HW1 6086   5.178   3.830   1.011  0.4486  0.7706  2.8135
 1729SOL    HW2 6087   5.097   3.688   1.011 -0.6017  1.3480  1.4817
 1730SOL     OW 6088   4.230   0.760   0.617  0.2178  0.2829 -0.2027
 1730SOL    HW1 6089   4.184   0.839   0.576  1.4662  0.4931 -1.2408
 1730SOL    HW2 6090   4.213   0.679   0.561 -1.9766 -0.4983  1.4334
 1731SOL     OW 6091   2.574   1.236   1.318 -0.0040 -0.0793  0.1511
 1731SOL    HW1 6092   2.615   1.154   1.356 -2.2666 -0.6888  1.5210
 1731SOL    HW2 6093   2.587   1.239   1.219  2.1152 -0.8346  0.3670
 1732SOL     OW 6094   5.213   3.695   2.306 -0.5039  0.5881 -0.2175
 1732SOL    HW1 6095   5.125   3.737   2.326 -0.8288  0.4542 -1.3386
 1732SOL    HW2 6096   5.200   3.607   2.261  0.1775  1.2922 -1.8807
 1733SOL     OW 6097   2.944   1.975   0.152  0.3932 -0.1685 -0.6216
 1733SOL    HW1 6098   2.940   1.882   0.116  1.9530 -0.2840 -0.5524
 1733SOL    HW2 6099   3.007   1.978   0.230  1.3258  1.1578 -1.3835
 1734SOL     OW 6100   5.532   4.800   3.842 -0.3567  0.1618 -0.4309
 1734SOL    HW1 6101   5.444   4.764   3.810  1.3609 -3.8581 -1.3342
 1734SOL    HW2 6102   5.582   4.840   3.765  0.9569 -3.2751 -1.6029
 1735SOL     OW 6103   1.196   2.718   2.673 -0.0125  0.6033 -0.0593
 1735SOL    HW1 6104   1.263   2.712   2.599  1.5381  0.0287  1.3267
 1735SOL    HW2 6105   1.185   2.813   2.701 -0.0250  0.7390 -0.5252
 1736SOL     OW 6106   4.943   5.739   2.391 -0.1538 -0.5686 -0.2421
 1736SOL    HW1 6107   4.961   5.678   2.314 -1.2042 -0.5227 -0.5444
 1736SOL    HW2 6108   4.859   5.791   2.374 -0.0824 -0.1224  0.6697
 1737SOL     OW 6109   1.629   3.190   3.755 -0.1140 -0.1027  0.0474
 1737SOL    HW1 6110   1.651   3.256   3.826 -0.5556 -1.0665  1.1133
 1737SOL    HW2 6111   1.702   3.188   3.687  1.0889 -0.2895  1.3104
 1738SOL     OW 6112   1.734   0.005   6.921 -0.2090 -0.2725 -0.6001
 1738SOL    HW1 6113   1.741   0.078   6.853 -3.0119  0.7981  0.1278
 1738SOL    HW2 6114   1.747   0.043   7.012 -0.8229 -0.8498 -0.2620
 1739SOL     OW 6115   2.905   5.025   1.639 -0.1131 -0.0006  0.4599
 1739SOL    HW1 6116   2.882   4.937   1.682  0.2041 -0.9364 -1.1945
 1739SOL    HW2 6117   2.916   5.094   1.710  2.4257 -1.9007  2.1210
 1740SOL     OW 6118   1.098   3.363   4.565  0.7853 -0.3862  0.4329
 1740SOL    HW1 6119   1.022   3.415   4.525  0.3196 -1.3212  0.0705
 1740SOL    HW2 6120   1.157   3.425   4.616 -0.1852  0.3763  0.6696
 1741SOL     OW 6121   0.021   2.572   2.917  0.2207  0.5675 -0.0622
 1741SOL    HW1 6122   0.034   2.505   2.990 -1.3805  0.3612  0.0491
 1741SOL    HW2 6123   0.046   2.531   2.829  0.2652  0.1739  0.1339
 1742SOL     OW 6124   6.651   2.915   6.803  0.6574  0.5171 -0.3316
 1742SOL    HW1 6125   6.593   2.988   6.766  0.7493  0.6069 -0.3005
 1742SOL    HW2 6126   6.734   2.956   6.842  1.2016  0.3277 -1.2446
 1743SOL     OW 6127   3.641   0.427   3.663  0.0304  0.0722  0.7744
 1743SOL    HW1 6128   3.545   0.453   3.649  0.4086  1.6646  1.0076
 1743SOL    HW2 6129   3.701   0.499   3.628  1.1112 -0.0718  2.2390
 1744SOL     OW 6130   1.193   3.141   2.342  0.0814  0.0303  0.4610
 1744SOL    HW1 6131   1.220   3.236   2.355  0.2845  0.2061 -1.0610
 1744SOL    HW2 6132   1.179   3.123   2.244 -0.6286 -1.3229  0.7805
 1745SOL     OW 6133   2.752   6.543   0.735  0.1414 -0.0979 -0.1471
 1745SOL    HW1 6134   2.791   6.483   0.664 -0.2710 -0.8941  0.2879
 1745SOL    HW2 6135   2.758   6.498   0.824  0.2466  0.7114  0.2623
 1746SOL     OW 6136   6.126   5.028   1.143 -0.5421  0.5433 -0.1428
 1746SOL    HW1 6137   6.146   4.991   1.234 -0.9470  3.6811  1.3646
 1746SOL    HW2 6138   6.034   5.000   1.115 -0.9352  0.5957  1.0328
 1747SOL     OW 6139   4.074   2.181   2.138  0.2503  0.1238  0.1472
 1747SOL    HW1 6140   4.012   2.229   2.075 -0.8299  0.2933  1.3154
 1747SOL    HW2 6141   4.110   2.100   2.093 -0.9390 -0.0614 -0.5183
 1748SOL     OW 6142   2.620   0.833   2.402 -0.3503 -0.3285 -0.2014
 1748SOL    HW1 6143   2.680   0.817   2.324  0.7472  0.4071  0.4631
 1748SOL    HW2 6144   2.664   0.898   2.465 -1.7293  0.0152  0.4396
 1749SOL     OW 6145   5.425   3.243   1.708  0.4694  0.0525  0.2987
 1749SOL    HW1 6146   5.341   3.202   1.673  0.9616 -2.2646  1.6131
 1749SOL    HW2 6147   5.504   3.191   1.675  1.5409  2.6322 -1.5323
 1750SOL     OW 6148   6.033   4.688   6.213 -0.0739  0.3418  0.0317
 1750SOL    HW1 6149   5.960   4.698   6.280  1.0917 -0.3472  1.4656
 1750SOL    HW2 6150   6.085   4.773   6.208  0.9401 -0.1616  1.3941
 1751SOL     OW 6151   0.372   2.769   1.203 -0.3903 -0.0986  0.1506
 1751SOL    HW1 6152   0.368   2.689   1.143  0.7300  0.5310 -0.8207
 1751SOL    HW2 6153   0.419   2.746   1.288  1.8793 -0.0189 -0.9979
 1752SOL     OW 6154   4.594   0.237   3.726 -0.1720  0.6022  0.1906
 1752SOL    HW1 6155   4.539   0.310   3.766 -4.0571 -0.8544 -1.9728
 1752SOL    HW2 6156   4.588   0.242   3.626  1.8295 -1.0757 -0.1014
 1753SOL     OW 6157   3.702   4.898   3.226 -0.2459 -0.5557  0.4318
 1753SOL    HW1 6158   3.638   4.924   3.298  0.3004  0.5356  0.5432
 1753SOL    HW2 6159   3.680   4.948   3.142  0.0928 -0.6166  0.3043
 1754SOL     OW 6160   6.529   1.376   0.800  0.3591 -0.4981 -0.0473
 1754SOL    HW1 6161   6.623   1.377   0.834 -0.2655 -1.5406  1.8729
 1754SOL    HW2 6162   6.519   1.443   0.727  2.6991 -0.7060 -0.6377
 1755SOL     OW 6163   6.217   2.520   4.508  0.2155 -0.0007 -0.3075
 1755SOL    HW1 6164   6.124   2.532   4.472  0.4187  1.0639 -0.5135
 1755SOL    HW2 6165   6.211   2.492   4.604 -0.3208  0.2536 -0.2596
 1756SOL     OW 6166   2.037   4.035   4.099 -0.4305  0.1162  0.0991
 1756SOL    HW1 6167   1.966   4.062   4.034  0.6969  2.5546 -0.2341
 1756SOL    HW2 6168   2.054   4.110   4.163  1.5477 -0.5500  0.4387
 1757SOL     OW 6169   2.030   1.638   2.340  0.5068  0.1193  0.0122
 1757SOL    HW1 6170   2.058   1.697   2.416 -1.3459  0.6903  0.3043
 1757SOL    HW2 6171   1.971   1.565   2.375 -0.0076  0.1342 -0.8065
 1758SOL     OW 6172   2.916   6.771   5.641  0.0051  0.3332 -0.0607
 1758SOL    HW1 6173   2.862   6.714   5.702 -1.1851  0.9720 -0.4834
 1758SOL    HW2 6174   3.012   6.770   5.670 -0.3681 -0.1426  1.2165
 1759SOL     OW 6175   3.094   6.213   0.761 -0.2432  0.0270 -0.7267
 1759SOL    HW1 6176   3.171   6.167   0.804 -0.0737 -1.0330 -2.0890
 1759SOL    HW2 6177   3.093   6.309   0.787 -0.0718 -0.5054  1.4763
 1760SOL     OW 6178   6.740   6.222   6.098  0.3260 -0.9503  0.4899
 1760SOL    HW1 6179   6.826   6.201   6.051  0.9592  0.0595  1.1398
 1760SOL    HW2 6180   6.722   6.153   6.168  0.2975 -1.4824 -0.0331
 1761SOL     OW 6181   6.590   2.815   4.792  0.2400 -0.5906  0.2091
 1761SOL    HW1 6182   6.578   2.862   4.879  0.3252 -3.2104  1.7353
 1761SOL    HW2 6183   6.506   2.764   4.771  0.1968  0.0639 -1.3200
 1762SOL     OW 6184   0.025   1.714   2.264  0.0977  0.4169 -0.1478
 1762SOL    HW1 6185   0.009   1.797   2.317  0.9185  0.8518 -0.5531
 1762SOL    HW2 6186  -0.037   1.642   2.295  0.5088  0.6706  1.3436
 1763SOL     OW 6187   2.652   1.150   4.195  0.0798 -0.4928 -0.6050
 1763SOL    HW1 6188   2.613   1.058   4.186 -0.0192 -0.5020 -0.0750
 1763SOL    HW2 6189   2.750   1.143   4.216 -0.5949 -0.5715  3.1293
 1764SOL     OW 6190   0.543   1.640   2.801 -0.1284  0.2304 -0.4735
 1764SOL    HW1 6191   0.638   1.622   2.776 -0.5777 -3.1295 -0.2286
 1764SOL    HW2 6192   0.511   1.722   2.755  2.9691  1.6734 -0.2520
 1765SOL     OW 6193   1.208   1.232   3.879  0.1387 -0.5454 -1.1363
 1765SOL    HW1 6194   1.160   1.144   3.881  0.0913 -0.5130 -0.6234
 1765SOL    HW2 6195   1.162   1.296   3.941  1.3388 -0.7833  0.0450
 1766SOL     OW 6196   5.355   3.844   5.555  0.1552  0.1855 -0.2306
 1766SOL    HW1 6197   5.323   3.931   5.591  1.3761  1.4792 -2.0871
 1766SOL    HW2 6198   5.455   3.842   5.558  0.3031  0.1852 -3.0074
 1767SOL     OW 6199   6.821   2.239   1.847 -0.0955  0.6427 -0.0284
 1767SOL    HW1 6200   6.908   2.190   1.856  0.7842  1.7267 -2.0555
 1767SOL    HW2 6201   6.833   2.318   1.788 -2.2474  1.4571  0.5257
 1768SOL     OW 6202   1.226   2.731   5.136 -0.2275 -0.1866 -0.6662
 1768SOL    HW1 6203   1.155   2.800   5.118 -1.4243 -1.3552 -0.5443
 1768SOL    HW2 6204   1.274   2.710   5.050  1.1004  1.7480 -0.4753
 1769SOL     OW 6205   5.535   5.545   6.151  0.6508 -0.1252 -0.2210
 1769SOL    HW1 6206   5.515   5.473   6.085  1.4214  0.5089 -1.1728
 1769SOL    HW2 6207   5.557   5.630   6.102  0.1468  0.6602  0.8678
 1770SOL     OW 6208   4.241   1.243   4.962  0.3729  0.1306  0.8230
 1770SOL    HW1 6209   4.301   1.307   5.009 -0.0352  0.0326  1.4795
 1770SOL    HW2 6210   4.160   1.224   5.018 -0.5539  0.6792 -0.2685
 1771SOL     OW 6211   1.399   1.160   1.054 -0.4573 -0.4157  0.6425
 1771SOL    HW1 6212   1.481   1.102   1.049 -0.7719 -0.7799 -1.2544
 1771SOL    HW2 6213   1.425   1.256   1.045 -0.2355 -0.5585 -0.4572
 1772SOL     OW 6214   4.595   2.569   2.343  0.3466 -0.3639 -0.3277
 1772SOL    HW1 6215   4.613   2.661   2.307 -0.2686  0.2498  0.8768
 1772SOL    HW2 6216   4.681   2.525   2.367  0.5790  0.4066  0.2886
 1773SOL     OW 6217   2.750   4.601   6.773 -0.0442 -0.2265 -0.0581
 1773SOL    HW1 6218   2.723   4.659   6.696  0.3790 -0.8741 -0.7191
 1773SOL    HW2 6219   2.845   4.570   6.759 -0.2594 -1.0671  0.2669
 1774SOL     OW 6220   6.906   4.385   3.601 -0.0007  0.2553 -0.2037
 1774SOL    HW1 6221   6.984   4.329   3.628 -1.9155 -3.5657 -1.7788
 1774SOL    HW2 6222   6.865   4.427   3.681  1.0895 -1.3009  1.2280
 1775SOL     OW 6223   3.052   3.629   3.159  0.2355 -0.2883  0.6133
 1775SOL    HW1 6224   3.046   3.582   3.071  0.6179  1.4378 -0.3989
 1775SOL    HW2 6225   3.126   3.589   3.213 -0.1071 -1.4809  0.2319
 1776SOL     OW 6226   6.071   1.161   4.946 -0.6398 -0.3227 -0.2473
 1776SOL    HW1 6227   6.029   1.249   4.965 -0.1853 -0.1884  0.1390
 1776SOL    HW2 6228   6.114   1.125   5.029 -0.9804 -0.9957 -0.3488
 1777SOL     OW 6229   3.895   2.737   0.944  0.7529 -0.1999  0.5771
 1777SOL    HW1 6230   3.985   2.709   0.910  0.0539  1.1929 -2.8698
 1777SOL    HW2 6231   3.901   2.831   0.977  0.2208  0.8053 -1.9387
 1778SOL     OW 6232   3.819   4.976   4.349  0.6359  0.2429  0.1277
 1778SOL    HW1 6233   3.836   5.063   4.395  2.3501 -0.1910  0.3657
 1778SOL    HW2 6234   3.898   4.916   4.360 -1.0202 -1.8989  1.1743
 1779SOL     OW 6235   6.540   3.429   3.344  0.6146  0.3235  0.4805
 1779SOL    HW1 6236   6.576   3.503   3.401  0.4986  2.2892 -1.8590
 1779SOL    HW2 6237   6.444   3.412   3.368  0.4230  1.4616  0.5588
 1780SOL     OW 6238   3.364   5.107   4.818 -0.4076  0.3197 -0.7323
 1780SOL    HW1 6239   3.291   5.060   4.769 -1.9617  1.3814  0.4872
 1780SOL    HW2 6240   3.335   5.200   4.840  0.2632 -0.0556  2.0571
 1781SOL     OW 6241   1.176   2.409   3.349  0.0132  0.3929 -0.0821
 1781SOL    HW1 6242   1.263   2.458   3.355 -0.7413  1.6114  2.4380
 1781SOL    HW2 6243   1.125   2.440   3.269  1.0284  1.1674 -0.4463
 1782SOL     OW 6244   2.796   0.318   5.349 -0.4278  0.0658 -0.5867
 1782SOL    HW1 6245   2.882   0.336   5.396 -1.1675  3.2093 -0.1706
 1782SOL    HW2 6246   2.815   0.287   5.256  1.1049 -0.4400 -0.1379
 1783SOL     OW 6247   1.857   6.509   1.848  0.0274  0.1069 -0.1409
 1783SOL    HW1 6248   1.939   6.539   1.896 -0.1952 -0.1426  0.4036
 1783SOL    HW2 6249   1.778   6.561   1.880  0.1037  0.9676 -1.3029
 1784SOL     OW 6250   0.478   5.126   6.621 -0.5887  0.4828 -0.2231
 1784SOL    HW1 6251   0.508   5.085   6.535 -1.0975 -0.3441 -0.0225
 1784SOL    HW2 6252   0.388   5.168   6.610  0.0339  1.8099 -0.4904
 1785SOL     OW 6253   1.969   0.362   2.775 -0.2246  0.2606  0.0330
 1785SOL    HW1 6254   1.983   0.353   2.874 -1.6748 -0.0858  0.2312
 1785SOL    HW2 6255   1.892   0.423   2.758  0.7416  1.2319 -0.9326
 1786SOL     OW 6256   2.196   5.612   4.142 -0.1932 -0.0914  0.0576
 1786SOL    HW1 6257   2.285   5.622   4.097 -0.3331  0.5928 -0.0770
 1786SOL    HW2 6258   2.188   5.520   4.181  0.0656 -0.5686 -1.0045
 1787SOL     OW 6259   6.166   3.845   2.583 -0.1735 -0.2374  0.0460
 1787SOL    HW1 6260   6.140   3.940   2.568 -0.6778 -0.4519 -0.4725
 1787SOL    HW2 6261   6.142   3.790   2.502 -3.2290 -1.4867  1.6291
 1788SOL     OW 6262   4.056   0.656   1.679  0.0732  0.3184 -0.3664
 1788SOL    HW1 6263   4.026   0.644   1.585  3.1298 -0.4059 -1.3613
 1788SOL    HW2 6264   4.086   0.568   1.716  0.4588  0.8768  0.7003
 1789SOL     OW 6265   3.506   6.089   1.125  0.1356  0.1493  0.5059
 1789SOL    HW1 6266   3.521   6.102   1.222 -0.8873  0.0330  0.6941
 1789SOL    HW2 6267   3.583   6.040   1.085  0.4934  0.0677  1.2825
 1790SOL     OW 6268   4.545   0.636   3.548 -0.0637 -0.1865  0.1776
 1790SOL    HW1 6269   4.506   0.728   3.544 -1.6525 -0.8729 -0.8996
 1790SOL    HW2 6270   4.495   0.582   3.617  1.1954 -0.1221  1.1768
 1791SOL     OW 6271   6.210   1.998   0.508  0.1288  0.2603 -0.0621
 1791SOL    HW1 6272   6.234   2.038   0.596 -0.8238 -1.1840  0.9094
 1791SOL    HW2 6273   6.111   1.982   0.505 -0.0840  1.6408 -2.0096
 1792SOL     OW 6274   2.273   2.813   2.278 -0.6741 -0.4283  0.1908
 1792SOL    HW1 6275   2.234   2.898   2.244  1.3081  0.3954 -0.2047
 1792SOL    HW2 6276   2.295   2.753   2.201  2.5614  0.8765 -0.0811
 1793SOL     OW 6277   5.218   5.621   5.074  0.5992 -0.4690  0.4911
 1793SOL    HW1 6278   5.170   5.536   5.056 -0.0754 -0.2637  1.2392
 1793SOL    HW2 6279   5.317   5.605   5.073  0.4781 -1.7158  2.6630
 1794SOL     OW 6280   6.328   3.137   6.983 -0.6298  0.9645  0.3470
 1794SOL    HW1 6281   6.404   3.162   7.044 -0.5819  1.7994 -0.0422
 1794SOL    HW2 6282   6.245   3.126   7.037 -1.2452  4.4094  0.3439
 1795SOL     OW 6283   5.890   2.405   3.963  0.1382  0.4388  0.1008
 1795SOL    HW1 6284   5.960   2.435   4.028 -0.8651  0.0151  1.3940
 1795SOL    HW2 6285   5.833   2.483   3.938 -0.0642  0.4056  0.4596
 1796SOL     OW 6286   0.702   5.595   3.901  0.2582  0.2001  0.7465
 1796SOL    HW1 6287   0.696   5.581   3.999  0.6338  1.9047  1.0436
 1796SOL    HW2 6288   0.632   5.540   3.855  0.3465 -0.9283  1.9109
 1797SOL     OW 6289   6.170   3.247   2.397 -0.1152  0.0227 -0.1217
 1797SOL    HW1 6290   6.073   3.254   2.417  0.0569 -0.0802  0.7719
 1797SOL    HW2 6291   6.183   3.216   2.302 -0.9498 -0.7149 -0.0032
 1798SOL     OW 6292   4.737   3.671   5.495  0.2874 -0.4957  0.2248
 1798SOL    HW1 6293   4.783   3.691   5.582 -3.2753  1.0590  2.0010
 1798SOL    HW2 6294   4.681   3.589   5.506  0.6391 -0.9058 -0.9930
 1799SOL     OW 6295   4.729   3.965   6.218  0.3480  0.2930  0.3489
 1799SOL    HW1 6296   4.763   4.006   6.134  1.6619 -0.6177  0.3956
 1799SOL    HW2 6297   4.703   3.870   6.200  2.1018 -0.4065  1.2427
 1800SOL     OW 6298   4.015   6.125   2.384  0.7227 -0.0168 -0.0754
 1800SOL    HW1 6299   4.049   6.032   2.367  2.1449  0.6021 -0.7888
 1800SOL    HW2 6300   3.957   6.153   2.307  1.3041  0.1250 -0.4720
 1801SOL     OW 6301   3.623   6.571   5.687 -0.0578  0.2733 -0.2248
 1801SOL    HW1 6302   3.631   6.649   5.624  1.1727 -1.0382 -1.7750
 1801SOL    HW2 6303   3.528   6.562   5.717 -0.9141  0.3599 -2.6876
 1802SOL     OW 6304   4.984   1.474   5.747  0.1290  0.6285  0.0849
 1802SOL    HW1 6305   5.025   1.470   5.656 -2.0632 -0.2627 -0.9260
 1802SOL    HW2 6306   4.946   1.565   5.762  1.3995  1.0991  0.5615
 1803SOL     OW 6307   4.539   2.423   4.861 -0.0686  0.1648  0.0113
 1803SOL    HW1 6308   4.487   2.393   4.781  1.0300 -1.0136 -0.3011
 1803SOL    HW2 6309   4.490   2.397   4.944 -1.0841  1.1532 -0.2525
 1804SOL     OW 6310   0.125   3.843   0.949 -0.3118  0.1321  0.2258
 1804SOL    HW1 6311   0.151   3.748   0.931 -1.8749 -0.4728  1.0224
 1804SOL    HW2 6312   0.030   3.857   0.921 -0.3496  1.2477  0.8629
 1805SOL     OW 6313   6.951   2.311   2.529 -0.5759 -0.1323 -0.2261
 1805SOL    HW1 6314   6.889   2.348   2.459 -0.6798 -0.9389 -0.5716
 1805SOL    HW2 6315   7.023   2.378   2.549 -1.5969  0.8598  0.2472
 1806SOL     OW 6316   2.325   0.525   0.167 -0.1699  0.5603 -0.3953
 1806SOL    HW1 6317   2.397   0.515   0.236 -1.7290  1.5724  1.4969
 1806SOL    HW2 6318   2.237   0.498   0.207 -0.9534 -0.1154 -2.4525
 1807SOL     OW 6319   6.332   0.527   0.236  0.2377 -0.2494  0.2442
 1807SOL    HW1 6320   6.336   0.498   0.331 -0.4163 -3.8923 -0.6847
 1807SOL    HW2 6321   6.393   0.469   0.181 -0.8255  0.4881 -1.8187
 1808SOL     OW 6322   3.182   1.165   0.726 -0.4424  0.1070  0.2492
 1808SOL    HW1 6323   3.263   1.110   0.749  0.3944  1.1671 -0.0303
 1808SOL    HW2 6324   3.133   1.188   0.810 -0.8093 -1.0494  0.3652
 1809SOL     OW 6325   4.235   0.227   6.900 -0.4925 -0.3283  0.6285
 1809SOL    HW1 6326   4.234   0.182   6.811 -0.5458 -0.1874  0.5567
 1809SOL    HW2 6327   4.252   0.325   6.887 -0.5647 -0.2972  0.7691
 1810SOL     OW 6328   5.531   4.547   2.965  0.0239 -0.5623  0.1639
 1810SOL    HW1 6329   5.572   4.567   2.876  0.6200 -1.7971  0.1437
 1810SOL    HW2 6330   5.511   4.449   2.972 -1.3402 -0.2715  0.8482
 1811SOL     OW 6331   2.180   1.507   6.694  0.4615 -0.0038 -0.0146
 1811SOL    HW1 6332   2.103   1.554   6.651  1.2543 -0.6802 -2.3266
 1811SOL    HW2 6333   2.145   1.436   6.756 -0.7419  0.9067  0.3863
 1812SOL     OW 6334   3.594   3.000   0.146  0.0886 -0.2888  0.3041
 1812SOL    HW1 6335   3.555   3.071   0.087  1.2818 -0.8100 -1.1764
 1812SOL    HW2 6336   3.538   2.991   0.228 -0.5529  1.7898  0.1608
 1813SOL     OW 6337   4.020   2.645   6.738  0.0270  0.0047  0.6684
 1813SOL    HW1 6338   4.031   2.666   6.640  0.4410  0.2002  0.7573
 1813SOL    HW2 6339   4.025   2.730   6.790  1.4428 -0.2654  1.0093
 1814SOL     OW 6340   1.530   2.160   1.571 -0.3985  0.3313  0.5656
 1814SOL    HW1 6341   1.535   2.240   1.511 -1.5350  0.5006  0.6810
 1814SOL    HW2 6342   1.438   2.121   1.568  0.6029 -2.1843 -1.0338
 1815SOL     OW 6343   0.788   6.138   6.042  0.7422  0.0696  0.2024
 1815SOL    HW1 6344   0.727   6.095   6.109  1.7906  0.9062  1.7488
 1815SOL    HW2 6345   0.736   6.203   5.987  0.2150  0.8451  1.5612
 1816SOL     OW 6346   5.882   3.547   2.000  0.4096 -0.2124 -0.4083
 1816SOL    HW1 6347   5.807   3.611   2.020 -0.9245 -1.8235 -0.0823
 1816SOL    HW2 6348   5.927   3.575   1.915 -0.8535  0.5312 -0.8691
 1817SOL     OW 6349   6.476   3.343   4.419 -0.2359 -0.0739  0.3355
 1817SOL    HW1 6350   6.416   3.276   4.377 -1.2559  1.7028 -1.1586
 1817SOL    HW2 6351   6.570   3.328   4.387 -0.8068  0.5266 -1.7378
 1818SOL     OW 6352   1.649   0.624   2.155 -0.0310 -0.4287  0.3267
 1818SOL    HW1 6353   1.749   0.620   2.155  0.0849  1.6317  0.5950
 1818SOL    HW2 6354   1.616   0.654   2.244 -0.5814  3.2005 -0.9429
 1819SOL     OW 6355   2.868   0.191   0.359  0.5107 -0.1721 -0.0298
 1819SOL    HW1 6356   2.860   0.283   0.400  1.2312 -0.2680  0.3384
 1819SOL    HW2 6357   2.947   0.144   0.399  0.3946 -0.7953 -0.5323
 1820SOL     OW 6358   2.630   6.137   5.424 -0.1075  0.4974 -0.2670
 1820SOL    HW1 6359   2.625   6.116   5.326 -0.8675  0.7865 -0.2977
 1820SOL    HW2 6360   2.537   6.149   5.459 -0.1350 -2.6891  1.1569
 1821SOL     OW 6361   4.063   1.338   6.684  0.2130 -0.5179  1.0369
 1821SOL    HW1 6362   4.048   1.254   6.631  1.5794 -0.8859  1.2054
 1821SOL    HW2 6363   3.982   1.357   6.740 -0.0624 -1.8003  1.0991
 1822SOL     OW 6364   1.401   1.843   5.298 -0.7333  0.3641 -0.1510
 1822SOL    HW1 6365   1.397   1.882   5.206 -0.4431 -2.0817 -1.2790
 1822SOL    HW2 6366   1.494   1.813   5.318 -1.3635 -2.0652 -0.4570
 1823SOL     OW 6367   4.984   4.378   2.729 -0.1539  0.4964 -0.2977
 1823SOL    HW1 6368   4.976   4.432   2.646 -0.7268  0.0194 -0.5648
 1823SOL    HW2 6369   5.029   4.432   2.800 -0.2130  1.1218 -0.7269
 1824SOL     OW 6370   5.827   0.307   3.920 -0.3985  0.3304  0.0536
 1824SOL    HW1 6371   5.877   0.355   3.848 -1.5516  0.5787 -0.6038
 1824SOL    HW2 6372   5.729   0.310   3.901 -1.1518  3.3453  3.3060
 1825SOL     OW 6373   5.711   0.607   1.526  0.0753 -0.2846 -0.2183
 1825SOL    HW1 6374   5.793   0.565   1.487  1.7038  0.8822  1.7194
 1825SOL    HW2 6375   5.670   0.670   1.460  2.4525  1.2672 -0.3349
 1826SOL     OW 6376   1.859   1.903   1.396 -0.1210  0.4134 -0.3619
 1826SOL    HW1 6377   1.904   1.985   1.433 -0.2487  0.0612  0.6040
 1826SOL    HW2 6378   1.865   1.829   1.463  0.7958 -0.6650 -1.5776
 1827SOL     OW 6379   0.855   6.337   5.772 -0.1199  0.8344 -0.1960
 1827SOL    HW1 6380   0.758   6.315   5.785  0.4677 -1.3678  0.8496
 1827SOL    HW2 6381   0.866   6.386   5.686 -2.1020  0.7864 -0.5363
 1828SOL     OW 6382   0.122   0.042   2.214 -0.1340  0.1804  0.4664
 1828SOL    HW1 6383   0.065   0.079   2.141  0.4286 -0.3382 -0.2428
 1828SOL    HW2 6384   0.160  -0.046   2.186  0.0435 -0.0579  1.4077
 1829SOL     OW 6385   1.994   6.984   2.434  0.7038  0.3630 -0.3561
 1829SOL    HW1 6386   1.907   7.026   2.406  1.8518  2.2325 -1.3566
 1829SOL    HW2 6387   2.057   7.056   2.464  2.7139 -0.6559 -1.8920
 1830SOL     OW 6388   6.891   2.998   5.267 -0.0680 -0.3388  0.5494
 1830SOL    HW1 6389   6.832   3.047   5.332 -1.0991  0.6538 -1.0736
 1830SOL    HW2 6390   6.841   2.920   5.229 -0.0591  0.0068 -0.1967
 1831SOL     OW 6391   4.733   2.149   1.835  0.0278 -0.1848 -0.5090
 1831SOL    HW1 6392   4.646   2.138   1.884  1.0724 -1.6989  1.1181
 1831SOL    HW2 6393   4.752   2.066   1.783  0.5537  0.1180 -0.8022
 1832SOL     OW 6394   6.496   6.811   1.775  0.8410 -0.3142 -0.2401
 1832SOL    HW1 6395   6.557   6.733   1.786  0.7131 -0.3114  0.5324
 1832SOL    HW2 6396   6.548   6.896   1.785  0.9109 -0.2964 -0.7104
 1833SOL     OW 6397   6.219   5.594   6.982 -0.6834  0.4257  0.4012
 1833SOL    HW1 6398   6.159   5.637   7.049  0.5939  0.3457  1.6520
 1833SOL    HW2 6399   6.275   5.524   7.027  0.1174  0.2813 -0.7737
 1834SOL     OW 6400   0.644   1.793   5.135 -0.1308  0.4273  0.0907
 1834SOL    HW1 6401   0.564   1.849   5.112 -1.3507 -1.1748  0.2872
 1834SOL    HW2 6402   0.662   1.729   5.061  0.3481  0.0834  0.4989
 1835SOL     OW 6403   4.772   1.164   6.021  0.0120  0.1784  0.0762
 1835SOL    HW1 6404   4.739   1.222   5.947 -0.8557  0.1571  0.4298
 1835SOL    HW2 6405   4.832   1.093   5.984 -2.4093 -1.4375 -1.0451
 1836SOL     OW 6406   0.552   1.012   1.202  0.3232  0.0130 -0.2906
 1836SOL    HW1 6407   0.553   1.025   1.301  2.8293  1.7976 -0.4510
 1836SOL    HW2 6408   0.543   1.101   1.157 -1.4487 -0.8210 -1.7320
 1837SOL     OW 6409   6.806   0.248   0.157 -0.5515  0.2607 -0.6991
 1837SOL    HW1 6410   6.840   0.219   0.247 -2.2587  0.5057  0.0576
 1837SOL    HW2 6411   6.882   0.285   0.104  0.4498  0.4410  0.7799
 1838SOL     OW 6412   5.933   6.164   2.879  0.0913  0.2412 -0.1971
 1838SOL    HW1 6413   6.016   6.111   2.861 -0.1962 -0.5865  0.8048
 1838SOL    HW2 6414   5.875   6.114   2.944 -0.1558  1.8150  0.8600
 1839SOL     OW 6415   6.722   6.413   2.759  0.5215  0.1846  0.6462
 1839SOL    HW1 6416   6.648   6.470   2.795  0.7004 -0.0739  1.4452
 1839SOL    HW2 6417   6.699   6.317   2.773 -0.3854 -0.0387 -1.8687
 1840SOL     OW 6418   1.596   5.539   0.843 -0.7435  0.0335  0.4377
 1840SOL    HW1 6419   1.605   5.458   0.785 -1.4636  0.3236 -0.0837
 1840SOL    HW2 6420   1.687   5.575   0.863 -0.4818 -0.0910 -0.4855
 1841SOL     OW 6421   5.750   1.949   4.058  0.4516 -0.0457 -0.3354
 1841SOL    HW1 6422   5.817   1.983   4.125  0.5960 -0.5954 -0.1950
 1841SOL    HW2 6423   5.724   2.024   3.996  0.6616  0.3516  0.0496
 1842SOL     OW 6424   1.073   4.032   1.971  0.4339  0.0011  0.4738
 1842SOL    HW1 6425   1.164   4.011   2.007 -0.6726 -1.0432  2.9811
 1842SOL    HW2 6426   1.032   3.948   1.934  0.5853  0.5374 -0.9631
 1843SOL     OW 6427   5.604   6.505   5.995 -0.1843  0.1066 -0.4132
 1843SOL    HW1 6428   5.663   6.424   5.995 -0.8320 -0.3945 -1.5687
 1843SOL    HW2 6429   5.562   6.515   6.085 -1.8267 -2.1862 -0.8165
 1844SOL     OW 6430   6.016   4.987   4.986  0.1155  0.3894 -0.2437
 1844SOL    HW1 6431   6.099   5.036   5.010  0.2606 -0.0265  0.1127
 1844SOL    HW2 6432   5.945   5.007   5.053  1.0250 -2.0959  1.5795
 1845SOL     OW 6433   1.237   2.013   6.598 -0.9635  0.2650 -0.0876
 1845SOL    HW1 6434   1.165   2.074   6.630 -1.1728  0.1547 -0.3388
 1845SOL    HW2 6435   1.308   2.067   6.553 -1.9387  0.2042 -1.7910
 1846SOL     OW 6436   2.746   5.838   3.086 -0.0068 -0.3837 -0.0945
 1846SOL    HW1 6437   2.787   5.784   3.013 -0.6397  0.6236 -1.2259
 1846SOL    HW2 6438   2.744   5.784   3.170 -1.5020 -2.5168 -1.4065
 1847SOL     OW 6439   2.914   6.783   3.546 -0.0416 -0.4444 -0.4532
 1847SOL    HW1 6440   2.940   6.687   3.542  0.6080 -0.2458 -1.8814
 1847SOL    HW2 6441   2.995   6.839   3.563 -0.3007 -0.1100 -0.2961
 1848SOL     OW 6442   5.370   6.183   2.246  1.1269  0.1666 -0.2567
 1848SOL    HW1 6443   5.379   6.264   2.304  1.3468 -0.5405  0.7137
 1848SOL    HW2 6444   5.421   6.197   2.161  1.3471  0.9591 -0.0002
 1849SOL     OW 6445   5.880   4.558   3.077 -0.1313 -0.0350  0.1785
 1849SOL    HW1 6446   5.801   4.611   3.106  0.8756  0.7802  1.5771
 1849SOL    HW2 6447   5.959   4.619   3.065  0.6161 -0.9859  0.1379
 1850SOL     OW 6448   0.613   6.663   4.236  0.2319  0.1002  0.1340
 1850SOL    HW1 6449   0.668   6.736   4.277 -0.7045  0.2887  1.0893
 1850SOL    HW2 6450   0.673   6.589   4.207  1.1175  0.8948 -0.0887
 1851SOL     OW 6451   1.928   0.975   0.132 -0.1397  0.5284  0.1467
 1851SOL    HW1 6452   1.875   1.017   0.205 -0.6072 -0.5235  0.4373
 1851SOL    HW2 6453   1.914   1.026   0.047 -3.8379 -1.1549 -0.4741
 1852SOL     OW 6454   2.847   4.527   1.098  0.0921  0.0357  0.2336
 1852SOL    HW1 6455   2.840   4.464   1.176 -1.4607 -0.7655 -0.5002
 1852SOL    HW2 6456   2.855   4.475   1.013 -2.3721  0.7081 -0.5021
 1853SOL     OW 6457   1.531   0.044   2.355 -0.8648 -0.2187  0.5158
 1853SOL    HW1 6458   1.435   0.025   2.337 -0.7647  0.3487 -0.7351
 1853SOL    HW2 6459   1.558   0.001   2.441 -1.9852 -1.1632  0.4230
 1854SOL     OW 6460   1.601   1.463   2.732  0.4327 -0.2052  0.2171
 1854SOL    HW1 6461   1.646   1.432   2.648  0.2393 -1.5135  0.5699
 1854SOL    HW2 6462   1.670   1.495   2.797  0.5092  1.9741 -0.8472
 1855SOL     OW 6463   2.940   3.265   5.737  0.5217  0.5941  0.2346
 1855SOL    HW1 6464   2.944   3.193   5.807 -0.9463  1.1290  0.9031
 1855SOL    HW2 6465   3.033   3.283   5.703  1.0125 -1.1318  0.5255
 1856SOL     OW 6466   1.136   3.394   3.037 -0.3101  0.0888 -0.5936
 1856SOL    HW1 6467   1.164   3.408   3.132  1.9307  0.6552 -1.2646
 1856SOL    HW2 6468   1.151   3.299   3.011  0.2119  0.1994 -0.7063
 1857SOL     OW 6469   3.075   0.297   3.063  0.0052 -0.2829  0.7253
 1857SOL    HW1 6470   3.091   0.203   3.036  0.2274 -0.9044  2.8349
 1857SOL    HW2 6471   3.072   0.356   2.982 -2.7717 -2.4351 -0.9194
 1858SOL     OW 6472   3.394   4.158   3.726 -0.3221  0.0633 -0.1128
 1858SOL    HW1 6473   3.339   4.116   3.653 -1.3871 -0.8072  1.1422
 1858SOL    HW2 6474   3.484   4.115   3.730 -0.5738 -0.4874 -0.3411
 1859SOL     OW 6475   1.629   2.648   0.347 -0.0628  0.0881  0.1881
 1859SOL    HW1 6476   1.592   2.568   0.395  1.6319 -0.5060  0.5572
 1859SOL    HW2 6477   1.618   2.635   0.248 -0.0693 -0.4689  0.2566
 1860SOL     OW 6478   0.105   5.513   3.649 -0.0467 -0.1884  0.5496
 1860SOL    HW1 6479   0.049   5.481   3.725 -1.5993 -1.1952 -0.9466
 1860SOL    HW2 6480   0.047   5.538   3.572  1.4685  0.8547 -0.3137
 1861SOL     OW 6481   6.261   3.571   0.070  0.3468  0.1674  0.3552
 1861SOL    HW1 6482   6.240   3.514  -0.009  1.4388 -0.3522  0.4313
 1861SOL    HW2 6483   6.300   3.658   0.039 -0.3711  0.4821  0.2895
 1862SOL     OW 6484   0.174   2.578   6.914  0.1343  0.2275 -0.1491
 1862SOL    HW1 6485   0.143   2.483   6.909  1.3594 -0.1702 -0.7115
 1862SOL    HW2 6486   0.131   2.632   6.842 -0.6283  0.1395  0.2240
 1863SOL     OW 6487   0.585   6.046   4.800 -0.5444  0.2728  0.1540
 1863SOL    HW1 6488   0.593   6.141   4.771 -0.2941  0.1283 -0.2679
 1863SOL    HW2 6489   0.490   6.017   4.796 -0.6594  0.5939  0.5704
 1864SOL     OW 6490   6.199   0.419   1.666  0.5403 -0.0007 -0.2817
 1864SOL    HW1 6491   6.230   0.327   1.643  1.0934  0.3797 -1.0657
 1864SOL    HW2 6492   6.264   0.462   1.729  0.6475  0.1229 -0.4788
 1865SOL     OW 6493   5.414   5.385   6.788  0.0070  0.0171  0.5929
 1865SOL    HW1 6494   5.441   5.378   6.884  3.3040  0.8251 -0.1633
 1865SOL    HW2 6495   5.493   5.369   6.730 -1.6357  0.7127 -1.9891
 1866SOL     OW 6496   5.756   0.791   1.728  0.0540 -0.3337 -0.2856
 1866SOL    HW1 6497   5.769   0.722   1.657 -0.5411 -1.1243  0.3578
 1866SOL    HW2 6498   5.750   0.747   1.817 -1.5459  0.4193  0.0186
 1867SOL     OW 6499   5.937   0.450   3.727  0.4017  0.8617  0.5587
 1867SOL    HW1 6500   6.018   0.444   3.786 -0.8015 -0.5496  2.1623
 1867SOL    HW2 6501   5.893   0.538   3.740  0.8750  1.0732  0.7779
 1868SOL     OW 6502   0.646   1.132   1.692  0.1382  0.1037  0.1221
 1868SOL    HW1 6503   0.651   1.107   1.788 -1.0953  1.1622  0.4975
 1868SOL    HW2 6504   0.722   1.091   1.642  0.7515 -0.5159  1.5297
 1869SOL     OW 6505   3.469   6.370   5.454 -0.0345 -0.6169  1.0071
 1869SOL    HW1 6506   3.555   6.325   5.430 -1.0938 -1.1665 -2.3228
 1869SOL    HW2 6507   3.394   6.305   5.445 -1.1576  0.7069  0.4381
 1870SOL     OW 6508   3.877   4.332   0.702  0.0238 -0.2363  0.2288
 1870SOL    HW1 6509   3.790   4.377   0.724 -0.8788 -0.5923 -2.2658
 1870SOL    HW2 6510   3.863   4.232   0.703  0.1604 -0.2839 -0.8702
 1871SOL     OW 6511   2.164   1.162   6.036  0.2890  0.2144 -0.4812
 1871SOL    HW1 6512   2.155   1.193   5.942 -0.3203 -0.9569 -0.8335
 1871SOL    HW2 6513   2.257   1.126   6.051 -0.1647 -1.3512 -1.2198
 1872SOL     OW 6514   3.756   5.696   6.329  0.0213 -0.3317 -0.0251
 1872SOL    HW1 6515   3.671   5.746   6.344  0.0897 -0.1344 -0.2799
 1872SOL    HW2 6516   3.823   5.757   6.285  0.3653 -0.4162  0.3672
 1873SOL     OW 6517   5.703   1.630   5.268  0.2049 -0.0899  0.0878
 1873SOL    HW1 6518   5.700   1.716   5.320  0.1839 -0.9763  1.6003
 1873SOL    HW2 6519   5.680   1.649   5.173 -1.1423  1.3922  0.6531
 1874SOL     OW 6520   0.517   6.172   7.008 -0.1478 -0.0942 -0.4136
 1874SOL    HW1 6521   0.576   6.233   6.954 -0.2533  2.3981  2.0969
 1874SOL    HW2 6522   0.569   6.089   7.032  0.3705 -0.5974 -2.9463
 1875SOL     OW 6523   5.897   4.614   2.104  0.3178  0.2701  0.5149
 1875SOL    HW1 6524   5.957   4.535   2.118 -0.8993 -0.4151  2.2118
 1875SOL    HW2 6525   5.802   4.585   2.110 -0.2464  1.4058 -1.7515
 1876SOL     OW 6526   4.178   3.580   1.540 -0.2679  0.0258  0.2051
 1876SOL    HW1 6527   4.233   3.533   1.470 -0.8734 -0.0772 -0.2079
 1876SOL    HW2 6528   4.125   3.653   1.497 -1.0287 -0.3655  0.4611
 1877SOL     OW 6529   0.953   0.088   2.519 -0.2249  0.4131  0.3858
 1877SOL    HW1 6530   1.020   0.073   2.591 -0.7961  0.5194  0.9518
 1877SOL    HW2 6531   0.946   0.006   2.462 -0.0158  0.2092  0.6547
 1878SOL     OW 6532   5.679   2.326   2.606 -0.2220  0.5813  0.5360
 1878SOL    HW1 6533   5.752   2.257   2.605 -1.4195 -0.7506 -0.8974
 1878SOL    HW2 6534   5.608   2.298   2.670 -1.2197 -0.1389 -0.8304
 1879SOL     OW 6535   4.536   1.462   1.587 -0.1599 -0.0083  0.1945
 1879SOL    HW1 6536   4.588   1.540   1.621 -0.3379  0.3913 -0.4232
 1879SOL    HW2 6537   4.449   1.494   1.547 -0.8896 -0.6622  1.2056
 1880SOL     OW 6538   4.977   0.464   2.627 -0.3771 -0.0201 -0.5589
 1880SOL    HW1 6539   5.048   0.400   2.657  0.0594  0.9171  0.4736
 1880SOL    HW2 6540   4.919   0.419   2.559 -0.7632 -1.9047  0.9251
 1881SOL     OW 6541   4.900   5.117   6.538 -0.1947 -0.3434  0.5347
 1881SOL    HW1 6542   4.887   5.216   6.527  0.6752 -0.0411  2.0576
 1881SOL    HW2 6543   4.810   5.073   6.538 -0.5365  0.0924 -2.6697
 1882SOL     OW 6544   1.340   1.476   2.765  0.3272  0.3450  0.3690
 1882SOL    HW1 6545   1.430   1.444   2.737 -0.6391 -3.3880  0.9741
 1882SOL    HW2 6546   1.346   1.514   2.858  1.0407 -1.6835  1.2063
 1883SOL     OW 6547   6.539   0.092   1.385  0.0020 -0.3163  0.0711
 1883SOL    HW1 6548   6.535   0.013   1.323  1.7437 -0.0556 -0.4333
 1883SOL    HW2 6549   6.527   0.176   1.333  2.2956 -0.0439 -0.1230
 1884SOL     OW 6550   0.196   3.743   6.917 -0.1474  0.1996 -0.1239
 1884SOL    HW1 6551   0.255   3.760   6.838  0.0328 -1.6802 -0.4494
 1884SOL    HW2 6552   0.131   3.671   6.894 -0.3929 -0.0457  1.2941
 1885SOL     OW 6553   0.150   1.911   1.253  0.4511  0.1428  0.3635
 1885SOL    HW1 6554   0.245   1.927   1.223  0.1443 -0.5401 -1.0315
 1885SOL    HW2 6555   0.133   1.813   1.261 -0.1527  0.2597  0.5673
 1886SOL     OW 6556   0.023   4.898   1.368  0.2354 -0.4739 -0.3006
 1886SOL    HW1 6557   0.017   4.919   1.270 -1.4888  2.1508  0.2795
 1886SOL    HW2 6558   0.116   4.917   1.400  0.4296  0.0515 -1.1443
 1887SOL     OW 6559   5.449   5.701   4.887 -0.3572 -0.2386  0.1567
 1887SOL    HW1 6560   5.470   5.783   4.835 -1.8354  0.3023  0.3614
 1887SOL    HW2 6561   5.517   5.688   4.959 -0.1880  0.9050  0.2187
 1888SOL     OW 6562   6.580   0.537   1.329 -0.0853  0.3841 -0.9074
 1888SOL    HW1 6563   6.651   0.607   1.325  0.8527 -0.5703 -1.9321
 1888SOL    HW2 6564   6.494   0.578   1.359  1.5771  0.9783  3.7681
 1889SOL     OW 6565   3.201   1.144   1.364 -0.0632 -0.3362 -0.3863
 1889SOL    HW1 6566   3.168   1.060   1.321 -1.0594 -0.4055  0.4568
 1889SOL    HW2 6567   3.123   1.192   1.406  0.4334  1.2019 -1.1827
 1890SOL     OW 6568   3.437   5.381   1.579  0.4720 -0.7031  0.1036
 1890SOL    HW1 6569   3.407   5.328   1.659  0.8252 -1.0638  0.0010
 1890SOL    HW2 6570   3.361   5.389   1.514  0.2040 -0.4656  0.4459
 1891SOL     OW 6571   5.231   6.655   6.901 -0.0025 -0.1351 -0.7240
 1891SOL    HW1 6572   5.169   6.582   6.873 -0.6783  0.6266 -1.2834
 1891SOL    HW2 6573   5.195   6.743   6.870  2.1479  0.2173 -2.5274
 1892SOL     OW 6574   3.624   1.655   5.495  0.2098 -0.1249  0.2134
 1892SOL    HW1 6575   3.610   1.734   5.554  2.2002  1.1876 -0.9531
 1892SOL    HW2 6576   3.644   1.575   5.551 -1.4459  0.2397  1.3997
 1893SOL     OW 6577   4.612   4.399   0.653 -0.1869 -0.6875 -0.3000
 1893SOL    HW1 6578   4.673   4.464   0.608  1.1023 -0.6701  1.3792
 1893SOL    HW2 6579   4.519   4.435   0.653  0.3272  0.6904 -0.2733
 1894SOL     OW 6580   5.827   1.438   3.573  0.3547  0.7429  0.2533
 1894SOL    HW1 6581   5.847   1.487   3.658 -1.4023 -0.0390  1.1742
 1894SOL    HW2 6582   5.833   1.501   3.496 -1.1779  2.3126  1.3219
 1895SOL     OW 6583   6.072   2.523   5.310  0.4868  0.5254 -0.0370
 1895SOL    HW1 6584   5.982   2.515   5.266 -0.6815  0.6467  2.2100
 1895SOL    HW2 6585   6.100   2.433   5.343  0.8152  0.6449  0.0100
 1896SOL     OW 6586   1.459   4.688   0.961 -0.3261  0.4065  0.0743
 1896SOL    HW1 6587   1.534   4.680   0.895  0.5227 -0.1047  1.0766
 1896SOL    HW2 6588   1.432   4.597   0.991 -0.1694  0.6605  1.0087
 1897SOL     OW 6589   3.915   5.819   3.544  0.2388 -0.2214 -0.3355
 1897SOL    HW1 6590   3.853   5.897   3.546 -0.9824 -1.1689  0.7291
 1897SOL    HW2 6591   3.875   5.743   3.597  2.1615 -0.9844  0.1153
 1898SOL     OW 6592   6.811   5.150   0.728  0.2602  0.2437  0.7507
 1898SOL    HW1 6593   6.739   5.208   0.767 -0.0243 -0.3536  1.1279
 1898SOL    HW2 6594   6.827   5.072   0.788  0.6531 -0.0627  0.2555
 1899SOL     OW 6595   5.360   5.566   2.879 -0.4099 -0.0065 -0.2898
 1899SOL    HW1 6596   5.405   5.599   2.796 -1.1695 -2.6651 -1.8410
 1899SOL    HW2 6597   5.267   5.603   2.884 -0.8848 -0.9984 -1.4419
 1900SOL     OW 6598   5.612   3.522   2.278 -0.1274  0.2548  0.2533
 1900SOL    HW1 6599   5.673   3.452   2.242 -2.1207 -3.3055  3.0946
 1900SOL    HW2 6600   5.633   3.538   2.374 -2.0917  0.7331  0.6436
 1901SOL     OW 6601   2.908   5.307   4.921  0.0576  0.9412 -0.5168
 1901SOL    HW1 6602   2.832   5.245   4.899 -0.2042  0.3622  1.7859
 1901SOL    HW2 6603   2.974   5.259   4.978 -0.2562  2.7768  1.5079
 1902SOL     OW 6604   6.048   1.881   1.263 -0.0884  0.4683  0.4382
 1902SOL    HW1 6605   6.136   1.864   1.307  0.2344 -0.0765 -0.3837
 1902SOL    HW2 6606   5.986   1.924   1.328  0.1308 -0.9311  1.6453
 1903SOL     OW 6607   3.820   0.072   0.699  0.4054  0.3872 -0.1578
 1903SOL    HW1 6608   3.842  -0.021   0.729  0.8563  0.1837 -1.0819
 1903SOL    HW2 6609   3.880   0.137   0.746 -0.7628  0.3647  1.4684
 1904SOL     OW 6610   1.903   2.083   5.451  0.2918 -0.3917 -0.2184
 1904SOL    HW1 6611   1.900   1.992   5.491 -3.5372  0.2728  1.5220
 1904SOL    HW2 6612   1.952   2.081   5.364 -1.8032 -4.7106 -1.5606
 1905SOL     OW 6613   2.778   1.655   1.323 -0.6830 -0.2955 -0.1654
 1905SOL    HW1 6614   2.703   1.642   1.387 -1.4960  0.1419 -0.9998
 1905SOL    HW2 6615   2.778   1.750   1.292  1.3385  0.2147  1.1815
 1906SOL     OW 6616   5.982   6.762   6.713 -0.1664  0.0631 -0.4374
 1906SOL    HW1 6617   5.924   6.836   6.678 -2.1674  0.5769  3.3983
 1906SOL    HW2 6618   5.970   6.682   6.654 -0.1303  1.8473 -3.0990
 1907SOL     OW 6619   4.127   0.876   6.383 -0.2337 -1.0483 -0.4229
 1907SOL    HW1 6620   4.210   0.897   6.434  0.1792  3.4652 -2.4532
 1907SOL    HW2 6621   4.151   0.844   6.292 -0.5612  1.1318 -1.3341
 1908SOL     OW 6622   3.225   0.694   0.060 -0.0999  0.4035  0.2718
 1908SOL    HW1 6623   3.294   0.729  -0.003 -1.0096 -0.1833 -1.1243
 1908SOL    HW2 6624   3.267   0.630   0.124  0.7020  0.2458 -0.3900
 1909SOL     OW 6625   5.929   2.508   5.836 -0.2189  0.5541  0.3668
 1909SOL    HW1 6626   5.903   2.485   5.930 -0.2276 -1.1746 -0.0354
 1909SOL    HW2 6627   5.849   2.502   5.776 -0.4318  2.6101  0.3698
 1910SOL     OW 6628   1.899   1.439   5.617 -0.3220 -0.1726  0.1540
 1910SOL    HW1 6629   1.936   1.391   5.697  0.7721 -0.5884 -0.5733
 1910SOL    HW2 6630   1.967   1.502   5.582 -0.7796 -0.0260 -0.4817
 1911SOL     OW 6631   4.802   2.711   0.309 -0.6777 -0.2046 -0.2138
 1911SOL    HW1 6632   4.829   2.659   0.390 -1.4029 -0.6007 -0.2208
 1911SOL    HW2 6633   4.863   2.790   0.298 -0.0503 -0.6176  0.2351
 1912SOL     OW 6634   4.625   0.423   1.862  0.5285  0.7781 -0.6670
 1912SOL    HW1 6635   4.551   0.418   1.795 -0.8954  0.8754  0.8000
 1912SOL    HW2 6636   4.593   0.476   1.941  2.0478  0.4839  0.1728
 1913SOL     OW 6637   2.180   6.819   3.336  0.2956 -0.4531 -0.3634
 1913SOL    HW1 6638   2.222   6.786   3.420 -0.1500 -1.8126 -0.6510
 1913SOL    HW2 6639   2.234   6.791   3.257  1.4381  1.9337 -0.5230
 1914SOL     OW 6640   3.760   5.255   2.152 -0.5109 -0.3012 -0.5390
 1914SOL    HW1 6641   3.738   5.167   2.196  0.3903 -0.6981 -0.8660
 1914SOL    HW2 6642   3.855   5.279   2.172 -0.0587 -0.5170 -2.3092
 1915SOL     OW 6643   2.682   0.082   4.571  0.0149  0.2020  0.4115
 1915SOL    HW1 6644   2.716   0.094   4.665 -1.9078 -0.3587  1.2263
 1915SOL    HW2 6645   2.699  -0.012   4.541 -2.2727 -0.6605  1.5302
 1916SOL     OW 6646   0.440   3.982   3.267 -0.0335 -0.1454 -0.0695
 1916SOL    HW1 6647   0.386   3.999   3.184  1.3297 -0.3785 -1.0433
 1916SOL    HW2 6648   0.387   4.009   3.347 -1.2655  0.4114 -1.0295
 1917SOL     OW 6649   3.275   3.733   2.520 -0.4848 -0.2347  0.6954
 1917SOL    HW1 6650   3.295   3.810   2.581  2.1112 -0.7303  0.5845
 1917SOL    HW2 6651   3.214   3.763   2.447  0.0696  1.5905  0.9295
 1918SOL     OW 6652   1.586   4.760   5.367  0.5719  0.7411  0.3164
 1918SOL    HW1 6653   1.655   4.831   5.383  0.4082  1.0911 -0.4592
 1918SOL    HW2 6654   1.592   4.691   5.439  1.9433  0.5915  0.0910
 1919SOL     OW 6655   5.308   1.491   1.610  0.0616 -0.4260  0.4734
 1919SOL    HW1 6656   5.281   1.572   1.559  2.2457  0.4432  0.5687
 1919SOL    HW2 6657   5.253   1.413   1.582  0.1514  0.3549 -2.0868
 1920SOL     OW 6658   3.270   4.897   4.180  0.4849 -0.0577  0.2306
 1920SOL    HW1 6659   3.299   4.970   4.243  2.1826 -1.6636  1.4149
 1920SOL    HW2 6660   3.198   4.843   4.223 -0.3247  0.4967 -0.3921
 1921SOL     OW 6661   6.401   5.870   5.994  0.5102  0.4512  0.3129
 1921SOL    HW1 6662   6.430   5.960   5.963 -0.2012  0.1692 -1.2716
 1921SOL    HW2 6663   6.309   5.876   6.033  0.0207  0.2488 -0.7852
 1922SOL     OW 6664   6.153   5.245   5.569 -0.3206 -0.7005 -0.2370
 1922SOL    HW1 6665   6.195   5.277   5.485 -0.8031 -1.7365 -0.8939
 1922SOL    HW2 6666   6.088   5.171   5.548 -0.5464 -0.8841  1.0227
 1923SOL     OW 6667   1.165   6.417   2.546 -0.3190  0.1931  0.0941
 1923SOL    HW1 6668   1.073   6.398   2.581 -0.2560 -1.0585 -0.3762
 1923SOL    HW2 6669   1.233   6.371   2.602 -0.1429 -0.8393 -0.9287
 1924SOL     OW 6670   1.420   1.380   2.313  0.1393 -0.4441  0.4849
 1924SOL    HW1 6671   1.458   1.307   2.369 -1.1107 -1.7060 -0.2338
 1924SOL    HW2 6672   1.494   1.436   2.276  1.2119 -1.9689  0.2330
 1925SOL     OW 6673   6.653   3.602   3.518  0.3559 -0.3836 -0.1430
 1925SOL    HW1 6674   6.678   3.682   3.463 -0.5074  0.1700  0.2625
 1925SOL    HW2 6675   6.732   3.573   3.572  1.1212 -0.7366 -1.4208
 1926SOL     OW 6676   3.444   5.608   1.964 -0.0846 -0.1819  0.1840
 1926SOL    HW1 6677   3.446   5.691   1.908 -1.2696 -0.2041  0.0910
 1926SOL    HW2 6678   3.419   5.530   1.906  2.3675 -0.8795 -0.0314
 1927SOL     OW 6679   5.361   0.709   2.963 -0.0496 -0.1001  0.0294
 1927SOL    HW1 6680   5.341   0.668   2.874  0.3139  1.0522 -0.6054
 1927SOL    HW2 6681   5.373   0.637   3.031  1.5157 -1.0994 -1.2404
 1928SOL     OW 6682   2.111   6.457   1.560  0.4695  0.0866  0.2825
 1928SOL    HW1 6683   2.202   6.418   1.543  1.1833  1.1587  1.4378
 1928SOL    HW2 6684   2.121   6.551   1.594 -1.1335  0.7752 -0.9991
 1929SOL     OW 6685   3.863   3.633   0.831  0.3893 -0.4322 -0.4580
 1929SOL    HW1 6686   3.814   3.546   0.832 -0.4502 -0.0454  2.1515
 1929SOL    HW2 6687   3.797   3.708   0.844  1.0900  0.6501 -2.6326
 1930SOL     OW 6688   3.055   3.561   6.962  0.3024  0.5665  0.1520
 1930SOL    HW1 6689   3.109   3.553   7.045  1.3526  1.1025 -0.4578
 1930SOL    HW2 6690   3.084   3.641   6.910 -1.8716  1.5486  0.3425
 1931SOL     OW 6691   5.792   0.274   6.175 -0.3814 -0.1869 -0.2531
 1931SOL    HW1 6692   5.797   0.372   6.154  2.1521  0.1882  1.7211
 1931SOL    HW2 6693   5.729   0.260   6.251 -0.4061 -0.0583 -0.2487
 1932SOL     OW 6694   4.373   3.450   1.411 -0.0387 -0.1121  0.3729
 1932SOL    HW1 6695   4.380   3.429   1.314  2.1313  1.4510  0.1279
 1932SOL    HW2 6696   4.390   3.367   1.465 -0.7086 -0.8677 -0.5535
 1933SOL     OW 6697   6.905   1.695   4.698  0.3562 -0.3317 -0.5381
 1933SOL    HW1 6698   6.948   1.629   4.636  3.9085  1.1521  0.0784
 1933SOL    HW2 6699   6.856   1.763   4.644 -1.7150 -2.2680 -1.2729
 1934SOL     OW 6700   1.297   4.132   0.186 -0.0128  0.6692 -0.1641
 1934SOL    HW1 6701   1.228   4.204   0.194 -0.9606 -0.2228 -0.2148
 1934SOL    HW2 6702   1.386   4.169   0.212 -0.9496  1.1089  2.8111
 1935SOL     OW 6703   0.651   5.477   0.523 -0.4374 -0.0241  0.0507
 1935SOL    HW1 6704   0.718   5.404   0.533  1.8188  1.5800 -2.0960
 1935SOL    HW2 6705   0.584   5.451   0.454 -1.1933 -1.0169  1.1132
 1936SOL     OW 6706   1.253   2.931   1.744  0.0949  0.0219 -0.1048
 1936SOL    HW1 6707   1.260   2.861   1.674 -0.4526  0.5881 -0.7475
 1936SOL    HW2 6708   1.156   2.949   1.764  0.2343  0.2711  0.3822
 1937SOL     OW 6709   4.880   5.150   6.876 -0.0795  0.1598  0.7976
 1937SOL    HW1 6710   4.936   5.228   6.847 -0.1816  0.3993  1.2316
 1937SOL    HW2 6711   4.786   5.165   6.848  0.1924 -0.6132 -0.6443
 1938SOL     OW 6712   1.894   1.993   2.888 -0.2372 -0.2002 -1.2256
 1938SOL    HW1 6713   1.991   1.989   2.910 -0.5084 -0.8447 -0.0562
 1938SOL    HW2 6714   1.853   2.074   2.930 -0.6735 -1.2238  0.4606
 1939SOL     OW 6715   2.319   6.462   5.092 -0.3626  0.6101  0.1105
 1939SOL    HW1 6716   2.367   6.544   5.123  0.5705  0.4898 -0.9493
 1939SOL    HW2 6717   2.296   6.471   4.995  0.0337 -0.5025 -0.1031
 1940SOL     OW 6718   3.721   3.808   4.191 -0.7226 -0.0424 -0.1730
 1940SOL    HW1 6719   3.777   3.727   4.175  0.1166  0.5978 -0.5733
 1940SOL    HW2 6720   3.780   3.889   4.195 -1.5959  0.6202 -0.3665
 1941SOL     OW 6721   0.592   6.999   4.682  0.4992 -0.0218 -0.0967
 1941SOL    HW1 6722   0.681   6.987   4.725  1.3477 -0.6960 -1.9203
 1941SOL    HW2 6723   0.562   6.913   4.641  0.4138  0.8428 -1.9925
 1942SOL     OW 6724   4.286   5.429   0.695 -0.6358 -0.6740 -0.2383
 1942SOL    HW1 6725   4.194   5.444   0.660 -1.0334  0.3042  1.1258
 1942SOL    HW2 6726   4.310   5.504   0.757  1.3449 -0.5555 -1.0933
 1943SOL     OW 6727   5.500   5.856   5.607  0.4303  0.6168  0.3671
 1943SOL    HW1 6728   5.433   5.810   5.666 -0.1731 -0.6835 -1.2570
 1943SOL    HW2 6729   5.591   5.850   5.650 -0.1884  0.8880  1.7773
 1944SOL     OW 6730   1.685   2.075   0.043 -0.1129 -0.2235  0.1757
 1944SOL    HW1 6731   1.601   2.130   0.041 -0.7020 -1.1081  0.0244
 1944SOL    HW2 6732   1.746   2.111   0.114 -1.7330 -1.1152  2.1511
 1945SOL     OW 6733   6.224   0.052   5.218  0.0113  0.0662 -0.2371
 1945SOL    HW1 6734   6.211  -0.021   5.285 -0.2089 -0.1113 -0.4717
 1945SOL    HW2 6735   6.161   0.127   5.237 -0.6912 -0.3718 -0.7818
 1946SOL     OW 6736   0.981   1.326   0.753 -0.0151 -0.3312 -0.2203
 1946SOL    HW1 6737   0.994   1.228   0.768 -1.1632 -0.6616 -1.1943
 1946SOL    HW2 6738   0.897   1.340   0.701  0.5509  1.1265 -0.7792
 1947SOL     OW 6739   0.677   6.568   5.437 -0.6345  0.3767 -0.4007
 1947SOL    HW1 6740   0.652   6.664   5.427 -0.7661  0.2837 -1.0461
 1947SOL    HW2 6741   0.770   6.561   5.474 -0.7430  0.7465 -0.0566
 1948SOL     OW 6742   3.831   1.266   4.166 -0.0752  0.2269  0.1533
 1948SOL    HW1 6743   3.865   1.340   4.108  0.2707 -0.1488 -0.1329
 1948SOL    HW2 6744   3.735   1.282   4.188 -0.1765  0.4445 -0.4204
 1949SOL     OW 6745   6.652   4.236   1.769 -0.8780  0.0888  0.2292
 1949SOL    HW1 6746   6.661   4.316   1.828 -2.9361  0.3192  0.3018
 1949SOL    HW2 6747   6.695   4.157   1.812  1.7231  1.2081 -0.1026
 1950SOL     OW 6748   0.014   6.484   4.757 -0.3549 -0.1843  0.1424
 1950SOL    HW1 6749   0.015   6.408   4.691  2.0004  0.2950 -0.4619
 1950SOL    HW2 6750   0.075   6.462   4.833  0.6577  1.2193 -0.2304
 1951SOL     OW 6751   1.178   3.030   4.094  0.2422  0.1017  0.2281
 1951SOL    HW1 6752   1.129   3.099   4.147  0.7611  0.9218 -0.3246
 1951SOL    HW2 6753   1.137   2.941   4.109 -0.0098  0.4117  1.5069
 1952SOL     OW 6754   2.557   0.668   2.605  0.2366  0.3184 -0.3310
 1952SOL    HW1 6755   2.578   0.703   2.514  0.5424  1.2593  0.0931
 1952SOL    HW2 6756   2.573   0.739   2.673  0.7714 -0.6117  0.5426
 1953SOL     OW 6757   6.918   4.557   1.702 -0.2799  0.0202  0.3876
 1953SOL    HW1 6758   6.976   4.616   1.757  0.7772 -0.3759 -0.2720
 1953SOL    HW2 6759   6.937   4.572   1.605 -0.1128 -1.2632  0.2045
 1954SOL     OW 6760   3.011   4.162   5.276 -0.4490  0.0124  0.1253
 1954SOL    HW1 6761   3.105   4.165   5.311 -1.0197 -0.0554  1.7524
 1954SOL    HW2 6762   3.005   4.095   5.202  0.7188 -0.1834  0.1855
 1955SOL     OW 6763   4.004   1.751   4.240  0.2124  0.9308  0.5319
 1955SOL    HW1 6764   4.071   1.765   4.313  0.6309 -2.1179  0.8507
 1955SOL    HW2 6765   3.912   1.744   4.280  0.4841 -1.1218  0.9008
 1956SOL     OW 6766   6.079   2.011   3.656  0.5876 -0.3154  0.3620
 1956SOL    HW1 6767   6.126   2.082   3.602  1.4476 -1.0456  0.1286
 1956SOL    HW2 6768   6.100   1.921   3.618 -2.3701 -0.6398 -0.8459
 1957SOL     OW 6769   6.187   2.625   2.956 -0.1078 -0.7947 -0.2807
 1957SOL    HW1 6770   6.152   2.628   3.050  0.7289  2.6939  0.0778
 1957SOL    HW2 6771   6.147   2.701   2.904  0.6429 -1.7173 -2.2943
 1958SOL     OW 6772   1.810   4.300   3.416 -0.1591  0.6118  0.0040
 1958SOL    HW1 6773   1.816   4.283   3.317 -0.6174 -0.1562  0.1015
 1958SOL    HW2 6774   1.733   4.361   3.434 -1.3734 -0.8772  0.0549
 1959SOL     OW 6775   4.867   3.238   3.391 -0.0287 -0.1839 -0.1578
 1959SOL    HW1 6776   4.875   3.208   3.486  2.1037 -0.8102 -0.4774
 1959SOL    HW2 6777   4.859   3.338   3.388 -0.1542 -0.1639  0.6651
 1960SOL     OW 6778   4.017   3.191   1.146 -0.4926 -0.3327 -0.4959
 1960SOL    HW1 6779   4.040   3.114   1.206  0.9486  2.2794  2.6618
 1960SOL    HW2 6780   3.939   3.241   1.186 -1.2478  0.0331 -2.3432
 1961SOL     OW 6781   3.859   1.460   1.741 -0.5760  0.3309  0.3518
 1961SOL    HW1 6782   3.774   1.435   1.696 -1.4983  0.9983  1.6643
 1961SOL    HW2 6783   3.917   1.511   1.677 -0.7397 -0.9164 -0.8305
 1962SOL     OW 6784   3.780   1.672   5.924 -0.1640 -0.4149 -0.4228
 1962SOL    HW1 6785   3.844   1.700   5.995 -2.0463 -3.1763  2.6492
 1962SOL    HW2 6786   3.716   1.746   5.906  0.3597  0.3618  0.7518
 1963SOL     OW 6787   6.480   4.672   6.172  0.2760 -0.3747  0.3177
 1963SOL    HW1 6788   6.499   4.600   6.104 -1.9961 -2.2273  1.5059
 1963SOL    HW2 6789   6.535   4.655   6.254  2.0450  1.1217 -0.4734
 1964SOL     OW 6790   4.857   4.471   5.492 -0.0593 -0.2581  0.0238
 1964SOL    HW1 6791   4.811   4.442   5.576 -1.1328  0.4266 -0.3006
 1964SOL    HW2 6792   4.842   4.569   5.478 -1.6989 -0.7229 -2.0100
 1965SOL     OW 6793   5.846   5.878   2.093  0.6498  0.0241 -0.3661
 1965SOL    HW1 6794   5.944   5.861   2.093  0.7798  0.7017  0.5378
 1965SOL    HW2 6795   5.808   5.856   2.183  0.1058  0.4803 -0.4768
 1966SOL     OW 6796   6.984   3.832   5.068  0.1860  0.5744 -0.2672
 1966SOL    HW1 6797   7.053   3.877   5.012  1.1073 -1.1313 -0.5789
 1966SOL    HW2 6798   6.922   3.780   5.009  0.3343 -0.1315  0.1851
 1967SOL     OW 6799   4.841   2.882   6.631  0.3994 -0.1498  0.2183
 1967SOL    HW1 6800   4.844   2.980   6.652 -0.2935 -0.5893  2.7165
 1967SOL    HW2 6801   4.826   2.869   6.533 -0.4026  2.2501 -0.0325
 1968SOL     OW 6802   2.377   5.382   6.397 -0.3014  0.0588 -0.4895
 1968SOL    HW1 6803   2.345   5.308   6.337  1.6847 -0.9956 -0.3297
 1968SOL    HW2 6804   2.301   5.443   6.418 -1.4653 -0.5431 -2.6337
 1969SOL     OW 6805   1.192   2.871   3.419 -0.2532  1.0862  0.3448
 1969SOL    HW1 6806   1.209   2.963   3.385 -0.6832  0.4849 -1.6532
 1969SOL    HW2 6807   1.148   2.816   3.347 -0.3978 -0.5575  1.6170
 1970SOL     OW 6808   1.118   4.558   2.356 -0.3575 -0.4610 -0.3459
 1970SOL    HW1 6809   1.059   4.601   2.287 -0.1250  2.2748  1.0374
 1970SOL    HW2 6810   1.206   4.535   2.315  1.2269  4.5830 -0.3471
 1971SOL     OW 6811   3.810   0.735   1.810  0.2741  0.5414  0.3439
 1971SOL    HW1 6812   3.897   0.710   1.769  0.3198  0.9139  0.2072
 1971SOL    HW2 6813   3.816   0.828   1.847 -0.3276  0.9149 -0.4505
 1972SOL     OW 6814   6.723   2.685   4.305  0.1857  0.5009 -0.0819
 1972SOL    HW1 6815   6.667   2.754   4.349  0.7270  0.8420  0.0896
 1972SOL    HW2 6816   6.790   2.729   4.246  1.2000  0.2039  0.7946
 1973SOL     OW 6817   0.672   0.783   3.271  0.9846 -0.0094 -0.0056
 1973SOL    HW1 6818   0.590   0.831   3.303  1.7774  0.2558  1.7677
 1973SOL    HW2 6819   0.653   0.738   3.184 -1.7034 -1.6753  1.3180
 1974SOL     OW 6820   3.018   5.888   5.626 -0.1425  0.2677  0.4285
 1974SOL    HW1 6821   3.005   5.803   5.676 -0.5100 -0.2042 -0.4501
 1974SOL    HW2 6822   3.108   5.926   5.648  1.2972 -1.8871 -1.3883
 1975SOL     OW 6823   1.230   2.387   0.585  0.6736  0.2624 -0.1044
 1975SOL    HW1 6824   1.276   2.301   0.562 -0.0699 -0.1672 -0.0285
 1975SOL    HW2 6825   1.139   2.388   0.543  0.9365  1.3128 -0.6720
 1976SOL     OW 6826   0.223   0.199   1.437 -0.3145 -0.3415 -0.4186
 1976SOL    HW1 6827   0.219   0.173   1.341  0.3432  1.7251 -1.0622
 1976SOL    HW2 6828   0.259   0.292   1.445 -1.7118  0.0962  1.7356
 1977SOL     OW 6829   0.035   1.023   1.201  0.3218 -0.1297  0.0390
 1977SOL    HW1 6830   0.129   1.021   1.166  0.3603  1.4654 -0.0201
 1977SOL    HW2 6831  -0.023   0.965   1.144  1.0508 -0.2458 -0.6004
 1978SOL     OW 6832   1.707   6.681   7.004 -0.3685 -0.1746 -0.3466
 1978SOL    HW1 6833   1.659   6.754   7.053 -1.7070 -0.1572 -1.6155
 1978SOL    HW2 6834   1.733   6.609   7.069 -0.8029  0.4991  0.6059
 1979SOL     OW 6835   0.706   5.753   5.243  0.6185 -0.8861 -0.1210
 1979SOL    HW1 6836   0.785   5.719   5.193 -0.0007 -1.6267 -0.6275
 1979SOL    HW2 6837   0.622   5.731   5.192  0.1211  0.4366  0.0886
 1980SOL     OW 6838   5.592   7.002   2.119 -0.0445  0.4292  0.1447
 1980SOL    HW1 6839   5.613   7.062   2.196  0.9805 -0.9033  0.9570
 1980SOL    HW2 6840   5.531   6.929   2.150 -1.3228  1.0393 -0.8437
 1981SOL     OW 6841   4.885   2.867   3.630  0.1659  0.7466  0.2010
 1981SOL    HW1 6842   4.853   2.802   3.560 -0.1214  0.7180  0.3545
 1981SOL    HW2 6843   4.967   2.831   3.674  0.3537  0.7689 -0.1286
 1982SOL     OW 6844   3.063   3.484   5.523 -0.6745  0.3373 -0.1392
 1982SOL    HW1 6845   3.045   3.478   5.425 -1.1422  1.3977 -0.1364
 1982SOL    HW2 6846   3.015   3.563   5.561  1.5416  1.4976  0.4491
 1983SOL     OW 6847   4.339   5.468   3.159 -0.5434 -0.4429 -0.1018
 1983SOL    HW1 6848   4.286   5.540   3.114  0.8829  0.7393  0.0168
 1983SOL    HW2 6849   4.297   5.379   3.141 -1.6207  0.2808 -1.3608
 1984SOL     OW 6850   2.279   1.073   3.557 -0.5921 -0.7602 -0.0016
 1984SOL    HW1 6851   2.235   0.990   3.592 -2.5514  0.2628  0.0552
 1984SOL    HW2 6852   2.210   1.140   3.531  0.9084  1.9259  2.3866
 1985SOL     OW 6853   0.614   1.681   2.416 -0.2702  0.0950 -0.0426
 1985SOL    HW1 6854   0.566   1.708   2.500  2.9772 -3.5905  3.4390
 1985SOL    HW2 6855   0.699   1.733   2.408  0.5117 -1.0878  0.3013
 1986SOL     OW 6856   1.413   0.684   2.647 -0.2047 -0.0628 -1.0153
 1986SOL    HW1 6857   1.454   0.776   2.638 -0.0175 -0.2698 -2.7192
 1986SOL    HW2 6858   1.446   0.642   2.731  1.1719  0.7451 -1.0982
 1987SOL     OW 6859   3.904   1.131   3.005  0.8876 -0.1895  0.3259
 1987SOL    HW1 6860   3.804   1.133   3.001  0.8467 -0.7343  1.0546
 1987SOL    HW2 6861   3.937   1.211   3.055  0.8354  0.0955 -0.0847
 1988SOL     OW 6862   5.902   6.725   4.715 -0.7783 -0.0245  0.3109
 1988SOL    HW1 6863   5.993   6.689   4.692 -0.8020  0.7813 -1.2093
 1988SOL    HW2 6864   5.899   6.749   4.811  1.7771  3.0632 -0.2257
 1989SOL     OW 6865   2.328   6.709   3.127  0.3906  0.2219  0.6746
 1989SOL    HW1 6866   2.400   6.755   3.179  0.0699  0.3374  1.0285
 1989SOL    HW2 6867   2.333   6.610   3.143  0.1733  0.2748  1.0847
 1990SOL     OW 6868   1.607   2.087   6.368  0.1841 -0.4249  0.3325
 1990SOL    HW1 6869   1.651   2.067   6.281 -0.8212 -1.8643  0.1162
 1990SOL    HW2 6870   1.620   2.184   6.391  0.1017  0.0796 -1.5983
 1991SOL     OW 6871   2.094   1.050   2.331  0.2857 -0.3454  0.7105
 1991SOL    HW1 6872   2.170   1.049   2.265 -3.2539 -0.6630 -3.9072
 1991SOL    HW2 6873   2.071   1.145   2.353 -0.3677 -0.0383 -1.1370
 1992SOL     OW 6874   5.310   2.518   6.364 -0.1942 -0.2792  0.1641
 1992SOL    HW1 6875   5.217   2.481   6.352 -1.0246  1.1096  1.8904
 1992SOL    HW2 6876   5.354   2.527   6.274 -2.7757  1.6271 -1.0345
 1993SOL     OW 6877   0.711   4.180   5.982 -0.1743 -0.1524 -0.4418
 1993SOL    HW1 6878   0.787   4.184   5.918  0.1566  1.4599  0.0172
 1993SOL    HW2 6879   0.733   4.115   6.055  0.2227 -0.6240 -0.9707
 1994SOL     OW 6880   0.711   5.413   6.052 -0.6385  0.0395  0.6492
 1994SOL    HW1 6881   0.726   5.384   5.958  0.4251 -1.4130  1.2358
 1994SOL    HW2 6882   0.651   5.493   6.053 -0.7555  0.0134 -1.2393
 1995SOL     OW 6883   6.569   1.354   5.380  0.0727  0.2963 -0.1985
 1995SOL    HW1 6884   6.558   1.327   5.284 -1.0761 -1.0454  0.2807
 1995SOL    HW2 6885   6.498   1.419   5.404 -0.2822 -0.1685  0.0184
 1996SOL     OW 6886   0.714   2.795   2.929  0.0125 -0.0950 -0.2076
 1996SOL    HW1 6887   0.695   2.891   2.907 -1.1960 -0.6802 -1.9318
 1996SOL    HW2 6888   0.731   2.786   3.027 -1.8041  1.6094  0.3350
 1997SOL     OW 6889   3.182   3.956   4.565 -0.0385  0.2723  0.4542
 1997SOL    HW1 6890   3.091   3.917   4.582 -1.0957  1.9618 -0.9923
 1997SOL    HW2 6891   3.221   3.988   4.652 -0.3232 -1.4294  1.2502
 1998SOL     OW 6892   1.646   5.202   1.746  0.1587 -0.1370 -0.1315
 1998SOL    HW1 6893   1.731   5.198   1.693  0.3973  0.9894  0.1420
 1998SOL    HW2 6894   1.576   5.251   1.694  0.2215  0.4782  0.3511
 1999SOL     OW 6895   0.774   2.051   3.682  0.4051 -0.6698 -0.2302
 1999SOL    HW1 6896   0.827   2.135   3.693  0.3506 -0.3302 -2.1506
 1999SOL    HW2 6897   0.723   2.055   3.596 -0.2250 -2.3425  0.0289
 2000SOL     OW 6898   6.068   6.884   6.939 -0.0915  1.2287  0.1349
 2000SOL    HW1 6899   6.010   6.847   6.866  1.1243  1.2564 -0.8765
 2000SOL    HW2 6900   6.148   6.826   6.951 -0.4840  0.9713  1.7899
 2001SOL     OW 6901   6.444   5.560   1.827 -0.0479  0.1028  0.6749
 2001SOL    HW1 6902   6.425   5.471   1.787  0.3172  0.7504 -1.0336
 2001SOL    HW2 6903   6.542   5.571   1.839 -0.1771 -0.2921  2.3453
 2002SOL     OW 6904   1.400   3.009   4.976  0.5172 -0.3425 -0.1520
 2002SOL    HW1 6905   1.459   2.932   5.000  0.9801 -0.2732 -1.0308
 2002SOL    HW2 6906   1.340   3.029   5.053 -0.7235 -2.5968 -0.4277
 2003SOL     OW 6907   7.007   5.482   0.106  0.2374 -0.3967  0.0936
 2003SOL    HW1 6908   7.103   5.467   0.131 -0.0124 -1.7975  0.3047
 2003SOL    HW2 6909   6.982   5.420   0.032 -0.1319  0.9717 -0.9559
 2004SOL     OW 6910   1.892   3.428   2.963 -0.1265  0.4276  0.0625
 2004SOL    HW1 6911   1.850   3.494   3.026 -1.2181  1.5012 -1.7105
 2004SOL    HW2 6912   1.838   3.343   2.963 -0.1716  0.4534  0.4811
 2005SOL     OW 6913   2.759   2.106   4.168  0.4693 -0.6875  0.4708
 2005SOL    HW1 6914   2.752   2.140   4.074  0.1666  0.0582  0.7511
 2005SOL    HW2 6915   2.808   2.019   4.169  1.8275  0.0416 -0.2118
 2006SOL     OW 6916   0.037   5.622   2.297 -0.1258  0.1419  0.3070
 2006SOL    HW1 6917   0.005   5.594   2.207 -2.4170 -0.0856  1.1198
 2006SOL    HW2 6918  -0.028   5.686   2.337  0.0843 -0.8323  2.3392
 2007SOL     OW 6919   5.747   6.865   3.199  0.3348  0.2598  0.4615
 2007SOL    HW1 6920   5.758   6.781   3.252  0.4830  0.3188  0.5258
 2007SOL    HW2 6921   5.720   6.843   3.106  0.2440  0.1473  0.5135
 2008SOL     OW 6922   5.656   1.904   1.412 -0.0145  0.2402  0.5560
 2008SOL    HW1 6923   5.632   1.969   1.339 -1.4231  0.5798  1.2843
 2008SOL    HW2 6924   5.621   1.814   1.388 -0.4910  0.3551  0.8002
 2009SOL     OW 6925   0.485   1.836   2.628  0.1151  0.2025  0.4993
 2009SOL    HW1 6926   0.515   1.927   2.657 -2.2256  0.5649  1.9918
 2009SOL    HW2 6927   0.436   1.842   2.541 -0.7089  0.5045  0.9779
 2010SOL     OW 6928   6.137   3.434   2.974 -0.0232 -0.0720 -0.6082
 2010SOL    HW1 6929   6.105   3.518   3.016 -1.3795 -0.3066 -1.1336
 2010SOL    HW2 6930   6.100   3.355   3.023 -2.3763 -0.3573 -2.6913
 2011SOL     OW 6931   0.119   6.256   2.167  0.0694 -0.2747 -0.8319
 2011SOL    HW1 6932   0.185   6.289   2.235  0.9909  1.3046 -2.4308
 2011SOL    HW2 6933   0.154   6.173   2.124 -0.0954 -0.7650 -0.0346
 2012SOL     OW 6934   0.783   4.455   6.346  0.0329  0.6545 -0.1054
 2012SOL    HW1 6935   0.752   4.477   6.253 -0.2423  0.9510  0.0545
 2012SOL    HW2 6936   0.777   4.357   6.361 -0.7881  0.6941 -0.1013
 2013SOL     OW 6937   0.275   4.053   6.597 -0.4126  0.4155  0.2585
 2013SOL    HW1 6938   0.221   4.103   6.664  1.4125  1.1268  1.2900
 2013SOL    HW2 6939   0.301   4.114   6.522  1.1208  0.8634  1.1039
 2014SOL     OW 6940   0.210   1.873   2.009 -0.1907 -0.0184  0.6365
 2014SOL    HW1 6941   0.254   1.873   2.099 -0.4553 -1.1219  0.7805
 2014SOL    HW2 6942   0.277   1.899   1.940  0.2084  0.1079  1.0599
 2015SOL     OW 6943   5.685   0.082   1.688 -0.1131  0.0978  0.0865
 2015SOL    HW1 6944   5.685   0.015   1.763 -2.9179 -0.0851  0.0136
 2015SOL    HW2 6945   5.680   0.174   1.725  1.4453  0.2053  0.1229
 2016SOL     OW 6946   3.139   4.018   6.672  0.4382  0.1665 -0.4446
 2016SOL    HW1 6947   3.226   4.041   6.630 -0.5798  3.6217 -0.9298
 2016SOL    HW2 6948   3.065   4.066   6.626 -1.4586 -0.6942  1.5112
 2017SOL     OW 6949   5.425   0.324   2.753  0.2288 -0.0101 -0.1661
 2017SOL    HW1 6950   5.416   0.424   2.744  0.7277 -0.0501 -1.3059
 2017SOL    HW2 6951   5.496   0.292   2.690 -1.2165 -1.3223 -1.2064
 2018SOL     OW 6952   6.488   2.389   6.323  0.1994 -0.1704  0.1814
 2018SOL    HW1 6953   6.556   2.363   6.393  1.2020  0.3892 -0.5612
 2018SOL    HW2 6954   6.516   2.353   6.235  0.0245  0.8578 -0.3083
 2019SOL     OW 6955   3.417   3.009   2.013  0.2352 -0.2793 -0.1991
 2019SOL    HW1 6956   3.479   2.948   2.062 -0.0178  0.7903  1.5421
 2019SOL    HW2 6957   3.323   2.993   2.043  0.2833  1.7284  1.2187
 2020SOL     OW 6958   4.288   1.262   4.178  0.3222  0.1865 -0.5994
 2020SOL    HW1 6959   4.230   1.326   4.227  1.0704 -1.6400  2.9747
 2020SOL    HW2 6960   4.231   1.196   4.130 -0.5353  0.1027  0.4966
 2021SOL     OW 6961   5.462   3.079   4.755 -0.4498  0.1708 -0.2451
 2021SOL    HW1 6962   5.497   3.165   4.791 -1.0166  0.3659 -0.1540
 2021SOL    HW2 6963   5.394   3.041   4.817 -0.2432 -0.3181 -0.3111
 2022SOL     OW 6964   0.946   1.246   2.199 -0.0740 -0.2420  0.2850
 2022SOL    HW1 6965   0.882   1.197   2.258 -1.0784  0.6621 -0.0121
 2022SOL    HW2 6966   0.924   1.344   2.201  2.4352  0.3707  1.5797
 2023SOL     OW 6967   2.852   5.011   3.381  0.9263  0.4831  0.7734
 2023SOL    HW1 6968   2.879   5.049   3.469 -0.0257 -0.7840  1.6585
 2023SOL    HW2 6969   2.925   5.025   3.314  1.3548  2.1332  1.5453
 2024SOL     OW 6970   3.923   4.509   1.486 -0.2168  0.4724 -0.1709
 2024SOL    HW1 6971   3.875   4.585   1.441 -2.1632 -0.6838 -0.1728
 2024SOL    HW2 6972   3.924   4.525   1.585 -1.7557 -0.0602 -0.0454
 2025SOL     OW 6973   1.749   6.727   6.333 -0.2692 -0.2868  0.4828
 2025SOL    HW1 6974   1.844   6.742   6.358 -0.5126  1.7216  0.3160
 2025SOL    HW2 6975   1.744   6.684   6.243  0.4610  0.3723  0.1246
 2026SOL     OW 6976   0.099   2.482   4.208 -0.0001 -0.6391  0.1481
 2026SOL    HW1 6977   0.137   2.435   4.128  0.4068  0.2647 -0.2024
 2026SOL    HW2 6978  -0.001   2.481   4.202  0.0019 -1.2661  0.0428
 2027SOL     OW 6979   1.049   1.781   0.907  0.2022  0.4744 -0.0938
 2027SOL    HW1 6980   1.063   1.872   0.866  0.4601  0.7563  0.5989
 2027SOL    HW2 6981   1.088   1.712   0.846  0.8450  0.9085 -0.1972
 2028SOL     OW 6982   0.922   3.867   6.756 -0.0427 -0.1791 -0.0190
 2028SOL    HW1 6983   0.984   3.869   6.677  1.0231 -0.9546  0.7760
 2028SOL    HW2 6984   0.934   3.782   6.806 -0.5130  0.4182  1.1515
 2029SOL     OW 6985   4.655   5.956   1.760  0.8663  0.1030 -0.4113
 2029SOL    HW1 6986   4.575   5.965   1.819  2.0799  1.0567  1.1717
 2029SOL    HW2 6987   4.627   5.970   1.664 -1.5954 -3.9517 -0.5265
 2030SOL     OW 6988   4.754   6.090   6.109  0.1761 -0.2516 -0.2873
 2030SOL    HW1 6989   4.684   6.132   6.052  0.4974  1.7715  0.7149
 2030SOL    HW2 6990   4.750   6.129   6.201  2.6576 -0.0017 -0.2164
 2031SOL     OW 6991   2.541   1.701   3.055 -0.0230  0.2366  0.3106
 2031SOL    HW1 6992   2.554   1.777   3.119 -1.0448  2.6146 -2.1157
 2031SOL    HW2 6993   2.602   1.712   2.977 -0.4832 -1.2636 -0.3043
 2032SOL     OW 6994   3.455   5.814   0.554  0.3406 -0.0817  0.1148
 2032SOL    HW1 6995   3.494   5.812   0.462 -0.3267 -1.3373 -0.1735
 2032SOL    HW2 6996   3.394   5.893   0.562  1.9440  1.1956  0.1760
 2033SOL     OW 6997   5.703   3.446   4.171 -0.5285  0.0130 -0.1734
 2033SOL    HW1 6998   5.645   3.377   4.213 -0.4049  0.9132  1.5879
 2033SOL    HW2 6999   5.724   3.517   4.239 -0.0019  1.3591 -1.6947
 2034SOL     OW 7000   5.811   5.567   0.461  0.3021  0.0716 -0.1351
 2034SOL    HW1 7001   5.894   5.515   0.481  0.8153  1.2333  0.8845
 2034SOL    HW2 7002   5.829   5.665   0.470 -1.0935  0.3695 -0.2159
 2035SOL     OW 7003   5.950   5.714   6.002  0.4076 -0.0326  0.0396
 2035SOL    HW1 7004   5.886   5.735   6.076  0.0640  1.3685 -0.6223
 2035SOL    HW2 7005   5.925   5.627   5.960 -0.5722  0.0991  0.3204
 2036SOL     OW 7006   4.254   5.781   0.621 -0.1052  0.2618  0.1003
 2036SOL    HW1 7007   4.204   5.725   0.555 -0.9340 -0.4788  1.3309
 2036SOL    HW2 7008   4.350   5.787   0.593 -0.9135  2.2332 -2.6463
 2037SOL     OW 7009   1.572   1.261   4.794  0.1423  0.5668  0.1384
 2037SOL    HW1 7010   1.575   1.223   4.701  1.9305 -1.0722  0.7894
 2037SOL    HW2 7011   1.512   1.341   4.795 -1.4150 -0.4515 -2.0106
 2038SOL     OW 7012   0.532   4.970   0.826  0.3913  0.0995  0.4378
 2038SOL    HW1 7013   0.454   5.032   0.815  0.0535  0.2596  2.9858
 2038SOL    HW2 7014   0.500   4.885   0.869  1.4178 -0.4114  0.2138
 2039SOL     OW 7015   4.173   0.120   1.726 -0.2192 -0.0009 -0.0357
 2039SOL    HW1 7016   4.112   0.066   1.668  0.3323 -1.4697  0.7026
 2039SOL    HW2 7017   4.120   0.165   1.798 -0.7625  0.9804 -1.0150
 2040SOL     OW 7018   6.632   5.344   1.641 -0.2652 -0.0500  0.3792
 2040SOL    HW1 7019   6.644   5.424   1.583 -0.0393  0.7624  1.5087
 2040SOL    HW2 7020   6.662   5.262   1.592  2.1681  0.8798  0.1771
 2041SOL     OW 7021   6.821   1.470   3.617  1.3860  0.4274  0.5513
 2041SOL    HW1 7022   6.834   1.567   3.638  1.1044  0.3671  1.0222
 2041SOL    HW2 7023   6.894   1.417   3.660  1.5301  0.4318  0.3084
 2042SOL     OW 7024   0.096   4.089   4.411  0.0667  0.1217  0.2333
 2042SOL    HW1 7025  -0.004   4.090   4.407  0.1029  0.9561 -0.9807
 2042SOL    HW2 7026   0.129   3.998   4.385 -0.3587 -0.0233  0.1854
 2043SOL     OW 7027   0.786   6.656   3.697  0.2659 -0.3007 -0.3470
 2043SOL    HW1 7028   0.755   6.733   3.753 -0.4754  0.2797 -1.5333
 2043SOL    HW2 7029   0.711   6.591   3.685  0.7500 -0.9955  0.2407
 2044SOL     OW 7030   0.298   2.491   3.874  0.1399  0.4833  0.1434
 2044SOL    HW1 7031   0.360   2.555   3.829  1.1054 -1.0690 -0.8041
 2044SOL    HW2 7032   0.204   2.515   3.852  0.4719  1.6372 -0.0935
 2045SOL     OW 7033   6.955   1.181   1.424 -0.1999 -0.1766  0.4869
 2045SOL    HW1 7034   7.001   1.269   1.439  1.1232 -0.7676  0.0468
 2045SOL    HW2 7035   7.007   1.127   1.358 -1.7380 -0.7499 -0.3149
 2046SOL     OW 7036   0.492   4.585   1.397  0.2156 -0.2349  0.0315
 2046SOL    HW1 7037   0.467   4.668   1.348 -2.1180 -0.3367  0.9409
 2046SOL    HW2 7038   0.410   4.539   1.430  1.5759 -1.4326  1.9744
 2047SOL     OW 7039   3.396   3.515   2.585  0.2103 -0.4499 -0.4078
 2047SOL    HW1 7040   3.356   3.600   2.549  0.4371 -1.0690 -2.2627
 2047SOL    HW2 7041   3.496   3.521   2.581  0.2289 -0.7348 -0.3874
 2048SOL     OW 7042   3.729   5.749   1.128 -0.2062  0.3173  0.0070
 2048SOL    HW1 7043   3.801   5.680   1.134  0.8118  1.3643  0.2793
 2048SOL    HW2 7044   3.694   5.752   1.035 -0.8499 -1.1173  0.1791
 2049SOL     OW 7045   5.183   6.513   1.686  0.1821 -0.6135  0.1191
 2049SOL    HW1 7046   5.235   6.580   1.633  0.6979  0.6689  2.1473
 2049SOL    HW2 7047   5.231   6.425   1.684  1.1807 -0.0804  0.0272
 2050SOL     OW 7048   2.501   4.563   2.796 -0.2626 -0.1094  0.3232
 2050SOL    HW1 7049   2.481   4.542   2.892 -1.9977  1.1601  0.3015
 2050SOL    HW2 7050   2.454   4.497   2.737 -0.2397 -0.1375  0.3365
 2051SOL     OW 7051   6.098   5.484   4.875 -0.0080 -0.3338 -0.0098
 2051SOL    HW1 7052   6.115   5.582   4.867  2.3868 -0.5590  1.3522
 2051SOL    HW2 7053   6.055   5.450   4.792  1.8835  1.3558 -1.7826
 2052SOL     OW 7054   1.495   6.045   0.816  0.6273  0.4265  0.6379
 2052SOL    HW1 7055   1.412   6.100   0.817  1.0417  1.0563  0.4570
 2052SOL    HW2 7056   1.519   6.018   0.910 -0.7803 -1.2935  0.5549
 2053SOL     OW 7057   4.939   0.867   5.414  0.3991  0.2066 -0.0013
 2053SOL    HW1 7058   5.027   0.885   5.371 -0.1338 -0.5290 -1.4376
 2053SOL    HW2 7059   4.943   0.781   5.464  1.2682  1.4458  2.2323
 2054SOL     OW 7060   3.728   3.465   5.861  0.4715 -0.7101 -0.2781
 2054SOL    HW1 7061   3.684   3.407   5.929 -1.0535 -0.5795 -1.1083
 2054SOL    HW2 7062   3.827   3.465   5.876  0.3494 -2.2147  0.7334
 2055SOL     OW 7063   4.592   3.826   1.657 -0.3792  0.3413 -0.6255
 2055SOL    HW1 7064   4.577   3.872   1.570  0.4214 -0.7959 -1.3821
 2055SOL    HW2 7065   4.511   3.773   1.682 -0.9310  1.3502 -0.2370
 2056SOL     OW 7066   4.375   6.596   4.204 -0.5688 -0.1694  0.1729
 2056SOL    HW1 7067   4.353   6.610   4.108 -0.2263 -0.8105  0.0011
 2056SOL    HW2 7068   4.425   6.677   4.238 -1.5323  0.4799  0.0827
 2057SOL     OW 7069   6.815   4.954   2.992 -0.0499 -0.5307 -0.1271
 2057SOL    HW1 7070   6.748   5.022   2.962  1.1093  0.3349 -0.8426
 2057SOL    HW2 7071   6.851   4.905   2.912  0.0217 -1.1370  0.2673
 2058SOL     OW 7072   6.880   7.015   2.547  0.5343 -0.2072 -0.4800
 2058SOL    HW1 7073   6.790   7.014   2.504  0.2349 -0.2975  0.1299
 2058SOL    HW2 7074   6.888   6.936   2.608  0.2761  0.8090  0.9450
 2059SOL     OW 7075   1.723   5.347   4.690  0.0265 -0.0366 -0.5271
 2059SOL    HW1 7076   1.637   5.295   4.689  0.2037 -0.3476 -0.0165
 2059SOL    HW2 7077   1.800   5.284   4.698  0.3335  0.2141 -1.4114
 2060SOL     OW 7078   2.411   6.218   3.272  0.2119 -0.1375 -0.0207
 2060SOL    HW1 7079   2.332   6.158   3.258  0.6953 -1.2802  1.8217
 2060SOL    HW2 7080   2.495   6.163   3.273  0.5232  0.2129  3.4085
 2061SOL     OW 7081   5.884   2.052   1.419 -0.4560  0.7320 -0.1921
 2061SOL    HW1 7082   5.806   2.005   1.462 -0.5849 -1.5522 -2.6279
 2061SOL    HW2 7083   5.850   2.124   1.358 -0.6037  0.5863 -0.2846
 2062SOL     OW 7084   6.883   1.360   2.837  0.0912  0.0215 -0.0778
 2062SOL    HW1 7085   6.848   1.280   2.886 -1.0797 -1.2506 -2.7678
 2062SOL    HW2 7086   6.979   1.343   2.812  0.3647  0.2234  0.7926
 2063SOL     OW 7087   4.487   1.575   2.881  0.0045  0.4293 -0.4022
 2063SOL    HW1 7088   4.508   1.664   2.921 -1.6669  0.6033  0.2003
 2063SOL    HW2 7089   4.407   1.536   2.928 -0.5945 -0.4255 -2.0567
 2064SOL     OW 7090   0.171   3.350   6.521  0.1306 -0.1753 -0.3353
 2064SOL    HW1 7091   0.155   3.379   6.427  1.7967 -0.4052 -0.7208
 2064SOL    HW2 7092   0.248   3.401   6.559  0.7065 -1.4418  0.2484
 2065SOL     OW 7093   4.470   5.239   6.552  0.3618  0.4753  0.5077
 2065SOL    HW1 7094   4.475   5.285   6.463 -0.0848 -0.8485 -0.2231
 2065SOL    HW2 7095   4.375   5.222   6.576  0.5383 -1.9848 -0.2900
 2066SOL     OW 7096   0.245   1.497   4.139 -0.4353  0.0976 -0.2533
 2066SOL    HW1 7097   0.151   1.469   4.122 -0.6498  1.8175 -2.2674
 2066SOL    HW2 7098   0.308   1.443   4.084 -0.2999 -0.4549  0.4287
 2067SOL     OW 7099   1.874   5.166   5.581  0.3207  0.2748 -0.5114
 2067SOL    HW1 7100   1.943   5.128   5.643 -1.0991 -1.8577 -0.1255
 2067SOL    HW2 7101   1.794   5.194   5.634  0.6955  2.4013 -0.9878
 2068SOL     OW 7102   6.499   6.159   0.115 -0.2863  0.3546 -0.2413
 2068SOL    HW1 7103   6.481   6.133   0.020  0.1444 -0.1233 -0.1966
 2068SOL    HW2 7104   6.562   6.236   0.118 -0.1277  0.2281 -0.3376
 2069SOL     OW 7105   6.882   5.893   4.313 -0.1850 -0.3245  0.1940
 2069SOL    HW1 7106   6.853   5.975   4.364  0.3060 -0.5679  0.8755
 2069SOL    HW2 7107   6.921   5.827   4.377 -0.2557 -0.9476 -0.4069
 2070SOL     OW 7108   0.884   1.536   4.134  0.1137  0.0265  0.0753
 2070SOL    HW1 7109   0.795   1.497   4.158 -0.6885  1.9306  0.3889
 2070SOL    HW2 7110   0.871   1.618   4.078  1.5963  1.0614  1.1369
 2071SOL     OW 7111   2.763   0.848   4.204  0.0040 -0.5343 -0.1840
 2071SOL    HW1 7112   2.727   0.754   4.202 -0.8946 -0.2038 -0.0099
 2071SOL    HW2 7113   2.859   0.847   4.234 -0.3027 -1.3000  0.8158
 2072SOL     OW 7114   1.917   6.305   4.219  0.2741 -0.2167  0.4999
 2072SOL    HW1 7115   1.936   6.271   4.127 -0.6209  0.6146 -0.0056
 2072SOL    HW2 7116   1.840   6.368   4.216 -0.7541 -1.3258  2.0522
 2073SOL     OW 7117   0.749   3.739   5.704 -0.2844 -0.0486 -0.0603
 2073SOL    HW1 7118   0.796   3.807   5.760 -0.6561  0.6996 -0.6412
 2073SOL    HW2 7119   0.806   3.715   5.626  0.0148 -0.7083  0.3543
 2074SOL     OW 7120   2.935   6.408   2.336  0.3644 -0.3164 -0.3598
 2074SOL    HW1 7121   2.890   6.368   2.257  3.1041 -1.9054 -1.2531
 2074SOL    HW2 7122   2.890   6.494   2.360 -2.3066 -1.1760 -1.8075
 2075SOL     OW 7123   2.084   4.756   1.371 -0.1940 -0.9061  0.7324
 2075SOL    HW1 7124   2.024   4.717   1.301  2.5433 -1.7990 -1.3194
 2075SOL    HW2 7125   2.144   4.685   1.407  0.7441  0.2184  1.4695
 2076SOL     OW 7126   1.381   3.405   5.971  0.1292 -0.1023  0.2569
 2076SOL    HW1 7127   1.349   3.446   5.885  0.5124  0.8453  0.5595
 2076SOL    HW2 7128   1.302   3.383   6.029 -0.0799  0.1752  0.0805
 2077SOL     OW 7129   2.321   4.990   3.882  0.3642 -0.2705 -0.0026
 2077SOL    HW1 7130   2.289   4.979   3.788 -1.2723  1.2320  0.3353
 2077SOL    HW2 7131   2.293   4.911   3.937  1.4090 -1.1955 -0.7611
 2078SOL     OW 7132   3.516   3.879   3.327  0.2442  0.3130 -0.4641
 2078SOL    HW1 7133   3.530   3.855   3.424  0.9595  0.7268 -0.4582
 2078SOL    HW2 7134   3.519   3.978   3.317  1.5839  0.2347 -1.1024
 2079SOL     OW 7135   1.323   2.268   4.962 -0.6547  0.4085  0.6107
 2079SOL    HW1 7136   1.390   2.282   4.888  0.6684  1.9775  2.0277
 2079SOL    HW2 7137   1.364   2.294   5.049 -3.4817  2.6064  1.4289
 2080SOL     OW 7138   1.732   2.274   2.933  0.4209 -0.9326  0.0854
 2080SOL    HW1 7139   1.745   2.260   3.031 -1.6266 -1.3741  0.3464
 2080SOL    HW2 7140   1.638   2.248   2.908  1.4097 -2.6026 -2.3098
 2081SOL     OW 7141   5.677   6.516   6.746  0.0707  0.1195  0.1860
 2081SOL    HW1 7142   5.583   6.532   6.716  0.0873  1.4298  0.7749
 2081SOL    HW2 7143   5.738   6.520   6.667 -0.4547 -1.8904 -0.3875
 2082SOL     OW 7144   6.851   2.495   4.138  0.6072  0.4918  0.4465
 2082SOL    HW1 7145   6.833   2.558   4.063 -0.1410 -0.6827 -0.3961
 2082SOL    HW2 7146   6.782   2.505   4.209  0.1699  0.2558  0.0588
 2083SOL     OW 7147   5.446   4.919   6.414 -0.3866 -0.2066 -0.3948
 2083SOL    HW1 7148   5.422   5.015   6.430 -0.6538 -0.1485 -1.0994
 2083SOL    HW2 7149   5.381   4.879   6.349  0.2559 -0.6056 -0.8044
 2084SOL     OW 7150   6.326   5.930   4.509  0.4881  0.0966  0.5618
 2084SOL    HW1 7151   6.351   5.835   4.525 -1.8394 -0.3282  2.2237
 2084SOL    HW2 7152   6.403   5.990   4.534  1.7453 -1.2852  0.1322
 2085SOL     OW 7153   5.739   0.056   5.126  0.3004  0.1823 -0.2797
 2085SOL    HW1 7154   5.784  -0.009   5.065  1.1292  0.8356 -0.3826
 2085SOL    HW2 7155   5.794   0.139   5.133  0.3081  0.0726  1.4699
 2086SOL     OW 7156   3.984   5.691   3.970  0.5116  0.1005  0.3331
 2086SOL    HW1 7157   4.026   5.604   4.000  0.6329 -0.3717 -1.1082
 2086SOL    HW2 7158   4.057   5.756   3.949  0.4427  0.2270  0.4874
 2087SOL     OW 7159   2.668   5.566   5.957  0.0838 -0.0370 -0.1270
 2087SOL    HW1 7160   2.643   5.476   5.923  2.5029 -0.2682 -1.4654
 2087SOL    HW2 7161   2.637   5.636   5.893 -0.7252  0.0298  0.3152
 2088SOL     OW 7162   3.704   4.395   1.269  0.7248 -0.6463  0.3781
 2088SOL    HW1 7163   3.737   4.302   1.283 -0.8536 -1.7478 -2.4256
 2088SOL    HW2 7164   3.781   4.455   1.246  1.3259 -2.4432 -2.8976
 2089SOL     OW 7165   4.340   0.044   4.200 -0.1832  0.0706  0.2584
 2089SOL    HW1 7166   4.391  -0.009   4.132  0.9113 -1.2895  2.0463
 2089SOL    HW2 7167   4.263  -0.011   4.234 -0.5576  0.6282  0.3246
 2090SOL     OW 7168   4.421   0.508   6.449 -0.7975 -0.1596  0.0162
 2090SOL    HW1 7169   4.380   0.561   6.375 -0.3944 -1.3648 -1.1142
 2090SOL    HW2 7170   4.520   0.503   6.435 -0.5423  0.7179  1.3961
 2091SOL     OW 7171   6.501   1.768   0.760  0.2599  0.4492  0.2060
 2091SOL    HW1 7172   6.504   1.699   0.688 -1.2037 -0.0424  0.5724
 2091SOL    HW2 7173   6.529   1.856   0.723 -1.1544  0.3626 -1.1844
 2092SOL     OW 7174   2.956   5.644   0.428 -0.6287 -0.5065 -0.4443
 2092SOL    HW1 7175   2.989   5.550   0.415 -0.0622 -0.3527 -0.1457
 2092SOL    HW2 7176   2.902   5.672   0.349 -0.4356 -0.9326 -0.7267
 2093SOL     OW 7177   5.849   6.508   5.069 -0.2254  0.7409  0.0455
 2093SOL    HW1 7178   5.945   6.495   5.089 -0.2832 -0.5253 -0.4152
 2093SOL    HW2 7179   5.832   6.489   4.972 -1.4555 -2.5170  0.7503
 2094SOL     OW 7180   3.429   5.840   7.015 -0.0338 -0.1523  0.2743
 2094SOL    HW1 7181   3.338   5.880   7.015 -0.3423 -0.8433 -0.3450
 2094SOL    HW2 7182   3.423   5.742   6.998  0.8470 -0.1546 -0.0907
 2095SOL     OW 7183   1.212   4.126   1.272 -0.9613 -0.6658  0.3495
 2095SOL    HW1 7184   1.233   4.135   1.370  0.7754 -1.2561  0.0630
 2095SOL    HW2 7185   1.221   4.215   1.228  2.7219 -1.0475 -0.0193
 2096SOL     OW 7186   4.081   0.341   2.348 -0.2205 -0.2844 -0.1806
 2096SOL    HW1 7187   4.036   0.314   2.432  0.6486 -0.6868  0.1613
 2096SOL    HW2 7188   4.066   0.271   2.278 -1.0649  0.1186 -0.4215
 2097SOL     OW 7189   3.372   4.062   6.910  0.1194  0.9149 -0.6480
 2097SOL    HW1 7190   3.415   4.060   6.820  0.3195  0.7922 -0.5497
 2097SOL    HW2 7191   3.307   4.137   6.914  0.1359  0.9412 -0.8846
 2098SOL     OW 7192   3.656   1.588   4.906 -0.1993 -0.1181  0.0650
 2098SOL    HW1 7193   3.583   1.616   4.843  0.6703  0.9038 -0.5249
 2098SOL    HW2 7194   3.626   1.603   5.000 -0.6468  0.6125 -0.1778
 2099SOL     OW 7195   0.720   5.234   1.117 -0.4873 -0.2261 -0.1692
 2099SOL    HW1 7196   0.649   5.236   1.047 -0.0032  1.0265 -0.6566
 2099SOL    HW2 7197   0.743   5.328   1.144 -0.0543 -0.6616  1.0482
 2100SOL     OW 7198   5.902   2.526   2.859 -0.2789  0.1820  0.2402
 2100SOL    HW1 7199   5.820   2.474   2.882 -0.8435  0.6493 -0.6618
 2100SOL    HW2 7200   5.975   2.463   2.832 -0.1176 -0.2733  1.6749
 2101SOL     OW 7201   6.950   2.621   1.948 -0.2390 -0.2037 -0.0086
 2101SOL    HW1 7202   6.883   2.604   1.876  0.0893 -1.7484 -0.0038
 2101SOL    HW2 7203   7.034   2.656   1.907 -0.1041 -0.9314 -0.3808
 2102SOL     OW 7204   4.551   5.769   4.971  0.1998  0.0487  0.2810
 2102SOL    HW1 7205   4.528   5.865   4.953 -1.9655 -0.3912  0.3500
 2102SOL    HW2 7206   4.513   5.742   5.059 -1.4441 -1.4785 -0.8018
 2103SOL     OW 7207   3.716   1.128   1.277 -0.2134  0.4804  0.4749
 2103SOL    HW1 7208   3.649   1.189   1.318  0.0715  0.5774  0.7994
 2103SOL    HW2 7209   3.809   1.159   1.299 -0.0647 -0.1415  0.7665
 2104SOL     OW 7210   4.328   6.107   3.856  0.4838 -0.3398 -0.2837
 2104SOL    HW1 7211   4.289   6.157   3.779  1.8623 -0.4884 -1.0930
 2104SOL    HW2 7212   4.427   6.120   3.858  0.5958 -1.2614  0.7958
 2105SOL     OW 7213   2.739   1.210   3.032  0.4173 -0.6397  0.0338
 2105SOL    HW1 7214   2.814   1.145   3.042  0.9882  0.2242  1.8323
 2105SOL    HW2 7215   2.705   1.237   3.122  0.2434  1.5755 -0.6307
 2106SOL     OW 7216   5.109   3.044   1.851  0.2896 -0.3806 -0.4006
 2106SOL    HW1 7217   5.163   3.089   1.923  0.0716 -0.9317  0.1095
 2106SOL    HW2 7218   5.013   3.068   1.862  0.1246 -1.2446  0.0843
 2107SOL     OW 7219   5.106   3.168   2.718 -0.1406  0.2000 -0.0062
 2107SOL    HW1 7220   5.021   3.157   2.666 -0.8803  1.5454  0.8486
 2107SOL    HW2 7221   5.097   3.122   2.806 -0.1110  0.5867  0.2031
 2108SOL     OW 7222   6.350   5.344   6.068 -0.3117  0.6031  0.0686
 2108SOL    HW1 7223   6.351   5.339   5.968 -0.0638 -0.8125  0.1126
 2108SOL    HW2 7224   6.271   5.397   6.098 -0.5321  0.8277 -0.8764
 2109SOL     OW 7225   3.190   1.263   1.056  0.0639 -0.0281  0.4910
 2109SOL    HW1 7226   3.105   1.211   1.063  1.0888 -1.8941 -0.1508
 2109SOL    HW2 7227   3.177   1.339   0.992 -0.9812 -0.6118 -0.0250
 2110SOL     OW 7228   3.284   4.918   0.658 -0.4514  0.2281 -0.3970
 2110SOL    HW1 7229   3.236   4.839   0.696 -1.5551  0.5479 -1.0662
 2110SOL    HW2 7230   3.230   5.000   0.675 -0.2373  0.5757 -1.3400
 2111SOL     OW 7231   6.826   3.665   2.557  0.0572  0.2514 -0.0978
 2111SOL    HW1 7232   6.815   3.623   2.467  0.2697  0.6316 -0.3063
 2111SOL    HW2 7233   6.736   3.675   2.600  0.0573 -0.8865  0.1799
 2112SOL     OW 7234   5.552   1.524   2.945  0.7590  0.8067 -0.2752
 2112SOL    HW1 7235   5.540   1.458   2.871 -0.2329  0.6414  0.0192
 2112SOL    HW2 7236   5.613   1.597   2.915  1.2443  0.1616 -0.8717
 2113SOL     OW 7237   4.617   1.453   6.659 -0.0840  0.0113 -0.4498
 2113SOL    HW1 7238   4.618   1.483   6.563 -3.2406 -2.5489 -1.4640
 2113SOL    HW2 7239   4.629   1.354   6.663  0.2273  0.0841  1.8627
 2114SOL     OW 7240   5.114   2.054   1.542 -0.0423 -0.0787  0.0952
 2114SOL    HW1 7241   5.064   2.139   1.556 -0.7259  0.4270 -3.9594
 2114SOL    HW2 7242   5.199   2.074   1.493  0.6452 -1.5741  0.6399
 2115SOL     OW 7243   0.815   6.455   0.107  0.6464  0.2185 -0.5690
 2115SOL    HW1 7244   0.787   6.440   0.013  1.7962  1.7829 -1.1921
 2115SOL    HW2 7245   0.908   6.491   0.110  0.7295 -0.0086  1.1854
 2116SOL     OW 7246   3.759   5.951   4.604  0.1096 -0.6914 -0.1246
 2116SOL    HW1 7247   3.712   5.927   4.520 -1.1838 -2.6540  1.0692
 2116SOL    HW2 7248   3.813   5.873   4.636  3.0551  0.9828 -0.6240
 2117SOL     OW 7249   0.001   1.524   4.499 -0.1497 -0.1177 -0.0301
 2117SOL    HW1 7250  -0.040   1.435   4.480 -2.4630  0.8984 -0.0143
 2117SOL    HW2 7251   0.014   1.574   4.414 -2.5378  1.0263  0.1890
 2118SOL     OW 7252   6.407   6.070   4.783 -0.0710 -0.3491  0.0596
 2118SOL    HW1 7253   6.408   6.123   4.868  0.2795 -1.3362  0.6802
 2118SOL    HW2 7254   6.428   6.131   4.706 -0.2966  0.5319  0.6766
 2119SOL     OW 7255   3.961   6.077   4.753  0.0679  0.3344 -0.1476
 2119SOL    HW1 7256   4.009   6.035   4.676 -0.6345  0.5112 -0.7006
 2119SOL    HW2 7257   3.863   6.080   4.733 -0.0874  0.6706  0.6240
 2120SOL     OW 7258   4.071   0.184   6.118 -0.3239  0.7974  0.2542
 2120SOL    HW1 7259   4.060   0.113   6.188  1.2211  1.3313  1.0881
 2120SOL    HW2 7260   4.150   0.163   6.061 -0.6369  1.1846 -0.3279
 2121SOL     OW 7261   6.140   3.470   6.852  0.3528  0.2897  0.0476
 2121SOL    HW1 7262   6.080   3.536   6.807 -0.1458  0.1382  0.4809
 2121SOL    HW2 7263   6.217   3.449   6.792 -0.5372 -0.2569 -0.9419
 2122SOL     OW 7264   1.382   6.897   5.462 -0.9839 -0.2190  0.3439
 2122SOL    HW1 7265   1.388   6.941   5.373  0.5984 -1.0221  0.0207
 2122SOL    HW2 7266   1.428   6.808   5.459 -1.7054 -0.6807  1.7185
 2123SOL     OW 7267   6.907   5.920   6.543  0.1824  0.2188  0.3840
 2123SOL    HW1 7268   6.853   6.000   6.516  0.7035  1.5363  2.8764
 2123SOL    HW2 7269   6.860   5.872   6.617  2.0404  1.0583  2.2006
 2124SOL     OW 7270   1.261   3.890   1.798  0.4945  0.3211 -0.1599
 2124SOL    HW1 7271   1.190   3.950   1.761 -1.7323 -0.7053  2.1179
 2124SOL    HW2 7272   1.291   3.826   1.727 -0.6632  0.9704 -1.2757
 2125SOL     OW 7273   0.390   4.057   0.656 -0.0104 -0.3680  0.2193
 2125SOL    HW1 7274   0.442   4.020   0.578 -3.0024 -1.4555 -1.4766
 2125SOL    HW2 7275   0.401   4.156   0.660  0.1561 -0.2685 -1.6995
 2126SOL     OW 7276   1.557   6.907   6.361  0.5158 -0.2385  0.1694
 2126SOL    HW1 7277   1.468   6.863   6.346  0.9331 -0.8319 -0.5954
 2126SOL    HW2 7278   1.625   6.838   6.385  0.9179  0.1381  0.1158
 2127SOL     OW 7279   4.547   6.792   0.573 -0.5364 -0.0103  0.2154
 2127SOL    HW1 7280   4.563   6.817   0.669  1.3507 -0.5895  0.0986
 2127SOL    HW2 7281   4.607   6.717   0.548  0.3123  1.2831 -1.9274
 2128SOL     OW 7282   3.803   5.902   5.682  0.1578  0.2572  0.9626
 2128SOL    HW1 7283   3.884   5.889   5.740 -0.8872  1.9448  2.9293
 2128SOL    HW2 7284   3.755   5.985   5.710 -1.4882  0.0911 -1.1220
 2129SOL     OW 7285   3.655   2.311   5.567 -0.4282 -0.8118  0.0982
 2129SOL    HW1 7286   3.669   2.311   5.468  0.7735 -1.9891  0.2518
 2129SOL    HW2 7287   3.728   2.259   5.612 -1.3675 -0.9405  1.5510
 2130SOL     OW 7288   4.593   6.283   6.000 -0.1657  0.5716  0.1487
 2130SOL    HW1 7289   4.493   6.282   6.004 -0.1719 -1.4407  0.1159
 2130SOL    HW2 7290   4.622   6.329   5.916 -1.1903 -2.1288 -1.8015
 2131SOL     OW 7291   6.946   2.334   4.617 -0.4704  0.6797  0.2158
 2131SOL    HW1 7292   6.972   2.430   4.603  3.8170 -0.1979  0.7333
 2131SOL    HW2 7293   6.975   2.304   4.708 -1.4406 -1.2177 -0.0477
 2132SOL     OW 7294   4.450   4.555   4.065  0.8106 -0.2447  0.4942
 2132SOL    HW1 7295   4.491   4.499   4.137  0.2275 -2.6482 -0.9188
 2132SOL    HW2 7296   4.367   4.598   4.099 -0.8131 -3.2768  0.7320
 2133SOL     OW 7297   5.351   0.334   1.737 -0.5694 -0.3886 -0.3847
 2133SOL    HW1 7298   5.297   0.291   1.809 -0.6296 -2.1529 -1.4330
 2133SOL    HW2 7299   5.293   0.395   1.684 -0.9208 -0.3483  0.0445
 2134SOL     OW 7300   0.204   3.392   1.896 -0.1804  0.6156  0.0299
 2134SOL    HW1 7301   0.212   3.355   1.803 -1.4496 -0.6234  0.3851
 2134SOL    HW2 7302   0.180   3.489   1.892  1.7114  1.1045 -0.9148
 2135SOL     OW 7303   4.043   2.089   6.111  0.5264  0.2589  0.2268
 2135SOL    HW1 7304   3.974   2.040   6.165 -0.6778  1.1267 -0.4877
 2135SOL    HW2 7305   4.082   2.163   6.166 -1.0647  1.4668 -0.1935
 2136SOL     OW 7306   6.089   0.965   3.219 -0.3462 -0.1951 -0.3870
 2136SOL    HW1 7307   6.038   1.049   3.199 -0.7581 -0.6803 -1.4973
 2136SOL    HW2 7308   6.164   0.985   3.282  0.3653  1.2742 -1.6320
 2137SOL     OW 7309   5.909   6.763   4.285 -0.4305  0.5878  0.2389
 2137SOL    HW1 7310   5.816   6.767   4.248 -0.3544  0.1999 -0.0047
 2137SOL    HW2 7311   5.929   6.669   4.314 -0.6798  0.9985  1.7935
 2138SOL     OW 7312   6.969   2.631   1.335  0.2902  0.1575 -0.3945
 2138SOL    HW1 7313   6.977   2.531   1.326  0.1141  0.2391 -1.5835
 2138SOL    HW2 7314   6.882   2.653   1.379  1.6691 -0.3017  2.8718
 2139SOL     OW 7315   0.116   6.889   4.305 -0.1298 -0.1744 -0.4056
 2139SOL    HW1 7316   0.208   6.875   4.270  0.1431 -0.9463  0.5770
 2139SOL    HW2 7317   0.116   6.882   4.405 -1.4858 -1.7610 -0.4613
 2140SOL     OW 7318   3.773   5.601   3.686  0.2555 -0.0444  0.0551
 2140SOL    HW1 7319   3.800   5.538   3.758 -0.9645 -0.1453  0.4501
 2140SOL    HW2 7320   3.694   5.564   3.637 -1.0109  1.5250  0.8243
 2141SOL     OW 7321   5.167   2.263   6.278 -0.4885 -0.5181 -0.1141
 2141SOL    HW1 7322   5.254   2.234   6.318  0.7300  0.9522 -1.5967
 2141SOL    HW2 7323   5.143   2.203   6.202  0.0787  0.0104 -0.7263
 2142SOL     OW 7324   1.757   6.086   1.053 -0.1455  0.4348 -0.6291
 2142SOL    HW1 7325   1.802   6.124   1.134 -0.6045 -1.2434  0.4687
 2142SOL    HW2 7326   1.658   6.090   1.065 -0.2578  1.2589 -1.6590
 2143SOL     OW 7327   2.373   4.683   4.515  0.2042 -0.1058  0.4076
 2143SOL    HW1 7328   2.293   4.689   4.574 -0.5542  1.3707 -0.7030
 2143SOL    HW2 7329   2.387   4.588   4.487 -1.3572 -0.3478  0.3548
 2144SOL     OW 7330   3.435   4.115   5.104  0.0634 -0.3238 -0.3114
 2144SOL    HW1 7331   3.524   4.139   5.142 -0.6138  1.8501  0.0663
 2144SOL    HW2 7332   3.441   4.029   5.055  2.2106 -0.5367  0.2511
 2145SOL     OW 7333   6.798   3.374   6.576  0.2621  0.2657 -0.0618
 2145SOL    HW1 7334   6.814   3.316   6.656  0.4191 -0.2308 -0.4479
 2145SOL    HW2 7335   6.854   3.456   6.582 -1.0825  1.1593  1.2583
 2146SOL     OW 7336   3.396   1.753   6.304 -0.0104  0.4105 -0.5290
 2146SOL    HW1 7337   3.494   1.774   6.295 -0.1251  0.9714 -0.5147
 2146SOL    HW2 7338   3.360   1.724   6.215  0.2135  0.0004 -0.4885
 2147SOL     OW 7339   3.051   3.390   1.366  0.7515  0.4958  0.2579
 2147SOL    HW1 7340   3.037   3.404   1.268  1.3813 -1.2567 -0.1158
 2147SOL    HW2 7341   3.072   3.477   1.410 -2.8205  1.9648 -0.5464
 2148SOL     OW 7342   5.113   5.164   4.892  0.2907 -0.3214  0.2735
 2148SOL    HW1 7343   5.164   5.081   4.914 -1.0742 -0.6013  2.7558
 2148SOL    HW2 7344   5.019   5.141   4.869  0.1535  0.4601  0.0180
 2149SOL     OW 7345   1.540   0.441   3.388 -0.2038 -0.0414 -0.2560
 2149SOL    HW1 7346   1.501   0.410   3.301 -0.0549 -1.3636  0.1342
 2149SOL    HW2 7347   1.541   0.541   3.390  0.4347  0.0174 -2.0535
 2150SOL     OW 7348   4.965   3.482   4.906  0.5997  0.0775  0.2886
 2150SOL    HW1 7349   4.911   3.552   4.954  0.6098  0.2973 -0.0217
 2150SOL    HW2 7350   4.966   3.398   4.961 -0.5495 -0.1235  0.0475
 2151SOL     OW 7351   1.862   1.526   0.440 -0.7878  0.4137 -0.4100
 2151SOL    HW1 7352   1.807   1.483   0.368 -0.5038  0.6404 -0.7666
 2151SOL    HW2 7353   1.891   1.616   0.409 -2.8715  1.6667  0.9958
 2152SOL     OW 7354   3.637   1.899   1.657 -0.0334 -0.3645  1.1454
 2152SOL    HW1 7355   3.683   1.880   1.744  1.6210  0.1379  0.4309
 2152SOL    HW2 7356   3.645   1.997   1.636  1.0335 -0.7255 -0.3152
 2153SOL     OW 7357   3.757   5.811   2.164  0.2685 -0.2038 -0.6933
 2153SOL    HW1 7358   3.840   5.770   2.201  0.4837  0.7018 -0.1210
 2153SOL    HW2 7359   3.723   5.879   2.229 -0.4861 -0.0127 -1.2791
 2154SOL     OW 7360   3.938   4.916   2.359 -0.1686 -0.4984 -0.2658
 2154SOL    HW1 7361   3.950   4.918   2.459 -1.0770  1.0584 -0.1407
 2154SOL    HW2 7362   4.009   4.861   2.318  0.0292 -1.4664  1.2741
 2155SOL     OW 7363   0.410   4.125   2.687  0.2748 -0.0574 -0.3452
 2155SOL    HW1 7364   0.317   4.088   2.681  0.1744  0.3703 -1.9863
 2155SOL    HW2 7365   0.461   4.076   2.757 -0.9178 -0.9140 -0.0429
 2156SOL     OW 7366   6.558   4.809   2.622 -0.9069 -0.5783  0.0596
 2156SOL    HW1 7367   6.575   4.711   2.627  0.9345 -0.2692  0.3037
 2156SOL    HW2 7368   6.644   4.859   2.625 -1.8297  1.0855  0.4927
 2157SOL     OW 7369   6.569   6.417   0.498  0.3719 -0.2805  0.4252
 2157SOL    HW1 7370   6.627   6.484   0.453  0.3963  0.1587  1.0996
 2157SOL    HW2 7371   6.483   6.407   0.448  1.2756 -1.4358 -0.9745
 2158SOL     OW 7372   0.014   4.794   2.853  0.0272  0.6359  0.3484
 2158SOL    HW1 7373   0.072   4.857   2.801  1.3414 -0.3899  0.5320
 2158SOL    HW2 7374   0.020   4.703   2.813 -0.5260  0.2584  1.1006
 2159SOL     OW 7375   4.760   5.712   0.660 -0.0929  0.7402  0.1043
 2159SOL    HW1 7376   4.772   5.622   0.618  0.5209  0.7960  0.1515
 2159SOL    HW2 7377   4.845   5.765   0.651  0.1002  0.7101  1.4908
 2160SOL     OW 7378   2.390   1.960   2.229  0.3492  0.4193  0.0374
 2160SOL    HW1 7379   2.373   1.864   2.252  0.8055  0.7769  2.0770
 2160SOL    HW2 7380   2.472   1.966   2.173  0.5884 -0.3550  0.2869
 2161SOL     OW 7381   6.917   1.209   0.390  0.3549  0.1138  0.0008
 2161SOL    HW1 7382   6.962   1.137   0.338 -1.6568 -1.2352  0.0070
 2161SOL    HW2 7383   6.965   1.223   0.476  0.2127 -1.9617  0.4567
 2162SOL     OW 7384   3.589   0.170   3.561 -0.2263 -0.4901 -0.3821
 2162SOL    HW1 7385   3.627   0.182   3.470  0.1008 -0.8025 -0.2873
 2162SOL    HW2 7386   3.626   0.240   3.622 -0.6689 -0.0979 -0.5527
 2163SOL     OW 7387   5.049   4.183   4.630 -0.0981 -0.0022  0.0581
 2163SOL    HW1 7388   5.051   4.270   4.581 -1.4310 -1.2963 -2.4917
 2163SOL    HW2 7389   5.082   4.110   4.570 -0.5312 -1.5086  1.5607
 2164SOL     OW 7390   4.824   1.346   6.331  0.7638  0.1222  0.7343
 2164SOL    HW1 7391   4.745   1.328   6.272  0.8840 -0.4289  0.7412
 2164SOL    HW2 7392   4.814   1.437   6.373  0.4303  0.3062  0.2670
 2165SOL     OW 7393   2.693   3.310   0.959 -0.1704 -0.4342  0.4891
 2165SOL    HW1 7394   2.635   3.352   1.028 -1.2504 -2.6306  0.9958
 2165SOL    HW2 7395   2.658   3.331   0.868 -0.5160  0.0068  0.7240
 2166SOL     OW 7396   3.773   1.274   0.952 -0.0198  0.1596  0.0204
 2166SOL    HW1 7397   3.796   1.243   0.860  0.3203 -2.6091  0.9399
 2166SOL    HW2 7398   3.853   1.262   1.012 -0.7709  0.2434  1.0604
 2167SOL     OW 7399   4.361   2.145   0.362 -0.0019 -0.3601 -0.4109
 2167SOL    HW1 7400   4.296   2.114   0.292  0.8435  0.6803 -1.7201
 2167SOL    HW2 7401   4.312   2.194   0.434 -0.6496  1.1346 -1.7961
 2168SOL     OW 7402   5.408   6.451   4.302 -0.1456 -0.3643  0.1844
 2168SOL    HW1 7403   5.468   6.445   4.222 -0.0750  0.2265  0.1871
 2168SOL    HW2 7404   5.316   6.476   4.273 -0.3765 -1.2117  0.1862
 2169SOL     OW 7405   5.941   5.928   1.391  0.0062 -1.1518 -0.2360
 2169SOL    HW1 7406   5.999   6.000   1.353  0.2557 -0.8205  0.7381
 2169SOL    HW2 7407   5.848   5.963   1.404 -0.4951 -1.7270 -1.9374
 2170SOL     OW 7408   4.187   2.866   5.884 -0.6888  0.6245 -0.3490
 2170SOL    HW1 7409   4.103   2.843   5.932 -0.9536  0.9015 -0.6709
 2170SOL    HW2 7410   4.175   2.848   5.786 -0.5492  1.1425 -0.4653
 2171SOL     OW 7411   0.829   4.758   1.946  0.0892 -0.0996 -0.2837
 2171SOL    HW1 7412   0.795   4.851   1.955  0.8021  0.1203  0.1980
 2171SOL    HW2 7413   0.761   4.702   1.899 -0.4578  0.5942 -0.3283
 2172SOL     OW 7414   0.009   3.748   4.354  0.2915  0.7955 -0.8227
 2172SOL    HW1 7415   0.046   3.684   4.286 -1.1419 -2.3605  1.1377
 2172SOL    HW2 7416  -0.056   3.809   4.309  0.5005 -0.1876 -2.5534
 2173SOL     OW 7417   4.033   4.814   5.086 -0.5849  0.8706  0.3541
 2173SOL    HW1 7418   3.960   4.870   5.047 -1.2868 -0.3925 -0.1992
 2173SOL    HW2 7419   4.095   4.785   5.013 -0.6786  0.2627  0.5166
 2174SOL     OW 7420   4.722   4.622   4.506 -0.0642 -0.5394  0.3409
 2174SOL    HW1 7421   4.702   4.568   4.424 -1.4983 -2.1311  1.6736
 2174SOL    HW2 7422   4.756   4.562   4.579 -0.1941  0.6046  1.3785
 2175SOL     OW 7423   4.169   0.888   0.043 -0.1981 -0.0028  0.6901
 2175SOL    HW1 7424   4.152   0.830  -0.037  1.5897  0.2999  0.0415
 2175SOL    HW2 7425   4.188   0.830   0.122  1.7269 -0.3931  0.0113
 2176SOL     OW 7426   5.288   0.846   6.390  0.4560 -0.1795 -0.7763
 2176SOL    HW1 7427   5.284   0.928   6.448  0.0406 -0.4541 -0.4199
 2176SOL    HW2 7428   5.285   0.874   6.294 -0.8859  0.1589 -0.6458
 2177SOL     OW 7429   6.905   4.229   1.282 -0.3890 -0.1240  0.0549
 2177SOL    HW1 7430   6.886   4.288   1.360 -0.6134  0.3247 -0.3314
 2177SOL    HW2 7431   6.820   4.190   1.247 -0.2963 -0.2910  0.0152
 2178SOL     OW 7432   0.295   5.538   0.674  0.0138 -0.2377  0.4194
 2178SOL    HW1 7433   0.389   5.547   0.643  0.3680 -1.1594  1.1857
 2178SOL    HW2 7434   0.268   5.442   0.672 -0.9913  0.0419 -0.0167
 2179SOL     OW 7435   5.707   4.041   1.103  0.3665 -1.0794 -0.1344
 2179SOL    HW1 7436   5.677   3.948   1.083 -1.9018 -0.1352 -1.4613
 2179SOL    HW2 7437   5.642   4.107   1.065  2.1953  1.0982  0.2428
 2180SOL     OW 7438   2.544   5.097   6.034 -0.0754  0.1662 -0.4731
 2180SOL    HW1 7439   2.644   5.100   6.036  0.0135 -1.7352 -0.1617
 2180SOL    HW2 7440   2.511   5.138   5.949  0.9848  0.4465 -0.7648
 2181SOL     OW 7441   4.734   5.047   5.236 -0.0596  0.2797 -0.1883
 2181SOL    HW1 7442   4.818   5.058   5.182  0.9953 -1.0892  1.0921
 2181SOL    HW2 7443   4.672   4.984   5.189  0.3945 -0.0843 -0.3073
 2182SOL     OW 7444   1.890   2.401   0.941 -0.4095 -0.8680 -0.0759
 2182SOL    HW1 7445   1.952   2.347   0.998 -0.1727 -1.4686 -0.8757
 2182SOL    HW2 7446   1.855   2.478   0.993  1.9719  0.2101  0.0284
 2183SOL     OW 7447   0.470   6.941   6.900  0.1985  0.3049  0.1151
 2183SOL    HW1 7448   0.393   6.934   6.963 -0.9823  0.4864 -1.2507
 2183SOL    HW2 7449   0.461   7.024   6.846  1.5696  0.5176  0.1834
 2184SOL     OW 7450   4.696   1.986   0.653  0.7068  0.4863  0.1624
 2184SOL    HW1 7451   4.704   2.071   0.705  0.1586  0.1990  0.7408
 2184SOL    HW2 7452   4.633   1.924   0.700 -0.5370  0.5625 -1.2917
 2185SOL     OW 7453   6.512   3.142   4.009  0.0893  0.0204 -0.1670
 2185SOL    HW1 7454   6.541   3.238   4.010 -1.1994  0.4553  1.6012
 2185SOL    HW2 7455   6.584   3.085   3.969  1.8924  1.4229  0.9223
 2186SOL     OW 7456   6.524   3.971   0.618  0.1728  0.0605 -0.3615
 2186SOL    HW1 7457   6.569   3.932   0.699 -0.7896  1.1691  0.7502
 2186SOL    HW2 7458   6.483   3.898   0.564 -0.1922 -0.6082  0.7928
 2187SOL     OW 7459   0.823   2.262   2.345  0.1102 -0.0807  0.6955
 2187SOL    HW1 7460   0.754   2.329   2.318 -0.1226 -0.8523 -0.7206
 2187SOL    HW2 7461   0.786   2.203   2.416 -0.0704  0.5889  1.1673
 2188SOL     OW 7462   4.533   6.609   0.110  0.4280  0.1156 -0.0966
 2188SOL    HW1 7463   4.566   6.515   0.117 -1.3515 -0.5774 -0.5435
 2188SOL    HW2 7464   4.487   6.635   0.196  0.8441  0.5675 -0.0029
 2189SOL     OW 7465   3.868   4.379   6.703 -0.2306 -0.2313  0.4950
 2189SOL    HW1 7466   3.956   4.336   6.683 -0.4390  0.0283 -1.1395
 2189SOL    HW2 7467   3.804   4.310   6.736  0.0547 -0.7896 -0.0950
 2190SOL     OW 7468   2.641   6.036   6.290 -0.0798 -0.1685 -0.2130
 2190SOL    HW1 7469   2.605   5.958   6.238  1.2901 -0.5685 -0.6049
 2190SOL    HW2 7470   2.575   6.111   6.288 -1.4084 -1.3002  0.1372
 2191SOL     OW 7471   6.118   6.784   2.381  0.6990  0.4686  0.4381
 2191SOL    HW1 7472   6.126   6.868   2.329 -0.3935  0.4164  0.1599
 2191SOL    HW2 7473   6.198   6.726   2.364  1.4640  1.4363  0.6453
 2192SOL     OW 7474   3.465   2.463   6.028  0.6284  0.8595 -0.7093
 2192SOL    HW1 7475   3.367   2.470   6.046  0.8452 -0.5130  1.3026
 2192SOL    HW2 7476   3.481   2.462   5.929 -1.3676  1.1117 -1.0672
 2193SOL     OW 7477   3.372   3.627   1.153  0.2544 -0.3529  0.1587
 2193SOL    HW1 7478   3.467   3.597   1.143 -0.0808 -0.5983 -3.8068
 2193SOL    HW2 7479   3.311   3.551   1.135 -0.7593 -0.0656  2.1603
 2194SOL     OW 7480   0.637   4.658   2.495 -0.0085  0.3457  0.6786
 2194SOL    HW1 7481   0.618   4.686   2.401 -2.0154  0.3607  1.0452
 2194SOL    HW2 7482   0.699   4.724   2.538  1.5660 -0.0736 -0.8195
 2195SOL     OW 7483   5.945   0.193   1.523 -0.4070  0.4240 -0.2594
 2195SOL    HW1 7484   5.881   0.130   1.480 -2.2013  1.7463  0.3670
 2195SOL    HW2 7485   5.974   0.156   1.611 -0.0916 -0.3033 -0.6606
 2196SOL     OW 7486   4.200   0.701   1.927 -0.4570 -0.2993  1.1113
 2196SOL    HW1 7487   4.186   0.667   2.020 -0.1041  0.2022  1.3464
 2196SOL    HW2 7488   4.160   0.636   1.862 -2.1301  0.1142  1.6721
 2197SOL     OW 7489   2.335   0.479   2.638 -0.1149  0.1182  0.2098
 2197SOL    HW1 7490   2.418   0.535   2.639  0.0973 -0.1787 -0.3062
 2197SOL    HW2 7491   2.332   0.422   2.720 -0.3249  0.8653  0.7358
 2198SOL     OW 7492   6.225   2.554   3.889 -0.6769 -0.4850 -0.3379
 2198SOL    HW1 7493   6.186   2.474   3.845 -0.6392 -0.5831 -0.1963
 2198SOL    HW2 7494   6.154   2.623   3.904 -0.6518 -0.3797 -0.7099
 2199SOL     OW 7495   5.239   0.647   5.159 -0.3401 -0.0232  0.6275
 2199SOL    HW1 7496   5.162   0.584   5.148 -0.1505 -0.4788  1.8593
 2199SOL    HW2 7497   5.241   0.710   5.081 -2.1391  0.1808  0.7023
 2200SOL     OW 7498   0.910   1.527   0.964  0.1338 -0.2263 -0.2080
 2200SOL    HW1 7499   0.902   1.437   0.921  0.4670 -1.0455  1.3996
 2200SOL    HW2 7500   0.974   1.583   0.911 -0.7690 -0.5811 -1.7438
 2201SOL     OW 7501   2.094   0.496   0.335  0.1466 -0.3666  1.0558
 2201SOL    HW1 7502   2.094   0.592   0.361  1.2009 -0.2347  0.6027
 2201SOL    HW2 7503   2.000   0.463   0.330 -0.3543  1.2004 -0.9190
 2202SOL     OW 7504   2.983   0.736   3.836  0.0217 -0.1855 -0.2816
 2202SOL    HW1 7505   2.896   0.766   3.875 -0.7237 -4.0648  1.4985
 2202SOL    HW2 7506   2.970   0.707   3.741 -0.4832 -0.2033 -0.2045
 2203SOL     OW 7507   0.345   0.426   0.875 -0.5458  0.0931 -0.6235
 2203SOL    HW1 7508   0.360   0.331   0.905 -0.5072  0.3381  0.1488
 2203SOL    HW2 7509   0.293   0.475   0.945  1.7391  1.4077  0.2817
 2204SOL     OW 7510   0.496   0.531   0.428 -0.0638 -0.6907  0.2466
 2204SOL    HW1 7511   0.429   0.510   0.499 -0.1794  0.5078  0.5174
 2204SOL    HW2 7512   0.471   0.484   0.344 -0.6139 -1.1561  0.6632
 2205SOL     OW 7513   6.085   4.591   3.643  0.5725  0.1417  0.0053
 2205SOL    HW1 7514   5.991   4.557   3.645  0.7436 -0.3202  2.2407
 2205SOL    HW2 7515   6.123   4.578   3.551 -0.9114 -1.4171 -0.4294
 2206SOL     OW 7516   0.901   0.310   1.762 -0.5957  0.6606  0.1806
 2206SOL    HW1 7517   0.922   0.300   1.859 -0.5953  2.1271  0.3518
 2206SOL    HW2 7518   0.985   0.330   1.711 -0.1263 -2.6494 -0.5709
 2207SOL     OW 7519   1.958   3.155   5.017  0.5899 -0.6675 -0.2456
 2207SOL    HW1 7520   1.932   3.117   4.928  0.2968  1.6334 -1.2190
 2207SOL    HW2 7521   2.021   3.231   5.004 -1.2538  1.2517  1.3135
 2208SOL     OW 7522   2.912   2.274   6.914 -0.9591 -0.1419  0.1135
 2208SOL    HW1 7523   2.978   2.254   6.987  0.2791  0.6531 -0.7388
 2208SOL    HW2 7524   2.936   2.222   6.832  0.3642  2.1967 -1.0958
 2209SOL     OW 7525   4.976   6.342   6.299 -0.1752 -0.0203  0.5936
 2209SOL    HW1 7526   5.040   6.407   6.258 -0.0076 -0.4662  0.1323
 2209SOL    HW2 7527   4.883   6.362   6.268  0.1378 -1.3765 -1.4163
 2210SOL     OW 7528   5.508   5.696   0.288 -0.0797  0.0507  0.1152
 2210SOL    HW1 7529   5.502   5.615   0.347 -0.9082  0.0807  0.0740
 2210SOL    HW2 7530   5.551   5.771   0.338 -1.2338  0.2330  0.8592
 2211SOL     OW 7531   4.693   2.803   5.245 -0.0496  0.1032 -0.2323
 2211SOL    HW1 7532   4.747   2.743   5.304  1.2248  1.2862 -0.1319
 2211SOL    HW2 7533   4.602   2.815   5.285 -0.1740 -1.3591 -0.0170
 2212SOL     OW 7534   0.199   2.040   0.553  0.8538 -0.4176  0.2146
 2212SOL    HW1 7535   0.168   2.123   0.505 -0.0491 -0.2910  0.9979
 2212SOL    HW2 7536   0.122   1.978   0.565  1.4088 -1.1266  0.1540
 2213SOL     OW 7537   5.761   4.104   2.196 -0.2271  0.2501 -0.4480
 2213SOL    HW1 7538   5.846   4.142   2.233  1.5743 -3.7961  0.2363
 2213SOL    HW2 7539   5.689   4.110   2.265  0.2552  1.4850 -0.0326
 2214SOL     OW 7540   2.167   5.395   4.303  0.1137  0.0258 -0.1219
 2214SOL    HW1 7541   2.149   5.297   4.311  1.1326 -0.1739 -0.1725
 2214SOL    HW2 7542   2.100   5.446   4.358  0.8459 -0.8072  1.6413
 2215SOL     OW 7543   5.082   1.408   4.793 -0.2904  0.1712 -0.0330
 2215SOL    HW1 7544   5.088   1.417   4.694  1.9294  1.0775  0.1315
 2215SOL    HW2 7545   5.006   1.464   4.827 -1.9888 -1.2594 -1.2918
 2216SOL     OW 7546   5.296   5.594   6.680  0.5180  0.5550  0.3495
 2216SOL    HW1 7547   5.212   5.551   6.647  1.7453 -0.5676 -1.5505
 2216SOL    HW2 7548   5.360   5.523   6.710  0.8368  1.3875  1.7149
 2217SOL     OW 7549   6.792   4.891   1.581  0.0368 -0.4643  0.1197
 2217SOL    HW1 7550   6.871   4.907   1.639  0.9903 -1.2883 -0.9138
 2217SOL    HW2 7551   6.822   4.857   1.492 -1.4507 -0.2770 -0.4822
 2218SOL     OW 7552   3.754   6.325   5.649 -0.8388  0.0134  0.4105
 2218SOL    HW1 7553   3.747   6.274   5.563  1.1025  1.2488 -0.5816
 2218SOL    HW2 7554   3.713   6.416   5.637  0.9814  0.8504  0.1453
 2219SOL     OW 7555   4.867   6.198   1.288 -0.4335 -0.1032  0.0533
 2219SOL    HW1 7556   4.819   6.214   1.374 -0.1380 -0.3838  0.2732
 2219SOL    HW2 7557   4.864   6.281   1.232 -0.7929  0.0191  0.2526
 2220SOL     OW 7558   3.212   2.517   5.729  0.5284 -0.0279  0.1905
 2220SOL    HW1 7559   3.166   2.554   5.649 -0.1101 -0.3708  0.3911
 2220SOL    HW2 7560   3.194   2.419   5.736  2.2258 -0.4158 -0.3509
 2221SOL     OW 7561   5.438   0.602   2.677  0.1977 -0.7924 -0.1161
 2221SOL    HW1 7562   5.423   0.681   2.617 -1.1113  1.4795  2.9382
 2221SOL    HW2 7563   5.518   0.619   2.734 -0.2989 -1.5172  0.8150
 2222SOL     OW 7564   5.611   0.604   2.445 -0.3741  0.6514  0.1490
 2222SOL    HW1 7565   5.540   0.546   2.406 -0.7691  0.6313  0.8713
 2222SOL    HW2 7566   5.625   0.578   2.541 -0.0259  1.2553  0.2638
 2223SOL     OW 7567   3.910   3.991   5.736  0.7986 -0.0094  0.2372
 2223SOL    HW1 7568   3.838   3.930   5.701 -0.0404 -0.2416  2.2263
 2223SOL    HW2 7569   3.941   4.051   5.663 -1.8063  0.4579 -0.5980
 2224SOL     OW 7570   1.230   4.944   2.010 -0.0416  0.5421 -0.0461
 2224SOL    HW1 7571   1.298   4.976   1.945  0.5430  0.4187  0.4956
 2224SOL    HW2 7572   1.138   4.955   1.971  0.3053  0.4051 -0.9047
 2225SOL     OW 7573   2.282   1.243   6.564 -0.3311  0.4611  0.2546
 2225SOL    HW1 7574   2.220   1.319   6.545 -0.8088  0.0368  0.0926
 2225SOL    HW2 7575   2.366   1.255   6.511 -0.6320  0.5901 -0.2010
 2226SOL     OW 7576   5.689   0.325   4.208 -0.3306  0.3412  0.2339
 2226SOL    HW1 7577   5.774   0.377   4.214 -0.6101  0.7052  1.2495
 2226SOL    HW2 7578   5.709   0.228   4.199  0.1915  0.3927  0.8302
 2227SOL     OW 7579   0.671   1.639   1.052  0.5265 -0.3939  0.0301
 2227SOL    HW1 7580   0.763   1.601   1.040  1.1712  1.6919 -2.4285
 2227SOL    HW2 7581   0.669   1.734   1.020 -2.5626 -0.4716 -0.3393
 2228SOL     OW 7582   3.162   6.736   6.603  0.5210  0.7802 -0.4393
 2228SOL    HW1 7583   3.260   6.753   6.607  0.5167  1.1315 -1.5976
 2228SOL    HW2 7584   3.141   6.677   6.526 -0.3008  1.7026 -0.9498
 2229SOL     OW 7585   0.201   4.610   2.338  0.4916  0.3287  0.2885
 2229SOL    HW1 7586   0.114   4.595   2.384 -0.1705  0.2451 -0.9520
 2229SOL    HW2 7587   0.272   4.554   2.381 -0.0449  0.4248  1.3275
 2230SOL     OW 7588   0.456   2.975   4.100 -0.4497 -0.4236  0.1579
 2230SOL    HW1 7589   0.445   3.056   4.157  0.1440  0.7906 -1.4036
 2230SOL    HW2 7590   0.461   2.894   4.159 -0.0058  0.7504  1.8111
 2231SOL     OW 7591   6.897   2.227   0.396  0.2716 -0.0769 -0.0075
 2231SOL    HW1 7592   6.850   2.230   0.308  0.1101  0.9427  0.0954
 2231SOL    HW2 7593   6.985   2.275   0.388  0.0261  0.4805  0.5036
 2232SOL     OW 7594   1.384   2.432   3.793 -0.3882  0.0723  0.1564
 2232SOL    HW1 7595   1.480   2.427   3.819 -0.6602  0.9546  1.4735
 2232SOL    HW2 7596   1.371   2.504   3.725  0.0153 -0.7629 -0.8288
 2233SOL     OW 7597   1.483   2.833   5.196 -0.0856  0.0258 -0.1200
 2233SOL    HW1 7598   1.481   2.890   5.278  1.6646 -1.0231  0.7232
 2233SOL    HW2 7599   1.419   2.757   5.207 -1.1847  0.8679 -0.5307
 2234SOL     OW 7600   1.566   3.210   2.713 -0.5443 -0.2732  0.0405
 2234SOL    HW1 7601   1.477   3.254   2.725 -1.1788  0.2025 -4.5165
 2234SOL    HW2 7602   1.553   3.116   2.681  0.3116  0.6295 -3.3843
 2235SOL     OW 7603   5.908   1.910   1.034  0.1595 -0.8182  0.3508
 2235SOL    HW1 7604   5.964   1.903   0.951  0.5980  1.4135  0.4183
 2235SOL    HW2 7605   5.965   1.893   1.114 -0.1010 -2.2180  0.2624
 2236SOL     OW 7606   6.641   0.277   5.856  0.7598 -0.4813  0.4370
 2236SOL    HW1 7607   6.628   0.179   5.841  1.0540 -0.5099  0.3729
 2236SOL    HW2 7608   6.700   0.292   5.936  1.7033 -0.3812 -0.2565
 2237SOL     OW 7609   5.429   3.547   4.000  0.0950 -0.0687 -0.1178
 2237SOL    HW1 7610   5.387   3.498   3.924 -0.5840  1.2169 -0.5900
 2237SOL    HW2 7611   5.435   3.486   4.080  0.3243 -1.2525 -1.0177
 2238SOL     OW 7612   5.401   6.801   2.098  0.6432 -0.2514 -0.0122
 2238SOL    HW1 7613   5.341   6.809   2.018  0.2981 -1.6165  0.0771
 2238SOL    HW2 7614   5.347   6.806   2.181  0.8597  0.0513  0.1117
 2239SOL     OW 7615   0.994   0.046   0.085  0.3340 -0.4533  0.0948
 2239SOL    HW1 7616   1.052   0.021   0.007  0.1743 -1.4690  0.2884
 2239SOL    HW2 7617   0.902   0.069   0.052  0.3406 -0.6190 -0.0406
 2240SOL     OW 7618   2.880   6.795   0.654 -0.7224  0.0563  0.3693
 2240SOL    HW1 7619   2.835   6.862   0.595 -0.3777  1.5825  1.7547
 2240SOL    HW2 7620   2.818   6.770   0.728 -0.3113 -0.0160  0.6889
 2241SOL     OW 7621   2.548   1.371   6.801  0.4753  0.3810  0.5851
 2241SOL    HW1 7622   2.483   1.419   6.743  0.0797  0.2245  0.8936
 2241SOL    HW2 7623   2.549   1.274   6.777 -0.3764  0.1420  1.4440
 2242SOL     OW 7624   1.640   4.723   3.380  0.2309  0.5146 -0.4140
 2242SOL    HW1 7625   1.664   4.638   3.426  1.0021  0.4206 -0.9744
 2242SOL    HW2 7626   1.556   4.760   3.420 -0.4756 -0.8397 -0.5987
 2243SOL     OW 7627   1.486   5.512   1.095 -0.4236 -0.1809 -0.1244
 2243SOL    HW1 7628   1.540   5.491   1.177 -0.5708 -1.1747 -0.2763
 2243SOL    HW2 7629   1.548   5.517   1.016 -0.2760  0.8189  0.0428
 2244SOL     OW 7630   5.886   1.180   0.846  0.5842  0.1236 -0.4899
 2244SOL    HW1 7631   5.910   1.083   0.844 -1.3872 -0.4464  0.5108
 2244SOL    HW2 7632   5.936   1.226   0.919 -0.3568 -0.7551  0.7555
 2245SOL     OW 7633   3.014   1.876   3.315  0.2375 -0.4012  0.1762
 2245SOL    HW1 7634   3.006   1.976   3.310 -1.5012 -0.5673 -1.0947
 2245SOL    HW2 7635   3.027   1.849   3.410  2.6167  1.1125  0.3887
 2246SOL     OW 7636   1.986   6.598   3.914  0.3430  0.2579 -0.3704
 2246SOL    HW1 7637   1.909   6.646   3.956 -1.3059 -1.1269 -1.6772
 2246SOL    HW2 7638   2.034   6.544   3.984  0.0680  1.0231  0.4256
 2247SOL     OW 7639   4.720   2.635   1.398 -0.0291  0.2913  0.4355
 2247SOL    HW1 7640   4.643   2.696   1.421 -0.2894 -0.2549  1.0271
 2247SOL    HW2 7641   4.727   2.563   1.466  0.2259 -0.4009 -0.3062
 2248SOL     OW 7642   0.204   3.617   2.796  0.0359 -0.1844  0.0096
 2248SOL    HW1 7643   0.288   3.616   2.742  0.2614 -1.6025  0.3515
 2248SOL    HW2 7644   0.226   3.605   2.892 -0.5272  0.0181  0.1662
 2249SOL     OW 7645   6.317   5.163   0.952  0.9284  0.1986 -0.9207
 2249SOL    HW1 7646   6.262   5.112   1.018 -0.5098  2.9432  0.1604
 2249SOL    HW2 7647   6.262   5.181   0.870  0.8038  1.3722 -0.6005
 2250SOL     OW 7648   5.874   1.342   0.096  0.3592  0.4752  0.1340
 2250SOL    HW1 7649   5.885   1.307   0.189 -1.0945 -1.2125 -0.2753
 2250SOL    HW2 7650   5.835   1.434   0.099 -0.8853 -0.0536  1.2076
 2251SOL     OW 7651   6.190   1.758   1.573  0.2880  0.0251  0.2259
 2251SOL    HW1 7652   6.111   1.814   1.595 -0.1016  0.1564 -1.3947
 2251SOL    HW2 7653   6.257   1.765   1.647 -1.8092 -1.3342  2.4208
 2252SOL     OW 7654   2.608   0.374   3.426  0.7935 -0.0012  0.1812
 2252SOL    HW1 7655   2.548   0.337   3.354  0.4737  0.8384  0.0068
 2252SOL    HW2 7656   2.703   0.354   3.403  0.6718 -0.0526 -0.3002
 2253SOL     OW 7657   4.152   4.802   3.597 -0.4418 -0.1354  0.1000
 2253SOL    HW1 7658   4.069   4.779   3.546 -0.9303  0.6751  0.5007
 2253SOL    HW2 7659   4.184   4.722   3.647 -0.0904 -0.8917 -1.2598
 2254SOL     OW 7660   6.287   0.453   4.709  0.2803  0.1579 -0.1616
 2254SOL    HW1 7661   6.201   0.495   4.681 -0.7306 -0.6435  1.5737
 2254SOL    HW2 7662   6.358   0.475   4.642 -0.6778  2.8431 -0.4149
 2255SOL     OW 7663   5.594   5.562   1.092  0.0099  0.0958 -0.3225
 2255SOL    HW1 7664   5.682   5.522   1.116  0.5122  0.5512 -1.3438
 2255SOL    HW2 7665   5.523   5.491   1.094  0.4734 -0.3590  0.1007
 2256SOL     OW 7666   5.323   4.715   0.889 -0.0082 -0.0527  0.1121
 2256SOL    HW1 7667   5.268   4.759   0.960 -1.6604  0.2781 -1.3048
 2256SOL    HW2 7668   5.320   4.616   0.901  0.3427  0.0263  0.9210
 2257SOL     OW 7669   0.994   2.206   4.195  0.7805  0.2250  0.6895
 2257SOL    HW1 7670   0.907   2.165   4.166  1.2951 -1.1722  1.0575
 2257SOL    HW2 7671   1.056   2.211   4.116  0.4767  0.9405  0.4934
 2258SOL     OW 7672   6.412   6.261   4.564  0.0062  0.1823 -0.3384
 2258SOL    HW1 7673   6.315   6.276   4.581 -0.0544  0.4086 -0.8724
 2258SOL    HW2 7674   6.462   6.347   4.578  0.2214 -0.0655  0.5170
 2259SOL     OW 7675   0.072   3.000   3.738 -0.6170  0.0623  0.6022
 2259SOL    HW1 7676   0.043   2.964   3.649  0.3526 -2.1490  1.1145
 2259SOL    HW2 7677  -0.004   2.994   3.803  0.0487 -3.2587  1.2472
 2260SOL     OW 7678   2.742   2.368   3.651 -0.0482 -0.0005  0.0285
 2260SOL    HW1 7679   2.802   2.440   3.687 -0.5303 -0.2172  1.3143
 2260SOL    HW2 7680   2.648   2.385   3.682 -0.8244  0.7209 -2.5212
 2261SOL     OW 7681   2.005   0.663   1.778  0.5820 -0.0499  0.1229
 2261SOL    HW1 7682   2.052   0.576   1.760  0.4594 -0.3223  1.0819
 2261SOL    HW2 7683   1.906   0.647   1.782  0.6215 -0.0784  1.3787
 2262SOL     OW 7684   4.893   5.668   2.650 -0.7407 -0.1776  0.0095
 2262SOL    HW1 7685   4.872   5.765   2.667  0.4872  0.0349  0.3965
 2262SOL    HW2 7686   4.946   5.661   2.565  0.9866 -0.2610  1.0516
 2263SOL     OW 7687   4.165   0.619   5.416 -0.0580 -0.0733  0.0581
 2263SOL    HW1 7688   4.139   0.650   5.325 -2.1642  1.0671  0.9768
 2263SOL    HW2 7689   4.213   0.693   5.464  0.4931 -0.4475  0.0851
 2264SOL     OW 7690   1.799   4.465   6.531 -0.0838 -0.2736  0.6779
 2264SOL    HW1 7691   1.822   4.371   6.555  0.7102 -0.1062  0.5864
 2264SOL    HW2 7692   1.792   4.520   6.614  1.8425  0.1186  0.6243
 2265SOL     OW 7693   0.288   6.237   6.759  0.1102 -0.2378  0.2314
 2265SOL    HW1 7694   0.250   6.223   6.667  1.7812 -0.1750 -0.5122
 2265SOL    HW2 7695   0.233   6.305   6.808 -0.4169  0.2346 -0.9747
 2266SOL     OW 7696   4.259   5.928   1.919 -0.9010 -0.1177  0.1051
 2266SOL    HW1 7697   4.187   5.913   1.987 -0.1291 -1.0667  0.7399
 2266SOL    HW2 7698   4.325   5.853   1.923 -0.9730 -0.3493 -1.8945
 2267SOL     OW 7699   6.148   3.913   4.738 -0.3116  0.1368 -0.2218
 2267SOL    HW1 7700   6.075   3.981   4.737 -1.4138 -1.0095 -2.2055
 2267SOL    HW2 7701   6.118   3.830   4.693  2.4385 -0.1247 -1.8125
 2268SOL     OW 7702   3.816   6.616   4.420 -0.2599  0.1258 -0.4362
 2268SOL    HW1 7703   3.846   6.706   4.450 -4.4320  1.2215  1.1687
 2268SOL    HW2 7704   3.843   6.547   4.487 -1.1091  1.0262  0.8766
 2269SOL     OW 7705   0.113   4.188   6.775 -0.8864 -0.0374 -0.5259
 2269SOL    HW1 7706   0.130   4.239   6.859 -1.0821  0.3497 -0.7200
 2269SOL    HW2 7707   0.063   4.245   6.710 -1.6905 -0.6854 -0.4976
 2270SOL     OW 7708   6.611   3.829   5.882  0.9327 -0.2559 -0.6808
 2270SOL    HW1 7709   6.692   3.857   5.830  0.8786 -0.8436 -1.0913
 2270SOL    HW2 7710   6.637   3.761   5.950  1.4015  2.0044  1.5609
 2271SOL     OW 7711   0.157   4.692   7.013  0.2933  0.9796  0.6943
 2271SOL    HW1 7712   0.208   4.728   7.091  1.1103 -0.1241  0.6934
 2271SOL    HW2 7713   0.067   4.660   7.045  0.4349  0.9757  1.0981
 2272SOL     OW 7714   5.583   3.419   1.849 -0.0759 -0.0211 -0.3751
 2272SOL    HW1 7715   5.511   3.370   1.800 -0.5371  1.6490 -1.4874
 2272SOL    HW2 7716   5.631   3.480   1.785  1.0672  0.3009  0.7391
 2273SOL     OW 7717   1.990   4.652   6.501  0.1873 -0.0750 -0.2893
 2273SOL    HW1 7718   1.965   4.721   6.433 -0.4117  1.3325  1.2855
 2273SOL    HW2 7719   1.930   4.573   6.492 -1.1434  0.8884 -0.2263
 2274SOL     OW 7720   2.372   4.381   2.382  0.1859  0.0798  0.6439
 2274SOL    HW1 7721   2.383   4.393   2.481 -2.8252 -0.3392  1.1145
 2274SOL    HW2 7722   2.426   4.303   2.352  1.8543  0.7527  1.7559
 2275SOL     OW 7723   5.566   3.711   3.645  0.3746  0.1082 -0.0817
 2275SOL    HW1 7724   5.538   3.764   3.725  0.5249 -0.1111  0.1165
 2275SOL    HW2 7725   5.577   3.615   3.671 -1.6087 -0.3649 -0.8240
 2276SOL     OW 7726   6.759   6.383   3.079  0.4253  0.4175  1.1502
 2276SOL    HW1 7727   6.702   6.384   2.997  1.8749  1.5391  0.0868
 2276SOL    HW2 7728   6.817   6.302   3.078 -1.2424 -0.8639  2.3662
 2277SOL     OW 7729   6.929   0.470   0.854 -0.2628  0.0700  0.3709
 2277SOL    HW1 7730   6.922   0.512   0.944  0.9345  1.8749 -0.3418
 2277SOL    HW2 7731   6.841   0.479   0.807 -0.0109  1.9494  0.1900
 2278SOL     OW 7732   1.761   0.136   1.430  0.2339  0.2716  0.0935
 2278SOL    HW1 7733   1.784   0.225   1.470 -1.1688  0.2493  1.0554
 2278SOL    HW2 7734   1.741   0.071   1.504 -0.1250 -0.4541 -0.6256
 2279SOL     OW 7735   5.582   1.028   0.713  0.1780  0.1465 -0.1485
 2279SOL    HW1 7736   5.529   0.943   0.713 -0.3170  0.4273 -1.8652
 2279SOL    HW2 7737   5.583   1.066   0.806 -0.3959 -1.2204  0.4501
 2280SOL     OW 7738   0.183   3.666   1.880 -0.1209  0.3769 -0.0310
 2280SOL    HW1 7739   0.148   3.705   1.966 -1.3904 -1.9994  0.6298
 2280SOL    HW2 7740   0.176   3.734   1.807 -2.7153  1.2359  0.9095
 2281SOL     OW 7741   3.136   1.730   3.096 -0.4577 -0.5756 -0.3868
 2281SOL    HW1 7742   3.095   1.805   3.147  3.2803 -0.2088  2.5604
 2281SOL    HW2 7743   3.160   1.761   3.004 -1.3624  0.9527 -0.1436
 2282SOL     OW 7744   2.996   3.797   2.025  0.1499  0.1518 -0.2296
 2282SOL    HW1 7745   3.031   3.725   2.085 -0.6150 -0.8881 -1.0025
 2282SOL    HW2 7746   2.972   3.758   1.937 -0.8526  1.2509 -0.4650
 2283SOL     OW 7747   4.119   0.765   6.057  0.0057 -0.0768  0.5747
 2283SOL    HW1 7748   4.052   0.765   5.983  0.4753  0.1284  0.1466
 2283SOL    HW2 7749   4.210   0.782   6.020  0.2125  0.2865  1.2341
 2284SOL     OW 7750   0.112   1.627   1.259  0.0740  0.0976  0.0645
 2284SOL    HW1 7751   0.180   1.554   1.263  2.0327  1.6947 -1.2889
 2284SOL    HW2 7752   0.054   1.615   1.178 -2.7910 -2.3691  2.2541
 2285SOL     OW 7753   6.951   0.869   0.033  0.2426  0.4138 -0.1592
 2285SOL    HW1 7754   6.939   0.797   0.102  0.2449  0.8786  0.3307
 2285SOL    HW2 7755   7.032   0.849  -0.022  1.6646  1.2532  1.5193
 2286SOL     OW 7756   2.895   0.815   2.827 -0.2441 -0.2012  0.6316
 2286SOL    HW1 7757   2.797   0.830   2.818 -0.4587 -1.8274  0.0609
 2286SOL    HW2 7758   2.915   0.778   2.918  0.0034  1.1537  1.1587
 2287SOL     OW 7759   2.404   5.689   1.487 -0.0397  0.1705 -0.2358
 2287SOL    HW1 7760   2.340   5.759   1.457 -0.7344  0.3284  1.5172
 2287SOL    HW2 7761   2.355   5.604   1.505  0.5469 -0.2823 -0.7140
 2288SOL     OW 7762   4.749   6.316   6.787 -0.0129  0.4054  0.1067
 2288SOL    HW1 7763   4.696   6.252   6.731 -0.3961  0.0848  0.8323
 2288SOL    HW2 7764   4.754   6.282   6.881  2.4302 -0.1572 -0.1686
 2289SOL     OW 7765   1.644   3.565   2.910 -0.3967 -0.7900  0.2927
 2289SOL    HW1 7766   1.552   3.603   2.902  0.5304  1.6202  0.1772
 2289SOL    HW2 7767   1.694   3.581   2.825 -0.0460 -2.7585  0.0636
 2290SOL     OW 7768   6.071   3.793   4.100  0.2381  0.4225 -0.1302
 2290SOL    HW1 7769   6.125   3.715   4.068 -0.5343  0.0611 -0.5729
 2290SOL    HW2 7770   6.120   3.878   4.081  1.1916  0.0470  0.5598
 2291SOL     OW 7771   3.945   3.693   2.718  0.1204 -0.2333  0.2727
 2291SOL    HW1 7772   3.866   3.635   2.701  0.0409  0.5031 -2.3081
 2291SOL    HW2 7773   3.919   3.770   2.777 -1.2190  0.2135 -0.8671
 2292SOL     OW 7774   2.262   1.449   6.169  0.3713  0.3525 -0.4618
 2292SOL    HW1 7775   2.168   1.417   6.173  0.1966  0.7648 -1.1591
 2292SOL    HW2 7776   2.264   1.549   6.169  0.8485  0.3563  0.2679
 2293SOL     OW 7777   2.195   2.839   2.706  0.4057 -0.0159 -0.1005
 2293SOL    HW1 7778   2.279   2.788   2.728  0.2000 -0.9010 -1.2523
 2293SOL    HW2 7779   2.153   2.799   2.624 -2.2648 -0.9084  1.5995
 2294SOL     OW 7780   6.100   1.953   5.378 -0.7356  0.6645 -0.9377
 2294SOL    HW1 7781   6.179   1.905   5.341 -1.0247  0.9425 -1.9315
 2294SOL    HW2 7782   6.115   1.970   5.476 -0.0518 -0.2381 -0.8705
 2295SOL     OW 7783   1.568   1.872   4.899 -0.4217 -0.0507 -0.0211
 2295SOL    HW1 7784   1.510   1.936   4.950 -1.1858 -0.4306 -0.3971
 2295SOL    HW2 7785   1.658   1.913   4.883 -0.9357  0.9597 -0.3440
 2296SOL     OW 7786   3.498   6.677   4.641 -0.2571  0.0453  0.0758
 2296SOL    HW1 7787   3.476   6.736   4.563  1.3229  1.3594  0.5657
 2296SOL    HW2 7788   3.511   6.583   4.609 -1.6446  0.1663 -0.9136
 2297SOL     OW 7789   6.010   0.058   6.453  0.3857 -0.2421  0.2918
 2297SOL    HW1 7790   6.074   0.011   6.513 -0.5174 -1.3703  0.4006
 2297SOL    HW2 7791   5.916   0.032   6.476 -0.0555  0.4008 -0.6791
 2298SOL     OW 7792   5.451   6.063   0.445 -0.7699 -0.2241 -0.1033
 2298SOL    HW1 7793   5.408   6.022   0.525  1.0165 -0.6663  0.6761
 2298SOL    HW2 7794   5.532   6.010   0.420 -0.2657  0.9599 -1.0949
 2299SOL     OW 7795   0.893   5.570   1.897  0.4548  0.3282 -0.0991
 2299SOL    HW1 7796   0.843   5.627   1.832  2.0096  2.0732  0.1558
 2299SOL    HW2 7797   0.896   5.616   1.986  0.8750 -0.6413  0.4030
 2300SOL     OW 7798   0.590   6.929   1.745  0.2180  0.7511  0.3177
 2300SOL    HW1 7799   0.590   6.868   1.667  2.9463  0.2620  0.6186
 2300SOL    HW2 7800   0.632   7.016   1.720 -1.4127  1.6562  0.5555
 2301SOL     OW 7801   4.179   3.666   0.567  0.1713  0.5876  0.2488
 2301SOL    HW1 7802   4.134   3.742   0.613 -0.6546  0.6682 -0.6761
 2301SOL    HW2 7803   4.186   3.685   0.469 -0.0736 -0.5372 -0.0033
 2302SOL     OW 7804   1.631   3.853   0.315  0.2264 -0.4342  0.2697
 2302SOL    HW1 7805   1.690   3.860   0.396  0.2742 -2.2063  0.4200
 2302SOL    HW2 7806   1.546   3.806   0.340 -0.5765  0.6444 -0.3219
 2303SOL     OW 7807   6.952   1.098   6.139  0.4075 -0.5222 -0.3317
 2303SOL    HW1 7808   7.016   1.050   6.198 -1.1314 -0.0072  1.8898
 2303SOL    HW2 7809   6.917   1.036   6.069 -1.4037 -2.7428  2.3359
 2304SOL     OW 7810   0.611   0.397   4.516 -0.0374  0.3896 -0.4055
 2304SOL    HW1 7811   0.643   0.304   4.497 -2.3952 -0.5234 -0.2736
 2304SOL    HW2 7812   0.584   0.404   4.612 -2.1035  0.4210 -0.9278
 2305SOL     OW 7813   6.340   3.544   3.801 -0.3576  0.2524 -0.0213
 2305SOL    HW1 7814   6.250   3.523   3.762 -0.4856 -0.0228  0.4148
 2305SOL    HW2 7815   6.398   3.463   3.797  0.4718  0.8892 -1.8836
 2306SOL     OW 7816   5.821   0.393   5.576 -0.3220  0.7035 -0.1701
 2306SOL    HW1 7817   5.743   0.352   5.530 -0.9955  1.9519 -0.1874
 2306SOL    HW2 7818   5.901   0.391   5.515 -0.7250  0.7183 -0.7026
 2307SOL     OW 7819   3.932   6.690   5.297 -0.4688  0.0850  0.4122
 2307SOL    HW1 7820   3.903   6.703   5.392 -1.3217  0.6230  0.0906
 2307SOL    HW2 7821   4.032   6.699   5.290 -0.5610  1.7518  0.9907
 2308SOL     OW 7822   6.020   2.770   4.968 -0.5592  0.6488 -0.2601
 2308SOL    HW1 7823   6.049   2.864   4.985  2.2255 -0.2480  0.4835
 2308SOL    HW2 7824   6.037   2.748   4.872  2.0389 -0.0241  0.2730
 2309SOL     OW 7825   1.385   3.651   2.901 -0.2151 -0.3312  0.0411
 2309SOL    HW1 7826   1.314   3.674   2.967  0.4675 -1.1004  1.0829
 2309SOL    HW2 7827   1.414   3.733   2.852 -0.6421  0.2833  0.7995
 2310SOL     OW 7828   6.783   0.162   3.343 -0.3450 -0.1139  0.5875
 2310SOL    HW1 7829   6.872   0.117   3.341  0.3520  1.2437  0.3813
 2310SOL    HW2 7830   6.718   0.106   3.291  0.5819 -0.6949  0.0120
 2311SOL     OW 7831   3.548   5.980   2.611 -0.5439 -0.1299 -0.5455
 2311SOL    HW1 7832   3.536   5.899   2.668  0.1664 -0.5045 -0.9169
 2311SOL    HW2 7833   3.639   6.019   2.627 -1.2825  1.2966  0.5018
 2312SOL     OW 7834   1.910   6.467   2.338  0.0515 -0.3800  0.5640
 2312SOL    HW1 7835   1.921   6.566   2.339 -1.5898 -0.0983 -1.5319
 2312SOL    HW2 7836   1.836   6.441   2.401 -1.5211  0.1039 -1.0188
 2313SOL     OW 7837   4.987   1.839   6.568 -0.4045 -0.4362  0.0519
 2313SOL    HW1 7838   5.020   1.780   6.494 -0.1830  0.0925 -0.2785
 2313SOL    HW2 7839   4.888   1.849   6.561 -0.2909  0.3087 -0.7109
 2314SOL     OW 7840   4.023   5.192   0.460  0.1585 -0.0805  0.5041
 2314SOL    HW1 7841   4.085   5.118   0.488  0.8703  0.1300 -0.4671
 2314SOL    HW2 7842   4.075   5.277   0.452 -0.5022  0.3578  0.8376
 2315SOL     OW 7843   6.882   1.360   5.123  0.3093 -0.1866  0.7245
 2315SOL    HW1 7844   6.912   1.266   5.112  0.3233 -0.1472  0.4088
 2315SOL    HW2 7845   6.955   1.414   5.165  0.2446 -0.3493  1.0443
 2316SOL     OW 7846   2.458   1.807   1.315  0.6283 -0.0726 -0.1312
 2316SOL    HW1 7847   2.530   1.858   1.360  0.3799  0.0686  0.1107
 2316SOL    HW2 7848   2.446   1.718   1.360  0.3451  0.0895  0.1210
 2317SOL     OW 7849   6.323   6.292   6.577  0.4335  0.3020 -0.6233
 2317SOL    HW1 7850   6.401   6.345   6.546  0.7084  0.2999  0.0404
 2317SOL    HW2 7851   6.331   6.276   6.676 -2.0290  3.1639  0.2091
 2318SOL     OW 7852   1.463   6.263   6.599  0.0931 -0.0888  0.1867
 2318SOL    HW1 7853   1.452   6.268   6.699  0.3533 -0.5029  0.2376
 2318SOL    HW2 7854   1.558   6.246   6.576 -0.0183 -0.3262 -0.1188
 2319SOL     OW 7855   0.557   3.592   5.863  0.7185  0.7822 -0.1242
 2319SOL    HW1 7856   0.600   3.682   5.852 -0.8435  1.5662 -0.0853
 2319SOL    HW2 7857   0.517   3.562   5.777 -0.8490  1.2667  0.3934
 2320SOL     OW 7858   6.018   1.782   6.776  0.1700 -0.2800  0.0820
 2320SOL    HW1 7859   6.064   1.813   6.859  0.1028 -1.2898  0.5114
 2320SOL    HW2 7860   6.074   1.714   6.730 -0.4236 -0.7734  0.0716
 2321SOL     OW 7861   3.318   5.511   0.345  0.1643  0.3708  0.7594
 2321SOL    HW1 7862   3.277   5.545   0.260 -0.1188 -0.0828  0.7105
 2321SOL    HW2 7863   3.247   5.497   0.413  0.3583  0.4665  0.9821
 2322SOL     OW 7864   3.924   0.373   0.202 -0.3197  0.1152  0.1579
 2322SOL    HW1 7865   3.950   0.303   0.270  1.2406  0.1080 -0.4120
 2322SOL    HW2 7866   3.945   0.464   0.238 -0.8562  0.2099  0.2487
 2323SOL     OW 7867   6.841   1.623   0.819 -0.4724 -0.2809 -0.1302
 2323SOL    HW1 7868   6.853   1.596   0.724 -0.5503  0.6034 -0.3963
 2323SOL    HW2 7869   6.824   1.721   0.825 -0.5889 -0.3408  0.7875
 2324SOL     OW 7870   6.569   4.763   0.869  0.6446  0.6914 -0.5586
 2324SOL    HW1 7871   6.630   4.728   0.798 -0.1423 -0.5661 -0.6347
 2324SOL    HW2 7872   6.491   4.809   0.825 -0.6434 -1.4216 -0.6026
 2325SOL     OW 7873   2.796   3.587   6.244  0.5034  0.2105  0.6345
 2325SOL    HW1 7874   2.724   3.628   6.188  1.1518 -0.9810 -1.1673
 2325SOL    HW2 7875   2.875   3.649   6.247  0.8377 -0.1247 -0.6428
 2326SOL     OW 7876   1.838   5.985   0.579 -0.4020  0.2026 -0.2102
 2326SOL    HW1 7877   1.896   5.981   0.498 -0.9205  0.8216 -0.6184
 2326SOL    HW2 7878   1.769   5.913   0.574  0.7762 -1.0426  0.6488
 2327SOL     OW 7879   1.046   6.864   1.317 -0.1368 -0.3705  0.6934
 2327SOL    HW1 7880   1.140   6.898   1.318  0.4017 -1.7364  2.8883
 2327SOL    HW2 7881   0.986   6.933   1.275  1.6807  0.8811  0.0267
 2328SOL     OW 7882   1.297   0.783   1.959 -0.3987  0.1549 -0.4663
 2328SOL    HW1 7883   1.226   0.848   1.933  0.1089  0.5200 -0.9611
 2328SOL    HW2 7884   1.385   0.813   1.922  0.2515  0.3649  1.1724
 2329SOL     OW 7885   4.339   4.602   2.029 -0.2738  0.2909 -0.1777
 2329SOL    HW1 7886   4.320   4.504   2.024 -0.5853  0.3396  0.0593
 2329SOL    HW2 7887   4.438   4.617   2.021 -0.1181 -0.1231  0.8409
 2330SOL     OW 7888   4.599   5.154   1.490  0.0131 -0.7052  0.4859
 2330SOL    HW1 7889   4.589   5.142   1.391  3.9091  1.5319 -0.3665
 2330SOL    HW2 7890   4.553   5.239   1.518  1.9980  0.6612 -0.2090
 2331SOL     OW 7891   5.063   0.130   2.947  0.0832 -0.2785 -0.7015
 2331SOL    HW1 7892   4.977   0.100   2.908 -1.1115  1.3984  0.4988
 2331SOL    HW2 7893   5.115   0.051   2.978 -0.1051 -1.4644 -3.1490
 2332SOL     OW 7894   3.823   5.335   0.705  0.0797  0.2400 -0.0269
 2332SOL    HW1 7895   3.895   5.393   0.743  1.2587 -1.2367  0.0814
 2332SOL    HW2 7896   3.780   5.283   0.778 -0.7198  0.6890 -0.1704
 2333SOL     OW 7897   6.217   1.283   1.706  0.3959 -0.4958  0.1829
 2333SOL    HW1 7898   6.181   1.363   1.658 -0.1571 -0.8796 -0.0472
 2333SOL    HW2 7899   6.270   1.227   1.642  0.6407 -0.4006  0.3026
 2334SOL     OW 7900   6.275   2.927   2.746  0.6176  0.1708  0.0486
 2334SOL    HW1 7901   6.293   2.880   2.832  0.3946 -0.4984 -0.2687
 2334SOL    HW2 7902   6.190   2.893   2.705  1.4339 -0.5327 -1.1324
 2335SOL     OW 7903   5.155   2.372   6.710 -0.1697 -0.6081 -0.1354
 2335SOL    HW1 7904   5.059   2.399   6.704 -0.2639 -0.3951  1.7993
 2335SOL    HW2 7905   5.169   2.288   6.658 -1.8610 -1.7495  1.1171
 2336SOL     OW 7906   5.921   2.853   2.113 -0.1262 -0.4424 -0.0727
 2336SOL    HW1 7907   5.848   2.805   2.064  0.1709  0.1999 -1.1794
 2336SOL    HW2 7908   5.992   2.787   2.139  0.2910 -0.6457 -1.5951
 2337SOL     OW 7909   6.644   1.060   0.645  0.3424 -0.6436 -0.1334
 2337SOL    HW1 7910   6.696   1.056   0.559  0.6455 -1.5260  0.0799
 2337SOL    HW2 7911   6.707   1.079   0.721 -0.3274  3.8675 -0.4330
 2338SOL     OW 7912   2.647   0.301   4.443  0.7698  0.3827  0.4391
 2338SOL    HW1 7913   2.738   0.306   4.400  1.2449  1.0209  1.4840
 2338SOL    HW2 7914   2.644   0.222   4.504  0.4752  0.1205  0.0872
 2339SOL     OW 7915   2.760   3.455   5.639  0.2422  0.1006 -0.4660
 2339SOL    HW1 7916   2.782   3.470   5.543  0.7801 -1.0959 -0.5343
 2339SOL    HW2 7917   2.823   3.389   5.679 -0.9326 -0.5884  0.3091
 2340SOL     OW 7918   1.873   1.100   6.921  0.1190 -0.6622  0.1372
 2340SOL    HW1 7919   1.789   1.140   6.956 -0.8699 -2.9040  0.4766
 2340SOL    HW2 7920   1.854   1.048   6.838  1.4700  0.0882 -0.6772
 2341SOL     OW 7921   3.835   0.803   6.357  0.3305  0.2421  0.1625
 2341SOL    HW1 7922   3.834   0.832   6.261  0.5663 -3.4883 -1.1110
 2341SOL    HW2 7923   3.927   0.814   6.394  0.7847 -0.3306 -0.7658
 2342SOL     OW 7924   4.134   1.064   4.092  0.0473  0.4793 -0.1891
 2342SOL    HW1 7925   4.097   1.043   4.002  0.1941  2.4906 -0.7694
 2342SOL    HW2 7926   4.073   1.026   4.162 -2.0921  1.9624 -1.1357
 2343SOL     OW 7927   6.477   0.056   0.947  0.3918 -0.6526 -0.8104
 2343SOL    HW1 7928   6.440  -0.022   0.897 -0.0244 -0.9661 -0.0249
 2343SOL    HW2 7929   6.533   0.023   1.023 -1.0395 -0.2147  0.4711
 2344SOL     OW 7930   2.948   1.180   3.355 -0.1982  0.7660  0.0173
 2344SOL    HW1 7931   2.921   1.187   3.451  1.0156  0.6337  0.3911
 2344SOL    HW2 7932   3.045   1.205   3.347 -0.1141  0.1217 -1.0667
 2345SOL     OW 7933   1.882   5.336   5.072 -0.5314  0.2187 -0.3972
 2345SOL    HW1 7934   1.840   5.362   5.158 -0.8963 -0.3563 -0.3971
 2345SOL    HW2 7935   1.838   5.254   5.036  0.2759 -0.1262 -0.6351
 2346SOL     OW 7936   4.621   1.339   4.923  0.2829  0.3389  0.3918
 2346SOL    HW1 7937   4.625   1.423   4.870  0.3635 -0.2338 -0.5435
 2346SOL    HW2 7938   4.624   1.260   4.861 -2.1333 -0.3525  1.0472
 2347SOL     OW 7939   2.692   0.634   4.539  0.3564 -0.3517  0.1170
 2347SOL    HW1 7940   2.645   0.697   4.476 -0.1500 -2.3273 -1.6121
 2347SOL    HW2 7941   2.624   0.578   4.587  0.8258 -0.3240  0.8186
 2348SOL     OW 7942   1.708   1.881   5.373  0.5990  0.0973 -0.3931
 2348SOL    HW1 7943   1.794   1.849   5.333  0.7095  1.1966 -1.0603
 2348SOL    HW2 7944   1.706   1.858   5.470  0.7036 -1.8446 -0.8096
 2349SOL     OW 7945   5.314   3.652   1.262 -0.0378  0.4439  0.8613
 2349SOL    HW1 7946   5.405   3.692   1.269  0.0610  0.1034  1.5521
 2349SOL    HW2 7947   5.270   3.684   1.177  0.6860  0.6662  0.5651
 2350SOL     OW 7948   6.536   4.322   1.547  0.1029  0.2329  0.9550
 2350SOL    HW1 7949   6.444   4.285   1.532 -0.0857  0.5747  1.2683
 2350SOL    HW2 7950   6.577   4.278   1.628  1.8848 -3.0744 -1.5015
 2351SOL     OW 7951   2.946   1.989   5.894 -0.4501 -0.3439  0.2919
 2351SOL    HW1 7952   2.873   2.011   5.830 -1.3651 -0.3206  1.3137
 2351SOL    HW2 7953   2.948   2.057   5.967  0.5693 -0.3766  0.3149
 2352SOL     OW 7954   4.999   5.337   1.432  0.1523 -0.0196  0.4913
 2352SOL    HW1 7955   4.973   5.386   1.349 -0.3189 -0.7808  0.1805
 2352SOL    HW2 7956   4.987   5.397   1.511  0.9680  0.8328 -0.0234
 2353SOL     OW 7957   0.351   2.191   1.979 -0.7377  0.1165  0.4199
 2353SOL    HW1 7958   0.402   2.271   1.947  1.2933 -0.6464  1.5532
 2353SOL    HW2 7959   0.276   2.221   2.039 -0.7622  1.2121 -0.1265
 2354SOL     OW 7960   2.836   4.368   5.580 -0.3584 -0.1258  0.6395
 2354SOL    HW1 7961   2.798   4.330   5.496 -0.7025 -0.2004  0.8305
 2354SOL    HW2 7962   2.882   4.455   5.559  0.6887 -0.7670  0.1496
 2355SOL     OW 7963   5.216   1.758   4.435 -0.2763 -0.2040  0.0288
 2355SOL    HW1 7964   5.234   1.722   4.344 -1.2466  0.2831 -0.3690
 2355SOL    HW2 7965   5.206   1.858   4.430  1.8531  0.1364  1.0198
 2356SOL     OW 7966   1.542   0.157   6.324 -0.4346 -0.0413  0.1489
 2356SOL    HW1 7967   1.541   0.057   6.329  1.1364 -0.1328 -0.9216
 2356SOL    HW2 7968   1.523   0.185   6.230  1.0449  0.5923  0.0245
 2357SOL     OW 7969   5.075   2.575   2.319  0.2325 -0.4612 -0.0424
 2357SOL    HW1 7970   5.003   2.610   2.259  0.1554 -1.8168 -0.7743
 2357SOL    HW2 7971   5.036   2.555   2.409  0.0813  0.3985  0.0980
 2358SOL     OW 7972   6.984   4.980   6.987 -0.1065 -0.7653  0.0268
 2358SOL    HW1 7973   7.063   5.027   7.025 -0.0192 -0.3761 -0.6210
 2358SOL    HW2 7974   6.915   4.966   7.058  0.1021 -0.1630  0.3485
 2359SOL     OW 7975   0.760   6.183   2.738 -0.3758 -0.2080  0.2554
 2359SOL    HW1 7976   0.777   6.087   2.715 -0.1410  0.1286 -1.0544
 2359SOL    HW2 7977   0.668   6.192   2.777 -1.2478 -0.6975 -1.5604
 2360SOL     OW 7978   5.233   3.133   3.053  0.5348  0.0347 -0.1329
 2360SOL    HW1 7979   5.137   3.113   3.031 -0.1773  0.7383  2.0836
 2360SOL    HW2 7980   5.266   3.206   2.993 -1.1474  1.5681  0.7056
 2361SOL     OW 7981   6.453   1.482   3.109  0.8149 -0.6007 -0.5595
 2361SOL    HW1 7982   6.544   1.515   3.086  0.4665  0.6874 -0.1788
 2361SOL    HW2 7983   6.427   1.515   3.200 -0.4893  0.1050 -1.1524
 2362SOL     OW 7984   3.517   2.592   6.684  0.3245  0.1667  0.0509
 2362SOL    HW1 7985   3.499   2.665   6.750  0.4569 -1.0951  1.5427
 2362SOL    HW2 7986   3.438   2.532   6.678  1.1866 -1.0943  0.9084
 2363SOL     OW 7987   4.726   0.777   2.658 -0.0513 -0.3298  0.2831
 2363SOL    HW1 7988   4.696   0.698   2.604  0.2705  0.3269 -0.8872
 2363SOL    HW2 7989   4.677   0.859   2.628  2.4407  0.6819 -1.3162
 2364SOL     OW 7990   3.144   6.123   6.309 -0.1276  0.2980  0.2128
 2364SOL    HW1 7991   3.191   6.037   6.329  0.1835  0.0967 -1.2577
 2364SOL    HW2 7992   3.046   6.105   6.294  0.2379 -0.1709 -2.0270
 2365SOL     OW 7993   2.197   0.657   5.023 -0.2104  0.0800  0.0484
 2365SOL    HW1 7994   2.249   0.729   5.069 -0.0855 -1.0321  1.7267
 2365SOL    HW2 7995   2.256   0.610   4.958 -0.4121  1.7329 -1.4172
 2366SOL     OW 7996   5.789   2.107   4.518  0.3173  0.0227  0.8042
 2366SOL    HW1 7997   5.884   2.092   4.545  0.2187 -1.0168  0.6357
 2366SOL    HW2 7998   5.767   2.204   4.524  1.3744  0.2683  0.8828
 2367SOL     OW 7999   4.171   5.882   3.938 -0.1028  0.1640  0.1671
 2367SOL    HW1 8000   4.209   5.856   4.027  1.2153 -0.1247 -0.4555
 2367SOL    HW2 8001   4.226   5.955   3.898 -0.5289  0.1163 -0.5296
 2368SOL     OW 8002   5.249   6.012   3.734  0.3767  0.3949 -0.2726
 2368SOL    HW1 8003   5.339   5.971   3.750 -0.2561 -1.0739 -0.2690
 2368SOL    HW2 8004   5.183   5.939   3.716 -0.6613  1.4984 -1.0475
 2369SOL     OW 8005   6.174   1.267   0.603 -0.0331  0.3828  0.0138
 2369SOL    HW1 8006   6.139   1.229   0.689 -2.7495  3.6344  0.5663
 2369SOL    HW2 8007   6.254   1.324   0.622  0.9117 -0.8770 -0.0621
 2370SOL     OW 8008   0.782   3.450   6.169  0.0483  0.2463 -0.4581
 2370SOL    HW1 8009   0.870   3.497   6.179  0.5249 -0.4845 -1.1141
 2370SOL    HW2 8010   0.715   3.513   6.129  1.2505 -0.1715 -3.3762
 2371SOL     OW 8011   5.840   2.839   2.649 -0.0243 -0.0483  0.2331
 2371SOL    HW1 8012   5.916   2.822   2.586  0.4732 -1.4862  1.1760
 2371SOL    HW2 8013   5.789   2.754   2.663 -0.9835  0.5898  0.6887
 2372SOL     OW 8014   5.455   0.943   3.058 -0.1991 -0.3687 -0.3747
 2372SOL    HW1 8015   5.423   0.851   3.035  1.4858 -1.0091 -0.3580
 2372SOL    HW2 8016   5.554   0.947   3.045 -0.3637  1.7608 -1.3450
 2373SOL     OW 8017   1.318   6.748   6.661 -0.2172 -0.0230  0.2387
 2373SOL    HW1 8018   1.323   6.846   6.641 -0.1599 -0.3245 -1.3140
 2373SOL    HW2 8019   1.236   6.729   6.715 -0.2774  0.8639  0.4683
 2374SOL     OW 8020   4.797   6.219   0.036 -0.3342  0.8189  0.0878
 2374SOL    HW1 8021   4.707   6.261   0.047  0.2181  2.0928 -0.0657
 2374SOL    HW2 8022   4.868   6.288   0.052  0.6582 -0.5190  1.8244
 2375SOL     OW 8023   0.395   2.677   1.481 -0.1742 -0.1727 -0.4025
 2375SOL    HW1 8024   0.427   2.591   1.520 -0.7054  0.7154  2.2098
 2375SOL    HW2 8025   0.435   2.753   1.533 -1.5465  1.0821 -1.1354
 2376SOL     OW 8026   6.199   1.470   3.544 -0.2367 -0.4186 -0.2442
 2376SOL    HW1 8027   6.132   1.414   3.496 -0.2421 -1.5790  1.0572
 2376SOL    HW2 8028   6.247   1.414   3.611  1.7289  0.4858 -0.8072
 2377SOL     OW 8029   4.073   0.303   0.571  0.6401  0.1357 -0.0213
 2377SOL    HW1 8030   4.040   0.332   0.661 -0.1771  0.2982 -0.3689
 2377SOL    HW2 8031   4.123   0.378   0.528 -0.2551  0.5720 -0.3239
 2378SOL     OW 8032   2.185   4.929   0.499  0.3688  0.4518  0.0284
 2378SOL    HW1 8033   2.257   4.859   0.499  2.2173  2.1830  2.1860
 2378SOL    HW2 8034   2.167   4.958   0.405  1.2163 -1.2649 -0.7117
 2379SOL     OW 8035   6.356   5.829   4.798 -0.6609 -0.6283 -0.5078
 2379SOL    HW1 8036   6.374   5.922   4.767 -0.8777 -0.3877  0.0681
 2379SOL    HW2 8037   6.398   5.763   4.735  2.0288 -0.1046  0.6174
 2380SOL     OW 8038   0.047   4.757   6.591 -0.1205 -0.3101 -0.2365
 2380SOL    HW1 8039  -0.012   4.697   6.644  0.4475 -1.5272 -0.9454
 2380SOL    HW2 8040   0.103   4.812   6.653 -0.9322 -0.2162  0.4232
 2381SOL     OW 8041   5.571   5.212   0.375 -0.0102 -0.0743  0.3240
 2381SOL    HW1 8042   5.579   5.300   0.421  0.5427 -0.0949  0.2742
 2381SOL    HW2 8043   5.499   5.217   0.306  1.0196  0.7981 -0.7164
 2382SOL     OW 8044   4.763   3.418   5.820  0.2350 -0.3375  0.3566
 2382SOL    HW1 8045   4.829   3.486   5.850 -1.1489  1.2355 -0.0160
 2382SOL    HW2 8046   4.725   3.371   5.900  0.6207 -0.1255  0.6655
 2383SOL     OW 8047   1.955   0.290   1.803 -0.0309 -0.0269  0.0507
 2383SOL    HW1 8048   2.006   0.316   1.886 -0.6381 -2.9105  1.4594
 2383SOL    HW2 8049   1.920   0.197   1.814 -1.5066  0.0925 -2.8635
 2384SOL     OW 8050   4.215   0.124   5.030  0.1101  0.5121  0.2786
 2384SOL    HW1 8051   4.250   0.177   5.107 -1.7305  0.4530  1.2045
 2384SOL    HW2 8052   4.290   0.105   4.966  1.9229 -0.2531  2.5003
 2385SOL     OW 8053   5.330   3.363   4.174 -0.0566 -0.2567 -0.8459
 2385SOL    HW1 8054   5.400   3.295   4.194 -0.1468 -0.6609 -1.8455
 2385SOL    HW2 8055   5.242   3.317   4.161 -0.3455  0.1664 -0.4087
 2386SOL     OW 8056   5.716   1.567   2.677 -0.5885 -0.1881  0.3047
 2386SOL    HW1 8057   5.786   1.540   2.743  1.8265 -0.8252 -2.2750
 2386SOL    HW2 8058   5.732   1.661   2.647  0.7327 -1.0289 -1.9331
 2387SOL     OW 8059   0.371   5.634   3.176 -0.0350  0.0731  0.4799
 2387SOL    HW1 8060   0.355   5.535   3.180 -2.2595  0.3744  0.1539
 2387SOL    HW2 8061   0.309   5.681   3.239 -0.5098  1.3933 -0.9105
 2388SOL     OW 8062   4.468   5.666   1.395  0.1236  1.3295  0.2749
 2388SOL    HW1 8063   4.526   5.632   1.322 -1.2212 -0.4624 -0.0237
 2388SOL    HW2 8064   4.478   5.765   1.403  2.5852  1.1817 -0.2598
 2389SOL     OW 8065   1.073   6.135   5.862 -0.2995  0.0213 -0.1541
 2389SOL    HW1 8066   1.059   6.049   5.910 -0.0378 -0.1685 -0.4123
 2389SOL    HW2 8067   0.988   6.187   5.861 -0.7161 -0.6608 -0.8289
 2390SOL     OW 8068   2.085   5.759   5.215 -0.0026  0.1256 -0.1006
 2390SOL    HW1 8069   2.092   5.781   5.312  2.3271  0.2043 -0.2296
 2390SOL    HW2 8070   2.129   5.671   5.197  1.2727  0.9618 -1.3221
 2391SOL     OW 8071   2.651   3.463   6.448 -0.4728 -0.2218 -0.6517
 2391SOL    HW1 8072   2.705   3.519   6.385 -0.3835 -0.0698 -0.4426
 2391SOL    HW2 8073   2.707   3.387   6.481 -1.2717 -1.7876 -2.6839
 2392SOL     OW 8074   3.348   2.123   3.734  0.7902  0.0062  0.1751
 2392SOL    HW1 8075   3.324   2.133   3.831 -1.4801 -1.1590 -0.2120
 2392SOL    HW2 8076   3.273   2.155   3.677  1.4855 -0.7134 -1.2027
 2393SOL     OW 8077   4.774   3.987   4.364  0.2265  0.5569 -0.2143
 2393SOL    HW1 8078   4.704   3.922   4.395 -0.7670  1.5989 -0.1764
 2393SOL    HW2 8079   4.802   3.964   4.271 -0.3774  0.2780 -0.3383
 2394SOL     OW 8080   3.847   1.411   6.825 -0.2638 -0.0082  0.6289
 2394SOL    HW1 8081   3.788   1.338   6.789  0.6422  0.0797 -1.1928
 2394SOL    HW2 8082   3.835   1.418   6.924 -0.7388 -2.3019  0.8035
 2395SOL     OW 8083   5.237   5.518   3.304  0.3948 -0.6271  0.0431
 2395SOL    HW1 8084   5.177   5.499   3.227  0.6731  0.6895 -0.5181
 2395SOL    HW2 8085   5.265   5.614   3.302  3.0623 -1.3471 -0.0840
 2396SOL     OW 8086   0.508   2.745   6.155  0.2949  0.5237 -0.2136
 2396SOL    HW1 8087   0.451   2.759   6.236 -1.7153  0.5665 -1.5485
 2396SOL    HW2 8088   0.603   2.766   6.176 -0.1350  0.3334  2.1598
 2397SOL     OW 8089   4.995   1.753   0.854 -0.1705 -0.0219  0.0638
 2397SOL    HW1 8090   5.048   1.686   0.905 -0.9506 -0.4739  0.2839
 2397SOL    HW2 8091   4.938   1.707   0.786 -0.5972  0.4226  0.1103
 2398SOL     OW 8092   0.209   2.955   2.099 -0.0343  0.2644 -0.1304
 2398SOL    HW1 8093   0.200   2.875   2.157 -0.6815  1.3445  1.3297
 2398SOL    HW2 8094   0.295   3.002   2.119 -0.7285  1.2165  0.7795
 2399SOL     OW 8095   5.333   1.484   4.470  0.2276  0.1373  0.3652
 2399SOL    HW1 8096   5.240   1.465   4.503 -0.8721 -1.2720 -3.1148
 2399SOL    HW2 8097   5.336   1.576   4.432  0.6657  0.6689  1.6490
 2400SOL     OW 8098   1.190   5.055   5.927  0.1814  0.2357  0.4797
 2400SOL    HW1 8099   1.218   5.151   5.925 -0.8532  0.5644  0.8336
 2400SOL    HW2 8100   1.122   5.042   5.999  0.2161 -0.7340  0.3460
 2401SOL     OW 8101   6.356   5.284   1.664  0.2939  0.4130  0.4409
 2401SOL    HW1 8102   6.329   5.203   1.715  1.1202 -1.6938 -2.2088
 2401SOL    HW2 8103   6.456   5.292   1.664  0.2469  1.1080  0.1985
 2402SOL     OW 8104   1.360   1.900   4.201  0.0476  0.3887  0.4737
 2402SOL    HW1 8105   1.400   1.976   4.251  0.6067  0.2712  0.2114
 2402SOL    HW2 8106   1.433   1.839   4.169 -0.4039 -0.4381  0.9703
 2403SOL     OW 8107   6.621   6.097   3.296  0.0238 -0.7761  0.4169
 2403SOL    HW1 8108   6.600   6.105   3.199 -1.3077  1.4066  0.8013
 2403SOL    HW2 8109   6.692   6.163   3.321  1.6652 -2.5486  0.6562
 2404SOL     OW 8110   0.373   1.465   0.179 -0.4846  0.1195 -0.5454
 2404SOL    HW1 8111   0.415   1.414   0.104  0.2845 -0.7650  0.4498
 2404SOL    HW2 8112   0.443   1.521   0.223 -0.6416 -0.3238  0.2829
 2405SOL     OW 8113   1.879   2.619   3.202  0.0028 -0.3246 -0.4197
 2405SOL    HW1 8114   1.783   2.607   3.179  0.4099 -2.2091 -1.2836
 2405SOL    HW2 8115   1.897   2.716   3.220 -2.3016 -0.0890  1.0263
 2406SOL     OW 8116   2.475   5.356   1.808  0.3476  0.4304 -0.2149
 2406SOL    HW1 8117   2.456   5.430   1.872  0.0116 -0.0898  0.2971
 2406SOL    HW2 8118   2.507   5.275   1.858 -0.4514 -0.1631 -0.6304
 2407SOL     OW 8119   2.105   1.591   5.568  0.5732 -0.2669  0.4045
 2407SOL    HW1 8120   2.172   1.551   5.506  0.2022  1.2358 -1.0367
 2407SOL    HW2 8121   2.151   1.631   5.647  1.4194  0.9506 -0.6751
 2408SOL     OW 8122   1.486   0.211   3.490  0.4073  0.2708 -0.0130
 2408SOL    HW1 8123   1.567   0.170   3.448  0.5297 -0.7180  1.1468
 2408SOL    HW2 8124   1.482   0.308   3.465  1.7142  0.2412 -0.4478
 2409SOL     OW 8125   3.813   0.350   5.215 -0.2100  0.7021 -0.2752
 2409SOL    HW1 8126   3.882   0.278   5.211  0.6343  1.4866  0.0932
 2409SOL    HW2 8127   3.729   0.317   5.170  0.7654  0.1565 -1.7871
 2410SOL     OW 8128   3.927   0.189   4.874 -0.1270  0.2363 -0.3102
 2410SOL    HW1 8129   3.917   0.163   4.970  0.5230 -1.3869 -0.6393
 2410SOL    HW2 8130   4.024   0.203   4.853 -0.3699  1.8707 -0.4412
 2411SOL     OW 8131   6.161   2.693   6.759 -0.6519  0.3378 -0.2806
 2411SOL    HW1 8132   6.135   2.790   6.759 -2.1326 -0.0281  0.4440
 2411SOL    HW2 8133   6.172   2.661   6.853  0.2187 -0.1136 -0.5248
 2412SOL     OW 8134   3.510   6.517   0.947  0.4638  0.0733 -0.3777
 2412SOL    HW1 8135   3.454   6.466   1.012 -1.2615  0.7575 -1.2653
 2412SOL    HW2 8136   3.476   6.502   0.854  0.8919  1.5563 -0.8066
 2413SOL     OW 8137   5.628   3.966   5.686 -0.8563 -0.1949  0.4118
 2413SOL    HW1 8138   5.580   4.033   5.630  0.7118  1.4930  1.0019
 2413SOL    HW2 8139   5.655   3.888   5.629 -0.3864  0.9016 -0.8982
 2414SOL     OW 8140   2.350   5.941   2.118 -0.2640 -0.1055  0.8097
 2414SOL    HW1 8141   2.373   5.942   2.021  0.9423 -0.9427  1.0650
 2414SOL    HW2 8142   2.345   5.847   2.151  0.0753  0.1835  1.7206
 2415SOL     OW 8143   6.590   2.506   1.468  0.5547 -0.6395 -0.5313
 2415SOL    HW1 8144   6.567   2.414   1.438  0.3253 -0.5105 -0.7505
 2415SOL    HW2 8145   6.526   2.536   1.539  0.7617 -0.7313 -0.3024
 2416SOL     OW 8146   0.082   0.863   1.922  0.3541  0.0608 -0.0875
 2416SOL    HW1 8147  -0.005   0.816   1.911  0.0884  0.6329 -0.4525
 2416SOL    HW2 8148   0.116   0.891   1.832  1.3413 -0.9115 -0.0420
 2417SOL     OW 8149   0.424   3.107   5.351  0.3892  0.0281 -0.0371
 2417SOL    HW1 8150   0.441   3.205   5.342 -0.2008 -0.0093 -2.0878
 2417SOL    HW2 8151   0.325   3.091   5.353  0.4055 -0.6503 -2.2438
 2418SOL     OW 8152   3.130   3.013   3.186  0.5155 -0.0254  0.3068
 2418SOL    HW1 8153   3.120   2.917   3.160 -0.5565 -0.0535  0.7575
 2418SOL    HW2 8154   3.190   3.060   3.120  1.4467 -1.0984  0.3585
 2419SOL     OW 8155   0.592   6.917   2.570 -0.1930 -0.0214  0.3591
 2419SOL    HW1 8156   0.514   6.973   2.599 -0.5445  0.0204 -0.6364
 2419SOL    HW2 8157   0.616   6.853   2.643 -1.4671 -0.3670  0.4940
 2420SOL     OW 8158   1.220   3.446   3.323 -0.1824  0.3686  0.4989
 2420SOL    HW1 8159   1.190   3.462   3.417 -0.1719  0.8444  0.4230
 2420SOL    HW2 8160   1.287   3.516   3.297  0.8025 -0.5114  0.5778
 2421SOL     OW 8161   1.929   6.365   6.674 -0.6957  0.7609  0.1617
 2421SOL    HW1 8162   1.977   6.452   6.677 -0.2273  0.4808  1.2131
 2421SOL    HW2 8163   1.847   6.374   6.617  1.2121  0.9220 -2.7848
 2422SOL     OW 8164   2.103   2.330   2.835 -0.1225 -0.1791  0.0234
 2422SOL    HW1 8165   2.094   2.287   2.925  1.3681  1.3170  0.9666
 2422SOL    HW2 8166   2.043   2.410   2.830  0.0593 -0.0527 -0.1564
 2423SOL     OW 8167   0.581   0.795   4.079  0.2119 -0.6183 -0.0102
 2423SOL    HW1 8168   0.590   0.879   4.026 -1.1475  0.8262  1.9264
 2423SOL    HW2 8169   0.665   0.779   4.132  0.2832 -0.2349 -0.0102
 2424SOL     OW 8170   4.144   1.555   3.283 -0.1787  0.3299 -0.0041
 2424SOL    HW1 8171   4.213   1.624   3.262  0.1986  0.4360  1.4679
 2424SOL    HW2 8172   4.145   1.536   3.381 -1.8207 -0.1240 -0.0448
 2425SOL     OW 8173   1.842   2.148   0.256 -0.6294  0.4078  0.2894
 2425SOL    HW1 8174   1.827   2.231   0.310 -2.5984  0.8980 -0.9173
 2425SOL    HW2 8175   1.821   2.068   0.312 -0.4916  0.7871  0.9041
 2426SOL     OW 8176   3.027   2.215   3.295  0.0893 -0.4903 -0.1515
 2426SOL    HW1 8177   2.956   2.283   3.312  0.0738 -0.5179 -0.1057
 2426SOL    HW2 8178   3.052   2.216   3.198 -0.1508 -0.6541 -0.2160
 2427SOL     OW 8179   5.579   5.814   1.028  0.6530 -0.0415  0.5459
 2427SOL    HW1 8180   5.493   5.848   0.989  0.5843  2.8872  2.8522
 2427SOL    HW2 8181   5.566   5.719   1.060 -1.4654  0.0564  0.1039
 2428SOL     OW 8182   5.233   5.630   2.057  0.1488  0.5461  0.5354
 2428SOL    HW1 8183   5.263   5.624   1.962 -0.5999 -2.2061  0.3615
 2428SOL    HW2 8184   5.257   5.545   2.104 -2.5066  0.4086  1.8323
 2429SOL     OW 8185   2.715   0.693   6.531 -0.1019  0.4427 -0.4381
 2429SOL    HW1 8186   2.645   0.764   6.537  0.0459  0.5116  0.5981
 2429SOL    HW2 8187   2.792   0.716   6.591 -0.1845 -0.7348  0.1340
 2430SOL     OW 8188   6.862   4.769   4.834 -0.1781  0.3070  0.3998
 2430SOL    HW1 8189   6.896   4.845   4.890  1.2821 -1.8393  2.7061
 2430SOL    HW2 8190   6.940   4.714   4.802 -1.0750  0.7024 -2.7785
 2431SOL     OW 8191   4.996   2.823   0.679 -0.5608 -0.7801 -0.0150
 2431SOL    HW1 8192   5.065   2.837   0.609 -2.9221 -2.6281 -3.0066
 2431SOL    HW2 8193   4.958   2.911   0.708 -0.5094  0.0299 -2.2450
 2432SOL     OW 8194   3.543   2.102   5.053  0.1286 -0.3035 -0.2943
 2432SOL    HW1 8195   3.483   2.112   4.973  1.1400 -1.1686 -1.1845
 2432SOL    HW2 8196   3.508   2.159   5.127 -2.4072 -1.5643 -0.4038
 2433SOL     OW 8197   3.625   5.011   4.795  0.2989 -0.0201 -0.4493
 2433SOL    HW1 8198   3.688   5.082   4.824  0.0267  0.4134 -0.8928
 2433SOL    HW2 8199   3.531   5.042   4.807  0.1664  0.2854 -1.9764
 2434SOL     OW 8200   5.395   2.305   4.964 -0.4765 -0.6533 -0.2345
 2434SOL    HW1 8201   5.485   2.302   5.008 -0.3898 -0.8533 -0.4240
 2434SOL    HW2 8202   5.403   2.275   4.870 -0.5947  0.1494 -0.5114
 2435SOL     OW 8203   3.535   1.776   2.201 -0.3366 -0.2250 -0.0272
 2435SOL    HW1 8204   3.451   1.727   2.177  0.4342 -1.6246  0.0710
 2435SOL    HW2 8205   3.589   1.722   2.265  0.2476  1.0501  0.6082
 2436SOL     OW 8206   4.984   6.809   4.719  0.1965  0.2875  0.1920
 2436SOL    HW1 8207   4.952   6.766   4.634  2.5551 -2.7406  0.6460
 2436SOL    HW2 8208   4.915   6.800   4.790 -0.3653 -0.4401 -0.4356
 2437SOL     OW 8209   1.355   3.739   4.281  0.0882  0.0794 -0.3168
 2437SOL    HW1 8210   1.410   3.763   4.361  1.0002 -0.1054 -0.8783
 2437SOL    HW2 8211   1.378   3.800   4.205 -0.3389 -0.1375 -0.6256
 2438SOL     OW 8212   2.666   2.344   6.919  0.3850  0.5160  0.0409
 2438SOL    HW1 8213   2.762   2.316   6.912  0.4590  0.3677  1.3037
 2438SOL    HW2 8214   2.656   2.410   6.994 -0.0962  2.5201 -1.6852
 2439SOL     OW 8215   2.423   1.733   1.036  0.5547 -0.1128  0.5080
 2439SOL    HW1 8216   2.471   1.763   1.118 -1.2942 -0.5044  1.7973
 2439SOL    HW2 8217   2.386   1.641   1.051 -2.1000  0.8396  0.3228
 2440SOL     OW 8218   4.927   4.688   2.951  0.5537  0.4894 -0.5229
 2440SOL    HW1 8219   4.918   4.713   3.047  0.6998  0.3617 -0.4771
 2440SOL    HW2 8220   4.930   4.771   2.895  2.3373  0.6322 -0.2709
 2441SOL     OW 8221   1.707   0.358   3.613 -0.2744  0.9226 -0.1912
 2441SOL    HW1 8222   1.671   0.378   3.522  0.4593  2.2506 -0.2163
 2441SOL    HW2 8223   1.663   0.276   3.649 -0.7746  0.5296 -1.6220
 2442SOL     OW 8224   0.729   0.766   2.593  0.2082  0.0199  0.3299
 2442SOL    HW1 8225   0.635   0.795   2.616 -0.1973 -0.6721 -0.4224
 2442SOL    HW2 8226   0.759   0.814   2.510 -1.0321 -2.6827 -1.8246
 2443SOL     OW 8227   6.463   6.988   6.699 -0.2229 -0.6467 -0.2870
 2443SOL    HW1 8228   6.510   6.935   6.628 -0.4228 -0.2955 -0.6849
 2443SOL    HW2 8229   6.498   7.082   6.698 -0.2901 -0.6188  0.0228
 2444SOL     OW 8230   6.654   3.063   6.050 -0.5134  0.2530 -0.1790
 2444SOL    HW1 8231   6.658   2.965   6.069 -0.1391  0.1634 -0.6977
 2444SOL    HW2 8232   6.710   3.084   5.970 -1.3589  0.7504 -0.6542
 2445SOL     OW 8233   6.161   0.163   3.750  0.0573  0.3321 -0.7989
 2445SOL    HW1 8234   6.131   0.248   3.708 -0.8701 -0.2611 -1.3712
 2445SOL    HW2 8235   6.168   0.092   3.681 -0.4316 -0.3860 -0.1308
 2446SOL     OW 8236   3.999   1.492   6.282  0.5833  0.0574  0.2896
 2446SOL    HW1 8237   3.917   1.463   6.331  0.9242 -0.4123  0.5860
 2446SOL    HW2 8238   4.055   1.413   6.259  1.3105  0.4266  0.7289
 2447SOL     OW 8239   4.588   6.508   5.319 -0.0194  0.0675  0.0294
 2447SOL    HW1 8240   4.642   6.467   5.393  1.3405  1.0746 -0.3564
 2447SOL    HW2 8241   4.526   6.440   5.281  1.5334 -1.3919 -0.0138
 2448SOL     OW 8242   3.668   2.793   5.597  0.2884 -0.0486 -0.1057
 2448SOL    HW1 8243   3.636   2.726   5.531 -1.7715 -0.1079  0.8752
 2448SOL    HW2 8244   3.640   2.885   5.568 -0.2737 -0.0345  0.4602
 2449SOL     OW 8245   2.391   6.499   6.206 -0.5403  0.4411 -0.6003
 2449SOL    HW1 8246   2.438   6.529   6.123  1.3102  1.5359  0.7636
 2449SOL    HW2 8247   2.458   6.464   6.271 -1.7788  0.8347  0.9411
 2450SOL     OW 8248   3.181   0.514   2.876 -0.4121 -0.4996  0.3697
 2450SOL    HW1 8249   3.175   0.499   2.778 -1.1462 -2.2634  0.6472
 2450SOL    HW2 8250   3.275   0.537   2.901 -0.0225 -0.9843 -0.6238
 2451SOL     OW 8251   3.610   4.193   0.971  0.2732  0.0028  0.4971
 2451SOL    HW1 8252   3.581   4.118   0.910  0.1097  0.0487  0.5177
 2451SOL    HW2 8253   3.531   4.250   0.992  0.9708  2.2362 -2.3183
 2452SOL     OW 8254   3.102   6.749   2.039  0.5267 -1.2403 -0.1788
 2452SOL    HW1 8255   3.154   6.695   1.973  0.5374  0.6633 -1.8012
 2452SOL    HW2 8256   3.005   6.725   2.033  0.7112 -2.1378  0.2190
 2453SOL     OW 8257   2.391   4.308   1.358 -0.2566 -0.3915  0.3664
 2453SOL    HW1 8258   2.396   4.317   1.258 -0.9260 -1.1096  0.2479
 2453SOL    HW2 8259   2.476   4.268   1.392  0.5464  1.1876  0.2705
 2454SOL     OW 8260   3.438   0.947   3.024 -0.2054 -0.1735  0.0280
 2454SOL    HW1 8261   3.363   1.010   3.004 -1.1008 -0.5803  1.9491
 2454SOL    HW2 8262   3.507   0.955   2.952 -1.5029  1.0872 -1.1492
 2455SOL     OW 8263   3.083   0.275   1.469 -0.6454  0.0758 -0.1129
 2455SOL    HW1 8264   3.072   0.284   1.370 -1.4979  1.2397  0.0620
 2455SOL    HW2 8265   3.180   0.274   1.493 -0.4443  0.1676 -0.9270
 2456SOL     OW 8266   3.672   3.809   0.215  0.0233 -0.0664 -0.2340
 2456SOL    HW1 8267   3.728   3.811   0.298 -1.2855  0.0482  0.6814
 2456SOL    HW2 8268   3.620   3.895   0.209  1.9321  1.0189 -2.5106
 2457SOL     OW 8269   6.420   2.897   2.523  1.0364 -0.1925  0.2189
 2457SOL    HW1 8270   6.400   2.803   2.497  0.1190 -0.0316  0.3046
 2457SOL    HW2 8271   6.365   2.922   2.602  1.4519  0.3457  0.3433
 2458SOL     OW 8272   0.951   3.079   3.280 -0.1645 -0.0066 -0.2847
 2458SOL    HW1 8273   0.948   3.065   3.181 -1.1279 -0.5165 -0.1989
 2458SOL    HW2 8274   1.044   3.100   3.308  0.0306  0.6195 -1.3615
 2459SOL     OW 8275   1.850   2.822   2.196  0.1542 -0.1691  0.0067
 2459SOL    HW1 8276   1.751   2.811   2.196  0.1412 -0.4073 -1.6791
 2459SOL    HW2 8277   1.882   2.841   2.288 -1.2153 -2.2213  0.9891
 2460SOL     OW 8278   5.545   3.196   4.255 -0.1660 -0.0436 -0.1588
 2460SOL    HW1 8279   5.591   3.118   4.213  0.8790  0.8137 -0.6589
 2460SOL    HW2 8280   5.489   3.165   4.331 -1.5565 -1.5589 -1.7210
 2461SOL     OW 8281   2.216   0.741   6.505 -0.0734 -0.0444  1.1187
 2461SOL    HW1 8282   2.286   0.812   6.519 -0.2015  0.2824  0.1403
 2461SOL    HW2 8283   2.156   0.767   6.430  0.6011 -1.7579 -0.0656
 2462SOL     OW 8284   1.075   0.714   2.344 -0.1071  0.0053 -0.3814
 2462SOL    HW1 8285   1.110   0.679   2.431  1.2403  0.9809 -0.4862
 2462SOL    HW2 8286   0.992   0.766   2.360  0.4201  0.6298  0.4146
 2463SOL     OW 8287   1.028   2.178   3.390  0.1414  0.2930  0.3600
 2463SOL    HW1 8288   1.102   2.244   3.381 -0.7117  1.3622  0.9092
 2463SOL    HW2 8289   0.981   2.193   3.477 -0.1096 -1.0048  0.4553
 2464SOL     OW 8290   0.610   6.215   5.221  0.3417 -0.8029  0.0550
 2464SOL    HW1 8291   0.535   6.194   5.283  0.8856  1.6692  1.6714
 2464SOL    HW2 8292   0.589   6.299   5.171  2.5643  0.8175  1.6514
 2465SOL     OW 8293   3.212   4.887   5.028  0.2577  0.5171  0.0926
 2465SOL    HW1 8294   3.175   4.939   4.951 -1.2221  0.6267  0.8348
 2465SOL    HW2 8295   3.139   4.831   5.068  1.5137 -1.2155  0.0822
 2466SOL     OW 8296   3.338   1.364   4.873  0.0570 -0.5341 -0.2174
 2466SOL    HW1 8297   3.340   1.383   4.775 -0.2766 -2.6734 -0.6842
 2466SOL    HW2 8298   3.243   1.352   4.903  0.2236 -1.3489  0.0264
 2467SOL     OW 8299   1.184   2.766   5.576 -0.0910 -0.8462  0.2399
 2467SOL    HW1 8300   1.084   2.769   5.566 -0.3653 -4.8395  0.2288
 2467SOL    HW2 8301   1.207   2.761   5.674  0.1233 -0.1697  0.2310
 2468SOL     OW 8302   3.074   5.417   5.391 -0.0503 -0.0993 -0.3934
 2468SOL    HW1 8303   3.139   5.384   5.460 -0.3761 -3.1920 -1.4388
 2468SOL    HW2 8304   2.990   5.363   5.396 -0.4395  0.2192 -2.6277
 2469SOL     OW 8305   5.487   0.998   5.848  0.1689 -0.0906 -0.4301
 2469SOL    HW1 8306   5.392   0.995   5.814 -0.0612 -2.5585  0.1796
 2469SOL    HW2 8307   5.488   0.969   5.944  1.3777  1.7370  0.1489
 2470SOL     OW 8308   4.624   6.088   2.019 -0.5941  0.7039 -0.4537
 2470SOL    HW1 8309   4.630   6.105   2.118  1.6280 -1.1915 -0.1770
 2470SOL    HW2 8310   4.654   5.995   2.000 -2.0247  0.6833 -2.8510
 2471SOL     OW 8311   5.411   4.671   5.293  0.3563 -0.0297 -0.0050
 2471SOL    HW1 8312   5.361   4.713   5.369 -0.3946 -0.8578 -0.0325
 2471SOL    HW2 8313   5.441   4.743   5.230 -0.0864  0.5486  0.4283
 2472SOL     OW 8314   5.300   4.666   6.291 -0.1064 -0.1135 -0.1128
 2472SOL    HW1 8315   5.270   4.716   6.210 -1.2624  0.2887  0.5386
 2472SOL    HW2 8316   5.343   4.580   6.264 -2.4609 -1.0549 -1.1024
 2473SOL     OW 8317   4.959   2.478   2.574  0.1956  0.1874  0.0344
 2473SOL    HW1 8318   5.035   2.451   2.633  0.1529  1.3915  0.6639
 2473SOL    HW2 8319   4.905   2.549   2.619 -1.8569 -1.2730 -0.0118
 2474SOL     OW 8320   0.527   5.953   3.971 -0.3311 -0.0054 -0.0167
 2474SOL    HW1 8321   0.479   5.977   3.886 -1.2477 -0.2170  0.4278
 2474SOL    HW2 8322   0.478   5.879   4.017  0.5388 -0.3502  0.3653
 2475SOL     OW 8323   4.727   1.547   5.627 -0.4341 -0.8887 -0.0150
 2475SOL    HW1 8324   4.774   1.617   5.680  0.0976 -1.1654 -0.1117
 2475SOL    HW2 8325   4.735   1.459   5.675 -0.6031 -0.9910 -0.1769
 2476SOL     OW 8326   0.765   2.577   1.573 -0.1958  0.5362 -0.6443
 2476SOL    HW1 8327   0.824   2.506   1.534  0.5518  0.3421  0.7670
 2476SOL    HW2 8328   0.821   2.655   1.603 -0.7875  0.8698 -0.3763
 2477SOL     OW 8329   6.265   4.988   4.204 -0.2563 -0.2407  0.1321
 2477SOL    HW1 8330   6.221   4.970   4.292 -0.6322 -1.5751 -0.3000
 2477SOL    HW2 8331   6.263   4.905   4.148  0.4384  0.4356 -0.9426
 2478SOL     OW 8332   5.765   4.834   5.357  0.2619 -0.3179 -0.7772
 2478SOL    HW1 8333   5.696   4.840   5.429 -0.0753 -0.9241 -1.0450
 2478SOL    HW2 8334   5.833   4.764   5.382  2.7955  2.5550  1.1665
 2479SOL     OW 8335   5.170   2.379   2.762  0.6824 -0.3594 -0.6042
 2479SOL    HW1 8336   5.100   2.317   2.798 -0.5441  2.0490  1.5184
 2479SOL    HW2 8337   5.234   2.404   2.835 -0.3487  2.6976 -0.5960
 2480SOL     OW 8338   3.599   0.085   4.178  0.1494  0.3462 -0.4253
 2480SOL    HW1 8339   3.554   0.107   4.264  1.6637 -2.9119  1.3753
 2480SOL    HW2 8340   3.698   0.098   4.188  0.3817 -0.4649 -1.5391
 2481SOL     OW 8341   5.242   6.086   3.360 -0.0820 -0.5063  0.5905
 2481SOL    HW1 8342   5.244   6.159   3.292  1.6518 -1.7832 -0.8499
 2481SOL    HW2 8343   5.188   6.115   3.439  0.2218  2.1324 -0.0786
 2482SOL     OW 8344   6.886   5.881   3.036 -0.0339 -0.7252  0.0486
 2482SOL    HW1 8345   6.961   5.828   2.995 -1.0844 -1.6428 -0.7526
 2482SOL    HW2 8346   6.920   5.930   3.116  1.9311  0.5716 -1.4979
 2483SOL     OW 8347   3.718   1.970   6.235 -0.3927 -0.3089 -0.2402
 2483SOL    HW1 8348   3.781   2.046   6.255  2.4716 -1.6404 -3.2805
 2483SOL    HW2 8349   3.713   1.910   6.315  2.3890 -0.1900  0.1300
 2484SOL     OW 8350   5.041   4.423   4.491 -0.6733 -0.4184 -0.2015
 2484SOL    HW1 8351   5.028   4.520   4.471  1.1284 -0.1609 -0.3142
 2484SOL    HW2 8352   5.139   4.401   4.486 -0.9210 -1.9608  1.1032
 2485SOL     OW 8353   6.494   4.602   3.564 -0.0111 -0.1833 -0.7348
 2485SOL    HW1 8354   6.579   4.646   3.537  1.0908  0.3926  3.0708
 2485SOL    HW2 8355   6.417   4.648   3.519  1.3860  2.9144 -0.2265
 2486SOL     OW 8356   2.787   5.291   4.084  0.1969 -0.0882 -0.2256
 2486SOL    HW1 8357   2.789   5.310   3.986  0.2851 -2.6266 -0.7628
 2486SOL    HW2 8358   2.709   5.338   4.125 -0.8378 -0.3343 -1.8226
 2487SOL     OW 8359   5.117   5.038   4.195  0.1686  0.6997  0.5264
 2487SOL    HW1 8360   5.113   5.007   4.100  1.1692  0.9441  0.3876
 2487SOL    HW2 8361   5.213   5.046   4.223 -0.0869 -0.9031  2.0665
 2488SOL     OW 8362   0.890   4.702   6.382  0.5794  0.5033 -0.0986
 2488SOL    HW1 8363   0.822   4.761   6.425 -1.0161 -0.6421 -0.9411
 2488SOL    HW2 8364   0.863   4.607   6.393  2.6134 -0.0734  0.4153
 2489SOL     OW 8365   5.947   1.737   4.020 -0.1376 -0.4791 -0.8115
 2489SOL    HW1 8366   5.883   1.811   4.040  0.3688 -0.1689 -0.2913
 2489SOL    HW2 8367   5.972   1.691   4.106  0.4755 -0.4710 -0.9782
 2490SOL     OW 8368   1.617   0.565   5.398  0.4194 -0.3140  0.0991
 2490SOL    HW1 8369   1.597   0.467   5.402  0.2740 -0.2717  0.4479
 2490SOL    HW2 8370   1.546   0.612   5.346 -1.0096 -0.0147  2.1912
 2491SOL     OW 8371   5.913   3.803   5.896  0.1657 -0.1481 -0.3317
 2491SOL    HW1 8372   5.864   3.721   5.927  0.9020 -0.4633  0.0165
 2491SOL    HW2 8373   5.997   3.814   5.950 -0.6581  1.6715  0.6796
 2492SOL     OW 8374   5.133   4.745   2.590 -0.5020  0.4693  0.2538
 2492SOL    HW1 8375   5.077   4.791   2.659 -1.1363 -0.8604  0.6662
 2492SOL    HW2 8376   5.086   4.662   2.560  1.6501 -1.2634  1.3454
 2493SOL     OW 8377   4.632   4.141   1.618  0.5428 -0.1454  0.2547
 2493SOL    HW1 8378   4.586   4.163   1.704  0.3672 -0.4912  0.2531
 2493SOL    HW2 8379   4.570   4.086   1.561 -0.2767  2.0144 -1.0858
 2494SOL     OW 8380   0.586   2.408   6.410  0.3640  0.6617  0.0965
 2494SOL    HW1 8381   0.567   2.505   6.421 -1.0235  0.4981 -0.6004
 2494SOL    HW2 8382   0.634   2.374   6.491 -0.9464  1.5008  1.2768
 2495SOL     OW 8383   6.537   3.230   4.850 -0.4204  0.1038 -0.3237
 2495SOL    HW1 8384   6.447   3.264   4.879 -0.0780  0.9453 -0.2228
 2495SOL    HW2 8385   6.557   3.265   4.758 -0.2108 -0.1060 -0.3575
 2496SOL     OW 8386   3.777   0.389   4.702  0.2870 -0.2153 -0.6407
 2496SOL    HW1 8387   3.688   0.372   4.658  0.2380 -1.1594 -0.2126
 2496SOL    HW2 8388   3.815   0.302   4.733  0.1915  0.4120  1.4127
 2497SOL     OW 8389   0.592   3.164   0.199 -0.1156 -0.2474 -0.3056
 2497SOL    HW1 8390   0.603   3.102   0.277  1.3393  0.0690 -0.2240
 2497SOL    HW2 8391   0.608   3.258   0.229  0.2823 -0.1083 -0.9409
 2498SOL     OW 8392   1.297   2.363   1.136  0.0864 -0.2625 -0.0397
 2498SOL    HW1 8393   1.331   2.283   1.087  2.0308 -0.0965  0.9430
 2498SOL    HW2 8394   1.264   2.432   1.071  0.7867 -0.8261 -1.0047
 2499SOL     OW 8395   1.060   1.537   4.953  0.1884 -0.3504  0.2628
 2499SOL    HW1 8396   1.141   1.584   4.917  0.0464  0.2668  0.7227
 2499SOL    HW2 8397   1.009   1.600   5.012 -0.5221 -0.7980  0.1331
 2500SOL     OW 8398   6.593   3.002   5.006  0.6071 -0.4383 -0.2609
 2500SOL    HW1 8399   6.503   2.982   5.044  0.1044 -1.5922 -1.9721
 2500SOL    HW2 8400   6.594   3.096   4.971  1.0964  0.6679  2.4993
 2501SOL     OW 8401   4.104   3.173   0.129  0.1392 -0.5441 -0.0833
 2501SOL    HW1 8402   4.152   3.121   0.199 -1.1529 -1.1597  0.3864
 2501SOL    HW2 8403   4.151   3.162   0.041  0.7594 -1.2337  0.3254
 2502SOL     OW 8404   5.151   3.530   6.656  0.6146 -0.0337  0.0180
 2502SOL    HW1 8405   5.103   3.592   6.593 -0.5473 -2.4866 -1.6707
 2502SOL    HW2 8406   5.226   3.485   6.608 -0.2850 -1.9504  0.3425
 2503SOL     OW 8407   3.220   1.437   5.712  0.0467 -0.8067 -0.2359
 2503SOL    HW1 8408   3.314   1.445   5.746 -0.3140  1.1436  0.4839
 2503SOL    HW2 8409   3.159   1.490   5.771 -1.0539  0.4019 -2.3332
 2504SOL     OW 8410   2.544   1.299   0.425  0.0598  0.2982 -0.0551
 2504SOL    HW1 8411   2.460   1.260   0.463  0.5500 -1.4833 -0.6718
 2504SOL    HW2 8412   2.522   1.381   0.372 -1.0389  0.8698  1.2088
 2505SOL     OW 8413   2.274   5.909   2.993 -0.4724  0.1234 -0.3582
 2505SOL    HW1 8414   2.244   5.951   3.078 -0.6629 -1.8436  0.5940
 2505SOL    HW2 8415   2.308   5.817   3.011 -1.2659 -0.6567 -2.5123
 2506SOL     OW 8416   3.550   6.802   5.973  0.1241  0.1932  0.1447
 2506SOL    HW1 8417   3.644   6.771   5.956  0.7647  1.4208  1.2266
 2506SOL    HW2 8418   3.488   6.724   5.968  1.3734 -0.8755  0.5852
 2507SOL     OW 8419   2.192   5.912   5.424  0.2891 -0.5439  0.2102
 2507SOL    HW1 8420   2.214   5.884   5.518 -0.8220 -2.7727 -0.1147
 2507SOL    HW2 8421   2.251   5.863   5.361 -0.8365 -1.2110 -0.3486
 2508SOL     OW 8422   4.086   1.362   0.941  0.3006  0.1150 -0.2152
 2508SOL    HW1 8423   4.061   1.432   0.874 -3.0973 -1.0265 -0.3141
 2508SOL    HW2 8424   4.177   1.326   0.918  0.0568  1.0673 -3.1272
 2509SOL     OW 8425   3.582   0.299   5.090  0.2466  0.1721 -0.2656
 2509SOL    HW1 8426   3.579   0.390   5.049  0.1472  0.1882 -0.2241
 2509SOL    HW2 8427   3.551   0.232   5.024 -0.4097  0.2590 -0.0541
 2510SOL     OW 8428   6.181   1.760   3.586 -0.1883 -0.0437  0.0788
 2510SOL    HW1 8429   6.126   1.803   3.514  0.4381  0.4536 -0.1150
 2510SOL    HW2 8430   6.161   1.663   3.590  0.9194 -0.4085 -1.8655
 2511SOL     OW 8431   2.991   6.779   4.680  0.1686  0.1363  0.1885
 2511SOL    HW1 8432   2.976   6.790   4.582  2.1061  0.0706 -0.1575
 2511SOL    HW2 8433   3.088   6.795   4.701 -0.2600  0.4028  2.1341
 2512SOL     OW 8434   2.480   3.568   0.119  0.2324  0.0516  0.2741
 2512SOL    HW1 8435   2.542   3.618   0.058  1.2089  1.3217  2.2255
 2512SOL    HW2 8436   2.401   3.626   0.140 -1.3657 -1.2894 -1.6148
 2513SOL     OW 8437   4.900   2.087   5.649  0.5028  0.2384  0.5517
 2513SOL    HW1 8438   4.964   2.020   5.613  1.6256  1.5858 -0.0486
 2513SOL    HW2 8439   4.920   2.177   5.610 -0.4756  1.0768  1.8905
 2514SOL     OW 8440   0.417   3.443   2.077  0.1011  0.0565 -0.5161
 2514SOL    HW1 8441   0.327   3.430   2.035  0.1889 -0.2826 -0.6051
 2514SOL    HW2 8442   0.477   3.492   2.013 -0.0781  0.4529 -0.3813
 2515SOL     OW 8443   6.372   0.714   1.358 -0.3617 -0.0506 -0.2730
 2515SOL    HW1 8444   6.339   0.805   1.384  1.9001  0.2755  1.8093
 2515SOL    HW2 8445   6.302   0.647   1.380 -0.3185  0.7403  2.7099
 2516SOL     OW 8446   5.154   0.103   4.118  0.0303  0.2522 -0.1044
 2516SOL    HW1 8447   5.144   0.194   4.078 -3.5978  0.0406 -0.0317
 2516SOL    HW2 8448   5.182   0.111   4.214 -1.6646  1.4390  0.3337
 2517SOL     OW 8449   5.228   4.363   2.039 -0.7775 -0.0158 -0.2268
 2517SOL    HW1 8450   5.212   4.279   2.092 -0.4794 -1.2496 -1.9883
 2517SOL    HW2 8451   5.225   4.341   1.941  0.7658  1.7672 -0.7200
 2518SOL     OW 8452   2.457   1.285   3.760  0.2246 -0.4709  0.2170
 2518SOL    HW1 8453   2.369   1.317   3.795  0.8159  1.5251 -0.0221
 2518SOL    HW2 8454   2.457   1.288   3.661  0.8891  0.5315  0.2334
 2519SOL     OW 8455   4.797   0.167   6.373 -0.0944 -0.0169  0.1281
 2519SOL    HW1 8456   4.819   0.096   6.440 -0.3259  0.9903  1.3178
 2519SOL    HW2 8457   4.756   0.246   6.420  0.4303  1.0312 -1.1062
 2520SOL     OW 8458   0.894   1.635   6.381 -0.0326 -0.5087 -0.0337
 2520SOL    HW1 8459   0.828   1.665   6.450  0.4705  1.4834 -0.3534
 2520SOL    HW2 8460   0.986   1.642   6.418  0.2138  0.2170 -0.7573
 2521SOL     OW 8461   5.276   2.520   4.642  0.6826  0.7002 -0.4543
 2521SOL    HW1 8462   5.292   2.431   4.599  0.1455  0.9383 -1.1565
 2521SOL    HW2 8463   5.181   2.548   4.628  0.6719  1.0855  0.3356
 2522SOL     OW 8464   2.243   1.189   2.699 -0.1485 -0.1898 -0.6794
 2522SOL    HW1 8465   2.301   1.143   2.766  0.6888  1.9381  0.1558
 2522SOL    HW2 8466   2.150   1.152   2.704  0.1225 -0.7227  0.9899
 2523SOL     OW 8467   0.120   4.602   6.061  0.3111  0.4371  0.5810
 2523SOL    HW1 8468   0.118   4.701   6.044 -0.6142  0.7857  2.5437
 2523SOL    HW2 8469   0.176   4.583   6.141  0.3531 -0.6460  0.3074
 2524SOL     OW 8470   5.236   4.072   4.023 -0.3044  0.1788  0.3729
 2524SOL    HW1 8471   5.184   4.137   3.967 -1.4599 -1.7487 -0.9213
 2524SOL    HW2 8472   5.256   3.990   3.969 -0.6668 -1.3984  2.4918
 2525SOL     OW 8473   6.916   5.452   1.314  0.2564 -0.0348  0.1142
 2525SOL    HW1 8474   6.948   5.455   1.409 -2.1650 -2.2090  1.1031
 2525SOL    HW2 8475   6.956   5.373   1.268 -0.6462 -0.5287  0.1692
 2526SOL     OW 8476   2.571   5.529   6.716  0.2228  0.4357  0.6700
 2526SOL    HW1 8477   2.661   5.509   6.755 -0.1988 -0.6575  1.1130
 2526SOL    HW2 8478   2.566   5.626   6.691  1.1944  0.7102  1.4896
 2527SOL     OW 8479   3.479   5.498   6.986  0.1786 -0.5195  0.5950
 2527SOL    HW1 8480   3.554   5.484   6.921 -0.3338  1.9558 -0.6455
 2527SOL    HW2 8481   3.515   5.539   7.070  0.2411  0.8413 -0.0720
 2528SOL     OW 8482   6.409   3.702   3.604 -0.8221  0.3898  0.7032
 2528SOL    HW1 8483   6.489   3.670   3.554 -0.6474  1.7043  0.1048
 2528SOL    HW2 8484   6.395   3.645   3.684 -0.8784 -1.5447 -0.6097
 2529SOL     OW 8485   6.081   0.871   6.503 -0.3357 -0.0790 -0.2092
 2529SOL    HW1 8486   6.127   0.914   6.426 -1.3954  0.6249 -0.4764
 2529SOL    HW2 8487   6.081   0.934   6.581 -0.0364 -0.4368  0.0799
 2530SOL     OW 8488   3.269   5.884   6.459 -0.1857  0.5130  0.6323
 2530SOL    HW1 8489   3.219   5.798   6.446 -2.1232  1.8430 -1.5152
 2530SOL    HW2 8490   3.260   5.914   6.554 -2.3766  0.0053  0.6465
 2531SOL     OW 8491   6.631   3.660   4.470 -0.2182  0.4472 -0.3149
 2531SOL    HW1 8492   6.670   3.738   4.520  3.3306 -0.5127 -1.2767
 2531SOL    HW2 8493   6.603   3.589   4.536  0.2916  0.9415  0.4504
 2532SOL     OW 8494   0.031   2.563   1.660 -0.0725 -0.0735 -0.6313
 2532SOL    HW1 8495   0.067   2.630   1.595 -0.6936  1.8169  0.8805
 2532SOL    HW2 8496   0.107   2.521   1.710  0.2982 -0.1234 -1.2223
 2533SOL     OW 8497   6.736   1.640   4.168 -0.0034 -0.3908 -0.0464
 2533SOL    HW1 8498   6.760   1.698   4.246  0.4355  0.7707 -1.0021
 2533SOL    HW2 8499   6.643   1.662   4.138 -0.0983 -0.6911  0.0290
 2534SOL     OW 8500   2.768   0.379   0.681 -0.1013  0.2264  0.8875
 2534SOL    HW1 8501   2.740   0.373   0.776 -0.1461 -0.0874  0.8557
 2534SOL    HW2 8502   2.841   0.447   0.671  0.7180 -0.5670  1.3350
 2535SOL     OW 8503   6.784   4.343   6.889 -0.8661 -0.5857  0.2642
 2535SOL    HW1 8504   6.713   4.334   6.959  0.6533 -1.3477  1.7919
 2535SOL    HW2 8505   6.825   4.253   6.872 -0.0083 -0.0989 -0.3126
 2536SOL     OW 8506   0.285   0.305   4.532  0.2771  0.5015 -0.5215
 2536SOL    HW1 8507   0.316   0.227   4.479  0.6097  0.2556  0.0233
 2536SOL    HW2 8508   0.298   0.389   4.480  1.9831  0.4191 -0.2698
 2537SOL     OW 8509   5.014   5.824   0.295  0.0412 -0.6147 -0.3332
 2537SOL    HW1 8510   4.958   5.880   0.234 -0.5888  0.9816  1.5972
 2537SOL    HW2 8511   4.983   5.729   0.289  0.5692 -0.7002 -3.0525
 2538SOL     OW 8512   2.463   2.115   3.893 -0.1640 -0.2987  0.2815
 2538SOL    HW1 8513   2.562   2.100   3.889  0.0410  1.1321 -0.6771
 2538SOL    HW2 8514   2.416   2.047   3.836  0.3082 -0.5676  0.2069
 2539SOL     OW 8515   6.950   6.952   4.127  0.2348  0.7474  0.2753
 2539SOL    HW1 8516   7.020   6.932   4.195  0.7334  1.3455 -0.0553
 2539SOL    HW2 8517   6.866   6.980   4.173  0.4310  0.7169  0.6508
 2540SOL     OW 8518   6.138   4.220   2.935 -0.2793  0.0561  0.1268
 2540SOL    HW1 8519   6.074   4.151   2.902 -1.2440 -0.0665  2.1221
 2540SOL    HW2 8520   6.186   4.261   2.857 -2.6910  0.0840 -1.4515
 2541SOL     OW 8521   0.969   5.848   6.325  0.5809 -0.2748 -0.4815
 2541SOL    HW1 8522   1.047   5.893   6.367 -0.3331 -0.0536  1.0784
 2541SOL    HW2 8523   0.939   5.772   6.383 -0.9956  0.3158 -0.4581
 2542SOL     OW 8524   6.260   6.978   2.228  0.3232  0.6203 -0.6208
 2542SOL    HW1 8525   6.248   7.025   2.141 -0.2486  0.3985 -0.6654
 2542SOL    HW2 8526   6.309   7.038   2.292  1.5234  0.4528 -1.3665
 2543SOL     OW 8527   4.867   6.921   4.310 -0.0322 -0.0223  0.3738
 2543SOL    HW1 8528   4.809   6.869   4.373 -1.4047 -0.7247 -1.3853
 2543SOL    HW2 8529   4.937   6.860   4.272 -0.9688 -0.3608 -0.8713
 2544SOL     OW 8530   2.210   1.982   0.700  0.0886  0.6888 -0.3965
 2544SOL    HW1 8531   2.147   1.922   0.749  0.1913  1.7698  1.1135
 2544SOL    HW2 8532   2.182   2.077   0.712  0.7423  1.0440 -1.5657
 2545SOL     OW 8533   5.650   3.661   5.257 -0.2104 -0.1489 -0.4936
 2545SOL    HW1 8534   5.747   3.643   5.242  0.3206  0.1162  2.0676
 2545SOL    HW2 8535   5.600   3.574   5.262 -0.0233 -0.3062 -1.2060
 2546SOL     OW 8536   1.368   6.240   1.881  0.1079 -0.1106  0.6730
 2546SOL    HW1 8537   1.326   6.154   1.910  0.4680 -0.5052  0.0494
 2546SOL    HW2 8538   1.318   6.317   1.922  0.0364 -0.6182  1.5719
 2547SOL     OW 8539   2.461   2.303   3.161 -0.5894 -0.2189 -0.0612
 2547SOL    HW1 8540   2.394   2.333   3.229  1.3457 -0.7253  2.1938
 2547SOL    HW2 8541   2.496   2.213   3.186  0.4271 -0.2846 -1.5759
 2548SOL     OW 8542   2.862   6.032   2.686  0.4490 -0.0550 -0.0661
 2548SOL    HW1 8543   2.846   6.083   2.770  0.0979  1.0939 -0.8071
 2548SOL    HW2 8544   2.782   5.974   2.667 -0.7633  1.8186 -1.0582
 2549SOL     OW 8545   6.867   4.947   0.240  0.4528  0.8618 -0.2449
 2549SOL    HW1 8546   6.867   4.853   0.274 -0.8802  0.8334 -0.2651
 2549SOL    HW2 8547   6.820   5.006   0.306 -2.1195  0.8244 -1.9234
 2550SOL     OW 8548   2.706   1.290   2.208  0.2427 -0.3390 -0.1314
 2550SOL    HW1 8549   2.765   1.210   2.206 -0.6102 -1.0335  1.2677
 2550SOL    HW2 8550   2.611   1.261   2.213 -0.0056  0.7059  2.6050
 2551SOL     OW 8551   2.529   6.998   2.035 -0.6724 -0.0233  0.2191
 2551SOL    HW1 8552   2.561   6.974   2.126 -1.3136 -0.6877  0.2742
 2551SOL    HW2 8553   2.431   7.019   2.039 -0.7256 -0.1666 -0.3390
 2552SOL     OW 8554   2.728   2.269   5.762  0.1191  0.0240 -0.2296
 2552SOL    HW1 8555   2.710   2.190   5.703  2.1265 -0.1335 -0.6890
 2552SOL    HW2 8556   2.678   2.348   5.726 -1.2903 -0.8166 -0.2160
 2553SOL     OW 8557   3.075   4.031   1.876 -0.0022 -0.0069 -0.3109
 2553SOL    HW1 8558   3.154   3.983   1.838  0.1373 -0.6159  0.7106
 2553SOL    HW2 8559   3.021   3.968   1.931 -1.8041  0.1313 -1.8140
 2554SOL     OW 8560   3.874   6.845   0.815 -0.2000  0.6851  1.0333
 2554SOL    HW1 8561   3.849   6.813   0.906 -0.4170 -0.8838  0.4670
 2554SOL    HW2 8562   3.964   6.807   0.790 -1.1231 -0.8069 -0.2457
 2555SOL     OW 8563   3.331   0.346   5.185  0.3512 -0.5809  0.1161
 2555SOL    HW1 8564   3.430   0.350   5.168  0.4457 -0.7116  0.6181
 2555SOL    HW2 8565   3.297   0.255   5.160  0.3768 -0.5715  0.0473
 2556SOL     OW 8566   2.903   7.009   3.909 -0.5183  0.2099  0.2694
 2556SOL    HW1 8567   2.812   6.967   3.901 -0.2431 -0.6366  1.3608
 2556SOL    HW2 8568   2.911   7.083   3.843 -1.7417 -0.1783 -0.3462
 2557SOL     OW 8569   3.168   6.901   3.635 -0.2815  0.1328 -0.5424
 2557SOL    HW1 8570   3.152   6.875   3.730 -0.3073 -0.3718 -0.6838
 2557SOL    HW2 8571   3.261   6.935   3.625  0.3832 -1.6464 -0.7186
 2558SOL     OW 8572   0.252   2.481   6.602  0.0928  0.6256  0.2358
 2558SOL    HW1 8573   0.193   2.409   6.640  1.3062 -2.0825 -2.5835
 2558SOL    HW2 8574   0.325   2.502   6.667 -1.0358  0.3265  1.6658
 2559SOL     OW 8575   2.833   0.944   0.498  0.5288 -0.3352 -0.8167
 2559SOL    HW1 8576   2.901   1.004   0.455  0.1146  0.2199 -0.7137
 2559SOL    HW2 8577   2.757   1.000   0.531 -1.3665 -1.1591 -3.4523
 2560SOL     OW 8578   2.720   0.749   5.085 -0.2684 -1.0735  0.0118
 2560SOL    HW1 8579   2.774   0.685   5.032 -0.0143 -1.2241  0.4447
 2560SOL    HW2 8580   2.769   0.772   5.170  1.0148  1.8772 -1.3638
 2561SOL     OW 8581   6.201   0.162   0.254  0.2016 -0.5112 -0.4208
 2561SOL    HW1 8582   6.264   0.104   0.202  0.2192 -1.0365  0.1706
 2561SOL    HW2 8583   6.208   0.140   0.351 -1.6867 -1.3697 -0.4289
 2562SOL     OW 8584   5.873   3.198   2.395  0.1352  0.6298  0.6396
 2562SOL    HW1 8585   5.848   3.245   2.310  1.4705 -0.6591 -0.5234
 2562SOL    HW2 8586   5.801   3.133   2.419  1.4263 -1.9475 -1.8356
 2563SOL     OW 8587   2.956   6.550   1.815  0.0507 -0.4925 -0.3148
 2563SOL    HW1 8588   2.880   6.522   1.757 -2.4705  0.4683  2.2943
 2563SOL    HW2 8589   3.001   6.629   1.774  0.2144 -1.5273 -2.2805
 2564SOL     OW 8590   1.571   1.136   5.508 -0.7039  0.3791 -0.3777
 2564SOL    HW1 8591   1.475   1.150   5.531 -0.8217 -0.8451 -0.0231
 2564SOL    HW2 8592   1.577   1.099   5.415 -0.6035  0.2340 -0.3145
 2565SOL     OW 8593   2.877   6.855   3.161 -0.4436 -0.6024  0.1186
 2565SOL    HW1 8594   2.876   6.954   3.151 -2.1284 -0.4819  0.9384
 2565SOL    HW2 8595   2.843   6.813   3.077  0.4289 -0.5142 -0.2906
 2566SOL     OW 8596   3.910   6.627   1.111  0.2029 -0.2237 -0.1242
 2566SOL    HW1 8597   3.954   6.539   1.094  0.8239 -0.2460  1.4317
 2566SOL    HW2 8598   3.834   6.615   1.174 -2.2214 -0.1973 -2.8439
 2567SOL     OW 8599   6.680   1.248   6.580  0.3145  0.0430  0.4940
 2567SOL    HW1 8600   6.702   1.308   6.657 -1.7149  0.3899  0.8530
 2567SOL    HW2 8601   6.636   1.165   6.613  0.2010 -0.1960 -0.2350
 2568SOL     OW 8602   5.325   0.354   0.773 -0.3870  0.0660  0.1238
 2568SOL    HW1 8603   5.265   0.431   0.794 -2.0784 -0.8379 -1.1258
 2568SOL    HW2 8604   5.305   0.278   0.835  0.7864  0.3544  0.8938
 2569SOL     OW 8605   5.649   3.443   3.641 -0.0519 -0.3653  0.3043
 2569SOL    HW1 8606   5.710   3.371   3.677  1.7017  0.2723 -1.2073
 2569SOL    HW2 8607   5.601   3.408   3.560 -0.0198 -0.1811  0.2057
 2570SOL     OW 8608   2.812   4.479   6.273  0.3306  0.1079 -0.4672
 2570SOL    HW1 8609   2.876   4.405   6.250  0.1714 -0.9056  2.0551
 2570SOL    HW2 8610   2.753   4.497   6.194  1.2469 -1.5136 -1.6038
 2571SOL     OW 8611   2.271   3.222   5.267  0.7048 -0.6158 -0.2146
 2571SOL    HW1 8612   2.330   3.150   5.231  0.7526 -1.8722  2.1410
 2571SOL    HW2 8613   2.185   3.182   5.300 -0.5982  0.8776 -1.5949
 2572SOL     OW 8614   3.878   3.089   1.946  0.0662  0.4862  0.0031
 2572SOL    HW1 8615   3.912   3.162   2.006 -0.5098 -1.0084  2.2682
 2572SOL    HW2 8616   3.786   3.111   1.914 -0.3416  0.5288  1.1577
 2573SOL     OW 8617   1.513   0.207   4.487  0.0806  0.1126  0.2474
 2573SOL    HW1 8618   1.471   0.184   4.400 -1.3992 -0.8048  1.1517
 2573SOL    HW2 8619   1.600   0.158   4.497 -0.1247 -0.3864 -0.3800
 2574SOL     OW 8620   6.155   1.647   3.225 -0.4517 -0.3060 -0.3120
 2574SOL    HW1 8621   6.126   1.570   3.168  1.3693  0.3162 -2.2252
 2574SOL    HW2 8622   6.243   1.626   3.267 -0.8756  0.0057  0.7710
 2575SOL     OW 8623   1.012   6.176   6.228 -0.3704  0.7334 -0.1332
 2575SOL    HW1 8624   1.063   6.253   6.191  1.1895 -1.2110 -2.2848
 2575SOL    HW2 8625   0.944   6.146   6.161  0.2085 -0.8083 -0.0563
 2576SOL     OW 8626   1.126   6.117   0.034  0.4030  0.1979 -0.2166
 2576SOL    HW1 8627   1.212   6.163   0.056  1.2983 -1.7066  0.5672
 2576SOL    HW2 8628   1.064   6.123   0.112 -0.1954  1.5525 -0.7736
 2577SOL     OW 8629   2.935   1.285   4.006 -0.2230 -0.2360  0.7789
 2577SOL    HW1 8630   2.850   1.294   3.954 -0.1793  0.8847  0.8776
 2577SOL    HW2 8631   2.955   1.189   4.022 -0.6364 -0.5741 -0.6313
 2578SOL     OW 8632   3.488   3.630   3.218 -0.1356 -0.2853  0.2896
 2578SOL    HW1 8633   3.487   3.725   3.248 -0.8025  0.3634 -1.6170
 2578SOL    HW2 8634   3.407   3.583   3.252  0.8184 -0.5733  2.2939
 2579SOL     OW 8635   5.871   2.176   4.838  0.0349 -1.0850  0.2192
 2579SOL    HW1 8636   5.852   2.094   4.784 -1.6192 -1.5849  1.4534
 2579SOL    HW2 8637   5.819   2.253   4.801  0.2447 -1.0145  0.0732
 2580SOL     OW 8638   5.674   1.133   6.878  0.2370  0.5083 -0.4662
 2580SOL    HW1 8639   5.614   1.163   6.953 -1.8481 -0.6124 -1.6043
 2580SOL    HW2 8640   5.704   1.213   6.826 -0.0027  1.1255  0.3268
 2581SOL     OW 8641   3.161   2.130   2.642 -0.0548 -0.6669 -0.1892
 2581SOL    HW1 8642   3.103   2.060   2.599 -1.4843  1.0461 -1.1594
 2581SOL    HW2 8643   3.227   2.163   2.575 -0.3441 -0.0696 -0.1846
 2582SOL     OW 8644   3.281   3.449   6.804 -0.7540  0.0823  0.2059
 2582SOL    HW1 8645   3.362   3.505   6.819  0.7785 -2.2682  1.2538
 2582SOL    HW2 8646   3.227   3.443   6.888 -1.1618  0.3411 -0.0330
 2583SOL     OW 8647   1.845   5.247   3.578 -0.2531 -0.0462  0.2133
 2583SOL    HW1 8648   1.841   5.201   3.489  1.9137 -1.2356  0.6551
 2583SOL    HW2 8649   1.881   5.183   3.647  0.6528  1.6315  1.3667
 2584SOL     OW 8650   3.910   4.125   0.226 -0.3253  0.3345 -0.0361
 2584SOL    HW1 8651   3.920   4.036   0.181  0.8670  0.6220 -0.3728
 2584SOL    HW2 8652   3.895   4.196   0.158 -0.4603  0.5019  0.1670
 2585SOL     OW 8653   3.007   2.286   5.326 -0.4842 -0.2501  0.1126
 2585SOL    HW1 8654   3.064   2.233   5.390 -0.5979  1.1714  1.4626
 2585SOL    HW2 8655   3.066   2.342   5.268 -0.4416  0.4096  0.7739
 2586SOL     OW 8656   2.272   4.898   6.965  0.4852  0.1284  0.6711
 2586SOL    HW1 8657   2.273   4.828   7.037  1.1540 -0.2250  0.3245
 2586SOL    HW2 8658   2.300   4.857   6.879  0.5471  0.7552  0.3929
 2587SOL     OW 8659   2.322   5.027   4.292 -0.3062 -0.2883  0.5120
 2587SOL    HW1 8660   2.369   5.099   4.343  0.9906 -1.1443  0.5800
 2587SOL    HW2 8661   2.223   5.039   4.301 -0.1178  1.1439  0.9768
 2588SOL     OW 8662   3.251   5.795   6.162  0.3405 -0.4955  0.0039
 2588SOL    HW1 8663   3.218   5.766   6.252 -0.7141  0.1484 -0.1537
 2588SOL    HW2 8664   3.335   5.849   6.173 -0.0098 -0.0676  0.6428
 2589SOL     OW 8665   1.685   5.559   0.033 -0.2138 -0.5706  0.4116
 2589SOL    HW1 8666   1.774   5.532   0.068  0.8949 -0.2762 -2.0293
 2589SOL    HW2 8667   1.654   5.641   0.082  1.4065  0.0398  0.4734
 2590SOL     OW 8668   0.411   6.152   2.389 -0.0777  0.1184  0.0158
 2590SOL    HW1 8669   0.323   6.121   2.425  0.3678  0.4454  1.4388
 2590SOL    HW2 8670   0.474   6.074   2.383  0.7439  0.4561  2.7182
 2591SOL     OW 8671   3.788   1.567   0.999 -0.9308 -0.5394 -0.0560
 2591SOL    HW1 8672   3.776   1.630   0.922 -1.0285 -0.9107 -0.3416
 2591SOL    HW2 8673   3.773   1.473   0.969 -1.9497 -0.6113  0.6209
 2592SOL     OW 8674   2.603   1.715   2.180 -0.9024  0.0103 -0.4325
 2592SOL    HW1 8675   2.518   1.667   2.161 -0.4858 -0.1541 -2.1026
 2592SOL    HW2 8676   2.608   1.797   2.122 -0.6905  0.9693  0.9034
 2593SOL     OW 8677   5.084   1.619   2.509  0.0940 -0.3820  0.4406
 2593SOL    HW1 8678   5.042   1.548   2.452  0.3179 -0.7248  0.6943
 2593SOL    HW2 8679   5.179   1.593   2.529  1.0305  1.1783 -1.5394
 2594SOL     OW 8680   3.295   5.022   1.722  0.2218 -0.5513 -0.0123
 2594SOL    HW1 8681   3.333   5.114   1.732 -1.3012  0.2062 -0.7448
 2594SOL    HW2 8682   3.359   4.965   1.671  0.2891  0.7924 -1.5520
 2595SOL     OW 8683   4.309   1.180   3.304 -0.0829 -0.6320 -0.2980
 2595SOL    HW1 8684   4.385   1.115   3.310 -0.4173 -0.9950  0.0651
 2595SOL    HW2 8685   4.252   1.171   3.385  0.7041  1.1668  0.5029
 2596SOL     OW 8686   4.876   3.934   3.320 -0.1134 -0.2210  0.3895
 2596SOL    HW1 8687   4.839   3.950   3.228 -1.3370 -0.6623  0.7806
 2596SOL    HW2 8688   4.959   3.988   3.332  0.3919 -0.5995 -1.1693
 2597SOL     OW 8689   2.380   2.152   5.725  0.0782 -0.2390  0.3049
 2597SOL    HW1 8690   2.408   2.122   5.633  1.4734 -1.8155  1.1804
 2597SOL    HW2 8691   2.408   2.083   5.792  1.7884  2.2057  2.2932
 2598SOL     OW 8692   5.521   3.391   3.404 -0.3965 -0.1335 -0.0329
 2598SOL    HW1 8693   5.597   3.333   3.373  0.5138  1.4164 -0.8564
 2598SOL    HW2 8694   5.508   3.465   3.338 -2.6575 -0.3652  0.0967
 2599SOL     OW 8695   0.600   3.536   6.933 -0.6626  0.4183 -0.3222
 2599SOL    HW1 8696   0.618   3.602   6.861  0.5802  1.1088  0.5790
 2599SOL    HW2 8697   0.660   3.457   6.922 -2.0224 -0.5273 -1.2951
 2600SOL     OW 8698   6.168   4.062   1.079 -0.3077  0.1555  0.3296
 2600SOL    HW1 8699   6.203   4.068   1.173 -1.1106  1.8351  0.5618
 2600SOL    HW2 8700   6.200   4.140   1.027 -1.2401  0.1270 -0.3083
 2601SOL     OW 8701   1.869   5.741   3.301 -0.2604  0.4035 -0.4044
 2601SOL    HW1 8702   1.797   5.766   3.366 -0.7585 -2.1217  0.1093
 2601SOL    HW2 8703   1.839   5.763   3.208 -0.6321  1.6512 -0.0089
 2602SOL     OW 8704   0.073   5.090   2.469 -0.0602  0.0086  0.0348
 2602SOL    HW1 8705   0.164   5.107   2.432 -1.7393  1.0160 -4.1117
 2602SOL    HW2 8706   0.016   5.172   2.459 -1.8242 -0.9756  1.3181
 2603SOL     OW 8707   5.351   1.309   5.182 -0.6102  0.4905  0.2214
 2603SOL    HW1 8708   5.384   1.343   5.271 -0.1321  0.5149  0.0383
 2603SOL    HW2 8709   5.429   1.278   5.128 -0.8838  0.6559 -0.2694
 2604SOL     OW 8710   2.489   5.214   6.671 -0.2641 -0.1667 -0.7828
 2604SOL    HW1 8711   2.521   5.218   6.576  0.0303  0.1383 -0.6734
 2604SOL    HW2 8712   2.398   5.254   6.677 -0.4806 -0.6133 -1.0158
 2605SOL     OW 8713   1.988   4.133   6.271 -0.5398 -0.2812  0.3953
 2605SOL    HW1 8714   1.939   4.117   6.357 -0.6282 -0.3400  0.3343
 2605SOL    HW2 8715   1.928   4.112   6.194  0.0579 -1.8220  0.3172
 2606SOL     OW 8716   0.364   2.795   5.078 -0.5294  0.4605  0.0721
 2606SOL    HW1 8717   0.415   2.875   5.111 -0.3131 -0.4134  2.0064
 2606SOL    HW2 8718   0.285   2.780   5.138  0.7458 -2.1164  1.2538
 2607SOL     OW 8719   0.968   3.654   1.891 -0.4872  0.4521 -0.0074
 2607SOL    HW1 8720   0.916   3.572   1.871 -0.6582  0.2924  1.0323
 2607SOL    HW2 8721   0.911   3.735   1.877 -0.4084  0.3828 -0.7452
 2608SOL     OW 8722   6.259   4.764   1.468  0.1238  0.5296 -0.4990
 2608SOL    HW1 8723   6.300   4.848   1.431 -0.1455  0.7844 -0.2274
 2608SOL    HW2 8724   6.328   4.714   1.521  0.3493  0.4600 -0.8602
 2609SOL     OW 8725   1.180   0.271   0.236  0.3449 -0.0180 -0.0044
 2609SOL    HW1 8726   1.222   0.313   0.316 -1.3291  0.4876  0.6487
 2609SOL    HW2 8727   1.129   0.189   0.263 -0.7076  0.4745 -0.4406
 2610SOL     OW 8728   4.888   1.048   2.206  0.2442 -0.1861  0.2861
 2610SOL    HW1 8729   4.955   1.044   2.280  2.0999  1.5221 -1.1860
 2610SOL    HW2 8730   4.810   1.103   2.235  0.6552 -0.0674  1.1969
 2611SOL     OW 8731   4.087   4.868   4.079  0.6738  0.4322 -0.5574
 2611SOL    HW1 8732   4.068   4.901   4.172  0.2128 -0.1341 -0.4444
 2611SOL    HW2 8733   4.170   4.812   4.080 -0.5541 -1.5077 -0.0068
 2612SOL     OW 8734   0.916   6.797   3.460  0.1390  0.1247  0.0285
 2612SOL    HW1 8735   1.014   6.814   3.467  0.0933  0.3541  0.1191
 2612SOL    HW2 8736   0.882   6.761   3.547  0.2877 -0.7163 -0.2492
 2613SOL     OW 8737   6.426   3.098   1.569 -0.4633  0.6389  0.5758
 2613SOL    HW1 8738   6.410   3.106   1.471 -2.9862  0.5502  0.9182
 2613SOL    HW2 8739   6.409   3.004   1.598  2.1418  0.1712  0.8704
 2614SOL     OW 8740   5.143   4.134   2.174  0.4418 -0.9038  0.0583
 2614SOL    HW1 8741   5.117   4.052   2.123  1.1735 -0.9724 -0.2252
 2614SOL    HW2 8742   5.074   4.154   2.243 -2.3758  1.0831 -3.0589
 2615SOL     OW 8743   0.127   1.697   3.104  0.2448  0.0931  0.1293
 2615SOL    HW1 8744   0.167   1.642   3.178  0.0314 -1.5399 -0.9079
 2615SOL    HW2 8745   0.199   1.721   3.038  0.0388 -0.4337 -0.2956
 2616SOL     OW 8746   3.154   3.366   3.052 -0.1202 -0.1557  0.0871
 2616SOL    HW1 8747   3.184   3.403   2.965 -0.2862 -1.0679 -0.3715
 2616SOL    HW2 8748   3.222   3.302   3.087 -0.1290  0.0826  0.5462
 2617SOL     OW 8749   4.116   3.283   4.351  0.1952  0.6282 -0.0496
 2617SOL    HW1 8750   4.215   3.273   4.353  0.1331  0.0648  0.6878
 2617SOL    HW2 8751   4.076   3.206   4.300 -0.0078 -0.6531  1.9205
 2618SOL     OW 8752   2.517   2.932   0.898  0.5159 -0.1931  0.2907
 2618SOL    HW1 8753   2.518   2.833   0.910  1.5985 -0.1485  0.7449
 2618SOL    HW2 8754   2.458   2.974   0.967 -0.1703 -0.5320 -0.0817
 2619SOL     OW 8755   5.621   5.363   3.120 -0.1463 -0.0492  0.4625
 2619SOL    HW1 8756   5.566   5.436   3.081  1.3489  1.8734  1.7723
 2619SOL    HW2 8757   5.718   5.380   3.101  0.3943 -0.6066  2.4061
 2620SOL     OW 8758   4.719   6.805   3.995  0.0113  0.3406 -0.3626
 2620SOL    HW1 8759   4.694   6.709   3.987 -2.0933  0.8099  0.0975
 2620SOL    HW2 8760   4.795   6.825   3.933  0.8777 -1.7166 -0.0565
 2621SOL     OW 8761   1.980   0.150   5.093 -0.3233  0.2396  0.4650
 2621SOL    HW1 8762   1.937   0.196   5.015  1.3377 -0.6933 -1.0698
 2621SOL    HW2 8763   1.914   0.087   5.135 -1.6925  1.7888  0.7821
 2622SOL     OW 8764   3.839   3.046   4.602 -0.2193 -0.0883  0.0584
 2622SOL    HW1 8765   3.762   3.023   4.660  0.5968  0.8546  1.5969
 2622SOL    HW2 8766   3.807   3.067   4.510 -1.6421 -0.8013  0.3703
 2623SOL     OW 8767   6.914   6.162   5.219  0.0588  0.2283 -0.3622
 2623SOL    HW1 8768   6.839   6.213   5.262  0.4392  0.3379  0.1861
 2623SOL    HW2 8769   6.887   6.133   5.128 -1.3065 -1.2548  0.4635
 2624SOL     OW 8770   0.535   0.877   6.937 -0.2102  0.2092 -0.0971
 2624SOL    HW1 8771   0.543   0.854   6.840 -0.4971 -4.9471  0.7948
 2624SOL    HW2 8772   0.624   0.869   6.981 -0.4900  0.0412  0.4516
 2625SOL     OW 8773   4.520   4.438   2.241 -0.4164  0.6129 -0.0179
 2625SOL    HW1 8774   4.445   4.395   2.191  1.1105 -2.6211  0.1927
 2625SOL    HW2 8775   4.513   4.537   2.233 -3.3218  0.3801 -1.9637
 2626SOL     OW 8776   2.364   6.170   4.063  0.0091  0.0322 -0.1497
 2626SOL    HW1 8777   2.299   6.125   4.124  1.0877 -0.4678  0.6588
 2626SOL    HW2 8778   2.427   6.103   4.026  0.4626  0.6076 -0.4414
 2627SOL     OW 8779   3.043   2.242   4.346  0.1998 -0.3620  0.2240
 2627SOL    HW1 8780   3.137   2.209   4.345  0.1664 -0.4614 -0.6799
 2627SOL    HW2 8781   3.002   2.228   4.256  0.3549  2.5943 -0.4080
 2628SOL     OW 8782   0.164   2.978   5.896 -0.5315 -0.0450  0.2724
 2628SOL    HW1 8783   0.105   2.904   5.928  0.3123 -0.2526  1.3864
 2628SOL    HW2 8784   0.238   2.993   5.961 -0.2027  1.2231 -0.3564
 2629SOL     OW 8785   1.060   0.025   6.616  0.1088  0.3347 -0.4369
 2629SOL    HW1 8786   1.058   0.100   6.683  0.6452 -0.4425  0.4724
 2629SOL    HW2 8787   1.156   0.003   6.596 -0.0520 -0.0558 -0.7629
 2630SOL     OW 8788   0.548   6.448   1.688 -0.0293  0.3193  0.4250
 2630SOL    HW1 8789   0.502   6.509   1.753 -0.9680 -1.7580  1.8277
 2630SOL    HW2 8790   0.594   6.375   1.739 -2.3013 -2.4278 -1.2281
 2631SOL     OW 8791   3.051   4.252   6.439  0.1757 -0.1148  0.1276
 2631SOL    HW1 8792   3.065   4.249   6.340  0.9116  1.2723  0.1662
 2631SOL    HW2 8793   2.972   4.196   6.463 -1.1650  1.0014 -1.4767
 2632SOL     OW 8794   2.105   0.355   5.727 -0.3425 -0.0838  0.1999
 2632SOL    HW1 8795   2.117   0.354   5.826 -0.5217 -0.9461  0.2139
 2632SOL    HW2 8796   2.140   0.442   5.691 -0.9319  0.5489  1.0877
 2633SOL     OW 8797   5.036   1.867   0.167  0.3070  0.0370 -0.3308
 2633SOL    HW1 8798   5.114   1.930   0.169 -0.1961  0.7267 -1.3719
 2633SOL    HW2 8799   4.961   1.906   0.221 -0.0524  0.4020 -1.0887
 2634SOL     OW 8800   0.470   5.381   5.809  0.2297 -0.1999 -0.2922
 2634SOL    HW1 8801   0.501   5.295   5.849  1.0458  0.2286  0.0331
 2634SOL    HW2 8802   0.383   5.367   5.761 -0.2401 -0.9403  0.7582
 2635SOL     OW 8803   2.391   0.107   2.588 -0.0798 -0.1676 -0.1719
 2635SOL    HW1 8804   2.369   0.184   2.647 -1.8570  0.6574 -1.8203
 2635SOL    HW2 8805   2.483   0.119   2.551  0.2264  0.3834  0.7236
 2636SOL     OW 8806   2.570   0.361   3.008  0.5877 -0.1506  0.1340
 2636SOL    HW1 8807   2.625   0.441   3.033  0.8475 -0.7418  1.6057
 2636SOL    HW2 8808   2.524   0.326   3.090  0.7663 -1.7053 -0.3971
 2637SOL     OW 8809   2.935   1.898   2.806 -0.0392  0.2628 -0.0472
 2637SOL    HW1 8810   2.936   1.925   2.709  0.2165  4.1196  0.8618
 2637SOL    HW2 8811   3.025   1.863   2.831  0.0570 -0.2649 -1.0591
 2638SOL     OW 8812   1.719   5.647   1.879  0.3465  0.0419 -0.0780
 2638SOL    HW1 8813   1.645   5.587   1.908 -0.5681  2.3942  2.8749
 2638SOL    HW2 8814   1.806   5.612   1.915 -0.1186  0.2124  1.2574
 2639SOL     OW 8815   0.228   5.148   3.328  0.4973 -0.1149 -0.0956
 2639SOL    HW1 8816   0.241   5.201   3.412 -0.5382  0.4612 -0.2754
 2639SOL    HW2 8817   0.181   5.062   3.351  1.1319 -0.4251  0.0458
 2640SOL     OW 8818   6.336   0.866   3.805  0.0219 -0.1539  0.8786
 2640SOL    HW1 8819   6.396   0.801   3.851  0.0986  0.0377  1.0509
 2640SOL    HW2 8820   6.247   0.824   3.787 -0.5513  0.2530  2.5886
 2641SOL     OW 8821   0.176   5.474   2.695  0.1958  0.1803 -0.0456
 2641SOL    HW1 8822   0.259   5.502   2.744  1.2995 -0.9955 -1.1546
 2641SOL    HW2 8823   0.196   5.394   2.639 -1.9625 -0.6870  0.3481
 2642SOL     OW 8824   6.841   5.460   1.766  0.3306  0.5399 -0.3849
 2642SOL    HW1 8825   6.765   5.410   1.725  1.6955 -1.7128 -0.3590
 2642SOL    HW2 8826   6.919   5.461   1.703  1.1323  0.4938  0.5673
 2643SOL     OW 8827   1.217   4.861   2.412 -0.2069 -0.1498 -0.4246
 2643SOL    HW1 8828   1.200   4.946   2.362  3.3897  1.7516  1.1653
 2643SOL    HW2 8829   1.298   4.816   2.374 -0.0045 -0.9803  0.9453
 2644SOL     OW 8830   5.414   2.524   2.608 -0.1742  0.2574 -0.2467
 2644SOL    HW1 8831   5.502   2.482   2.585 -0.4414 -0.6632  0.3530
 2644SOL    HW2 8832   5.403   2.526   2.708 -0.7385  0.5494 -0.3114
 2645SOL     OW 8833   6.039   1.251   2.878 -0.1603  0.2781 -0.0168
 2645SOL    HW1 8834   6.071   1.224   2.787  1.7798 -0.2287  0.7529
 2645SOL    HW2 8835   5.970   1.187   2.910  1.5985 -1.6186  0.2074
 2646SOL     OW 8836   6.717   3.285   3.125 -0.2994 -0.0870  0.0572
 2646SOL    HW1 8837   6.654   3.328   3.189 -1.1741  1.3563 -1.6999
 2646SOL    HW2 8838   6.762   3.355   3.070  0.2699 -1.2929 -1.0646
 2647SOL     OW 8839   1.805   3.445   4.576 -0.6989  0.4998  0.0195
 2647SOL    HW1 8840   1.808   3.464   4.478  0.8565  1.8563  0.2954
 2647SOL    HW2 8841   1.808   3.531   4.627  0.2828 -0.2368  1.2675
 2648SOL     OW 8842   0.423   4.918   2.650 -0.0315 -0.0076 -0.2847
 2648SOL    HW1 8843   0.416   4.960   2.559 -1.4866 -1.1421 -0.7334
 2648SOL    HW2 8844   0.337   4.930   2.699  1.0709  1.5242  1.4290
 2649SOL     OW 8845   3.367   0.735   0.899  0.0576 -0.0766 -0.4316
 2649SOL    HW1 8846   3.434   0.799   0.862  1.3899 -0.5379  1.0586
 2649SOL    HW2 8847   3.276   0.759   0.865  0.8254  1.1512 -1.7569
 2650SOL     OW 8848   1.286   2.424   5.212  0.0616  0.4038  0.3446
 2650SOL    HW1 8849   1.279   2.486   5.291 -0.7989  1.0627 -0.2400
 2650SOL    HW2 8850   1.230   2.458   5.137 -0.2670 -0.9816 -0.0728
 2651SOL     OW 8851   1.785   4.778   0.143  0.1740  0.0005  0.0903
 2651SOL    HW1 8852   1.795   4.709   0.214  1.4472  1.2015  1.1412
 2651SOL    HW2 8853   1.863   4.774   0.080 -0.1598 -0.0374 -0.3280
 2652SOL     OW 8854   3.779   4.092   6.251  0.1859  0.0834  0.7393
 2652SOL    HW1 8855   3.872   4.056   6.252 -0.7744 -2.6549  1.0679
 2652SOL    HW2 8856   3.750   4.103   6.156  0.6053  0.2526  0.6272
 2653SOL     OW 8857   2.705   5.350   0.409 -0.2822  0.5666  0.6875
 2653SOL    HW1 8858   2.795   5.314   0.384 -0.9908 -0.5529 -0.3932
 2653SOL    HW2 8859   2.640   5.274   0.417 -1.3536  1.4341  0.4902
 2654SOL     OW 8860   2.601   3.329   1.700 -0.1229 -0.4281 -0.8525
 2654SOL    HW1 8861   2.606   3.372   1.610  1.4218  1.0996 -0.1144
 2654SOL    HW2 8862   2.525   3.369   1.751 -0.4588 -0.6573 -1.1720
 2655SOL     OW 8863   1.601   0.851   4.828  0.1312  0.3043 -0.3559
 2655SOL    HW1 8864   1.639   0.814   4.912  0.4272  0.3771 -0.4549
 2655SOL    HW2 8865   1.540   0.927   4.849 -1.5729 -1.0941 -0.0516
 2656SOL     OW 8866   4.606   2.552   1.940  0.2351 -0.0381  0.0222
 2656SOL    HW1 8867   4.520   2.510   1.913 -0.1684  0.7220  0.1009
 2656SOL    HW2 8868   4.605   2.649   1.916  0.2666  0.4362  1.8391
 2657SOL     OW 8869   1.805   3.116   4.479 -0.0404 -0.2791 -0.1160
 2657SOL    HW1 8870   1.856   3.044   4.431  1.3045 -0.3784  1.3524
 2657SOL    HW2 8871   1.765   3.178   4.413  1.2404 -0.7286 -1.3788
 2658SOL     OW 8872   3.517   1.449   1.144  0.2804 -0.0763  0.1701
 2658SOL    HW1 8873   3.484   1.381   1.209 -0.2462 -0.0721 -0.0920
 2658SOL    HW2 8874   3.599   1.493   1.181 -0.2284  0.1936  1.0114
 2659SOL     OW 8875   4.884   1.016   0.427 -0.1632  0.2735 -0.0968
 2659SOL    HW1 8876   4.945   1.050   0.499 -0.1315 -0.9598  0.4681
 2659SOL    HW2 8877   4.922   1.042   0.338  1.1125 -0.3107  0.2439
 2660SOL     OW 8878   3.766   2.999   1.281  0.4649 -0.1048 -0.2266
 2660SOL    HW1 8879   3.803   3.090   1.301 -0.1340  0.1655 -0.3535
 2660SOL    HW2 8880   3.798   2.934   1.351  2.2049 -0.1502 -1.0004
 2661SOL     OW 8881   1.246   5.177   1.304 -0.1526 -0.0845  0.2772
 2661SOL    HW1 8882   1.167   5.143   1.356  0.6017 -1.2715  0.6815
 2661SOL    HW2 8883   1.275   5.108   1.239  1.4796 -0.3043  1.1802
 2662SOL     OW 8884   0.002   4.128   3.028  0.0022 -0.2595  0.3839
 2662SOL    HW1 8885  -0.033   4.103   3.118 -0.3149  0.4589  0.4617
 2662SOL    HW2 8886   0.037   4.046   2.982  1.6986 -0.4024  1.8110
 2663SOL     OW 8887   5.689   0.130   5.981  0.1341  0.2051 -0.1290
 2663SOL    HW1 8888   5.730   0.175   6.061  1.2858  0.3236 -0.7691
 2663SOL    HW2 8889   5.733   0.162   5.898 -0.4833 -0.5375 -0.7642
 2664SOL     OW 8890   5.827   1.246   0.353 -0.3467 -0.1011 -0.6862
 2664SOL    HW1 8891   5.788   1.271   0.441  1.5638  0.1057  0.1497
 2664SOL    HW2 8892   5.802   1.152   0.331 -0.9856 -0.0996 -0.0181
 2665SOL     OW 8893   4.905   1.856   3.981 -0.0480  0.3146  0.1955
 2665SOL    HW1 8894   4.981   1.896   4.033  0.9682 -0.9453 -0.2560
 2665SOL    HW2 8895   4.926   1.860   3.883 -0.1129 -0.8757  0.1136
 2666SOL     OW 8896   3.777   3.944   1.505 -0.2711  0.0872  0.2226
 2666SOL    HW1 8897   3.774   4.043   1.507 -0.9284  0.0725 -0.0333
 2666SOL    HW2 8898   3.806   3.909   1.594  1.0295  0.5358  0.0030
 2667SOL     OW 8899   1.721   4.471   5.173 -0.1620  0.1495 -0.2820
 2667SOL    HW1 8900   1.714   4.556   5.121  1.0183  0.5552  0.1816
 2667SOL    HW2 8901   1.767   4.402   5.117 -0.3981  0.0661 -0.3733
 2668SOL     OW 8902   4.068   2.228   3.345 -0.2862  0.1031  0.6402
 2668SOL    HW1 8903   4.120   2.260   3.266  0.1679 -0.7727  0.5712
 2668SOL    HW2 8904   3.973   2.210   3.319 -0.2553  0.2766  0.4100
 2669SOL     OW 8905   6.897   5.196   2.718 -0.4044  0.1937  0.1086
 2669SOL    HW1 8906   6.940   5.213   2.630 -0.3310 -1.8696 -0.2930
 2669SOL    HW2 8907   6.958   5.226   2.792 -0.2002  1.3443 -0.5110
 2670SOL     OW 8908   2.120   1.327   6.876  0.0450  0.4541 -0.1686
 2670SOL    HW1 8909   2.197   1.273   6.842 -0.7184 -0.5872 -0.2783
 2670SOL    HW2 8910   2.109   1.311   6.974 -1.6050 -1.4661 -0.5996
 2671SOL     OW 8911   2.351   5.186   1.132 -0.4459 -0.1348  0.0981
 2671SOL    HW1 8912   2.320   5.107   1.184  2.8067 -0.8453  1.2346
 2671SOL    HW2 8913   2.427   5.160   1.073 -0.3231  1.8417 -0.7039
 2672SOL     OW 8914   3.771   6.948   1.589  0.2575  0.4594  0.0285
 2672SOL    HW1 8915   3.834   6.875   1.612  0.3423  0.3272 -0.5928
 2672SOL    HW2 8916   3.736   6.934   1.496 -1.5357 -0.0679  0.7547
 2673SOL     OW 8917   3.917   3.100   5.810 -0.0309  0.1961 -0.5843
 2673SOL    HW1 8918   3.901   3.002   5.795  0.1685 -0.2586  1.7762
 2673SOL    HW2 8919   3.896   3.122   5.905  0.4024  2.3720 -0.9618
 2674SOL     OW 8920   2.004   0.663   4.553  0.2295 -0.2041 -0.1258
 2674SOL    HW1 8921   1.941   0.588   4.533  0.8062 -0.6838 -0.1644
 2674SOL    HW2 8922   1.976   0.707   4.638 -0.7739  0.2668 -0.6775
 2675SOL     OW 8923   3.421   0.844   2.162 -0.0975  0.2146  0.2036
 2675SOL    HW1 8924   3.515   0.851   2.197 -1.0183  2.9065  2.5346
 2675SOL    HW2 8925   3.403   0.922   2.101 -0.9170 -0.1257  0.0026
 2676SOL     OW 8926   2.748   1.520   2.325  0.3199 -0.0257 -0.1135
 2676SOL    HW1 8927   2.723   1.566   2.240 -1.0738 -0.3842  0.0802
 2676SOL    HW2 8928   2.723   1.423   2.319  0.3175 -0.0764  0.6631
 2677SOL     OW 8929   5.280   0.108   3.684 -0.1508 -0.4300 -0.3346
 2677SOL    HW1 8930   5.230   0.065   3.759  1.0103 -0.3670  0.5035
 2677SOL    HW2 8931   5.304   0.039   3.616 -2.1620 -0.2992 -1.2162
 2678SOL     OW 8932   2.110   3.515   1.242 -0.6876 -0.5214 -0.2194
 2678SOL    HW1 8933   2.181   3.444   1.246 -2.0586 -1.9199 -0.0840
 2678SOL    HW2 8934   2.085   3.542   1.335 -0.2818  0.0368 -0.2690
 2679SOL     OW 8935   3.182   2.583   1.307 -0.1501  0.7800 -1.0162
 2679SOL    HW1 8936   3.150   2.502   1.258  0.0666 -0.3046  0.5404
 2679SOL    HW2 8937   3.111   2.652   1.307 -0.8342  0.0950 -1.2971
 2680SOL     OW 8938   2.183   1.837   5.676 -0.0790 -0.8955 -0.2241
 2680SOL    HW1 8939   2.260   1.829   5.612  0.6844 -0.2139  0.5643
 2680SOL    HW2 8940   2.097   1.842   5.626  0.4370 -1.2039 -1.1536
 2681SOL     OW 8941   1.849   0.271   3.959 -0.0665 -0.4817  0.1675
 2681SOL    HW1 8942   1.777   0.296   3.894 -1.7164 -0.9519  1.7461
 2681SOL    HW2 8943   1.809   0.220   4.036  1.3540  2.0330  2.7661
 2682SOL     OW 8944   4.441   6.866   5.128  0.1158 -0.7516 -0.2572
 2682SOL    HW1 8945   4.514   6.819   5.178  0.2272  0.1673  0.4645
 2682SOL    HW2 8946   4.462   6.963   5.121  0.5018 -0.9516 -2.8476
 2683SOL     OW 8947   2.012   6.390   4.463 -0.2037 -0.3133  0.2071
 2683SOL    HW1 8948   1.932   6.436   4.502 -0.0269  0.6475 -0.5292
 2683SOL    HW2 8949   1.987   6.350   4.375  0.8376  2.7150 -1.5970
 2684SOL     OW 8950   5.198   3.992   2.522  0.6367  0.0116  0.6415
 2684SOL    HW1 8951   5.138   3.945   2.456  1.1768 -1.3029  1.0505
 2684SOL    HW2 8952   5.207   4.088   2.496 -0.7126 -0.0372 -0.0867
 2685SOL     OW 8953   2.289   2.396   3.340  0.1414 -0.0284  0.1788
 2685SOL    HW1 8954   2.232   2.333   3.393  1.0117 -0.8668  0.1521
 2685SOL    HW2 8955   2.232   2.450   3.279 -0.9165  1.1333  2.1098
 2686SOL     OW 8956   4.849   2.152   6.467  0.4218 -0.2174 -0.3206
 2686SOL    HW1 8957   4.884   2.245   6.459 -0.3143  0.0855 -0.0799
 2686SOL    HW2 8958   4.910   2.098   6.526  0.5778  0.2476 -0.0560
 2687SOL     OW 8959   4.127   3.514   6.198  0.2700 -0.7687  0.2107
 2687SOL    HW1 8960   4.221   3.525   6.230  0.0618 -0.3744  0.7012
 2687SOL    HW2 8961   4.065   3.564   6.258 -0.1617 -0.2099 -0.6684
 2688SOL     OW 8962   6.694   4.942   1.965  0.2140  0.2771 -0.2148
 2688SOL    HW1 8963   6.625   4.884   1.922 -2.2723  2.2164  0.9255
 2688SOL    HW2 8964   6.753   4.981   1.894  0.3557 -1.5957 -1.2008
 2689SOL     OW 8965   6.986   3.852   2.397 -0.5024  0.2201  0.4865
 2689SOL    HW1 8966   6.975   3.774   2.458  0.5411  0.4988  1.0520
 2689SOL    HW2 8967   6.899   3.872   2.353 -0.4388 -2.4052 -1.0962
 2690SOL     OW 8968   1.236   5.509   6.917  0.1613 -0.2479  0.5531
 2690SOL    HW1 8969   1.249   5.418   6.957  0.8882  0.2356  1.4840
 2690SOL    HW2 8970   1.256   5.578   6.987  2.8245  0.6707 -0.9638
 2691SOL     OW 8971   1.081   2.031   0.778 -0.3218 -0.2436 -0.3981
 2691SOL    HW1 8972   1.138   2.088   0.838  0.1763 -0.9185 -0.2115
 2691SOL    HW2 8973   0.999   2.081   0.752 -0.2140  0.3138  0.3027
 2692SOL     OW 8974   5.232   3.786   6.367 -0.0620 -0.2564 -0.0701
 2692SOL    HW1 8975   5.140   3.757   6.392 -0.8778  1.7355 -0.6073
 2692SOL    HW2 8976   5.272   3.840   6.442  1.4884 -2.6661  0.9736
 2693SOL     OW 8977   5.219   2.068   0.152 -0.0048  0.1396  0.0187
 2693SOL    HW1 8978   5.171   2.128   0.088  1.9871  0.4350 -1.2852
 2693SOL    HW2 8979   5.205   2.100   0.246 -0.6455  1.4100 -0.4975
 2694SOL     OW 8980   0.241   0.713   0.578 -0.3141  0.1612 -0.0001
 2694SOL    HW1 8981   0.250   0.614   0.570 -0.0238  0.2132 -0.3867
 2694SOL    HW2 8982   0.258   0.741   0.673  1.2173 -0.0054 -0.2015
 2695SOL     OW 8983   1.950   1.004   1.509  0.6483  0.0213  0.0697
 2695SOL    HW1 8984   1.853   0.980   1.514  0.2266  1.1328 -1.9385
 2695SOL    HW2 8985   1.985   1.020   1.601 -1.1256 -0.1783  0.8129
 2696SOL     OW 8986   0.681   4.502   6.101 -0.5211  0.4689  0.1555
 2696SOL    HW1 8987   0.701   4.413   6.060 -2.5529 -0.4793  1.0650
 2696SOL    HW2 8988   0.744   4.571   6.065  1.1223 -1.3196 -0.5615
 2697SOL     OW 8989   6.608   3.576   1.265  0.5752 -0.2139 -0.3924
 2697SOL    HW1 8990   6.693   3.606   1.220  0.2877  0.0758 -0.7494
 2697SOL    HW2 8991   6.621   3.484   1.302  1.0587 -0.1569 -0.4108
 2698SOL     OW 8992   2.778   6.021   4.084 -0.1430  0.1535 -0.7210
 2698SOL    HW1 8993   2.808   6.108   4.124 -1.0004  0.1520 -0.0357
 2698SOL    HW2 8994   2.854   5.956   4.086 -0.1949  0.0966  1.1203
 2699SOL     OW 8995   2.808   4.058   5.925  0.1320 -0.0777  0.7464
 2699SOL    HW1 8996   2.809   3.971   5.975 -2.1608 -1.1117 -0.8248
 2699SOL    HW2 8997   2.842   4.043   5.833 -0.2100  0.7162  0.4870
 2700SOL     OW 8998   6.085   4.857   2.638 -0.6494  0.1771 -0.4053
 2700SOL    HW1 8999   5.986   4.845   2.626 -0.4389  0.3938 -2.7602
 2700SOL    HW2 9000   6.125   4.893   2.554  1.8192 -2.2008 -0.3798
 2701SOL     OW 9001   3.364   1.677   1.091 -0.3111  0.4732 -0.0571
 2701SOL    HW1 9002   3.401   1.586   1.107 -0.1075  0.0124 -2.7286
 2701SOL    HW2 9003   3.264   1.674   1.100 -0.1205  0.7740  2.9938
 2702SOL     OW 9004   6.094   0.880   1.877 -0.3552  0.3015  0.4986
 2702SOL    HW1 9005   6.159   0.805   1.890 -0.5886 -0.2842 -1.4453
 2702SOL    HW2 9006   6.010   0.860   1.928 -0.5058 -0.8971 -0.1716
 2703SOL     OW 9007   6.911   1.688   3.225  0.4913 -0.4089 -0.0726
 2703SOL    HW1 9008   6.996   1.675   3.175  1.2461 -4.3532  1.9106
 2703SOL    HW2 9009   6.930   1.693   3.323 -1.5435 -3.3440  0.6019
 2704SOL     OW 9010   0.779   3.424   1.870  0.2098  0.2288  0.5544
 2704SOL    HW1 9011   0.736   3.511   1.895 -0.1241  0.4193 -0.6072
 2704SOL    HW2 9012   0.719   3.376   1.805  2.0051  0.7999 -1.6486
 2705SOL     OW 9013   2.827   2.674   7.006 -0.4866 -0.1484  0.3716
 2705SOL    HW1 9014   2.824   2.685   6.906  0.6558 -1.6872  0.1353
 2705SOL    HW2 9015   2.902   2.728   7.043 -1.1141  0.6867  0.4656
 2706SOL     OW 9016   3.306   0.148   3.915 -0.2882  0.2363 -0.2104
 2706SOL    HW1 9017   3.403   0.125   3.916 -0.2507  0.3768 -0.4807
 2706SOL    HW2 9018   3.281   0.185   3.826 -0.3555  1.1749  0.1775
 2707SOL     OW 9019   5.779   4.782   0.970 -0.1283 -0.0349  0.0153
 2707SOL    HW1 9020   5.792   4.699   0.916  0.8699 -0.8406  1.4251
 2707SOL    HW2 9021   5.683   4.793   0.993 -0.2015 -1.1526  0.3201
 2708SOL     OW 9022   6.597   5.314   6.163  0.1035  0.0524 -0.0687
 2708SOL    HW1 9023   6.589   5.278   6.256  0.7445  1.8760  0.7515
 2708SOL    HW2 9024   6.507   5.341   6.129  0.0886  1.2784  0.8738
 2709SOL     OW 9025   2.939   1.701   6.789 -0.3897 -0.4301 -0.7281
 2709SOL    HW1 9026   2.942   1.782   6.730  0.1129 -0.2705 -0.4909
 2709SOL    HW2 9027   2.848   1.661   6.787 -0.5715 -0.0017 -1.0458
 2710SOL     OW 9028   0.425   0.041   2.750  0.3876 -0.1100 -0.6384
 2710SOL    HW1 9029   0.337   0.014   2.712  0.9094  0.1198 -2.0845
 2710SOL    HW2 9030   0.432   0.009   2.845 -1.0428 -0.5367 -0.6547
 2711SOL     OW 9031   5.128   4.980   6.584 -0.2187 -0.8548  0.5133
 2711SOL    HW1 9032   5.094   4.893   6.621 -2.0749  0.4758  2.1753
 2711SOL    HW2 9033   5.051   5.033   6.549  0.8622  0.2236 -0.3057
 2712SOL     OW 9034   5.824   2.622   5.129  0.2810 -0.0905  0.7445
 2712SOL    HW1 9035   5.761   2.586   5.061 -0.3171  0.5798  0.9464
 2712SOL    HW2 9036   5.894   2.677   5.084 -0.8827  1.4722  0.7765
 2713SOL     OW 9037   2.213   0.822   2.908 -0.0364  0.1183 -0.2891
 2713SOL    HW1 9038   2.123   0.834   2.951  0.3075  0.6172  0.3063
 2713SOL    HW2 9039   2.204   0.762   2.829 -0.7779 -0.4099  0.1806
 2714SOL     OW 9040   2.045   5.870   1.179  0.0055 -0.0043 -0.1675
 2714SOL    HW1 9041   2.085   5.889   1.090  1.9307  0.9404  0.8471
 2714SOL    HW2 9042   1.948   5.848   1.168  0.3493 -0.5929 -2.5363
 2715SOL     OW 9043   0.605   6.713   6.933 -0.6192  0.1364  0.4167
 2715SOL    HW1 9044   0.562   6.665   7.010 -1.5391  0.3743  0.0657
 2715SOL    HW2 9045   0.567   6.805   6.927 -0.8348 -0.0135 -0.5587
 2716SOL     OW 9046   2.283   4.176   2.155 -0.4764 -0.1981  0.3524
 2716SOL    HW1 9047   2.262   4.178   2.058  0.9047  0.9688  0.0386
 2716SOL    HW2 9048   2.291   4.081   2.186 -0.1089 -0.5742 -0.8535
 2717SOL     OW 9049   1.651   5.477   3.053 -0.0339 -0.3393 -0.0830
 2717SOL    HW1 9050   1.729   5.532   3.023 -1.5983  1.2227 -1.5839
 2717SOL    HW2 9051   1.610   5.519   3.134  1.5304 -2.0418  1.6834
 2718SOL     OW 9052   1.936   2.641   6.076 -0.4899 -0.1201 -0.4224
 2718SOL    HW1 9053   1.901   2.652   5.983  1.7583  0.3250 -1.2765
 2718SOL    HW2 9054   2.006   2.569   6.077  0.2503  0.5757  0.7031
 2719SOL     OW 9055   6.671   5.238   5.271 -0.1484 -0.1109 -0.0930
 2719SOL    HW1 9056   6.673   5.198   5.179  2.1852  0.4768 -0.3752
 2719SOL    HW2 9057   6.593   5.300   5.278 -0.1514  0.1396 -1.8242
 2720SOL     OW 9058   2.061   2.663   0.669 -0.2032 -0.5659  0.4656
 2720SOL    HW1 9059   2.069   2.743   0.729 -0.3386 -0.3872  0.2482
 2720SOL    HW2 9060   2.071   2.692   0.574  3.1253 -1.2472  0.4815
 2721SOL     OW 9061   1.145   0.227   2.190 -0.1692  0.0329  0.3261
 2721SOL    HW1 9062   1.241   0.229   2.161 -0.5433 -0.7929 -1.0745
 2721SOL    HW2 9063   1.114   0.321   2.208  0.8397  0.3256  0.6460
 2722SOL     OW 9064   1.444   4.319   6.348 -0.5122  0.2391  0.4050
 2722SOL    HW1 9065   1.410   4.395   6.292 -0.9070 -0.9607 -1.0457
 2722SOL    HW2 9066   1.394   4.235   6.325  1.9124 -1.1366 -0.2161
 2723SOL     OW 9067   2.921   5.498   2.179 -0.4166 -0.4717  0.3153
 2723SOL    HW1 9068   2.949   5.484   2.274 -2.3245 -0.8464  0.8736
 2723SOL    HW2 9069   2.999   5.530   2.125  0.7950 -0.6096  1.9151
 2724SOL     OW 9070   4.402   1.897   6.250  0.0098 -0.3601  0.4181
 2724SOL    HW1 9071   4.466   1.956   6.300  0.4935 -1.3089  0.9326
 2724SOL    HW2 9072   4.328   1.869   6.310 -0.7532  0.4893 -0.0961
 2725SOL     OW 9073   3.106   3.150   0.040  0.1914 -0.3438 -0.6475
 2725SOL    HW1 9074   3.037   3.107   0.098  1.1756 -1.5428 -0.3254
 2725SOL    HW2 9075   3.062   3.195  -0.038 -0.9176 -1.4761 -0.6944
 2726SOL     OW 9076   0.399   0.531   4.361  0.4725 -0.5762 -0.1947
 2726SOL    HW1 9077   0.400   0.494   4.268 -0.9464  0.6477 -0.7413
 2726SOL    HW2 9078   0.476   0.493   4.413 -0.2213 -3.3950 -1.0118
 2727SOL     OW 9079   0.851   2.780   3.680  0.1737 -0.1424  0.0616
 2727SOL    HW1 9080   0.817   2.782   3.586 -1.0639  2.3813  0.4957
 2727SOL    HW2 9081   0.885   2.871   3.706  0.1405 -0.6726  2.1914
 2728SOL     OW 9082   4.268   5.132   4.544 -0.5132 -0.9546  0.8573
 2728SOL    HW1 9083   4.215   5.065   4.595 -1.0483 -1.2166 -0.0323
 2728SOL    HW2 9084   4.235   5.136   4.450 -1.4672  1.5628  1.2147
 2729SOL     OW 9085   5.435   3.766   4.276 -0.4377 -0.9546 -0.0861
 2729SOL    HW1 9086   5.483   3.744   4.361  0.3475 -0.2165 -0.3296
 2729SOL    HW2 9087   5.338   3.742   4.286 -0.9365  1.3840  1.9487
 2730SOL     OW 9088   3.632   2.328   0.072 -0.7089  0.1492 -0.4469
 2730SOL    HW1 9089   3.633   2.367   0.164  0.1216 -2.2882  0.6517
 2730SOL    HW2 9090   3.687   2.385   0.011  0.9786  0.3843  1.2109
 2731SOL     OW 9091   2.777   3.841   6.079 -0.5777  0.6188  0.3612
 2731SOL    HW1 9092   2.772   3.886   6.168 -0.6422 -0.0222  0.6875
 2731SOL    HW2 9093   2.700   3.779   6.068 -0.1382  0.0962  0.1895
 2732SOL     OW 9094   2.794   4.769   4.692  0.4121  0.8980  0.3006
 2732SOL    HW1 9095   2.882   4.797   4.654  0.8397  1.4003  1.5908
 2732SOL    HW2 9096   2.810   4.711   4.772 -0.3746  1.8549  1.1942
 2733SOL     OW 9097   0.420   4.314   3.102 -0.1031 -0.1461  0.5225
 2733SOL    HW1 9098   0.443   4.396   3.050  1.9538 -0.3844  0.9596
 2733SOL    HW2 9099   0.408   4.338   3.198  0.4007 -0.3273  0.6338
 2734SOL     OW 9100   5.474   2.560   5.282  0.3372 -0.4936  0.5682
 2734SOL    HW1 9101   5.409   2.616   5.333  0.6672 -2.2912  3.1246
 2734SOL    HW2 9102   5.557   2.547   5.336  1.1042 -1.7434 -0.8421
 2735SOL     OW 9103   6.747   0.216   4.093 -0.1309 -0.8811 -0.1362
 2735SOL    HW1 9104   6.725   0.159   4.014 -1.0072  0.2968 -0.7834
 2735SOL    HW2 9105   6.673   0.211   4.159 -1.2048  1.0091 -1.1067
 2736SOL     OW 9106   5.522   4.205   6.812  0.2162 -0.1295  0.6584
 2736SOL    HW1 9107   5.498   4.228   6.718 -2.8599 -1.1824  1.0700
 2736SOL    HW2 9108   5.539   4.106   6.820 -0.4307 -0.1976  1.3421
 2737SOL     OW 9109   1.139   0.870   4.212 -0.3066  0.1485 -0.1766
 2737SOL    HW1 9110   1.136   0.773   4.236 -1.9395  0.6738  1.9930
 2737SOL    HW2 9111   1.079   0.887   4.134  0.9110 -0.7146 -1.3670
 2738SOL     OW 9112   6.940   1.628   5.119 -0.2742  1.0816  0.1032
 2738SOL    HW1 9113   6.885   1.549   5.091  0.8566  0.7072 -1.1498
 2738SOL    HW2 9114   6.966   1.680   5.038  1.8087  0.8443  0.5805
 2739SOL     OW 9115   5.177   0.414   5.397 -0.2364  0.6083  0.7033
 2739SOL    HW1 9116   5.261   0.468   5.394 -0.5336  1.1683  1.7221
 2739SOL    HW2 9117   5.184   0.337   5.334  0.1062  1.9642 -0.9805
 2740SOL     OW 9118   6.148   5.041   0.089 -0.0686 -0.2639  0.3271
 2740SOL    HW1 9119   6.089   5.029   0.169  0.6081 -0.3961  0.8153
 2740SOL    HW2 9120   6.103   5.002   0.008 -0.1554 -1.4070  0.9043
 2741SOL     OW 9121   4.783   2.527   0.119  0.0928  0.4929 -0.3159
 2741SOL    HW1 9122   4.687   2.533   0.092 -0.6615 -0.3822  1.9724
 2741SOL    HW2 9123   4.803   2.594   0.190  0.3085 -1.3065  1.4237
 2742SOL     OW 9124   4.257   6.987   3.015  0.2482 -0.4411  0.2529
 2742SOL    HW1 9125   4.224   6.903   3.057  0.3189  0.4000  2.0782
 2742SOL    HW2 9126   4.229   7.065   3.071 -0.4703  0.8401 -1.7728
 2743SOL     OW 9127   5.140   3.215   0.817 -0.3309 -0.1775  0.4514
 2743SOL    HW1 9128   5.128   3.314   0.816 -1.2266 -0.1942  2.7816
 2743SOL    HW2 9129   5.233   3.192   0.787  0.3652  1.4782  1.2436
 2744SOL     OW 9130   5.926   0.505   1.389  0.2118  0.1345  0.0157
 2744SOL    HW1 9131   5.931   0.407   1.370 -1.5785  0.0503 -0.1792
 2744SOL    HW2 9132   6.014   0.548   1.367  0.2752 -1.0166 -2.2523
 2745SOL     OW 9133   0.466   3.921   2.849 -0.0450  0.5219  0.6178
 2745SOL    HW1 9134   0.403   3.972   2.907  1.4876  1.8050  1.2064
 2745SOL    HW2 9135   0.519   3.857   2.905 -1.3333 -1.1803  0.0085
 2746SOL     OW 9136   3.212   2.214   5.780 -0.1719 -0.6897  0.0184
 2746SOL    HW1 9137   3.254   2.186   5.867 -1.8222 -0.7452  0.8371
 2746SOL    HW2 9138   3.181   2.133   5.730 -1.4086 -0.5608  0.5415
 2747SOL     OW 9139   6.522   6.037   2.344  0.0319 -0.4067  0.1410
 2747SOL    HW1 9140   6.538   6.066   2.249 -0.7186 -1.0823 -0.2070
 2747SOL    HW2 9141   6.596   6.070   2.402 -0.1457  1.1230 -0.4497
 2748SOL     OW 9142   6.447   6.458   1.579 -0.5563 -0.3870 -0.1240
 2748SOL    HW1 9143   6.391   6.376   1.570  0.1887 -0.7955 -1.1947
 2748SOL    HW2 9144   6.398   6.526   1.634 -0.6869 -1.9644  1.7831
 2749SOL     OW 9145   1.437   6.482   6.219  0.1060  0.3406 -0.1207
 2749SOL    HW1 9146   1.490   6.566   6.231 -1.6906  1.6593 -0.9742
 2749SOL    HW2 9147   1.404   6.450   6.308 -1.8389  2.3831 -0.0326
 2750SOL     OW 9148   3.912   4.638   1.746  0.6313  0.1346  0.2329
 2750SOL    HW1 9149   3.931   4.733   1.725  1.7812 -0.0515  0.3550
 2750SOL    HW2 9150   3.814   4.625   1.757  0.3226  1.0080 -1.2000
 2751SOL     OW 9151   5.421   4.034   2.075  0.0157  0.6132  0.1334
 2751SOL    HW1 9152   5.452   3.949   2.118  0.2524  0.5279 -0.2011
 2751SOL    HW2 9153   5.337   4.065   2.119  0.1769  0.4511  0.5640
 2752SOL     OW 9154   1.868   2.878   2.468  0.0217 -0.0524 -0.6419
 2752SOL    HW1 9155   1.955   2.831   2.475  0.7650  1.1452 -1.4793
 2752SOL    HW2 9156   1.875   2.969   2.509 -1.4644 -0.7111  1.2078
 2753SOL     OW 9157   4.091   3.852   5.901 -0.0248  0.2835 -0.2855
 2753SOL    HW1 9158   4.114   3.885   5.992  0.1862 -0.7673  0.0518
 2753SOL    HW2 9159   4.014   3.905   5.865  1.2802  2.2204 -0.4321
 2754SOL     OW 9160   6.100   5.755   4.806  0.0787  0.5668  0.2575
 2754SOL    HW1 9161   6.196   5.780   4.796  0.2632 -0.1945  0.1043
 2754SOL    HW2 9162   6.043   5.833   4.780  0.6165  0.2871 -2.0125
 2755SOL     OW 9163   1.631   5.136   6.513 -0.5162  0.0227 -0.0513
 2755SOL    HW1 9164   1.543   5.118   6.557 -1.2345  1.9933 -0.5664
 2755SOL    HW2 9165   1.702   5.082   6.558 -1.8825 -1.2255  0.7187
 2756SOL     OW 9166   3.283   4.297   6.616 -0.1405 -0.0791 -0.0502
 2756SOL    HW1 9167   3.305   4.381   6.567 -0.0165  0.5712  1.0741
 2756SOL    HW2 9168   3.217   4.244   6.563  1.1891 -0.2075 -1.6633
 2757SOL     OW 9169   6.523   4.417   0.805  0.5848  0.4866  0.1434
 2757SOL    HW1 9170   6.592   4.363   0.756 -0.4057 -0.4824 -0.2252
 2757SOL    HW2 9171   6.475   4.476   0.741 -0.5749 -0.6369 -0.0738
 2758SOL     OW 9172   4.241   5.011   0.519  0.2337 -0.3267 -0.8697
 2758SOL    HW1 9173   4.332   4.990   0.483 -0.0451 -0.6851 -1.3791
 2758SOL    HW2 9174   4.198   4.928   0.554  0.7748  0.1241  0.9785
 2759SOL     OW 9175   0.407   1.244   1.872 -0.9995  0.0360  0.1750
 2759SOL    HW1 9176   0.481   1.189   1.911  0.0757  0.4630 -1.1566
 2759SOL    HW2 9177   0.435   1.340   1.870 -1.0014  0.0423 -1.5406
 2760SOL     OW 9178   1.569   1.372   6.566 -0.0703  0.2564  0.6903
 2760SOL    HW1 9179   1.665   1.382   6.593 -0.1191 -0.8042  1.3045
 2760SOL    HW2 9180   1.555   1.282   6.525 -0.3580  1.2135 -1.4397
 2761SOL     OW 9181   1.413   6.624   5.456 -0.5901 -0.1946 -0.1775
 2761SOL    HW1 9182   1.492   6.606   5.515  0.4383 -0.1313 -1.4841
 2761SOL    HW2 9183   1.428   6.581   5.367 -2.0145 -0.1243 -0.4728
 2762SOL     OW 9184   3.908   6.701   1.623 -0.8183  0.5518  0.5442
 2762SOL    HW1 9185   3.870   6.707   1.715  1.2938 -1.7070  1.6623
 2762SOL    HW2 9186   3.899   6.607   1.589  2.1656  0.2926  0.2245
 2763SOL     OW 9187   4.432   6.654   3.654 -0.2444 -0.3724  0.3367
 2763SOL    HW1 9188   4.408   6.749   3.635 -1.0400 -0.3262  1.4577
 2763SOL    HW2 9189   4.532   6.645   3.660 -0.1713  0.4403  0.4490
 2764SOL     OW 9190   1.575   0.196   5.796 -0.2260 -0.4039 -0.3038
 2764SOL    HW1 9191   1.554   0.122   5.731 -0.2931  1.1214 -2.1169
 2764SOL    HW2 9192   1.648   0.252   5.758  1.0158 -0.4979  1.8443
 2765SOL     OW 9193   0.974   3.978   5.390  0.3556 -0.2864  0.5336
 2765SOL    HW1 9194   0.985   3.997   5.293  2.1441 -1.4900  0.4604
 2765SOL    HW2 9195   0.955   4.064   5.438  2.6107  0.8804 -0.4807
 2766SOL     OW 9196   1.350   3.529   2.136 -0.4431 -0.2860  0.3116
 2766SOL    HW1 9197   1.310   3.620   2.145  2.1098  0.9165  0.5055
 2766SOL    HW2 9198   1.339   3.497   2.042 -0.5319  0.6649 -0.0174
 2767SOL     OW 9199   7.015   0.377   7.004 -0.0716  0.0576  0.3514
 2767SOL    HW1 9200   6.961   0.401   6.923 -0.9192 -0.2261  0.8173
 2767SOL    HW2 9201   7.086   0.446   7.018 -0.1508  0.3079 -0.4164
 2768SOL     OW 9202   6.893   5.678   5.452  0.5471 -0.1760 -1.0845
 2768SOL    HW1 9203   6.895   5.712   5.546 -1.0808  0.9109 -1.3891
 2768SOL    HW2 9204   6.803   5.638   5.433  0.4692  0.5775 -2.4847
 2769SOL     OW 9205   0.880   3.413   5.704  0.2411 -0.0985  0.3934
 2769SOL    HW1 9206   0.839   3.392   5.615  0.6994 -1.1602  0.4226
 2769SOL    HW2 9207   0.895   3.512   5.710 -3.5628  0.6223  0.9247
 2770SOL     OW 9208   3.507   0.216   2.494 -0.3298 -0.3848  0.3546
 2770SOL    HW1 9209   3.492   0.224   2.592  0.9237  3.2133  0.4097
 2770SOL    HW2 9210   3.491   0.305   2.450  0.0210 -1.6460 -2.5963
 2771SOL     OW 9211   6.910   2.266   3.907  0.1184  0.3735  0.5964
 2771SOL    HW1 9212   6.954   2.181   3.936  0.6307 -0.4491 -2.2905
 2771SOL    HW2 9213   6.812   2.250   3.893  0.4578 -0.2044 -1.3558
 2772SOL     OW 9214   5.275   2.894   5.931 -0.2223 -0.1677 -0.6079
 2772SOL    HW1 9215   5.260   2.808   5.882  0.4493 -0.0214 -1.0937
 2772SOL    HW2 9216   5.368   2.894   5.968 -0.8398 -0.4287  0.9942
 2773SOL     OW 9217   5.757   3.622   3.408 -0.5479  0.0426 -0.6116
 2773SOL    HW1 9218   5.671   3.596   3.452 -0.7648  0.3703 -0.8379
 2773SOL    HW2 9219   5.830   3.625   3.477 -0.3571 -1.8352 -0.6829
 2774SOL     OW 9220   5.946   2.359   0.995 -0.8663  0.0052 -0.4844
 2774SOL    HW1 9221   5.998   2.388   1.076  1.6419 -1.6465 -1.3825
 2774SOL    HW2 9222   5.926   2.439   0.938 -1.3654  0.9866  1.0045
 2775SOL     OW 9223   6.412   3.791   4.780 -0.2520  0.1774  0.6014
 2775SOL    HW1 9224   6.475   3.850   4.829 -0.8540  0.6585  0.8032
 2775SOL    HW2 9225   6.331   3.843   4.752 -0.3046 -0.2881 -0.1662
 2776SOL     OW 9226   2.862   4.094   6.517 -0.0041  0.6395  0.7712
 2776SOL    HW1 9227   2.825   4.046   6.596 -2.5773  1.7211  0.2984
 2776SOL    HW2 9228   2.816   4.062   6.434  0.2782  1.8952  0.1122
 2777SOL     OW 9229   2.185   0.921   0.223  0.2034 -0.1883  0.0341
 2777SOL    HW1 9230   2.243   0.989   0.177  0.9808 -0.4631  0.6023
 2777SOL    HW2 9231   2.089   0.945   0.209  0.3841 -0.4787 -2.0994
 2778SOL     OW 9232   0.522   1.161   1.461 -0.1595 -0.1555  0.1303
 2778SOL    HW1 9233   0.429   1.197   1.464 -0.1529 -0.0869 -0.3367
 2778SOL    HW2 9234   0.561   1.160   1.553  0.7121  3.3586 -0.0277
 2779SOL     OW 9235   5.830   5.041   5.184  0.2431 -0.5473 -0.7666
 2779SOL    HW1 9236   5.875   5.106   5.245  0.6403 -1.0234 -0.5490
 2779SOL    HW2 9237   5.803   4.960   5.236  0.3528 -0.8462 -1.1751
 2780SOL     OW 9238   0.627   4.287   4.450 -0.3491 -0.1525 -0.6130
 2780SOL    HW1 9239   0.697   4.238   4.398 -1.1368 -2.5347  0.4162
 2780SOL    HW2 9240   0.537   4.246   4.430 -0.9210  0.2530  1.0345
 2781SOL     OW 9241   5.536   3.362   6.076 -0.1174  0.6864  0.0943
 2781SOL    HW1 9242   5.471   3.432   6.048 -1.5099 -0.9412 -0.9284
 2781SOL    HW2 9243   5.609   3.356   6.007  0.9146  2.1876  1.0044
 2782SOL     OW 9244   4.598   2.635   5.848  0.3163 -0.2892 -0.0607
 2782SOL    HW1 9245   4.570   2.671   5.759 -1.9709 -1.5655  0.0623
 2782SOL    HW2 9246   4.649   2.550   5.835 -1.1841 -1.2011 -0.1581
 2783SOL     OW 9247   6.553   1.539   3.560  0.2421 -0.0415  0.0903
 2783SOL    HW1 9248   6.533   1.582   3.648  0.1070 -0.8357  0.4538
 2783SOL    HW2 9249   6.630   1.476   3.571 -0.5867 -1.0996 -0.0620
 2784SOL     OW 9250   0.086   6.893   4.599  0.1566  0.3489 -0.0592
 2784SOL    HW1 9251  -0.003   6.925   4.629  0.4501 -0.1245  1.3877
 2784SOL    HW2 9252   0.157   6.958   4.628  0.4321 -0.0256  0.1154
 2785SOL     OW 9253   0.389   4.577   2.603 -0.9384 -0.8247  0.3016
 2785SOL    HW1 9254   0.426   4.503   2.659 -0.4719 -0.3595  0.6157
 2785SOL    HW2 9255   0.464   4.632   2.566 -1.2549  1.4940  2.7572
 2786SOL     OW 9256   2.649   1.569   4.640 -0.0890 -0.4936  0.2513
 2786SOL    HW1 9257   2.643   1.661   4.603 -2.1554 -0.9480 -0.7047
 2786SOL    HW2 9258   2.703   1.511   4.579 -1.2622 -0.5911 -0.7378
 2787SOL     OW 9259   0.812   3.215   0.896  0.2773 -0.8028 -0.3035
 2787SOL    HW1 9260   0.849   3.279   0.828 -1.2062 -0.7322 -1.0747
 2787SOL    HW2 9261   0.885   3.155   0.927  1.4205  0.4190 -0.5131
 2788SOL     OW 9262   2.088   0.332   1.381  0.3925 -0.2465 -0.0783
 2788SOL    HW1 9263   2.100   0.295   1.474  1.5140  0.8157  0.2297
 2788SOL    HW2 9264   2.163   0.301   1.323 -0.5312 -1.2561 -0.7841
 2789SOL     OW 9265   5.002   4.225   5.696  0.6716  0.4720 -0.0654
 2789SOL    HW1 9266   5.018   4.308   5.642  0.1788  0.6466  0.0575
 2789SOL    HW2 9267   5.022   4.243   5.792  0.0984  0.5825  0.0315
 2790SOL     OW 9268   2.607   1.164   1.040 -0.0252  0.5803 -0.6822
 2790SOL    HW1 9269   2.679   1.095   1.048 -0.4180  0.2171 -0.2339
 2790SOL    HW2 9270   2.547   1.141   0.963 -0.6407 -0.0457 -0.0336
 2791SOL     OW 9271   4.629   5.208   6.799  0.2838  0.5172  0.0439
 2791SOL    HW1 9272   4.569   5.150   6.854  1.1081 -0.1076  0.3114
 2791SOL    HW2 9273   4.576   5.250   6.725 -0.7861  1.1485  1.1265
 2792SOL     OW 9274   5.197   3.169   6.952 -0.2194 -0.2822  0.3237
 2792SOL    HW1 9275   5.200   3.223   6.868  0.3096  0.5201  0.8440
 2792SOL    HW2 9276   5.288   3.133   6.973  0.0042  0.8438  1.3796
 2793SOL     OW 9277   5.316   3.273   6.222 -0.2958  0.2905 -0.1023
 2793SOL    HW1 9278   5.405   3.241   6.191 -0.2802 -0.3396  0.5631
 2793SOL    HW2 9279   5.281   3.343   6.159  0.5859  0.4201 -0.4556
 2794SOL     OW 9280   6.497   2.045   5.396  0.0863  0.0983 -0.1743
 2794SOL    HW1 9281   6.435   2.102   5.450 -0.3645 -1.0504  0.5423
 2794SOL    HW2 9282   6.587   2.045   5.439  0.2564  0.7329 -0.5088
 2795SOL     OW 9283   1.916   0.342   5.425  0.3776 -0.1057 -0.4060
 2795SOL    HW1 9284   2.003   0.392   5.428  0.0129  0.5259 -0.3053
 2795SOL    HW2 9285   1.900   0.310   5.331  1.4154 -1.4937 -0.1451
 2796SOL     OW 9286   0.515   4.032   0.890 -0.4571 -0.3681  0.1196
 2796SOL    HW1 9287   0.455   4.058   0.814  0.3052  1.1346 -0.0200
 2796SOL    HW2 9288   0.603   4.079   0.880 -0.6093  0.5050  2.3335
 2797SOL     OW 9289   5.880   0.829   2.043 -0.1032  0.3752  0.6938
 2797SOL    HW1 9290   5.838   0.918   2.028  0.0477  0.1702 -1.1823
 2797SOL    HW2 9291   5.811   0.765   2.077 -0.7058  0.7230  0.1578
 2798SOL     OW 9292   3.533   1.611   6.655  0.3692 -0.5159 -1.1538
 2798SOL    HW1 9293   3.541   1.575   6.748 -1.3829 -0.1299 -0.8290
 2798SOL    HW2 9294   3.489   1.701   6.657  0.2571 -0.5241 -2.3641
 2799SOL     OW 9295   6.513   5.400   4.186 -0.3114  0.0221  0.2287
 2799SOL    HW1 9296   6.484   5.360   4.273  1.0025  0.3964  0.8558
 2799SOL    HW2 9297   6.544   5.328   4.124 -0.8624 -0.2010  0.2013
 2800SOL     OW 9298   5.085   1.063   4.767 -0.8846 -0.6185  0.4134
 2800SOL    HW1 9299   5.060   1.071   4.670 -4.7692 -0.4756  1.2498
 2800SOL    HW2 9300   5.101   1.154   4.805  1.0084 -0.6982 -0.0999
 2801SOL     OW 9301   6.900   3.686   3.209 -0.4562  0.0181  0.1794
 2801SOL    HW1 9302   6.949   3.768   3.177  0.0086  0.1595  1.2271
 2801SOL    HW2 9303   6.803   3.694   3.185 -0.3788  0.7664  0.0728
 2802SOL     OW 9304   6.480   4.921   6.515  0.0508 -0.4304  0.2539
 2802SOL    HW1 9305   6.549   4.879   6.458  0.4408 -0.3179  0.6363
 2802SOL    HW2 9306   6.437   4.997   6.466 -0.5557 -1.1680 -0.3815
 2803SOL     OW 9307   0.488   4.693   4.668 -0.0021 -0.4652  1.0861
 2803SOL    HW1 9308   0.425   4.770   4.679  0.3170  0.1850 -1.1061
 2803SOL    HW2 9309   0.575   4.727   4.633  0.4830 -1.7279  1.0358
 2804SOL     OW 9310   5.549   4.109   0.325 -0.8592  0.6036 -0.1100
 2804SOL    HW1 9311   5.617   4.057   0.378 -1.2379 -1.8004 -1.8167
 2804SOL    HW2 9312   5.528   4.194   0.373  0.3611 -0.4422  2.5106
 2805SOL     OW 9313   6.601   3.385   6.383 -0.6515  0.3550 -0.0367
 2805SOL    HW1 9314   6.537   3.462   6.377  1.2358  2.0177  0.3462
 2805SOL    HW2 9315   6.659   3.396   6.464  1.6621  0.1717 -1.5741
 2806SOL     OW 9316   3.510   1.660   1.630  0.0655  0.3023 -0.1602
 2806SOL    HW1 9317   3.578   1.723   1.594  2.2002 -1.5448  0.3841
 2806SOL    HW2 9318   3.502   1.672   1.729 -1.5598  1.4965 -0.3937
 2807SOL     OW 9319   5.892   3.393   6.354 -1.0319  0.2439 -0.1244
 2807SOL    HW1 9320   5.956   3.329   6.397 -1.7911  0.0827  0.8049
 2807SOL    HW2 9321   5.912   3.398   6.256  0.9038  0.7988  0.2446
 2808SOL     OW 9322   5.048   3.452   3.937  0.2003 -0.1937  0.4771
 2808SOL    HW1 9323   4.990   3.450   3.855  0.9262  2.3776 -0.1974
 2808SOL    HW2 9324   4.992   3.428   4.017 -1.4230  0.5720 -0.3627
 2809SOL     OW 9325   2.843   6.713   2.328 -0.0072  0.0213  0.6212
 2809SOL    HW1 9326   2.830   6.727   2.229 -0.6736 -0.5419  0.6201
 2809SOL    HW2 9327   2.786   6.777   2.378 -0.4050 -0.3428  0.6347
 2810SOL     OW 9328   5.102   4.460   6.312 -0.3387  0.0573  0.4889
 2810SOL    HW1 9329   5.149   4.539   6.351 -0.6926  0.7506 -0.4617
 2810SOL    HW2 9330   5.021   4.490   6.263 -1.3828 -1.0466  1.4566
 2811SOL     OW 9331   1.220   0.189   3.522 -0.3780 -0.0540 -0.0456
 2811SOL    HW1 9332   1.319   0.181   3.512 -0.5702 -1.5085 -1.1400
 2811SOL    HW2 9333   1.189   0.275   3.483  0.4801  0.5636  0.6030
 2812SOL     OW 9334   0.990   2.735   1.660  0.4860 -0.0905  0.7249
 2812SOL    HW1 9335   1.054   2.740   1.583 -0.1799 -1.1181  0.0812
 2812SOL    HW2 9336   0.967   2.828   1.690  2.7966  0.3223  1.4456
 2813SOL     OW 9337   0.976   0.432   2.446 -0.4448  0.1967  0.5710
 2813SOL    HW1 9338   1.059   0.475   2.485 -0.3488  1.2069 -0.6892
 2813SOL    HW2 9339   0.953   0.476   2.360 -2.1304 -0.3014  0.7314
 2814SOL     OW 9340   5.879   3.313   4.010 -0.0516  0.1846 -0.1436
 2814SOL    HW1 9341   5.895   3.373   3.931 -0.1157  1.6459  0.9215
 2814SOL    HW2 9342   5.807   3.353   4.068 -0.3971 -1.1476  0.3849
 2815SOL     OW 9343   5.674   0.183   2.283 -0.1012 -0.0473 -0.1660
 2815SOL    HW1 9344   5.595   0.243   2.277  0.8064  1.2514  0.3867
 2815SOL    HW2 9345   5.735   0.200   2.205 -0.7703 -1.7046 -1.1107
 2816SOL     OW 9346   5.816   5.055   6.499  0.5278 -0.1518  0.2361
 2816SOL    HW1 9347   5.882   5.123   6.531 -0.5914  2.1310 -1.9692
 2816SOL    HW2 9348   5.732   5.061   6.552 -0.3567  1.7859 -1.2758
 2817SOL     OW 9349   3.539   6.496   2.169 -0.5724  0.2612 -0.3750
 2817SOL    HW1 9350   3.635   6.516   2.150 -0.2511  2.2247  2.6794
 2817SOL    HW2 9351   3.534   6.425   2.239 -1.1589  1.9465  1.3822
 2818SOL     OW 9352   6.913   5.639   6.869  0.2384 -0.3688 -0.7764
 2818SOL    HW1 9353   6.973   5.647   6.949 -0.0045  3.1563 -0.8090
 2818SOL    HW2 9354   6.883   5.544   6.860  1.5581 -1.2206  2.3359
 2819SOL     OW 9355   6.536   3.724   1.480 -0.2349  0.3677 -0.2036
 2819SOL    HW1 9356   6.623   3.768   1.504 -0.9733  3.0364 -1.9953
 2819SOL    HW2 9357   6.546   3.674   1.394 -0.0226 -1.0416  0.6074
 2820SOL     OW 9358   6.142   4.778   5.207  0.4975  0.6371  0.2498
 2820SOL    HW1 9359   6.240   4.799   5.207  0.7384 -0.2759 -1.6373
 2820SOL    HW2 9360   6.107   4.782   5.113 -0.7847 -1.1768  0.5946
 2821SOL     OW 9361   5.793   0.797   0.953 -0.1030 -0.5257  0.2639
 2821SOL    HW1 9362   5.735   0.762   0.879 -0.3448  0.3410  0.0397
 2821SOL    HW2 9363   5.738   0.856   1.013  0.5875  0.4213 -0.0321
 2822SOL     OW 9364   2.836   2.265   2.478 -0.1950 -0.1551  0.7098
 2822SOL    HW1 9365   2.816   2.264   2.380  0.7378  2.1360  0.4340
 2822SOL    HW2 9366   2.783   2.194   2.523  0.5705 -2.3868 -1.6447
 2823SOL     OW 9367   5.365   0.471   5.650 -0.0818  0.3639 -0.2993
 2823SOL    HW1 9368   5.276   0.502   5.684 -0.0166  0.7199 -0.4488
 2823SOL    HW2 9369   5.387   0.519   5.565  1.7443  2.7647  1.3927
 2824SOL     OW 9370   1.516   1.552   5.459  0.1590  0.1279 -0.1017
 2824SOL    HW1 9371   1.554   1.533   5.550  0.3717 -0.6423 -0.3387
 2824SOL    HW2 9372   1.425   1.592   5.469  0.7054  1.2956  0.4634
 2825SOL     OW 9373   4.449   1.659   5.800  0.0736  0.1703  0.5937
 2825SOL    HW1 9374   4.448   1.559   5.797 -0.2564  0.1948 -0.7143
 2825SOL    HW2 9375   4.356   1.693   5.814 -0.0821  0.3140 -0.7049
 2826SOL     OW 9376   2.743   5.536   4.614 -0.0434 -0.4577  0.3033
 2826SOL    HW1 9377   2.684   5.465   4.653  1.7476 -1.7447  0.8378
 2826SOL    HW2 9378   2.803   5.573   4.685 -0.5813  1.2605 -0.0864
 2827SOL     OW 9379   4.990   3.537   5.286  0.1549 -0.0661  0.0547
 2827SOL    HW1 9380   4.975   3.448   5.243 -0.1036  0.6635 -1.4633
 2827SOL    HW2 9381   5.081   3.571   5.264  0.1224  0.1949  0.3096
 2828SOL     OW 9382   1.971   6.762   4.669 -0.0556  0.3007 -0.0515
 2828SOL    HW1 9383   1.937   6.819   4.743  0.9417 -0.7067  1.2418
 2828SOL    HW2 9384   2.070   6.751   4.678 -0.2507 -1.8969 -0.0140
 2829SOL     OW 9385   5.069   3.384   5.996 -0.4016 -0.4108 -0.2497
 2829SOL    HW1 9386   5.120   3.421   5.920 -1.1922  0.0036 -0.5953
 2829SOL    HW2 9387   5.033   3.294   5.972 -1.8976  0.3390 -0.9487
 2830SOL     OW 9388   1.827   3.509   3.416 -0.1610 -0.5087  0.0558
 2830SOL    HW1 9389   1.750   3.524   3.355  0.2593  0.5659 -0.2291
 2830SOL    HW2 9390   1.830   3.580   3.486  1.8132  0.8177 -1.2643
 2831SOL     OW 9391   6.216   1.457   4.249  0.3791 -0.0234 -0.3446
 2831SOL    HW1 9392   6.213   1.431   4.346  0.8897  0.8633 -0.0755
 2831SOL    HW2 9393   6.254   1.549   4.241  1.9274 -0.7286 -1.5349
 2832SOL     OW 9394   5.187   3.483   5.780  0.3976  0.5503 -0.3170
 2832SOL    HW1 9395   5.150   3.474   5.687 -1.1290 -1.1974  0.3886
 2832SOL    HW2 9396   5.170   3.576   5.813 -0.9949  0.5796 -1.0190
 2833SOL     OW 9397   5.594   1.027   1.487  0.0652 -0.2070 -0.3097
 2833SOL    HW1 9398   5.629   0.947   1.439  0.8570  0.0568 -0.1915
 2833SOL    HW2 9399   5.561   1.000   1.577  2.5358 -0.0983  0.7299
 2834SOL     OW 9400   1.800   2.909   5.702  0.0221 -0.2815 -0.3747
 2834SOL    HW1 9401   1.701   2.924   5.698 -0.0956 -1.3480 -2.5587
 2834SOL    HW2 9402   1.819   2.824   5.752  0.2295  2.0980  4.2164
 2835SOL     OW 9403   1.281   3.216   4.454 -0.3172 -0.1945 -0.1129
 2835SOL    HW1 9404   1.211   3.274   4.494 -0.9695  0.5865 -2.2619
 2835SOL    HW2 9405   1.343   3.271   4.398 -0.3031 -1.3858 -1.3280
 2836SOL     OW 9406   3.360   2.677   0.919 -0.0860  0.4974 -0.5654
 2836SOL    HW1 9407   3.342   2.580   0.932  1.0393  0.3312 -0.1351
 2836SOL    HW2 9408   3.457   2.691   0.898 -0.1726  1.5468 -0.3478
 2837SOL     OW 9409   1.414   0.289   1.469 -0.1825  0.4601 -0.3759
 2837SOL    HW1 9410   1.433   0.382   1.438 -0.7273  1.4311  2.0004
 2837SOL    HW2 9411   1.380   0.235   1.392  1.0746  1.9036 -2.0469
 2838SOL     OW 9412   5.952   5.251   6.929 -0.3604 -0.6636  0.0982
 2838SOL    HW1 9413   5.925   5.154   6.925  0.4937 -1.0749  2.4429
 2838SOL    HW2 9414   5.915   5.292   7.012  1.1493  0.3910  0.2913
 2839SOL     OW 9415   0.879   4.169   4.354 -0.7127  0.2331 -0.8078
 2839SOL    HW1 9416   0.951   4.238   4.350 -0.6470  0.1363 -1.4994
 2839SOL    HW2 9417   0.914   4.087   4.400 -0.0507 -0.1825 -2.0111
 2840SOL     OW 9418   5.521   2.667   4.080  0.2794 -0.0538 -0.1421
 2840SOL    HW1 9419   5.566   2.640   3.995 -0.2050 -2.3317  0.2714
 2840SOL    HW2 9420   5.427   2.636   4.080 -0.1257  1.0874  0.7105
 2841SOL     OW 9421   2.432   2.761   6.834  0.2786 -0.2888 -0.0564
 2841SOL    HW1 9422   2.435   2.859   6.852 -0.1608 -0.5432  1.4821
 2841SOL    HW2 9423   2.354   2.720   6.881 -0.9754 -1.0339 -2.6067
 2842SOL     OW 9424   2.831   6.702   6.715 -0.0843  0.3516  0.1780
 2842SOL    HW1 9425   2.871   6.610   6.714 -0.1662  0.3160  0.2742
 2842SOL    HW2 9426   2.902   6.768   6.691 -0.2575  0.1704 -0.9329
 2843SOL     OW 9427   6.332   2.382   4.293  0.3781 -0.4174  0.1763
 2843SOL    HW1 9428   6.386   2.299   4.305 -2.3427 -2.2368  0.6645
 2843SOL    HW2 9429   6.302   2.416   4.382  0.4801  0.4064 -0.0941
 2844SOL     OW 9430   6.393   0.439   3.754 -0.3961  0.0577 -0.3083
 2844SOL    HW1 9431   6.442   0.402   3.833 -0.1089 -0.4639 -0.7275
 2844SOL    HW2 9432   6.296   0.447   3.777 -0.3729 -0.4177 -0.0108
 2845SOL     OW 9433   3.803   0.342   2.125  0.5611  0.9418  0.0836
 2845SOL    HW1 9434   3.786   0.322   2.222  0.0169 -0.8488 -0.3449
 2845SOL    HW2 9435   3.731   0.300   2.069  2.7401 -1.1632 -1.3286
 2846SOL     OW 9436   0.721   5.507   1.203  0.4173  0.0769  0.6308
 2846SOL    HW1 9437   0.636   5.553   1.176 -0.4654 -1.3552  0.8433
 2846SOL    HW2 9438   0.796   5.540   1.146 -0.4559  0.7347 -0.1702
 2847SOL     OW 9439   1.590   3.116   2.226 -0.0317 -0.5122 -0.7683
 2847SOL    HW1 9440   1.516   3.174   2.260  1.1869  1.1126 -0.7773
 2847SOL    HW2 9441   1.577   3.100   2.128 -0.4099 -0.2992 -0.7540
 2848SOL     OW 9442   0.607   3.071   3.891  0.6527 -0.1952 -0.4751
 2848SOL    HW1 9443   0.538   3.052   3.960  1.7533  0.6036  0.8936
 2848SOL    HW2 9444   0.695   3.089   3.935  0.8313  3.1019 -1.8732
 2849SOL     OW 9445   1.759   4.968   5.380 -0.1862 -0.2734 -0.2040
 2849SOL    HW1 9446   1.704   5.047   5.352  0.4338  0.2756  0.1103
 2849SOL    HW2 9447   1.818   4.993   5.457  3.2453  0.3005 -2.7846
 2850SOL     OW 9448   0.315   1.499   4.407  0.0548  0.1720 -0.4821
 2850SOL    HW1 9449   0.254   1.556   4.463 -0.2076 -0.5733  0.0091
 2850SOL    HW2 9450   0.280   1.495   4.313  0.6489  1.6576 -0.7905
 2851SOL     OW 9451   3.933   2.185   4.362 -0.9735  0.4568  0.0102
 2851SOL    HW1 9452   3.835   2.168   4.362 -0.5954 -2.1671  1.1675
 2851SOL    HW2 9453   3.973   2.148   4.446  1.0765  1.1309 -0.6099
 2852SOL     OW 9454   1.380   5.228   3.547 -0.4049 -0.1617  0.0156
 2852SOL    HW1 9455   1.352   5.277   3.630 -0.5397  0.4217 -0.3697
 2852SOL    HW2 9456   1.477   5.243   3.530 -0.6564  0.8150 -0.6535
 2853SOL     OW 9457   0.501   2.192   4.928 -0.2451  0.0707  0.0909
 2853SOL    HW1 9458   0.476   2.109   4.977 -0.5868  1.2096  1.9189
 2853SOL    HW2 9459   0.457   2.271   4.971  0.5236  1.2820 -1.2537
 2854SOL     OW 9460   5.406   2.311   0.858  0.3054 -0.8791  0.5639
 2854SOL    HW1 9461   5.315   2.275   0.877  0.4272 -1.5080 -0.0149
 2854SOL    HW2 9462   5.449   2.257   0.786  0.8819 -0.1785  0.3710
 2855SOL     OW 9463   5.247   0.535   2.040 -0.0765 -0.4676 -0.0846
 2855SOL    HW1 9464   5.214   0.476   1.966  0.8488 -1.2167  0.0964
 2855SOL    HW2 9465   5.183   0.530   2.117  0.4717 -1.9929  0.3019
 2856SOL     OW 9466   1.992   6.398   0.129 -0.2954  0.5886  0.2789
 2856SOL    HW1 9467   2.033   6.370   0.216 -0.2176  1.1578  0.4297
 2856SOL    HW2 9468   2.025   6.489   0.105  1.2246 -0.3271 -1.3250
 2857SOL     OW 9469   4.844   3.138   6.650 -0.0010  0.0106 -0.2511
 2857SOL    HW1 9470   4.789   3.185   6.582  1.2521  0.6663 -0.8389
 2857SOL    HW2 9471   4.858   3.199   6.729  0.5431  0.1542 -0.4542
 2858SOL     OW 9472   4.944   4.237   1.817 -0.2461  0.3757  0.7821
 2858SOL    HW1 9473   4.910   4.281   1.734  0.5995 -1.0298 -0.3642
 2858SOL    HW2 9474   5.034   4.275   1.841 -0.8048  1.2947  1.5184
 2859SOL     OW 9475   3.797   2.146   3.294  0.2457  0.6177 -0.2922
 2859SOL    HW1 9476   3.798   2.135   3.393  1.5346  2.2193 -0.0867
 2859SOL    HW2 9477   3.715   2.102   3.256  0.0993 -0.6249  1.3817
 2860SOL     OW 9478   0.633   1.155   2.735  0.3475 -0.1128 -0.5954
 2860SOL    HW1 9479   0.733   1.146   2.729  0.6787  2.0315  0.6991
 2860SOL    HW2 9480   0.602   1.219   2.665 -0.1816 -0.9688 -1.1594
 2861SOL     OW 9481   4.132   5.373   6.841  0.0224  0.2325 -0.0939
 2861SOL    HW1 9482   4.117   5.452   6.781  3.3152  0.4611 -0.7883
 2861SOL    HW2 9483   4.204   5.394   6.907  0.3541 -1.9033  0.3011
 2862SOL     OW 9484   1.743   0.170   6.103 -0.1302  0.2194  0.2813
 2862SOL    HW1 9485   1.693   0.084   6.092 -0.1148  0.4218 -1.7499
 2862SOL    HW2 9486   1.787   0.194   6.016  0.4710  1.9081  1.0188
 2863SOL     OW 9487   1.773   6.892   5.339  0.3875  0.9911  0.4679
 2863SOL    HW1 9488   1.831   6.867   5.417  0.0419  3.1534  1.4979
 2863SOL    HW2 9489   1.679   6.907   5.372 -0.2472 -0.0926 -0.7590
 2864SOL     OW 9490   3.161   5.141   0.744  0.0053  0.2256 -0.1150
 2864SOL    HW1 9491   3.128   5.225   0.700 -0.7705 -0.0808 -0.1202
 2864SOL    HW2 9492   3.186   5.162   0.839 -0.0540  0.4891 -0.1555
 2865SOL     OW 9493   2.305   6.450   3.153 -0.2361 -0.0904  0.7308
 2865SOL    HW1 9494   2.207   6.430   3.159 -0.0692 -0.8567  0.9562
 2865SOL    HW2 9495   2.356   6.383   3.206  0.5421 -0.8724 -0.9403
 2866SOL     OW 9496   4.277   0.409   4.182 -0.8232  0.2654  0.4204
 2866SOL    HW1 9497   4.252   0.425   4.277  0.7991  1.7869  0.6328
 2866SOL    HW2 9498   4.202   0.361   4.136 -1.9362  0.1500  2.2548
 2867SOL     OW 9499   4.420   0.299   1.381 -0.7808  0.0850  0.1326
 2867SOL    HW1 9500   4.392   0.209   1.347 -1.5131  0.0583  0.7761
 2867SOL    HW2 9501   4.383   0.370   1.322  0.7412 -0.0394 -1.0468
 2868SOL     OW 9502   6.152   0.807   2.254 -0.3183  0.4952 -0.2481
 2868SOL    HW1 9503   6.218   0.850   2.191 -1.9145 -0.3658 -2.6496
 2868SOL    HW2 9504   6.094   0.744   2.203 -1.3175 -0.7456  2.2783
 2869SOL     OW 9505   6.855   3.928   4.234  0.0312  0.3857  0.1206
 2869SOL    HW1 9506   6.806   3.947   4.149 -0.5503 -0.4418  0.2594
 2869SOL    HW2 9507   6.793   3.940   4.312  0.0811 -0.4955  0.3099
 2870SOL     OW 9508   3.735   4.104   0.496 -0.3198  0.3076 -0.4075
 2870SOL    HW1 9509   3.810   4.132   0.437  1.2513  0.6141  1.6117
 2870SOL    HW2 9510   3.652   4.092   0.442  1.2078 -0.2702 -2.7611
 2871SOL     OW 9511   4.101   2.287   6.279 -0.0815  0.2131  0.1308
 2871SOL    HW1 9512   4.132   2.326   6.192 -1.5969  1.6343  0.1784
 2871SOL    HW2 9513   4.106   2.357   6.350 -1.3652 -0.1416  0.5889
 2872SOL     OW 9514   1.952   1.122   0.528  0.3127 -0.0239 -0.0391
 2872SOL    HW1 9515   1.942   1.059   0.605 -2.0356  0.7225  0.3330
 2872SOL    HW2 9516   2.022   1.190   0.549  0.8741 -0.8140  0.7265
 2873SOL     OW 9517   4.906   3.077   6.141  0.4229  0.4367  0.0077
 2873SOL    HW1 9518   4.989   3.043   6.186  0.8727  1.2348 -0.1913
 2873SOL    HW2 9519   4.857   3.137   6.204 -0.0982 -0.1607  0.1803
 2874SOL     OW 9520   4.691   0.309   1.403  0.1233 -0.2315 -0.8010
 2874SOL    HW1 9521   4.725   0.322   1.497  1.4244 -1.8868 -1.0132
 2874SOL    HW2 9522   4.591   0.310   1.404  0.1169  0.7834  0.4419
 2875SOL     OW 9523   2.322   1.631   3.668  0.0142 -0.1713 -0.0234
 2875SOL    HW1 9524   2.270   1.550   3.696 -1.1605  0.3830 -0.5314
 2875SOL    HW2 9525   2.280   1.713   3.708  1.1146  0.2203  0.3836
 2876SOL     OW 9526   1.146   4.162   3.835  0.3065 -0.0111 -0.0776
 2876SOL    HW1 9527   1.202   4.150   3.917  2.7980  0.2301 -1.6418
 2876SOL    HW2 9528   1.073   4.228   3.854  0.6395 -0.1585  1.9885
 2877SOL     OW 9529   5.598   2.004   2.316  0.3269  0.6412  0.2872
 2877SOL    HW1 9530   5.666   2.076   2.328  1.1971 -0.0018 -0.6681
 2877SOL    HW2 9531   5.508   2.046   2.304  0.3693  1.4731  2.4562
 2878SOL     OW 9532   0.857   4.107   4.703  0.0365 -0.4481 -0.0210
 2878SOL    HW1 9533   0.937   4.155   4.741 -0.0797  0.1687 -0.5362
 2878SOL    HW2 9534   0.777   4.125   4.760  0.2846 -1.1522  0.5555
 2879SOL     OW 9535   3.332   1.967   5.905  0.3264  0.1701 -0.1175
 2879SOL    HW1 9536   3.340   1.872   5.935  1.4035  0.5696  0.9242
 2879SOL    HW2 9537   3.315   2.026   5.984  1.8298  1.0931 -0.4336
 2880SOL     OW 9538   2.344   6.656   6.456  0.1598 -0.2343  0.0957
 2880SOL    HW1 9539   2.337   6.628   6.361  1.5264  0.0940 -0.1229
 2880SOL    HW2 9540   2.441   6.659   6.483 -0.1320  0.8663  1.1207
 2881SOL     OW 9541   4.102   5.698   1.764  0.3484  0.3364 -0.4526
 2881SOL    HW1 9542   4.184   5.650   1.795 -0.3178  1.0182  2.6950
 2881SOL    HW2 9543   4.126   5.791   1.736  0.6484  0.5813  0.5971
 2882SOL     OW 9544   1.870   1.749   3.578 -0.1818  0.2762  0.1638
 2882SOL    HW1 9545   1.847   1.667   3.630  4.1249 -0.8780  0.6335
 2882SOL    HW2 9546   1.851   1.733   3.481 -0.0769 -1.0351  0.3333
 2883SOL     OW 9547   0.592   5.200   4.994  0.5440  0.4045  0.2470
 2883SOL    HW1 9548   0.589   5.115   4.940 -0.9572  0.0980  0.7724
 2883SOL    HW2 9549   0.504   5.246   4.988  0.9663  1.3347  0.9458
 2884SOL     OW 9550   4.541   6.188   0.315 -0.1087  0.0606 -0.8957
 2884SOL    HW1 9551   4.597   6.124   0.264 -1.0344  0.3933 -2.3998
 2884SOL    HW2 9552   4.568   6.188   0.411  1.5288 -0.7612 -1.3307
 2885SOL     OW 9553   0.538   3.019   3.230  0.4127  0.3667  0.4016
 2885SOL    HW1 9554   0.583   3.100   3.267 -0.5978  0.5927  1.1901
 2885SOL    HW2 9555   0.494   3.043   3.144 -0.4206  0.8457  0.9425
 2886SOL     OW 9556   5.743   5.874   4.025  0.2062  0.3087  0.1062
 2886SOL    HW1 9557   5.800   5.900   4.103  0.2750 -0.0810  0.1878
 2886SOL    HW2 9558   5.690   5.953   3.995 -1.2672  0.0070  1.7491
 2887SOL     OW 9559   1.431   0.512   1.293  0.2932  0.8538 -0.1619
 2887SOL    HW1 9560   1.468   0.489   1.203 -1.3536 -0.1729 -0.6227
 2887SOL    HW2 9561   1.434   0.611   1.306  3.2309  0.8317 -0.0957
 2888SOL     OW 9562   0.166   2.943   0.867  0.1362 -0.8798 -0.3282
 2888SOL    HW1 9563   0.102   2.867   0.859  0.7927 -1.4935  0.0412
 2888SOL    HW2 9564   0.194   2.973   0.776 -0.5121 -0.7463 -0.4853
 2889SOL     OW 9565   1.119   1.914   4.314  0.2584 -0.1749 -0.4559
 2889SOL    HW1 9566   1.199   1.880   4.266 -0.7338 -2.1803 -0.7930
 2889SOL    HW2 9567   1.038   1.864   4.283 -0.7726  0.1174  1.5889
 2890SOL     OW 9568   5.225   3.170   1.307 -0.1303 -0.1183 -0.1127
 2890SOL    HW1 9569   5.196   3.135   1.396  2.6549 -3.4808 -0.2952
 2890SOL    HW2 9570   5.166   3.133   1.235  0.6884 -1.7812  0.0116
 2891SOL     OW 9571   5.580   6.532   1.711  0.5244  0.2691 -0.7092
 2891SOL    HW1 9572   5.529   6.605   1.665  0.1802  1.1153  0.9427
 2891SOL    HW2 9573   5.518   6.480   1.770  1.2816  0.4028  0.2253
 2892SOL     OW 9574   4.921   6.658   5.700 -0.2154 -0.0053  0.5117
 2892SOL    HW1 9575   4.945   6.586   5.635  3.1142  0.7879  0.6884
 2892SOL    HW2 9576   4.897   6.741   5.650  1.3102  0.2943  0.2188
 2893SOL     OW 9577   5.047   5.821   3.731  0.5050  0.4877  0.2397
 2893SOL    HW1 9578   5.043   5.730   3.689 -1.0173  0.2023  0.9438
 2893SOL    HW2 9579   4.956   5.845   3.766  0.5605  2.7971 -1.0128
 2894SOL     OW 9580   3.115   5.865   5.354 -0.0502 -0.2023  0.2332
 2894SOL    HW1 9581   3.069   5.904   5.433 -1.1413  1.0728 -0.9645
 2894SOL    HW2 9582   3.071   5.779   5.329  0.4084 -0.6970  1.0853
 2895SOL     OW 9583   5.302   0.033   5.328 -0.2001 -0.0503  0.1991
 2895SOL    HW1 9584   5.294  -0.057   5.285 -0.6343 -0.1038  0.3818
 2895SOL    HW2 9585   5.375   0.085   5.284  0.2834 -0.6210  0.3293
 2896SOL     OW 9586   6.275   3.321   3.310 -0.6951  0.2061 -0.1887
 2896SOL    HW1 9587   6.183   3.288   3.333 -1.0977  0.2649 -1.5976
 2896SOL    HW2 9588   6.301   3.285   3.220  1.5208 -1.4900  1.0119
 2897SOL     OW 9589   6.458   1.506   0.571 -0.1930 -0.5186  0.3407
 2897SOL    HW1 9590   6.389   1.538   0.506 -0.9284 -1.5739  0.5830
 2897SOL    HW2 9591   6.518   1.441   0.525  1.2667  1.0855 -0.1362
 2898SOL     OW 9592   1.443   4.742   1.619 -0.6780 -0.1334 -0.1662
 2898SOL    HW1 9593   1.355   4.778   1.650  0.2168  1.0007  1.1766
 2898SOL    HW2 9594   1.512   4.754   1.691  0.6259 -0.8655 -1.2329
 2899SOL     OW 9595   4.555   4.625   1.806  0.0184  0.2706 -0.1094
 2899SOL    HW1 9596   4.471   4.678   1.809 -0.9276 -1.1293 -0.6777
 2899SOL    HW2 9597   4.534   4.531   1.778  1.5361 -0.5565  1.3091
 2900SOL     OW 9598   4.501   1.945   0.275  0.3564 -0.5993  0.2741
 2900SOL    HW1 9599   4.439   1.867   0.272  1.2939 -1.3446 -1.6645
 2900SOL    HW2 9600   4.457   2.021   0.322 -0.7239 -2.1475  1.8805
 2901SOL     OW 9601   3.498   1.331   3.384  0.2956 -0.2956 -0.3439
 2901SOL    HW1 9602   3.475   1.295   3.474 -1.1736  0.1121 -0.5347
 2901SOL    HW2 9603   3.559   1.409   3.394 -1.0468  0.6848  0.4038
 2902SOL     OW 9604   3.597   0.270   1.955 -0.6537  0.0416 -0.2376
 2902SOL    HW1 9605   3.598   0.351   1.896  0.2790 -0.7287 -1.3137
 2902SOL    HW2 9606   3.507   0.262   1.999 -1.0760  1.1114 -0.8742
 2903SOL     OW 9607   0.214   3.285   3.233 -0.7782  0.6047 -0.1570
 2903SOL    HW1 9608   0.309   3.292   3.203  0.4340  2.7170  3.4499
 2903SOL    HW2 9609   0.205   3.209   3.298 -0.9932  1.5901  1.0102
 2904SOL     OW 9610   1.235   0.412   6.119 -0.8031  0.2790  0.1837
 2904SOL    HW1 9611   1.316   0.369   6.079 -1.0787 -1.7128  1.6066
 2904SOL    HW2 9612   1.248   0.420   6.218 -2.3638 -0.2097  0.4538
 2905SOL     OW 9613   2.794   0.340   4.144  0.0820  0.3423 -0.6237
 2905SOL    HW1 9614   2.791   0.242   4.165  1.2310  0.1525 -1.2344
 2905SOL    HW2 9615   2.846   0.354   4.059 -0.0701  1.4817 -0.5409
 2906SOL     OW 9616   3.018   5.972   4.677 -0.1039 -0.2172 -0.2037
 2906SOL    HW1 9617   3.054   5.949   4.587 -0.5343 -0.5299 -0.2976
 2906SOL    HW2 9618   2.952   6.046   4.669 -0.7442 -0.7793 -0.2593
 2907SOL     OW 9619   6.327   0.524   2.128  0.4409 -0.0246 -0.4381
 2907SOL    HW1 9620   6.393   0.552   2.197  1.7616 -0.9918 -1.2527
 2907SOL    HW2 9621   6.237   0.512   2.170  0.9264  0.6481  0.8397
 2908SOL     OW 9622   5.854   1.210   5.266 -0.1020 -0.3318  0.0545
 2908SOL    HW1 9623   5.773   1.221   5.324 -0.3507 -1.3066 -0.0772
 2908SOL    HW2 9624   5.881   1.298   5.229 -0.7361  0.1018  0.5956
 2909SOL     OW 9625   0.139   0.591   3.177  0.5657 -0.2628  0.3485
 2909SOL    HW1 9626   0.197   0.660   3.134 -1.5183  0.3606 -1.6752
 2909SOL    HW2 9627   0.075   0.636   3.240  0.6818 -0.6426  0.7436
 2910SOL     OW 9628   6.107   4.547   6.911  0.0482 -0.0821 -0.1427
 2910SOL    HW1 9629   6.183   4.484   6.930  0.6652  0.3410 -1.1586
 2910SOL    HW2 9630   6.087   4.547   6.813  0.5848  1.8823 -0.2830
 2911SOL     OW 9631   5.743   1.490   2.160 -0.0798  0.0987 -0.6236
 2911SOL    HW1 9632   5.672   1.554   2.132  0.8718  0.5534 -2.1042
 2911SOL    HW2 9633   5.830   1.516   2.118  0.7846 -0.9445  0.4565
 2912SOL     OW 9634   5.259   0.698   5.536  0.4345 -0.6611  0.6467
 2912SOL    HW1 9635   5.160   0.682   5.531  0.5265 -1.0043 -0.3522
 2912SOL    HW2 9636   5.295   0.713   5.444  1.6473 -2.6643  0.7300
 2913SOL     OW 9637   1.769   6.013   5.986  0.5473 -0.0363 -0.5888
 2913SOL    HW1 9638   1.672   5.987   5.977  0.0414  1.4281  0.2710
 2913SOL    HW2 9639   1.824   5.932   6.003 -0.5951 -0.8406 -0.6437
 2914SOL     OW 9640   1.856   5.637   0.834 -0.3149 -0.1742 -0.3135
 2914SOL    HW1 9641   1.881   5.734   0.829 -1.9349  0.2490 -0.6887
 2914SOL    HW2 9642   1.928   5.583   0.791 -0.4570  1.0711 -2.2411
 2915SOL     OW 9643   4.627   5.102   3.478  0.1509  0.0009 -0.6486
 2915SOL    HW1 9644   4.546   5.108   3.536  0.3029 -0.5101 -0.3783
 2915SOL    HW2 9645   4.619   5.024   3.416  0.4905 -0.1354 -0.5263
 2916SOL     OW 9646   3.880   2.075   6.505 -0.0091  0.1287  0.7731
 2916SOL    HW1 9647   3.939   1.999   6.477  0.2514 -0.4309  2.6897
 2916SOL    HW2 9648   3.821   2.046   6.580 -2.4016  0.8419 -0.7238
 2917SOL     OW 9649   2.558   1.151   1.851 -0.1729 -0.2146 -0.0697
 2917SOL    HW1 9650   2.584   1.209   1.774 -0.7237 -1.0533 -0.9135
 2917SOL    HW2 9651   2.505   1.203   1.917 -1.2861  0.0720 -1.1682
 2918SOL     OW 9652   4.941   0.723   2.485 -0.1047 -0.2165 -0.3460
 2918SOL    HW1 9653   4.875   0.772   2.541 -0.3472 -2.3870  1.4038
 2918SOL    HW2 9654   4.965   0.637   2.529  1.7397 -0.8186 -2.3398
 2919SOL     OW 9655   6.851   5.342   0.292 -0.0457 -0.1779 -0.3605
 2919SOL    HW1 9656   6.875   5.405   0.217 -1.3665  0.2096 -0.4973
 2919SOL    HW2 9657   6.888   5.377   0.378  3.0328 -1.5325 -0.9910
 2920SOL     OW 9658   5.067   5.137   3.657 -0.3955 -0.0932 -0.6760
 2920SOL    HW1 9659   4.974   5.140   3.693  0.2085 -0.5955  1.0491
 2920SOL    HW2 9660   5.101   5.231   3.645 -0.8870  0.0922 -0.6334
 2921SOL     OW 9661   2.618   0.201   0.260  0.6248 -0.0791  0.0697
 2921SOL    HW1 9662   2.717   0.186   0.269  0.8592 -1.2755 -3.0380
 2921SOL    HW2 9663   2.602   0.288   0.212  0.3159 -0.6871 -0.9767
 2922SOL     OW 9664   1.357   2.850   0.612 -0.1877 -0.1419 -0.1116
 2922SOL    HW1 9665   1.304   2.873   0.530 -0.1821  0.0985 -0.0496
 2922SOL    HW2 9666   1.382   2.934   0.660  2.2665 -0.0875 -1.3653
 2923SOL     OW 9667   5.273   6.188   0.114  0.0186 -0.7730 -0.6053
 2923SOL    HW1 9668   5.219   6.154   0.037 -0.0457  0.9686 -1.3788
 2923SOL    HW2 9669   5.213   6.208   0.191 -0.3927  0.4080 -1.1943
 2924SOL     OW 9670   4.275   3.733   5.720  0.1233 -0.3838 -0.3433
 2924SOL    HW1 9671   4.269   3.633   5.714 -1.3191 -0.4284  1.0650
 2924SOL    HW2 9672   4.214   3.766   5.792  0.5968  1.5308 -0.7492
 2925SOL     OW 9673   3.939   6.176   1.636  0.1136 -0.8440 -0.5767
 2925SOL    HW1 9674   4.012   6.111   1.614 -0.5174 -1.5217 -0.6802
 2925SOL    HW2 9675   3.860   6.127   1.674 -0.6086 -0.2236 -1.2428
 2926SOL     OW 9676   5.151   6.908   3.467 -0.3390  0.3576 -0.1293
 2926SOL    HW1 9677   5.247   6.896   3.492 -1.1702 -0.3898  3.2295
 2926SOL    HW2 9678   5.115   6.822   3.430  0.1008  0.4576 -0.8060
 2927SOL     OW 9679   5.581   0.564   1.177 -0.5168 -0.2804  0.1369
 2927SOL    HW1 9680   5.649   0.502   1.138 -0.5927  1.6004 -3.4185
 2927SOL    HW2 9681   5.492   0.549   1.132 -1.1675  0.6790  1.0515
 2928SOL     OW 9682   1.714   2.608   2.065  0.1889 -0.2041 -0.2590
 2928SOL    HW1 9683   1.649   2.679   2.092 -1.9091 -2.1442  0.1244
 2928SOL    HW2 9684   1.794   2.610   2.126 -0.8616  0.4148  1.1459
 2929SOL     OW 9685   5.970   4.763   5.833 -0.7464 -0.6158 -0.2505
 2929SOL    HW1 9686   5.930   4.832   5.894  0.9024 -0.1007  0.3159
 2929SOL    HW2 9687   5.939   4.672   5.860  0.4755 -0.4719  1.8726
 2930SOL     OW 9688   2.053   1.038   5.474 -0.5925  1.0881 -0.1020
 2930SOL    HW1 9689   1.994   1.096   5.530  1.0031  3.0189 -0.3359
 2930SOL    HW2 9690   2.148   1.051   5.501 -0.1903 -3.1769  1.4483
 2931SOL     OW 9691   3.057   2.113   1.714 -0.1148  0.0507  0.1977
 2931SOL    HW1 9692   3.143   2.119   1.765  0.4953 -1.9230 -0.4877
 2931SOL    HW2 9693   3.077   2.086   1.619 -1.5240 -1.4128  0.2795
 2932SOL     OW 9694   5.667   4.187   4.405  0.3005  0.3098 -0.7060
 2932SOL    HW1 9695   5.677   4.278   4.445 -0.9278  0.1858 -0.0501
 2932SOL    HW2 9696   5.590   4.187   4.341 -1.5824 -0.9016  1.4222
 2933SOL     OW 9697   5.970   4.004   0.184  0.0484 -0.3461  0.0406
 2933SOL    HW1 9698   6.038   4.037   0.250 -0.2097 -0.1916  0.2333
 2933SOL    HW2 9699   5.984   4.051   0.096 -0.1089  0.0409  0.2180
 2934SOL     OW 9700   0.086   0.778   4.036 -0.0307  0.2293  0.4093
 2934SOL    HW1 9701   0.015   0.845   4.016  1.1766  1.0118 -1.6703
 2934SOL    HW2 9702   0.157   0.820   4.093  0.9326  0.9359 -1.2371
 2935SOL     OW 9703   5.659   2.424   2.937  0.4189 -0.0672  0.2083
 2935SOL    HW1 9704   5.566   2.460   2.934  0.9543  1.2898 -1.3749
 2935SOL    HW2 9705   5.657   2.328   2.967 -1.5844 -0.4253 -0.9025
 2936SOL     OW 9706   3.995   0.196   6.584  0.1325  0.0236  0.0726
 2936SOL    HW1 9707   3.976   0.168   6.679 -1.2472  0.4274 -0.0642
 2936SOL    HW2 9708   3.918   0.171   6.526  0.4817  0.7860 -0.7438
 2937SOL     OW 9709   3.574   6.639   3.831 -0.1784  0.5027 -0.0253
 2937SOL    HW1 9710   3.622   6.564   3.876  1.8077  1.1468 -0.9748
 2937SOL    HW2 9711   3.636   6.686   3.768 -1.7368  2.1324 -0.4348
 2938SOL     OW 9712   3.791   6.479   6.429 -0.5897 -0.2105 -0.2349
 2938SOL    HW1 9713   3.851   6.505   6.353 -0.8817 -2.9968 -1.5355
 2938SOL    HW2 9714   3.696   6.497   6.403 -0.6184 -0.0640 -0.0304
 2939SOL     OW 9715   3.263   6.087   6.816 -0.3631  0.2326  0.1779
 2939SOL    HW1 9716   3.310   6.117   6.899  2.2994 -0.8130 -0.8424
 2939SOL    HW2 9717   3.298   6.137   6.737 -1.4822 -0.1345 -0.5799
 2940SOL     OW 9718   3.305   0.876   6.154 -0.4759 -0.1517  0.4428
 2940SOL    HW1 9719   3.251   0.796   6.183 -1.2922  0.3572  0.3588
 2940SOL    HW2 9720   3.270   0.909   6.067  0.6549 -0.4339 -0.1297
 2941SOL     OW 9721   0.068   1.242   0.591  0.8991 -0.0264 -0.2857
 2941SOL    HW1 9722   0.160   1.270   0.618  1.0962  0.8417 -1.7373
 2941SOL    HW2 9723   0.036   1.169   0.652  1.9208  0.7069  1.2036
 2942SOL     OW 9724   1.307   1.944   1.879 -0.1083 -0.0122 -0.1371
 2942SOL    HW1 9725   1.248   1.908   1.807  0.2827  0.0708 -0.5083
 2942SOL    HW2 9726   1.403   1.924   1.856  0.0363  0.2644  0.2179
 2943SOL     OW 9727   0.218   2.273   0.395  0.3254 -0.5947 -0.8027
 2943SOL    HW1 9728   0.273   2.229   0.325  3.0054 -2.7601  2.3750
 2943SOL    HW2 9729   0.255   2.364   0.415  0.4417 -0.5563 -1.1916
 2944SOL     OW 9730   1.114   1.707   3.264 -0.4423 -0.0292 -0.6630
 2944SOL    HW1 9731   1.196   1.746   3.221 -0.2981  0.6638  0.2087
 2944SOL    HW2 9732   1.138   1.672   3.355 -0.9069 -0.7764 -0.8158
 2945SOL     OW 9733   5.751   1.891   6.067 -0.4722 -0.5232  0.0790
 2945SOL    HW1 9734   5.801   1.964   6.114 -0.8162 -0.0692 -0.2552
 2945SOL    HW2 9735   5.813   1.813   6.053  0.1388  0.0163 -0.2948
 2946SOL     OW 9736   0.236   3.124   1.456 -0.0293  0.1617  0.0347
 2946SOL    HW1 9737   0.164   3.193   1.448 -0.1395  0.0462  0.0160
 2946SOL    HW2 9738   0.199   3.035   1.430  0.8221  0.5177 -2.6913
 2947SOL     OW 9739   3.177   2.476   5.986  0.4870 -0.0630 -0.3607
 2947SOL    HW1 9740   3.200   2.514   5.896  2.6046 -0.7501 -0.1664
 2947SOL    HW2 9741   3.096   2.418   5.979 -0.2922  1.1354 -1.4945
 2948SOL     OW 9742   0.789   6.811   1.406  0.0316 -0.0585 -0.7084
 2948SOL    HW1 9743   0.746   6.739   1.461  1.1176 -0.5050 -0.4110
 2948SOL    HW2 9744   0.884   6.786   1.387  0.3546  1.1845 -0.8104
 2949SOL     OW 9745   4.283   6.586   1.981 -0.1148 -0.2120 -0.3967
 2949SOL    HW1 9746   4.336   6.628   1.907 -0.9326  1.9316  0.1485
 2949SOL    HW2 9747   4.186   6.587   1.957 -0.1843 -1.6194 -0.2441
 2950SOL     OW 9748   0.153   5.806   3.860  0.4366  0.3597 -0.2364
 2950SOL    HW1 9749   0.136   5.710   3.838 -0.4280  0.1411  1.2374
 2950SOL    HW2 9750   0.245   5.831   3.832  0.0746 -0.3972 -2.2150
 2951SOL     OW 9751   3.131   1.284   5.036 -0.2139  0.1319 -0.5126
 2951SOL    HW1 9752   3.105   1.355   5.102  1.5897  0.7873 -0.4364
 2951SOL    HW2 9753   3.049   1.241   5.000 -1.3225  1.2360  0.5487
 2952SOL     OW 9754   0.586   4.918   5.467  0.0859  0.2513  0.6780
 2952SOL    HW1 9755   0.563   4.916   5.564  0.2865 -0.7080  0.7068
 2952SOL    HW2 9756   0.677   4.879   5.453 -0.0357  0.1715  0.0765
 2953SOL     OW 9757   0.007   3.811   0.332  0.9712 -0.1336 -0.5697
 2953SOL    HW1 9758   0.061   3.727   0.324  0.4985 -0.4913 -0.0139
 2953SOL    HW2 9759  -0.051   3.806   0.413  1.1031  0.8260 -0.4078
 2954SOL     OW 9760   2.126   3.661   2.427 -0.2392  0.1401 -0.5328
 2954SOL    HW1 9761   2.125   3.646   2.328 -0.1028 -0.8546 -0.3956
 2954SOL    HW2 9762   2.138   3.573   2.474  1.6748  0.8012  0.3179
 2955SOL     OW 9763   6.635   1.970   2.504 -1.0246  0.1463  0.4404
 2955SOL    HW1 9764   6.707   2.029   2.469 -2.2285  1.1106 -0.4930
 2955SOL    HW2 9765   6.649   1.877   2.470  0.5812 -0.0321  1.4876
 2956SOL     OW 9766   1.070   5.388   0.852  0.1037  0.3173  0.4051
 2956SOL    HW1 9767   0.992   5.327   0.868  0.6233 -0.5268 -0.2404
 2956SOL    HW2 9768   1.153   5.347   0.889  0.3804  0.8735  0.4187
 2957SOL     OW 9769   0.738   3.655   2.654 -0.2208 -0.2618 -0.1302
 2957SOL    HW1 9770   0.801   3.731   2.669 -0.8880  0.1706  0.5241
 2957SOL    HW2 9771   0.766   3.576   2.708  0.0127 -0.2145 -0.1844
 2958SOL     OW 9772   0.661   0.818   2.880 -0.3807  0.0363 -0.1228
 2958SOL    HW1 9773   0.598   0.826   2.803  0.3687 -0.2554 -0.7867
 2958SOL    HW2 9774   0.745   0.869   2.860 -0.7652  1.1898  1.1455
 2959SOL     OW 9775   3.547   3.138   2.674 -0.3900  0.4552  0.4523
 2959SOL    HW1 9776   3.627   3.085   2.702  0.3494  1.5068  0.4155
 2959SOL    HW2 9777   3.541   3.139   2.574 -0.4089  0.4168  0.4533
 2960SOL     OW 9778   2.630   0.424   1.681  0.0683 -0.4471  0.4184
 2960SOL    HW1 9779   2.670   0.508   1.644 -0.0214 -0.4031  0.4207
 2960SOL    HW2 9780   2.702   0.356   1.694  0.2951 -0.0521  1.3112
 2961SOL     OW 9781   0.782   0.251   3.561 -0.0863 -0.5116  0.0988
 2961SOL    HW1 9782   0.831   0.280   3.479 -1.6190  1.4604 -0.1784
 2961SOL    HW2 9783   0.687   0.230   3.538 -0.5817  0.2225  1.3741
 2962SOL     OW 9784   3.492   1.905   6.678 -0.3999  0.7413  0.2349
 2962SOL    HW1 9785   3.421   1.975   6.685  0.2148  1.2209  2.4239
 2962SOL    HW2 9786   3.579   1.943   6.711 -0.2569 -1.3148  2.4498
 2963SOL     OW 9787   5.810   4.160   5.050 -0.9802  0.3625 -0.1737
 2963SOL    HW1 9788   5.872   4.234   5.076  0.1572 -0.5276 -0.2847
 2963SOL    HW2 9789   5.787   4.105   5.131 -3.3105  1.8521  0.2964
 2964SOL     OW 9790   4.659   0.741   2.060 -0.1026  0.0010  0.0404
 2964SOL    HW1 9791   4.633   0.836   2.043  0.4327  0.1408 -0.0290
 2964SOL    HW2 9792   4.741   0.738   2.118  2.0054 -0.2797 -2.7178
 2965SOL     OW 9793   6.644   4.655   3.356  0.4785 -0.1603  0.3382
 2965SOL    HW1 9794   6.648   4.745   3.312 -1.0451  1.5428  3.3930
 2965SOL    HW2 9795   6.736   4.618   3.363  1.3821  1.9747  0.5515
 2966SOL     OW 9796   0.478   0.842   2.635 -0.0133 -0.4511  0.3712
 2966SOL    HW1 9797   0.424   0.900   2.574 -0.9565 -2.2033 -0.5449
 2966SOL    HW2 9798   0.424   0.762   2.661  0.9884 -0.5889  2.1849
 2967SOL     OW 9799   5.157   0.223   5.197  0.0419  0.1397  0.9602
 2967SOL    HW1 9800   5.202   0.143   5.238 -0.9989 -0.8403  0.2225
 2967SOL    HW2 9801   5.116   0.198   5.110 -0.5772  1.4147  0.8610
 2968SOL     OW 9802   3.438   2.104   2.314  0.0174 -0.5219  0.1658
 2968SOL    HW1 9803   3.464   2.187   2.364  0.6930 -0.0444 -0.9549
 2968SOL    HW2 9804   3.339   2.093   2.316 -0.0812  0.3571  0.2569
 2969SOL     OW 9805   6.550   0.891   2.655 -0.1472 -0.0517  0.5279
 2969SOL    HW1 9806   6.572   0.943   2.572 -1.2614 -0.2363  0.0991
 2969SOL    HW2 9807   6.468   0.930   2.698 -1.8393 -2.1944 -0.5337
 2970SOL     OW 9808   4.487   2.710   1.527  0.0960 -0.4744 -0.2772
 2970SOL    HW1 9809   4.407   2.654   1.551 -0.5787  0.9968  1.1126
 2970SOL    HW2 9810   4.529   2.746   1.610  2.2598 -1.2317 -0.9946
 2971SOL     OW 9811   5.574   0.332   4.495  0.0003  0.4034  0.0199
 2971SOL    HW1 9812   5.518   0.336   4.578  0.4947  0.3966  0.3542
 2971SOL    HW2 9813   5.534   0.394   4.426 -0.6835  0.0469  0.0845
 2972SOL     OW 9814   1.654   6.267   4.568 -0.4757  0.9396 -0.6935
 2972SOL    HW1 9815   1.652   6.272   4.668  0.6631 -0.7408 -0.5416
 2972SOL    HW2 9816   1.682   6.355   4.530  0.1720  1.2821  0.5343
 2973SOL     OW 9817   3.626   6.041   3.142  0.3257  0.1803 -0.3067
 2973SOL    HW1 9818   3.581   5.999   3.222  0.2298  1.3830  0.2891
 2973SOL    HW2 9819   3.595   6.135   3.133  1.1358  0.3693 -1.1694
 2974SOL     OW 9820   2.507   2.185   0.970 -0.2803  0.3784  0.1455
 2974SOL    HW1 9821   2.473   2.103   0.924  0.1173  0.5974 -0.5605
 2974SOL    HW2 9822   2.607   2.189   0.962 -0.3617  1.3810 -0.6062
 2975SOL     OW 9823   5.564   4.145   3.712 -0.2492  0.4911 -0.0436
 2975SOL    HW1 9824   5.601   4.137   3.804  0.8341  2.0692 -0.2947
 2975SOL    HW2 9825   5.633   4.113   3.646 -1.9108 -3.0701 -0.2849
 2976SOL     OW 9826   1.131   0.029   5.022  0.3916  0.6184  0.0565
 2976SOL    HW1 9827   1.101   0.104   5.081  1.5813 -0.7978  2.5801
 2976SOL    HW2 9828   1.195   0.064   4.954  0.9023  1.9039  1.1581
 2977SOL     OW 9829   4.985   3.296   1.429  0.4916  0.2935  0.4302
 2977SOL    HW1 9830   5.009   3.339   1.516  0.4389  1.5725 -0.1663
 2977SOL    HW2 9831   5.024   3.348   1.354  1.6545 -1.5323 -0.2971
 2978SOL     OW 9832   2.447   2.371   6.291 -0.1773 -0.3748 -0.3408
 2978SOL    HW1 9833   2.488   2.462   6.294 -0.2275 -0.3253 -1.0448
 2978SOL    HW2 9834   2.367   2.373   6.231 -1.7669 -0.2562  1.6713
 2979SOL     OW 9835   4.836   0.351   6.140 -0.2356  0.5153 -0.2201
 2979SOL    HW1 9836   4.860   0.289   6.215  0.2342  1.3699  0.3512
 2979SOL    HW2 9837   4.754   0.317   6.093 -1.2437  0.6035  1.4319
 2980SOL     OW 9838   4.919   5.310   2.401 -0.0935 -0.4904 -0.1764
 2980SOL    HW1 9839   4.861   5.233   2.371 -1.7969  0.9682 -0.8001
 2980SOL    HW2 9840   4.887   5.342   2.490  0.5119 -0.4127  0.0112
 2981SOL     OW 9841   0.935   5.092   1.159  0.1352  0.5658 -0.1992
 2981SOL    HW1 9842   0.846   5.136   1.146 -0.9298 -1.2080  0.6524
 2981SOL    HW2 9843   0.965   5.104   1.254  0.0878 -0.0690 -0.1004
 2982SOL     OW 9844   1.098   4.497   6.478 -0.4586 -0.4187  0.1985
 2982SOL    HW1 9845   1.023   4.560   6.456 -0.5871 -0.9432 -0.9495
 2982SOL    HW2 9846   1.111   4.433   6.402 -0.3048 -1.7586  1.3129
 2983SOL     OW 9847   6.618   3.619   2.161  0.4719 -0.2121  0.5650
 2983SOL    HW1 9848   6.599   3.606   2.064 -1.7213  1.1373  0.7162
 2983SOL    HW2 9849   6.575   3.546   2.214  2.1344 -1.2536  0.5253
 2984SOL     OW 9850   1.119   2.640   0.369 -0.2367  1.0476 -0.4907
 2984SOL    HW1 9851   1.204   2.687   0.348  0.6054 -0.6240 -0.9599
 2984SOL    HW2 9852   1.129   2.589   0.455 -1.2743  2.0059  0.2380
 2985SOL     OW 9853   5.061   5.713   1.372 -0.2804 -0.1318 -0.6408
 2985SOL    HW1 9854   5.161   5.710   1.368 -0.2630 -0.5081 -0.0651
 2985SOL    HW2 9855   5.024   5.631   1.329 -0.3352 -0.0287 -0.7874
 2986SOL     OW 9856   1.465   3.732   6.824  0.2782 -0.3166  0.6716
 2986SOL    HW1 9857   1.515   3.654   6.862  1.4856 -0.1338 -0.4670
 2986SOL    HW2 9858   1.505   3.757   6.735  0.5045  2.1868  1.4167
 2987SOL     OW 9859   2.163   0.091   4.437 -0.4352 -0.7351 -0.0131
 2987SOL    HW1 9860   2.164   0.190   4.421 -1.0179 -0.6103  0.6853
 2987SOL    HW2 9861   2.256   0.057   4.441 -0.2341 -0.2881 -0.6876
 2988SOL     OW 9862   6.283   5.058   6.832 -0.5078  0.0343 -0.3490
 2988SOL    HW1 9863   6.249   4.973   6.872 -2.2954 -0.1826 -2.1647
 2988SOL    HW2 9864   6.207   5.121   6.818  0.7272  1.8106  0.5613
 2989SOL     OW 9865   0.809   1.513   1.965  0.0209  0.1531  0.4730
 2989SOL    HW1 9866   0.731   1.562   1.926  0.1034 -0.5809 -0.6698
 2989SOL    HW2 9867   0.868   1.481   1.891 -0.2459 -2.0146  1.1458
 2990SOL     OW 9868   1.525   4.547   2.491  1.1485 -0.0473 -0.0590
 2990SOL    HW1 9869   1.433   4.516   2.513  1.5124 -0.0921  1.5695
 2990SOL    HW2 9870   1.592   4.483   2.531  1.9157 -0.7743 -2.3603
 2991SOL     OW 9871   0.696   2.779   1.223 -0.0789  0.4563 -0.1574
 2991SOL    HW1 9872   0.660   2.867   1.192  0.2418  0.3281 -0.9128
 2991SOL    HW2 9873   0.644   2.705   1.180  0.9280  0.2695 -1.1272
 2992SOL     OW 9874   1.684   2.097   1.180 -0.2716 -0.1716  0.8946
 2992SOL    HW1 9875   1.688   2.014   1.234 -1.8698  0.2038  1.6383
 2992SOL    HW2 9876   1.727   2.172   1.231  0.5458 -0.3739  0.5183
 2993SOL     OW 9877   1.729   1.894   2.342 -0.0797 -0.6370 -0.4961
 2993SOL    HW1 9878   1.638   1.928   2.317  0.1929 -0.5987 -1.4728
 2993SOL    HW2 9879   1.798   1.960   2.312  0.2833 -0.7371  0.1088
 2994SOL     OW 9880   4.176   1.679   5.809 -0.4223  0.6474 -0.2228
 2994SOL    HW1 9881   4.092   1.625   5.802  0.0875 -0.1552 -0.2310
 2994SOL    HW2 9882   4.174   1.750   5.739 -1.0636  0.5962 -0.2706
 2995SOL     OW 9883   0.594   6.328   6.335 -0.4283  0.0408 -0.3011
 2995SOL    HW1 9884   0.646   6.413   6.329  1.1838 -0.9507 -1.0423
 2995SOL    HW2 9885   0.603   6.288   6.426  0.7073 -0.4620 -0.6187
 2996SOL     OW 9886   6.071   4.388   0.584  0.2602 -0.2571 -0.2910
 2996SOL    HW1 9887   6.165   4.353   0.581 -0.2928 -1.9715  0.8686
 2996SOL    HW2 9888   6.036   4.382   0.678 -1.6368 -1.4782 -1.0103
 2997SOL     OW 9889   4.264   2.285   0.597  0.4229  0.1187 -0.3936
 2997SOL    HW1 9890   4.337   2.352   0.591 -0.0888  1.0725  2.2771
 2997SOL    HW2 9891   4.184   2.327   0.642 -0.0765 -2.1023  0.9595
 2998SOL     OW 9892   6.692   4.536   2.152  0.7167  0.0062 -0.3109
 2998SOL    HW1 9893   6.660   4.501   2.064  2.1663  0.4065 -1.0226
 2998SOL    HW2 9894   6.614   4.565   2.207 -0.1256  1.0547 -2.0192
 2999SOL     OW 9895   5.113   6.942   1.164 -0.2694  0.5186 -0.4184
 2999SOL    HW1 9896   5.101   6.871   1.234  0.0352 -0.2141 -1.1043
 2999SOL    HW2 9897   5.051   7.019   1.184  0.4434  0.7202  1.1527
 3000SOL     OW 9898   1.452   3.429   6.285  0.6345  0.0045 -0.1402
 3000SOL    HW1 9899   1.486   3.409   6.377  0.8082 -0.1174 -0.2292
 3000SOL    HW2 9900   1.352   3.424   6.284  0.4439  2.5265  0.6554
 3001SOL     OW 9901   6.544   4.925   6.012  0.3443 -0.1219 -0.2762
 3001SOL    HW1 9902   6.536   4.836   6.056 -1.6587  0.4124  0.5538
 3001SOL    HW2 9903   6.528   4.915   5.914  1.9418 -0.8891 -0.5037
 3002SOL     OW 9904   1.026   5.433   5.775 -0.1955  0.2810  0.3558
 3002SOL    HW1 9905   1.038   5.528   5.804  0.9512  0.0202  0.7866
 3002SOL    HW2 9906   1.096   5.377   5.817  1.8933 -0.0745 -3.2121
 3003SOL     OW 9907   5.746   1.430   5.884 -0.0489  0.2637  0.3874
 3003SOL    HW1 9908   5.817   1.498   5.863 -0.7344  0.1538 -2.8805
 3003SOL    HW2 9909   5.740   1.417   5.983  2.6965  2.1413  0.9124
 3004SOL     OW 9910   0.499   2.648   2.854  0.4955  0.8021  0.3571
 3004SOL    HW1 9911   0.448   2.644   2.939 -0.4896  1.0846 -0.2091
 3004SOL    HW2 9912   0.587   2.693   2.870  0.4399  0.5875  1.2778
 3005SOL     OW 9913   3.215   5.227   5.567  0.2156 -0.0163 -0.1550
 3005SOL    HW1 9914   3.299   5.225   5.513 -0.1773 -2.2744 -0.8043
 3005SOL    HW2 9915   3.175   5.135   5.570 -2.2672  0.9741  0.0926
 3006SOL     OW 9916   0.475   3.905   1.133  0.1878 -0.5839 -0.1739
 3006SOL    HW1 9917   0.565   3.914   1.174  0.7502 -0.7328 -1.3173
 3006SOL    HW2 9918   0.480   3.930   1.036 -0.4480 -2.9450 -0.8913
 3007SOL     OW 9919   2.594   1.369   6.473  0.5405  0.5843  0.3060
 3007SOL    HW1 9920   2.535   1.332   6.402  0.4006 -0.0975  0.7671
 3007SOL    HW2 9921   2.550   1.449   6.515  0.1253  0.3254  0.3692
 3008SOL     OW 9922   0.087   3.407   0.282 -0.0142  0.0413  0.2041
 3008SOL    HW1 9923   0.001   3.454   0.262 -0.2849 -0.6308 -0.2666
 3008SOL    HW2 9924   0.160   3.474   0.295 -0.4342  0.5951 -0.2263
 3009SOL     OW 9925   2.591   6.012   0.985  0.0360 -0.1387  0.1823
 3009SOL    HW1 9926   2.668   6.042   0.928 -0.8331 -0.2458 -1.0750
 3009SOL    HW2 9927   2.626   5.954   1.059  1.3063  0.9267  0.4511
 3010SOL     OW 9928   3.969   6.845   6.737  0.0353 -0.7920 -0.7594
 3010SOL    HW1 9929   4.055   6.800   6.715  0.9421 -0.2903  1.4653
 3010SOL    HW2 9930   3.983   6.944   6.743 -0.2647 -0.8191  1.1307
 3011SOL     OW 9931   3.999   2.385   0.995 -0.0041  0.6370  0.1096
 3011SOL    HW1 9932   4.048   2.473   0.992  0.9668  0.1117 -2.9240
 3011SOL    HW2 9933   3.914   2.392   0.942  0.1719 -0.2797 -0.3149
 3012SOL     OW 9934   0.130   6.503   5.937 -0.0139  0.0063  0.2124
 3012SOL    HW1 9935   0.216   6.505   5.886 -0.5049 -1.2695 -0.7071
 3012SOL    HW2 9936   0.126   6.582   5.998  0.8149  1.3358 -1.3631
 3013SOL     OW 9937   2.739   6.373   3.157 -0.6610 -0.3710  0.1760
 3013SOL    HW1 9938   2.755   6.303   3.086 -1.0295 -1.1391  0.8277
 3013SOL    HW2 9939   2.728   6.462   3.114 -0.6225 -0.7860 -0.7197
 3014SOL     OW 9940   3.179   5.879   1.029  0.6758 -0.1677 -0.0502
 3014SOL    HW1 9941   3.207   5.845   0.939  0.6070  0.3769 -0.2787
 3014SOL    HW2 9942   3.257   5.924   1.073  0.4420  0.4564 -0.2637
 3015SOL     OW 9943   1.387   1.090   6.890  0.1510 -0.0006  0.9310
 3015SOL    HW1 9944   1.333   1.010   6.918  1.0850 -1.1079 -0.2772
 3015SOL    HW2 9945   1.327   1.158   6.849 -0.5172 -0.6072  0.8795
 3016SOL     OW 9946   3.914   4.871   3.395  0.1806  0.5509 -0.3318
 3016SOL    HW1 9947   3.841   4.880   3.327 -2.1844  1.4423  2.1377
 3016SOL    HW2 9948   3.957   4.959   3.410 -1.4779  1.1126  1.4825
 3017SOL     OW 9949   1.079   2.001   6.935 -0.7096 -0.3137 -0.1587
 3017SOL    HW1 9950   1.038   1.990   7.025 -1.8194 -0.3604 -0.6481
 3017SOL    HW2 9951   1.101   1.911   6.897 -1.0816 -0.3530 -0.2929
 3018SOL     OW 9952   6.701   2.818   5.167 -0.1696  0.4541 -0.5757
 3018SOL    HW1 9953   6.649   2.871   5.100  0.7414  0.6028 -1.1786
 3018SOL    HW2 9954   6.773   2.767   5.121  2.3319  2.7737  0.5129
 3019SOL     OW 9955   4.712   1.976   5.182 -0.2149 -0.1179 -0.5825
 3019SOL    HW1 9956   4.716   1.878   5.166 -0.3505 -0.2036 -0.1201
 3019SOL    HW2 9957   4.796   2.006   5.228  0.2844  0.1672 -1.6358
 3020SOL     OW 9958   3.254   1.034   5.069  0.3450  0.3679 -0.0905
 3020SOL    HW1 9959   3.318   0.996   5.137  2.2609  0.9967 -1.4394
 3020SOL    HW2 9960   3.225   1.125   5.099 -1.0531 -0.4580  1.1895
 3021SOL     OW 9961   4.010   5.282   2.234  0.4100 -0.3385  0.2890
 3021SOL    HW1 9962   4.089   5.224   2.253  0.7126  0.6056  2.0980
 3021SOL    HW2 9963   4.038   5.359   2.177  0.4991 -0.7284 -0.1967
 3022SOL     OW 9964   0.826   2.205   0.632 -0.4544 -0.2155  0.3092
 3022SOL    HW1 9965   0.744   2.199   0.689 -0.6645  1.6744  0.2676
 3022SOL    HW2 9966   0.861   2.299   0.633 -0.6353  0.0027 -2.8835
 3023SOL     OW 9967   3.430   5.580   5.754 -0.5833 -0.2705 -0.3639
 3023SOL    HW1 9968   3.381   5.598   5.840 -1.0585 -0.0439 -0.6792
 3023SOL    HW2 9969   3.514   5.529   5.774 -0.1950  0.6134  0.3465
 3024SOL     OW 9970   3.587   1.390   3.870  0.2407  0.2679  0.0379
 3024SOL    HW1 9971   3.523   1.331   3.919  1.6012 -2.0753 -0.8181
 3024SOL    HW2 9972   3.668   1.406   3.927 -0.2258  1.5571  0.3591
 3025SOL     OW 9973   4.739   0.277   4.034  0.1722 -0.1107  0.3516
 3025SOL    HW1 9974   4.757   0.246   3.940  2.2360 -2.3324  1.3738
 3025SOL    HW2 9975   4.646   0.314   4.039 -0.4591 -1.0565 -2.2835
 3026SOL     OW 9976   5.602   0.229   6.370 -0.3926 -0.1269  0.8116
 3026SOL    HW1 9977   5.622   0.300   6.438  0.3458 -1.3746  1.9291
 3026SOL    HW2 9978   5.503   0.223   6.356 -0.5396  0.2275  1.6864
 3027SOL     OW 9979   4.376   0.342   3.301 -0.7552  0.8539 -0.0739
 3027SOL    HW1 9980   4.329   0.427   3.323  1.3948  1.9786  0.5285
 3027SOL    HW2 9981   4.447   0.360   3.233 -0.2448 -0.4507  0.0797
 3028SOL     OW 9982   1.664   3.129   5.534 -0.5048  0.0159  0.8052
 3028SOL    HW1 9983   1.698   3.140   5.441 -0.7741  0.3344  0.7407
 3028SOL    HW2 9984   1.724   3.067   5.585  0.5820  1.1141  0.9093
 3029SOL     OW 9985   4.455   2.056   5.308  0.0490 -0.4215  0.2785
 3029SOL    HW1 9986   4.368   2.098   5.334  0.1558  0.5654 -0.8524
 3029SOL    HW2 9987   4.522   2.069   5.381 -1.0789 -2.3784  1.7610
 3030SOL     OW 9988   0.592   3.065   6.241  0.0154 -0.4147 -0.3451
 3030SOL    HW1 9989   0.680   3.112   6.246 -0.7669  1.1571 -0.4058
 3030SOL    HW2 9990   0.549   3.066   6.331 -0.9415  0.9851 -0.7656
 3031SOL     OW 9991   5.859   1.184   3.240 -0.3862  0.1725  0.1331
 3031SOL    HW1 9992   5.818   1.138   3.319 -0.5315  1.3013  0.7276
 3031SOL    HW2 9993   5.786   1.223   3.184 -0.1744  2.4019  1.3232
 3032SOL     OW 9994   4.254   3.884   1.067 -0.0519  0.1829 -0.5928
 3032SOL    HW1 9995   4.224   3.805   1.014 -1.2648  0.5411 -0.4735
 3032SOL    HW2 9996   4.228   3.968   1.019  0.0693  0.5068 -0.0987
 3033SOL     OW 9997   6.911   4.674   0.880  0.7302  0.1314  0.5817
 3033SOL    HW1 9998   6.843   4.601   0.873  0.3675  0.5412 -0.2948
 3033SOL    HW2 9999   6.974   4.653   0.955 -0.2968 -0.3005  1.3557
 3034SOL     OW10000   6.335   3.726   5.607 -0.1284  0.1793  0.2018
 3034SOL    HW110001   6.351   3.681   5.695  0.1466  1.8952  1.0521
 3034SOL    HW210002   6.271   3.802   5.619  0.6804  1.0561 -0.8936
 3035SOL     OW10003   3.835   0.714   0.979 -0.6455 -0.0908  0.3246
 3035SOL    HW110004   3.898   0.690   0.906 -1.4167 -1.8112  0.1647
 3035SOL    HW210005   3.819   0.813   0.979  0.4045  0.1043 -0.9425
 3036SOL     OW10006   2.269   0.979   5.280 -0.0211  0.2597 -0.4766
 3036SOL    HW110007   2.348   0.954   5.337  0.0725  0.4200 -0.5366
 3036SOL    HW210008   2.188   0.989   5.339 -0.2077 -0.8423 -0.5357
 3037SOL     OW10009   1.808   1.510   0.794  0.3885 -0.6618 -0.4465
 3037SOL    HW110010   1.715   1.486   0.769  0.5930  0.4662 -2.5748
 3037SOL    HW210011   1.869   1.433   0.774 -0.0371 -1.4338  1.0335
 3038SOL     OW10012   4.912   3.433   4.174 -0.5448  0.0254  0.2124
 3038SOL    HW110013   4.979   3.455   4.245  1.5132 -2.1913 -0.8666
 3038SOL    HW210014   4.849   3.362   4.207 -1.3408  0.9328  0.6811
 3039SOL     OW10015   0.129   4.064   0.764 -0.2916  0.4270  0.6124
 3039SOL    HW110016   0.209   4.042   0.708 -0.5221  0.3712  0.3035
 3039SOL    HW210017   0.099   3.982   0.813 -1.8405 -0.3002 -1.4078
 3040SOL     OW10018   2.505   6.330   5.225  0.2853  0.1643  0.1902
 3040SOL    HW110019   2.443   6.381   5.166  1.3071  0.4996 -0.6240
 3040SOL    HW210020   2.566   6.393   5.272  1.9679 -0.2869 -1.2841
 3041SOL     OW10021   0.760   4.480   1.541 -0.5740  0.3545 -0.6160
 3041SOL    HW110022   0.672   4.519   1.513 -0.6311  1.2349  0.7231
 3041SOL    HW210023   0.824   4.486   1.465 -0.0426  4.7172 -0.1165
 3042SOL     OW10024   1.211   6.565   5.641  1.0637  0.9616 -0.1766
 3042SOL    HW110025   1.279   6.617   5.589  2.1298 -0.0477  0.1595
 3042SOL    HW210026   1.237   6.468   5.642 -0.1140  0.6347  0.3999
 3043SOL     OW10027   0.634   0.338   5.067  0.3558 -0.6711  0.3957
 3043SOL    HW110028   0.686   0.411   5.023 -0.3670  0.0350  0.7010
 3043SOL    HW210029   0.673   0.320   5.158 -0.2445  0.2270  0.8434
 3044SOL     OW10030   1.412   2.562   1.744  0.2114 -0.0750  0.2695
 3044SOL    HW110031   1.428   2.587   1.648 -0.7966  0.8481  0.3153
 3044SOL    HW210032   1.477   2.492   1.772  1.1753  0.3627 -0.7981
 3045SOL     OW10033   2.173   5.506   3.773  0.4357 -0.0881 -1.2087
 3045SOL    HW110034   2.195   5.591   3.822  1.1070 -0.0806 -1.5091
 3045SOL    HW210035   2.087   5.517   3.723 -1.7871 -0.9604  2.0806
 3046SOL     OW10036   4.011   0.503   4.720 -0.7201  0.5635 -0.0104
 3046SOL    HW110037   3.920   0.475   4.689 -1.5439  1.6866  1.2868
 3046SOL    HW210038   4.027   0.468   4.813  0.2445  0.2490 -0.2811
 3047SOL     OW10039   6.474   2.463   6.638 -0.2700  0.1501  0.4263
 3047SOL    HW110040   6.488   2.375   6.593  0.7396 -0.2299  1.4386
 3047SOL    HW210041   6.487   2.453   6.737 -2.1804  1.0242  0.8100
 3048SOL     OW10042   3.758   4.635   0.060  0.5833  0.0200 -0.2595
 3048SOL    HW110043   3.659   4.642   0.056  0.5864 -0.2748 -1.0451
 3048SOL    HW210044   3.785   4.603   0.151  0.0321  1.0023  0.2701
 3049SOL     OW10045   1.676   4.253   1.553 -0.1429 -0.1774 -0.0641
 3049SOL    HW110046   1.626   4.333   1.586 -0.2088  0.1423 -0.9184
 3049SOL    HW210047   1.763   4.246   1.602 -0.4139  0.0440  0.4644
 3050SOL     OW10048   6.428   0.454   0.495 -0.4814  0.5375 -0.0682
 3050SOL    HW110049   6.418   0.450   0.594  0.0001  0.0491 -0.0318
 3050SOL    HW210050   6.487   0.379   0.465 -2.6843 -0.9393 -0.9988
 3051SOL     OW10051   4.914   0.364   5.531 -0.2085  0.0775 -0.2986
 3051SOL    HW110052   4.991   0.364   5.466 -1.3383  0.4678 -1.6884
 3051SOL    HW210053   4.901   0.271   5.566 -0.0535 -0.3152 -1.2397
 3052SOL     OW10054   1.303   2.558   5.461 -0.1695  0.5870  0.2312
 3052SOL    HW110055   1.279   2.495   5.535 -0.5345  0.0654 -0.3185
 3052SOL    HW210056   1.243   2.638   5.465 -0.9092  0.0616 -0.1332
 3053SOL     OW10057   5.649   4.299   3.201  0.2044  0.0415 -0.6646
 3053SOL    HW110058   5.652   4.340   3.292  1.1882 -1.1887 -0.1079
 3053SOL    HW210059   5.738   4.256   3.181 -0.2989 -0.5083 -1.8244
 3054SOL     OW10060   3.782   6.036   2.726  0.5937 -0.2041  0.0300
 3054SOL    HW110061   3.875   6.048   2.691  0.3283  0.4550 -0.4669
 3054SOL    HW210062   3.785   5.976   2.806  1.5953  0.7492  0.7370
 3055SOL     OW10063   3.848   6.015   3.856  0.0557 -0.0427  0.3244
 3055SOL    HW110064   3.825   6.058   3.943  0.1884 -1.7215  1.2320
 3055SOL    HW210065   3.796   5.930   3.846  0.4160 -0.1280 -1.0082
 3056SOL     OW10066   1.476   5.266   1.412  0.0883 -0.3753  0.9312
 3056SOL    HW110067   1.380   5.260   1.385  0.2956 -1.6240  0.4000
 3056SOL    HW210068   1.532   5.213   1.348  1.2639  1.1606  0.6420
 3057SOL     OW10069   0.307   5.485   4.825 -0.2493  0.2958  0.4871
 3057SOL    HW110070   0.249   5.459   4.748 -0.8198  0.5870  0.8184
 3057SOL    HW210071   0.275   5.441   4.909 -0.5993  1.2302  0.8562
 3058SOL     OW10072   3.861   3.951   4.516 -0.0112 -0.2402 -0.4602
 3058SOL    HW110073   3.773   3.949   4.563 -0.4826  1.2295 -1.2185
 3058SOL    HW210074   3.930   3.989   4.577  0.4817 -2.6997  0.6438
 3059SOL     OW10075   6.886   3.367   1.640 -0.2683  0.3901 -0.2108
 3059SOL    HW110076   6.795   3.335   1.666  0.4892  0.0851  2.3253
 3059SOL    HW210077   6.887   3.467   1.638 -0.6850  0.3931 -0.3430
 3060SOL     OW10078   4.943   5.497   1.217  0.3770 -0.0036  0.6637
 3060SOL    HW110079   4.890   5.429   1.166 -0.2888  0.1778  1.0957
 3060SOL    HW210080   4.989   5.558   1.153  1.0600 -0.9101  0.2665
 3061SOL     OW10081   2.135   5.943   6.764 -0.0250 -0.2118 -0.2080
 3061SOL    HW110082   2.145   5.848   6.794  0.2951 -0.3353 -0.6919
 3061SOL    HW210083   2.182   6.004   6.829 -0.6235 -0.3402  0.3518
 3062SOL     OW10084   3.274   0.200   1.718  0.2693 -0.7835 -0.4004
 3062SOL    HW110085   3.329   0.143   1.656  0.7960  0.3875 -1.0334
 3062SOL    HW210086   3.302   0.295   1.710 -0.2965 -0.4738  0.9768
 3063SOL     OW10087   5.476   1.514   0.158 -0.7909 -0.1909  0.2400
 3063SOL    HW110088   5.420   1.489   0.238 -2.3229  0.4458 -0.5779
 3063SOL    HW210089   5.440   1.599   0.119  0.3113 -0.1760 -0.7811
 3064SOL     OW10090   6.615   6.569   3.347  0.1265  0.6437 -0.1901
 3064SOL    HW110091   6.683   6.548   3.417  0.7813 -1.4623 -1.3725
 3064SOL    HW210092   6.658   6.626   3.276 -0.4593  2.5333  0.8904
 3065SOL     OW10093   5.006   6.134   1.064 -0.2654  0.7842  0.7494
 3065SOL    HW110094   4.936   6.072   1.030 -0.1071  0.6020  0.7524
 3065SOL    HW210095   4.976   6.174   1.151  0.3576 -0.6203  1.6447
 3066SOL     OW10096   5.648   3.101   3.909  0.0466  0.0914 -0.2837
 3066SOL    HW110097   5.720   3.167   3.887  0.3172  0.1503  0.7442
 3066SOL    HW210098   5.564   3.127   3.862  0.9861 -0.7137 -2.5939
 3067SOL     OW10099   5.895   4.299   1.925 -0.0143  0.4315 -0.3441
 3067SOL    HW110100   5.972   4.308   1.988 -0.4075  2.3338 -0.0743
 3067SOL    HW210101   5.865   4.204   1.922  0.3295  0.2005  1.9762
 3068SOL     OW10102   3.251   6.542   4.508  0.0875  0.4371 -0.4289
 3068SOL    HW110103   3.164   6.559   4.462  1.2823  0.9308 -2.7037
 3068SOL    HW210104   3.238   6.479   4.584 -2.3079  0.8761 -0.4203
 3069SOL     OW10105   4.132   4.492   0.169 -0.3582 -0.4590 -0.4558
 3069SOL    HW110106   4.149   4.590   0.178 -0.0230 -0.5816  0.3134
 3069SOL    HW210107   4.126   4.468   0.072 -2.3963  0.6411 -0.6560
 3070SOL     OW10108   2.553   5.821   0.208  0.9743  0.0675 -0.2838
 3070SOL    HW110109   2.577   5.724   0.206 -0.4832 -0.3571  0.7236
 3070SOL    HW210110   2.495   5.842   0.129  0.4218 -0.1528  0.0541
 3071SOL     OW10111   5.548   5.455   0.474  0.2097 -0.2552 -0.2779
 3071SOL    HW110112   5.642   5.486   0.488  0.2434 -1.2990  2.4546
 3071SOL    HW210113   5.497   5.464   0.559 -2.2711  0.4564 -1.7377
 3072SOL     OW10114   5.235   4.835   1.644  0.5841 -0.1197  0.3209
 3072SOL    HW110115   5.159   4.894   1.672  0.1065 -0.8505  0.5966
 3072SOL    HW210116   5.239   4.756   1.705  1.5491 -0.1077  0.2810
 3073SOL     OW10117   5.532   5.747   6.562 -0.3385  0.0807  0.1493
 3073SOL    HW110118   5.562   5.815   6.494 -0.5123  2.4526  2.2781
 3073SOL    HW210119   5.435   5.761   6.581 -0.5340 -1.2400  0.1733
 3074SOL     OW10120   1.668   2.006   4.164  0.0268 -0.6773 -0.2902
 3074SOL    HW110121   1.762   2.025   4.136  0.0155  2.3555  1.3275
 3074SOL    HW210122   1.610   1.996   4.084  1.3633 -0.4667 -1.3077
 3075SOL     OW10123   1.491   3.911   2.837  0.0207 -0.0822  0.1222
 3075SOL    HW110124   1.510   3.895   2.740 -1.2957  0.5640 -0.2712
 3075SOL    HW210125   1.507   4.007   2.859 -1.6789  0.2543  0.0129
 3076SOL     OW10126   0.938   3.285   1.685 -0.2231  0.1822  0.0121
 3076SOL    HW110127   1.036   3.289   1.700  0.6840 -0.9096 -4.2539
 3076SOL    HW210128   0.893   3.355   1.741  2.5741 -0.7030  3.7555
 3077SOL     OW10129   3.657   4.428   0.833  0.4772  0.5380  0.4228
 3077SOL    HW110130   3.602   4.430   0.750  2.6609 -1.4609 -1.1736
 3077SOL    HW210131   3.639   4.343   0.883  1.7614  0.0689  0.1059
 3078SOL     OW10132   1.723   3.433   1.730 -0.5354 -0.0028 -0.2425
 3078SOL    HW110133   1.757   3.426   1.636  1.7085  0.4710  0.4622
 3078SOL    HW210134   1.720   3.341   1.771  0.6415 -0.0037 -0.1150
 3079SOL     OW10135   3.744   0.208   6.321 -0.0972  0.2951  0.5340
 3079SOL    HW110136   3.802   0.126   6.325 -0.4745  0.0480  1.3719
 3079SOL    HW210137   3.752   0.251   6.231 -0.2245 -0.9108 -0.0736
 3080SOL     OW10138   0.674   4.648   0.875  0.2926  0.2849  0.1918
 3080SOL    HW110139   0.697   4.550   0.873  3.2491  0.8994 -0.5701
 3080SOL    HW210140   0.575   4.659   0.868 -0.0920 -2.6288 -0.1974
 3081SOL     OW10141   3.145   0.452   3.279 -0.2894  0.1832  1.0144
 3081SOL    HW110142   3.105   0.383   3.219  1.6070 -0.6977  0.7009
 3081SOL    HW210143   3.148   0.540   3.232 -0.3089 -0.1203  0.4385
 3082SOL     OW10144   0.039   2.422   0.869 -0.1534 -0.1754 -0.7119
 3082SOL    HW110145   0.035   2.521   0.857  1.3298 -0.1879 -1.5444
 3082SOL    HW210146   0.046   2.400   0.967  0.5292  0.5933 -0.5807
 3083SOL     OW10147   6.895   6.644   6.443  0.3358 -0.5364  0.2955
 3083SOL    HW110148   6.865   6.598   6.360 -0.1597 -0.1899  0.2799
 3083SOL    HW210149   6.995   6.642   6.447  0.4269  0.3842 -0.8662
 3084SOL     OW10150   5.215   3.532   4.769  0.3067  0.4214  0.0112
 3084SOL    HW110151   5.116   3.529   4.785  0.2322  0.0163 -0.5365
 3084SOL    HW210152   5.255   3.601   4.830 -0.0789 -0.5650  1.4291
 3085SOL     OW10153   4.775   4.692   5.962  0.4689  0.4050  0.6894
 3085SOL    HW110154   4.706   4.653   6.023  0.8377 -0.2830  0.6681
 3085SOL    HW210155   4.729   4.736   5.884  0.0452 -0.0554  0.6701
 3086SOL     OW10156   2.340   2.678   3.105  0.1821  0.2300 -0.1315
 3086SOL    HW110157   2.258   2.621   3.097 -1.3862  2.4511 -1.0822
 3086SOL    HW210158   2.410   2.645   3.043 -0.1296 -1.4594  0.3677
 3087SOL     OW10159   0.886   3.400   0.168 -0.3055 -0.0170 -0.0293
 3087SOL    HW110160   0.965   3.438   0.119 -0.8738 -0.0403 -0.9780
 3087SOL    HW210161   0.811   3.466   0.165  0.9051  1.9914  4.5294
 3088SOL     OW10162   3.940   2.796   6.020  0.1369  0.4728 -0.0350
 3088SOL    HW110163   3.919   2.739   6.100 -0.0902  1.2049  0.4447
 3088SOL    HW210164   3.857   2.806   5.964  0.1432  0.4370 -0.0511
 3089SOL     OW10165   4.694   0.135   3.188  0.7197 -0.3220  0.3587
 3089SOL    HW110166   4.779   0.142   3.137 -0.2074  1.7111 -1.0665
 3089SOL    HW210167   4.621   0.104   3.127 -0.1332  0.7805  0.7863
 3090SOL     OW10168   2.382   6.390   0.418 -0.2086  0.3119  0.3621
 3090SOL    HW110169   2.421   6.367   0.507 -0.5845  2.1120  1.0369
 3090SOL    HW210170   2.390   6.488   0.403 -1.4037  0.2354 -0.9976
 3091SOL     OW10171   0.763   3.897   3.311 -0.1988  0.3171 -0.3692
 3091SOL    HW110172   0.805   3.921   3.399  1.0773 -0.0434 -0.8623
 3091SOL    HW210173   0.669   3.932   3.308 -0.2100  0.4647  1.0715
 3092SOL     OW10174   3.371   0.611   4.334 -0.1190 -0.1444  0.0211
 3092SOL    HW110175   3.363   0.621   4.434 -2.8983  0.7053 -0.2207
 3092SOL    HW210176   3.330   0.525   4.306 -1.3502  0.6032 -0.5573
 3093SOL     OW10177   6.337   5.240   3.817  0.5036  0.2986  0.1132
 3093SOL    HW110178   6.340   5.288   3.904  2.7098  1.7512 -0.6616
 3093SOL    HW210179   6.333   5.142   3.833  1.9577  0.4774  1.8977
 3094SOL     OW10180   2.600   6.065   3.702  0.5157  0.2661  1.2532
 3094SOL    HW110181   2.595   6.023   3.793 -0.5431  1.7845  1.9464
 3094SOL    HW210182   2.608   6.164   3.712 -0.6870  0.5531 -0.3117
 3095SOL     OW10183   5.852   3.230   3.673  0.5238 -0.0257  0.0679
 3095SOL    HW110184   5.916   3.183   3.612  0.8860  1.3200 -0.6333
 3095SOL    HW210185   5.893   3.314   3.708 -0.3524  0.1513  0.7251
 3096SOL     OW10186   3.546   2.485   1.297 -0.4337 -0.1808 -0.1644
 3096SOL    HW110187   3.599   2.541   1.360 -0.6835 -1.2180  1.0148
 3096SOL    HW210188   3.478   2.541   1.250  1.6718  1.1987 -1.7572
 3097SOL     OW10189   5.789   1.805   4.514 -0.5388 -0.3582  0.6000
 3097SOL    HW110190   5.789   1.902   4.488  1.5105 -0.5376 -0.1975
 3097SOL    HW210191   5.726   1.792   4.591 -0.1803  1.7808  1.3264
 3098SOL     OW10192   6.949   6.978   6.510 -0.0424 -0.1927  0.1191
 3098SOL    HW110193   6.894   7.060   6.494  1.2584  0.6437 -0.2200
 3098SOL    HW210194   6.889   6.898   6.508 -0.8504  0.3018 -3.6776
 3099SOL     OW10195   1.191   5.031   3.700  0.2063  0.4382  0.2024
 3099SOL    HW110196   1.151   5.123   3.700  3.1929  1.9934 -2.9437
 3099SOL    HW210197   1.268   5.028   3.763  0.0184  0.0201  0.4144
 3100SOL     OW10198   2.903   4.766   2.352  0.2266  0.2769  0.0892
 3100SOL    HW110199   2.890   4.862   2.328 -1.7161 -0.3918 -1.8087
 3100SOL    HW210200   2.990   4.734   2.314  0.1589  0.8927 -0.6093
 3101SOL     OW10201   6.482   0.579   4.972 -0.1921 -0.1582  0.5391
 3101SOL    HW110202   6.386   0.551   4.959 -0.1516 -1.0047  1.8729
 3101SOL    HW210203   6.529   0.575   4.885 -1.1915 -0.4774 -0.0093
 3102SOL     OW10204   6.413   6.844   2.513 -0.5086 -0.8292  0.0740
 3102SOL    HW110205   6.377   6.751   2.502  0.0550 -1.0842  0.3693
 3102SOL    HW210206   6.336   6.909   2.511 -1.0739 -1.4218  1.3497
 3103SOL     OW10207   5.483   0.309   3.819  0.4697  0.0579  0.4208
 3103SOL    HW110208   5.413   0.272   3.758 -0.7723  0.5328  1.5395
 3103SOL    HW210209   5.456   0.295   3.914  0.2385  3.2308  0.9228
 3104SOL     OW10210   2.100   1.268   3.495  0.1241 -0.2810 -0.1320
 3104SOL    HW110211   2.087   1.324   3.413  0.5404  0.6655  0.4333
 3104SOL    HW210212   2.042   1.303   3.569  1.1655  0.0538  0.5387
 3105SOL     OW10213   6.419   2.236   3.322 -0.0776 -0.3284  0.0138
 3105SOL    HW110214   6.411   2.212   3.225 -1.1897  2.0256 -0.5555
 3105SOL    HW210215   6.514   2.225   3.351 -0.0836 -3.1287 -0.6834
 3106SOL     OW10216   5.632   3.200   2.012  0.2696  0.2177  0.0885
 3106SOL    HW110217   5.581   3.270   1.962 -1.4679  0.3093  1.8536
 3106SOL    HW210218   5.622   3.112   1.966 -1.9034  0.1536  0.5843
 3107SOL     OW10219   4.982   4.543   2.496 -0.1550 -0.7067 -0.1444
 3107SOL    HW110220   4.882   4.548   2.497 -0.1630 -0.8825  0.4653
 3107SOL    HW210221   5.015   4.555   2.403 -0.8286 -2.1712 -0.5959
 3108SOL     OW10222   5.729   4.473   1.831  0.4010  0.1959 -0.4954
 3108SOL    HW110223   5.773   4.553   1.792 -0.0034  0.5472 -0.2407
 3108SOL    HW210224   5.798   4.405   1.855  1.0227  1.4888  1.6633
 3109SOL     OW10225   3.682   5.890   1.460 -0.2575  0.0647  0.3022
 3109SOL    HW110226   3.655   5.796   1.438 -0.1761 -0.1593  1.1427
 3109SOL    HW210227   3.615   5.930   1.523 -0.8423  0.9283 -0.8398
 3110SOL     OW10228   3.735   1.506   3.161 -0.8472 -0.5848 -0.0964
 3110SOL    HW110229   3.743   1.589   3.105 -0.6355  0.3839  1.3216
 3110SOL    HW210230   3.642   1.468   3.152 -1.8601  1.3863  1.3336
 3111SOL     OW10231   3.454   3.245   1.590 -0.4184 -0.0334 -0.2549
 3111SOL    HW110232   3.484   3.207   1.503 -1.8991  0.0149 -0.8143
 3111SOL    HW210233   3.464   3.175   1.662 -2.8557 -1.5098 -1.2224
 3112SOL     OW10234   4.482   4.541   5.918  0.0034  0.0796 -0.1944
 3112SOL    HW110235   4.499   4.606   5.992 -0.4192 -0.1836  0.1402
 3112SOL    HW210236   4.495   4.586   5.830 -2.1599  1.1925 -0.0130
 3113SOL     OW10237   5.486   2.314   1.343  0.2924 -0.5519 -0.5882
 3113SOL    HW110238   5.549   2.336   1.269  1.3803 -2.6932 -0.3808
 3113SOL    HW210239   5.471   2.215   1.345 -0.4422 -0.4352  1.4652
 3114SOL     OW10240   1.759   2.729   4.173 -0.2407  0.1877 -0.1164
 3114SOL    HW110241   1.744   2.812   4.227  1.3312 -0.0183  0.7001
 3114SOL    HW210242   1.709   2.653   4.215 -0.9385  0.5235 -0.3318
 3115SOL     OW10243   1.918   1.794   5.198 -0.5214  0.3190  0.1230
 3115SOL    HW110244   2.013   1.796   5.229 -0.7213  0.5750  0.7378
 3115SOL    HW210245   1.915   1.796   5.098  0.2589 -3.4477 -0.1227
 3116SOL     OW10246   4.537   5.130   1.214  0.2631  0.2143  0.1468
 3116SOL    HW110247   4.496   5.203   1.160 -0.8173  0.3117  1.0690
 3116SOL    HW210248   4.531   5.044   1.163  1.1298  0.6602 -0.7479
 3117SOL     OW10249   4.670   3.283   6.038  0.5401  1.2849  1.0518
 3117SOL    HW110250   4.669   3.184   6.055  0.4418  1.3546  1.4722
 3117SOL    HW210251   4.588   3.324   6.078  0.3580  1.4765  0.4871
 3118SOL     OW10252   4.698   1.819   6.479  0.1620 -0.2474  0.3101
 3118SOL    HW110253   4.618   1.798   6.534  0.2535  1.1918  1.0196
 3118SOL    HW210254   4.676   1.890   6.412  0.4710 -0.8742 -0.4786
 3119SOL     OW10255   1.707   4.952   3.003 -0.3867 -0.1064  0.4944
 3119SOL    HW110256   1.685   5.036   3.052 -2.6751 -0.1423 -0.3756
 3119SOL    HW210257   1.722   4.878   3.070  3.5265  1.2458  1.3801
 3120SOL     OW10258   5.640   4.921   3.630 -0.1594 -0.4120 -0.6504
 3120SOL    HW110259   5.582   4.983   3.578  0.1708 -0.7701 -1.4680
 3120SOL    HW210260   5.720   4.970   3.665 -0.3643 -0.1815 -0.4969
 3121SOL     OW10261   0.747   2.358   6.631 -0.1935 -0.2161 -0.0382
 3121SOL    HW110262   0.713   2.271   6.666  0.9513 -0.1365  1.3903
 3121SOL    HW210263   0.807   2.400   6.700 -2.0681  2.5399  0.1016
 3122SOL     OW10264   3.497   3.663   6.832  0.3712  0.7570 -0.1656
 3122SOL    HW110265   3.531   3.740   6.777 -0.0465  1.7524  0.9107
 3122SOL    HW210266   3.424   3.695   6.892 -0.4159 -0.6989 -0.3112
 3123SOL     OW10267   6.745   0.569   3.542  0.0424  0.7869 -0.4814
 3123SOL    HW110268   6.721   0.596   3.449 -1.8161  0.2217 -0.2172
 3123SOL    HW210269   6.726   0.471   3.554  1.8862  0.4586  0.0143
 3124SOL     OW10270   1.875   6.557   0.882 -0.1745 -0.2854  0.2223
 3124SOL    HW110271   1.811   6.485   0.854 -1.2440  1.2654 -1.5565
 3124SOL    HW210272   1.968   6.525   0.867 -0.5707 -1.7918  0.7791
 3125SOL     OW10273   2.510   1.367   5.164  0.0967  0.6470 -0.4019
 3125SOL    HW110274   2.569   1.298   5.206 -1.6686  0.6326  2.3242
 3125SOL    HW210275   2.468   1.330   5.082  1.9719 -0.1635 -1.0442
 3126SOL     OW10276   1.432   3.876   0.024  0.2474 -0.0243 -0.1055
 3126SOL    HW110277   1.508   3.940   0.035  0.2157 -0.1837  1.3394
 3126SOL    HW210278   1.451   3.814  -0.052 -0.2240  2.3320 -2.2724
 3127SOL     OW10279   1.872   0.590   4.022  0.0392 -0.0871  0.0377
 3127SOL    HW110280   1.846   0.581   4.118  1.9375  0.1814  0.6322
 3127SOL    HW210281   1.813   0.532   3.965 -0.2030 -1.3906  1.5379
 3128SOL     OW10282   6.775   2.318   6.724 -0.6144  0.2540 -0.1701
 3128SOL    HW110283   6.720   2.326   6.807 -0.9002 -0.6867 -0.2581
 3128SOL    HW210284   6.728   2.363   6.649  0.0708  1.9203  0.3501
 3129SOL     OW10285   2.721   1.828   3.977  0.3213  0.4332  0.2061
 3129SOL    HW110286   2.649   1.760   3.990 -1.2929  2.0587  0.1196
 3129SOL    HW210287   2.782   1.827   4.056 -0.1980 -0.4852  0.6137
 3130SOL     OW10288   1.446   0.635   4.324 -0.1301  0.0345 -0.0575
 3130SOL    HW110289   1.448   0.678   4.233  0.3910  1.3443  0.5485
 3130SOL    HW210290   1.355   0.644   4.363  0.1101  1.1091  0.2869
 3131SOL     OW10291   6.668   1.517   1.858 -0.6199 -0.2174 -0.1984
 3131SOL    HW110292   6.751   1.572   1.846 -1.5122  0.8378 -1.9918
 3131SOL    HW210293   6.693   1.424   1.882  1.1626 -0.1927 -1.7568
 3132SOL     OW10294   3.412   0.233   2.788  0.1726 -0.5997  0.0806
 3132SOL    HW110295   3.318   0.202   2.774  0.1299  0.0953 -1.3434
 3132SOL    HW210296   3.471   0.153   2.802 -0.7635 -0.9989  2.2273
 3133SOL     OW10297   2.955   3.716   3.429  0.3651  0.0146 -0.4468
 3133SOL    HW110298   2.876   3.732   3.369  0.6867  0.0915 -0.8572
 3133SOL    HW210299   3.031   3.680   3.375  0.4469 -0.5485  0.0392
 3134SOL     OW10300   3.852   5.682   1.667  0.6564 -0.2930  0.4512
 3134SOL    HW110301   3.942   5.679   1.709  0.9229  0.2633 -0.0703
 3134SOL    HW210302   3.862   5.685   1.567  0.0721  0.2838  0.4083
 3135SOL     OW10303   0.524   2.335   1.269 -0.0332 -1.0307 -0.0564
 3135SOL    HW110304   0.475   2.411   1.226  0.1448 -0.2655  1.0656
 3135SOL    HW210305   0.607   2.315   1.218  1.1848  1.1350  0.9447
 3136SOL     OW10306   5.066   1.253   0.551  0.0164 -0.7255 -0.4127
 3136SOL    HW110307   4.991   1.315   0.573  0.1112 -0.6916 -0.1751
 3136SOL    HW210308   5.084   1.256   0.453  1.4688  1.3217 -0.1621
 3137SOL     OW10309   3.128   2.062   0.447 -0.6475  0.5118 -0.2297
 3137SOL    HW110310   3.064   1.992   0.477 -0.3383  0.7139  0.9224
 3137SOL    HW210311   3.093   2.152   0.470  0.9180  0.5758  2.3178
 3138SOL     OW10312   0.113   0.224   5.002 -0.2716 -0.1273  0.5139
 3138SOL    HW110313   0.134   0.172   5.085  1.2294 -0.6169 -0.1324
 3138SOL    HW210314   0.188   0.286   4.982 -1.0817  0.7313  0.0670
 3139SOL     OW10315   4.744   2.351   0.589  0.2606 -0.0236  0.5637
 3139SOL    HW110316   4.834   2.356   0.631 -0.9811 -1.0753  3.6329
 3139SOL    HW210317   4.683   2.296   0.646 -2.0209 -0.4464 -2.0444
 3140SOL     OW10318   2.300   4.590   1.411 -0.0352 -0.1938 -0.0451
 3140SOL    HW110319   2.381   4.644   1.431 -0.6616  0.5549  0.5161
 3140SOL    HW210320   2.327   4.496   1.391  1.0952  0.3346 -1.2106
 3141SOL     OW10321   5.164   6.797   5.282  0.0966 -0.0427 -0.0622
 3141SOL    HW110322   5.210   6.762   5.201  0.8090 -0.5692  0.5605
 3141SOL    HW210323   5.192   6.745   5.362 -0.6320  0.4394  0.5260
 3142SOL     OW10324   3.099   2.330   1.212  1.0413 -0.4938 -0.3702
 3142SOL    HW110325   3.123   2.277   1.131 -0.5956 -0.1776 -1.0973
 3142SOL    HW210326   3.120   2.275   1.294  0.0196 -2.0322 -1.0831
 3143SOL     OW10327   5.889   0.451   4.623  0.3259  0.3972 -0.7661
 3143SOL    HW110328   5.814   0.428   4.561  0.9528  0.0676 -1.4121
 3143SOL    HW210329   5.866   0.419   4.715 -0.5338  0.7371 -0.8500
 3144SOL     OW10330   6.303   3.714   1.358  0.0823 -0.0215  0.1033
 3144SOL    HW110331   6.379   3.728   1.422 -0.2786  0.2735  0.4702
 3144SOL    HW210332   6.226   3.772   1.384 -1.1818 -2.0653  1.2213
 3145SOL     OW10333   4.278   0.485   6.853 -0.2345  0.2131  0.1660
 3145SOL    HW110334   4.254   0.517   6.761 -0.6973  0.4423  0.3625
 3145SOL    HW210335   4.196   0.481   6.910  0.0679  0.2008  0.6106
 3146SOL     OW10336   5.049   6.422   3.503  0.7015  0.0367 -0.3476
 3146SOL    HW110337   5.138   6.463   3.485  0.4872  0.0792 -1.3692
 3146SOL    HW210338   5.059   6.350   3.571  1.4082  0.4649  0.0141
 3147SOL     OW10339   3.921   0.663   5.848  0.2630 -0.2572 -0.0983
 3147SOL    HW110340   3.915   0.602   5.769  0.0861 -0.5172  0.1159
 3147SOL    HW210341   3.853   0.637   5.916  0.2442  0.1267  0.0317
 3148SOL     OW10342   0.098   2.228   4.926  0.1949  0.0791 -0.3445
 3148SOL    HW110343   0.168   2.157   4.913 -0.7804 -1.2685  1.2936
 3148SOL    HW210344   0.014   2.185   4.960  0.2441  2.1956  2.9144
 3149SOL     OW10345   5.169   6.894   0.905  0.1750  0.4973 -0.8329
 3149SOL    HW110346   5.145   6.909   1.001 -1.1884  0.5386 -1.1548
 3149SOL    HW210347   5.165   6.796   0.885  0.8015  0.4576 -0.7634
 3150SOL     OW10348   1.493   4.171   6.899  0.0805  0.1350 -0.0106
 3150SOL    HW110349   1.543   4.249   6.937 -0.1423 -0.1869  0.9604
 3150SOL    HW210350   1.514   4.163   6.802  2.0091 -0.0719  0.3843
 3151SOL     OW10351   5.362   2.463   2.938 -0.4605 -0.4322 -0.3863
 3151SOL    HW110352   5.383   2.551   2.980  0.4079 -0.4238 -0.8180
 3151SOL    HW210353   5.353   2.393   3.009 -0.0157 -0.2221 -0.1251
 3152SOL     OW10354   6.539   5.773   2.412  0.4169  0.1185 -0.2232
 3152SOL    HW110355   6.534   5.728   2.322  1.9410 -0.5157 -0.0151
 3152SOL    HW210356   6.527   5.871   2.400  0.9522  0.0871 -1.1806
 3153SOL     OW10357   3.403   2.309   6.940  0.1028  0.1290  0.1806
 3153SOL    HW110358   3.489   2.289   6.986  0.4599 -1.0495 -0.9586
 3153SOL    HW210359   3.386   2.408   6.944  2.1502  0.5734 -0.6781
 3154SOL     OW10360   2.975   6.924   6.663 -0.0621 -0.3398  0.5412
 3154SOL    HW110361   3.007   7.018   6.673 -0.2021 -0.0903 -1.0454
 3154SOL    HW210362   3.047   6.867   6.625 -0.7352 -0.2783 -0.9088
 3155SOL     OW10363   0.791   0.774   1.766 -0.5252 -0.0133 -0.1462
 3155SOL    HW110364   0.875   0.723   1.750  0.1061 -0.0920  2.8502
 3155SOL    HW210365   0.738   0.731   1.840 -1.2829  2.1383  0.6629
 3156SOL     OW10366   5.742   2.040   1.669  0.6433 -0.0427 -0.4137
 3156SOL    HW110367   5.733   2.139   1.679  1.9193  0.3568 -2.3984
 3156SOL    HW210368   5.665   2.004   1.616 -2.1298 -0.9383  3.7309
 3157SOL     OW10369   6.946   5.211   3.261 -0.3077 -0.2678 -0.2975
 3157SOL    HW110370   6.912   5.174   3.348  0.4979  0.8304  0.5161
 3157SOL    HW210371   6.994   5.139   3.210 -0.8129 -0.9313  0.1464
 3158SOL     OW10372   6.497   6.023   3.039 -0.0026 -0.0584  0.6042
 3158SOL    HW110373   6.537   5.932   3.052  2.1199  0.7942  0.5723
 3158SOL    HW210374   6.398   6.017   3.040  0.0895 -2.3148  0.9594
 3159SOL     OW10375   7.005   1.102   6.536 -0.3333  0.4070 -0.1609
 3159SOL    HW110376   7.088   1.142   6.498  0.2861  0.3115  1.0274
 3159SOL    HW210377   6.931   1.106   6.469  0.4719  1.0243 -1.0244
 3160SOL     OW10378   0.745   0.952   0.521  0.0170  0.2107  0.1855
 3160SOL    HW110379   0.734   1.016   0.597  1.7382  1.7152 -0.7773
 3160SOL    HW210380   0.700   0.865   0.545 -0.4800  1.0083  2.4230
 3161SOL     OW10381   4.366   0.176   0.117 -0.6420 -0.1023 -0.2856
 3161SOL    HW110382   4.386   0.084   0.151 -0.1323  0.2290  0.3220
 3161SOL    HW210383   4.322   0.169   0.028 -0.2361 -0.9234 -0.4306
 3162SOL     OW10384   1.693   2.682   0.603  0.5670 -0.1133  0.2656
 3162SOL    HW110385   1.687   2.685   0.503 -0.0968 -0.7057  0.2842
 3162SOL    HW210386   1.734   2.596   0.631  2.1751  0.6843  0.4583
 3163SOL     OW10387   3.479   2.054   0.803 -0.0385 -0.3122  0.5557
 3163SOL    HW110388   3.399   2.001   0.776 -0.2348 -1.5124  3.1684
 3163SOL    HW210389   3.476   2.070   0.902  0.4258  3.9659  0.0778
 3164SOL     OW10390   3.254   1.428   4.596 -0.3936 -0.0292  0.1393
 3164SOL    HW110391   3.317   1.408   4.521 -0.8535  0.2740 -0.3419
 3164SOL    HW210392   3.200   1.509   4.573  1.3486  1.7734  1.9719
 3165SOL     OW10393   1.739   0.837   5.102  0.0417  0.3894 -0.1046
 3165SOL    HW110394   1.750   0.928   5.062  0.5804  1.0653  1.4705
 3165SOL    HW210395   1.823   0.811   5.149 -0.4871 -0.4241  0.4173
 3166SOL     OW10396   0.886   6.934   1.658 -0.4578  0.3613  0.0278
 3166SOL    HW110397   0.880   6.868   1.583 -0.7249 -0.5701  0.8456
 3166SOL    HW210398   0.962   6.909   1.718 -0.1226  1.2165 -0.0233
 3167SOL     OW10399   6.448   3.284   1.132 -0.0769 -0.5451  0.2512
 3167SOL    HW110400   6.506   3.207   1.107  0.9547  0.0063  0.8889
 3167SOL    HW210401   6.415   3.329   1.049  0.8782 -0.5244 -0.1259
 3168SOL     OW10402   2.075   2.400   6.103  0.3138 -0.4826 -0.2792
 3168SOL    HW110403   1.991   2.383   6.051 -0.2226  0.3043  0.3012
 3168SOL    HW210404   2.140   2.327   6.085 -0.4503 -1.0509 -0.8338
 3169SOL     OW10405   3.677   0.105   6.869 -0.0756  0.1658 -0.3844
 3169SOL    HW110406   3.718   0.184   6.915  0.5117  0.6460 -1.6509
 3169SOL    HW210407   3.727   0.088   6.784 -0.2826 -1.5012 -0.1940
 3170SOL     OW10408   6.656   6.860   6.509 -0.1365  0.1738  0.1319
 3170SOL    HW110409   6.676   6.852   6.411 -0.4578  1.4267 -0.0616
 3170SOL    HW210410   6.667   6.771   6.553  0.5416 -0.2950 -0.9396
 3171SOL     OW10411   1.883   6.818   1.761  0.0285  0.3258  0.0266
 3171SOL    HW110412   1.945   6.772   1.697 -1.9456 -2.0441 -0.2994
 3171SOL    HW210413   1.860   6.755   1.835 -0.8561  1.6717  0.9280
 3172SOL     OW10414   2.907   3.302   3.730 -0.3574  0.2500  0.3480
 3172SOL    HW110415   2.825   3.273   3.681 -0.3956  0.3667  0.3432
 3172SOL    HW210416   2.981   3.320   3.664 -0.2645 -0.0624  0.3676
 3173SOL     OW10417   1.002   4.424   3.348 -0.0441 -0.5475 -0.1761
 3173SOL    HW110418   0.920   4.471   3.381  0.7028  0.0969  0.8362
 3173SOL    HW210419   1.057   4.394   3.426  1.0660 -0.2700 -0.8331
 3174SOL     OW10420   5.184   2.165   0.886  0.6841 -0.2994 -0.5014
 3174SOL    HW110421   5.241   2.084   0.874  1.1946 -0.1136  0.5499
 3174SOL    HW210422   5.127   2.155   0.968  0.1173  0.0493 -0.8403
 3175SOL     OW10423   5.870   0.805   2.710 -0.0771 -0.2046  0.1344
 3175SOL    HW110424   5.849   0.896   2.673  0.8841  0.0323  0.1431
 3175SOL    HW210425   5.968   0.787   2.700  0.1866 -0.2417  2.2893
 3176SOL     OW10426   6.045   0.835   4.258  0.2505  0.2222  0.3168
 3176SOL    HW110427   6.062   0.896   4.335  2.2880 -0.9286  0.8572
 3176SOL    HW210428   6.083   0.745   4.278  2.0560  0.2260 -2.5181
 3177SOL     OW10429   0.979   1.298   5.034 -0.0998 -0.3695  0.6333
 3177SOL    HW110430   1.023   1.385   5.011  0.8946 -1.2025 -0.7642
 3177SOL    HW210431   0.931   1.307   5.121  1.0761  1.2011  1.1681
 3178SOL     OW10432   4.772   6.299   3.100 -0.6741  0.3815 -0.0024
 3178SOL    HW110433   4.723   6.236   3.160 -0.5557  0.0237 -0.2768
 3178SOL    HW210434   4.841   6.348   3.153 -0.4347 -0.0750  0.1148
 3179SOL     OW10435   1.684   2.306   2.024  0.0740 -0.2803  0.0188
 3179SOL    HW110436   1.688   2.405   2.034  2.1018 -0.3380  0.2813
 3179SOL    HW210437   1.610   2.281   1.962 -1.7540  1.2362  1.4589
 3180SOL     OW10438   2.286   0.831   2.431 -0.7889 -0.5010 -0.1765
 3180SOL    HW110439   2.262   0.928   2.425 -0.4624 -0.0479  3.4129
 3180SOL    HW210440   2.384   0.822   2.448 -0.6298 -1.5677 -1.4892
 3181SOL     OW10441   6.516   5.028   2.792  0.1322  0.0348  0.3216
 3181SOL    HW110442   6.532   4.947   2.736  0.4232  0.1791  0.1940
 3181SOL    HW210443   6.422   5.028   2.825 -0.0426 -0.0449 -0.1765
 3182SOL     OW10444   1.706   5.020   5.797 -0.2350  0.1687 -0.0788
 3182SOL    HW110445   1.750   5.002   5.709 -1.2666 -0.2144 -0.5269
 3182SOL    HW210446   1.612   4.987   5.795 -0.6745  1.3064  0.7415
 3183SOL     OW10447   4.402   6.409   4.861  0.0250 -0.0962 -0.3813
 3183SOL    HW110448   4.443   6.410   4.770 -0.9549 -0.9844 -0.8517
 3183SOL    HW210449   4.409   6.500   4.901  0.3210  0.3525 -1.4071
 3184SOL     OW10450   6.978   1.053   5.637  0.3768 -0.1089 -0.1710
 3184SOL    HW110451   6.907   1.108   5.592  1.7847  1.3142 -0.7686
 3184SOL    HW210452   6.946   1.025   5.727  0.1992  3.2856  0.9770
 3185SOL     OW10453   1.175   4.990   0.070 -0.2556  0.0738 -0.0648
 3185SOL    HW110454   1.197   4.921   0.001  1.5492  1.3426 -0.8072
 3185SOL    HW210455   1.131   4.945   0.148 -3.0243 -1.3007 -2.2558
 3186SOL     OW10456   1.135   6.568   0.978  0.0664  0.2936 -0.1219
 3186SOL    HW110457   1.086   6.498   0.925  0.2756  0.8675 -1.0943
 3186SOL    HW210458   1.209   6.606   0.923 -1.6273  3.1386 -0.6663
 3187SOL     OW10459   6.771   1.424   6.800  0.0742  0.0970 -0.2017
 3187SOL    HW110460   6.851   1.481   6.822 -0.5842  1.1270 -0.4043
 3187SOL    HW210461   6.715   1.413   6.882 -0.1667  0.3408 -0.3320
 3188SOL     OW10462   5.358   0.194   1.479  0.2416  0.0695  0.5089
 3188SOL    HW110463   5.380   0.250   1.559 -1.3737  0.4111  0.7473
 3188SOL    HW210464   5.358   0.252   1.397 -2.5155  0.7706  0.8952
 3189SOL     OW10465   5.098   4.094   0.437 -0.3375  0.4539 -0.3367
 3189SOL    HW110466   5.026   4.104   0.506 -0.1905  1.6832 -0.3422
 3189SOL    HW210467   5.080   4.012   0.382 -1.4447  0.4527 -0.0080
 3190SOL     OW10468   2.974   5.446   6.585 -0.1859 -0.1701 -0.5967
 3190SOL    HW110469   3.035   5.367   6.592  1.3131  0.9249 -0.9152
 3190SOL    HW210470   2.924   5.457   6.671  0.3276 -0.8614 -0.1954
 3191SOL     OW10471   1.590   3.806   5.106  0.0817 -0.5111 -0.0140
 3191SOL    HW110472   1.577   3.783   5.010  0.0776 -1.6644  0.2452
 3191SOL    HW210473   1.638   3.731   5.152  0.9489  0.4408  0.6816
 3192SOL     OW10474   1.792   5.398   4.258 -0.0300 -0.3963  0.4022
 3192SOL    HW110475   1.760   5.492   4.256  0.0892 -0.3285 -2.8246
 3192SOL    HW210476   1.869   5.387   4.195  0.8299 -2.3932  1.6995
 3193SOL     OW10477   0.976   5.898   3.725  0.6368  0.0156  0.1727
 3193SOL    HW110478   0.987   5.882   3.823  0.2866  0.1442  0.2331
 3193SOL    HW210479   1.066   5.896   3.681  0.6430 -1.8042  0.2113
 3194SOL     OW10480   2.448   0.188   1.054 -0.0064 -0.0982 -0.5858
 3194SOL    HW110481   2.413   0.095   1.059 -1.3628  0.3253 -1.3975
 3194SOL    HW210482   2.460   0.225   1.146  1.0546 -1.2288 -0.2480
 3195SOL     OW10483   0.121   6.903   2.989 -0.3746  0.2508  0.1680
 3195SOL    HW110484   0.095   6.999   2.997 -1.3178  0.1048 -0.8658
 3195SOL    HW210485   0.148   6.883   2.895 -0.2349 -0.5011  0.3590
 3196SOL     OW10486   4.021   0.229   1.961 -0.4583  0.3221 -0.6186
 3196SOL    HW110487   3.977   0.140   1.977  1.6131 -0.4366  1.4390
 3196SOL    HW210488   3.965   0.301   2.002 -1.4397 -0.1620 -1.0514
 3197SOL     OW10489   1.874   5.948   5.185 -0.8417 -0.1342  0.1806
 3197SOL    HW110490   1.928   5.863   5.183  0.0240  0.3948 -1.8745
 3197SOL    HW210491   1.778   5.927   5.169 -0.4663 -0.6896 -1.6397
 3198SOL     OW10492   6.219   2.343   6.411  0.1041 -0.6295 -0.7511
 3198SOL    HW110493   6.318   2.346   6.398  0.6450  0.5986  2.6076
 3198SOL    HW210494   6.197   2.271   6.478 -0.9897  0.4576  0.0927
 3199SOL     OW10495   2.135   4.449   0.589  0.3949  0.8093 -0.6605
 3199SOL    HW110496   2.207   4.382   0.609  0.2416  0.3272 -1.6780
 3199SOL    HW210497   2.104   4.491   0.675  1.3943  0.5165 -0.1402
 3200SOL     OW10498   0.633   2.305   0.353 -0.1520 -0.1238 -0.5156
 3200SOL    HW110499   0.704   2.258   0.404 -0.8967 -1.1855 -0.4236
 3200SOL    HW210500   0.674   2.353   0.275  0.8061  0.3473  0.2569
 3201SOL     OW10501   0.280   3.007   3.356  0.0599 -0.2923  0.4227
 3201SOL    HW110502   0.370   2.992   3.316 -0.6533 -0.2970 -1.2738
 3201SOL    HW210503   0.214   2.946   3.313 -0.5157 -1.3926  2.7252
 3202SOL     OW10504   0.645   6.177   1.073  0.0142  0.7273  0.6588
 3202SOL    HW110505   0.631   6.276   1.069  0.1069  0.8061  1.8454
 3202SOL    HW210506   0.559   6.132   1.097 -0.2808  0.4089 -0.8962
 3203SOL     OW10507   6.422   2.257   1.762  0.2433 -0.5010  0.0357
 3203SOL    HW110508   6.496   2.214   1.711 -1.9279 -1.9993 -2.1059
 3203SOL    HW210509   6.354   2.293   1.698 -1.7119 -0.6933  1.8720
 3204SOL     OW10510   6.958   0.188   4.390 -0.6339  0.1859  0.0371
 3204SOL    HW110511   6.967   0.231   4.300 -0.1401 -0.7172 -0.3628
 3204SOL    HW210512   6.928   0.093   4.379 -0.9154  0.1723  0.8462
 3205SOL     OW10513   6.970   5.692   6.355 -0.3502  0.2515  0.3984
 3205SOL    HW110514   6.989   5.785   6.388 -1.2914  0.8364 -0.6206
 3205SOL    HW210515   6.871   5.678   6.351 -0.2588 -0.1823 -1.0728
 3206SOL     OW10516   4.350   4.444   0.404 -0.3035 -0.0202 -0.3683
 3206SOL    HW110517   4.282   4.433   0.332 -0.7120  0.3646 -0.0444
 3206SOL    HW210518   4.391   4.355   0.425 -2.4503 -0.7481  1.1339
 3207SOL     OW10519   7.005   6.905   1.016 -0.1446  0.2298 -0.4575
 3207SOL    HW110520   6.952   6.906   1.101  0.3883  0.8540 -0.1244
 3207SOL    HW210521   7.020   6.810   0.988 -0.8850  0.0301 -0.2127
 3208SOL     OW10522   0.397   5.996   1.061  0.2988 -0.2787  0.4606
 3208SOL    HW110523   0.446   5.916   1.098 -1.2932 -1.3941  0.2571
 3208SOL    HW210524   0.348   5.970   0.978  0.1198  1.0447  0.1305
 3209SOL     OW10525   4.895   5.650   2.941 -0.3374 -0.4540  0.2745
 3209SOL    HW110526   4.886   5.638   2.842  1.9614 -0.9889  0.0775
 3209SOL    HW210527   4.817   5.702   2.976 -1.5256 -0.8260 -1.6997
 3210SOL     OW10528   6.724   2.076   1.235  0.1184 -0.3944  0.1301
 3210SOL    HW110529   6.709   1.994   1.180 -0.5929 -0.2841  0.1565
 3210SOL    HW210530   6.762   2.049   1.324  0.0392 -0.6810  0.0788
 3211SOL     OW10531   3.042   3.485   5.194  0.3647 -0.0129  0.4962
 3211SOL    HW110532   3.121   3.424   5.195  1.0094  0.7987  1.6055
 3211SOL    HW210533   3.006   3.492   5.101  1.6029 -0.3802 -0.0342
 3212SOL     OW10534   3.084   6.744   2.545 -0.4059  0.1534  0.0948
 3212SOL    HW110535   2.998   6.750   2.494 -1.2031 -1.2064  1.1999
 3212SOL    HW210536   3.160   6.737   2.481 -1.4553 -2.5285 -1.0117
 3213SOL     OW10537   3.048   6.482   5.690 -0.4946  0.0813  0.0812
 3213SOL    HW110538   3.024   6.498   5.595 -1.9820 -0.4682  0.3358
 3213SOL    HW210539   3.133   6.429   5.695 -0.1140  0.5941 -0.9141
 3214SOL     OW10540   0.701   3.088   3.543 -0.2719 -0.2070  0.6908
 3214SOL    HW110541   0.794   3.081   3.581 -0.1163 -0.5114  0.2624
 3214SOL    HW210542   0.638   3.035   3.599 -0.3941  0.8763  1.6182
 3215SOL     OW10543   3.219   4.998   0.348 -0.1526  0.1168  0.2020
 3215SOL    HW110544   3.212   5.004   0.249 -0.5821  0.5987  0.2587
 3215SOL    HW210545   3.284   5.066   0.382 -0.3067  0.2266  0.2825
 3216SOL     OW10546   3.075   5.447   1.718 -0.5419 -0.3257  0.1991
 3216SOL    HW110547   3.160   5.436   1.769 -0.6995  1.4878  0.9557
 3216SOL    HW210548   3.091   5.506   1.639 -1.2481  0.8067  0.8726
 3217SOL     OW10549   1.469   3.048   1.656  0.2278  0.6259  0.1487
 3217SOL    HW110550   1.379   3.010   1.678  0.9628 -1.2597  0.1036
 3217SOL    HW210551   1.512   2.993   1.585  2.2094  0.2871  1.5307
 3218SOL     OW10552   1.673   4.014   0.120 -0.3437 -0.3744  0.2177
 3218SOL    HW110553   1.633   3.953   0.188  1.4834  0.1873  1.8973
 3218SOL    HW210554   1.641   4.108   0.137  0.9400 -0.0645  1.0176
 3219SOL     OW10555   0.430   1.982   5.645  0.2987  0.1114  0.6968
 3219SOL    HW110556   0.344   1.968   5.595 -0.5927 -0.9330  2.4012
 3219SOL    HW210557   0.507   1.964   5.585 -0.7256 -3.3955  0.2071
 3220SOL     OW10558   2.215   3.870   6.585  0.6092  0.1451 -0.8092
 3220SOL    HW110559   2.169   3.790   6.624  0.7544 -0.0611 -1.0565
 3220SOL    HW210560   2.280   3.840   6.516  0.7866  0.4690 -0.7829
 3221SOL     OW10561   6.541   3.856   6.484  0.1450  0.1738  0.2726
 3221SOL    HW110562   6.517   3.949   6.512 -0.1177  0.6025 -1.2946
 3221SOL    HW210563   6.477   3.825   6.414  0.6271 -0.9506  0.3071
 3222SOL     OW10564   2.575   6.039   2.957  0.0027 -0.1327 -0.0520
 3222SOL    HW110565   2.509   6.057   3.029 -2.8019 -0.2615 -2.4193
 3222SOL    HW210566   2.629   5.958   2.980 -2.0326 -1.2100  1.1235
 3223SOL     OW10567   2.878   5.466   6.850  0.1140  0.0152  0.3121
 3223SOL    HW110568   2.945   5.526   6.893 -0.1050 -0.0893  0.8049
 3223SOL    HW210569   2.823   5.422   6.921 -0.6334  0.2851 -0.0970
 3224SOL     OW10570   1.046   4.199   0.890 -0.2054  0.6620  0.2308
 3224SOL    HW110571   1.141   4.179   0.912  0.3921  0.2335 -2.4874
 3224SOL    HW210572   1.036   4.296   0.868  0.4143  0.1441 -2.7875
 3225SOL     OW10573   6.687   4.462   6.629  0.5425 -0.8861 -0.5813
 3225SOL    HW110574   6.669   4.410   6.713  0.7275 -1.4277 -0.8726
 3225SOL    HW210575   6.769   4.518   6.641  1.0872 -1.6482 -0.7019
 3226SOL     OW10576   6.419   0.622   6.709  0.2167  0.4041 -0.2456
 3226SOL    HW110577   6.406   0.679   6.790  0.0823 -0.1469  0.1235
 3226SOL    HW210578   6.354   0.546   6.711  2.0487 -1.2373  0.5991
 3227SOL     OW10579   6.359   4.452   0.379  0.2667 -0.0344  0.1103
 3227SOL    HW110580   6.347   4.364   0.333  0.8402  0.1691 -0.4434
 3227SOL    HW210581   6.334   4.442   0.476  0.9190 -0.9708  0.2057
 3228SOL     OW10582   1.949   0.412   0.052  0.5165 -0.0998 -0.3093
 3228SOL    HW110583   2.001   0.381  -0.028 -0.1500 -1.3445 -0.2849
 3228SOL    HW210584   1.960   0.511   0.063  1.3127 -0.0478 -1.4281
 3229SOL     OW10585   4.388   3.013   6.743  0.8429 -0.4572  0.1048
 3229SOL    HW110586   4.409   3.026   6.646 -1.1107  0.3071 -0.2473
 3229SOL    HW210587   4.400   2.917   6.767 -1.2505 -1.1938 -1.5818
 3230SOL     OW10588   0.869   4.844   5.089 -0.1043  0.5976 -0.4932
 3230SOL    HW110589   0.826   4.863   5.177 -1.2767  0.6884 -1.0670
 3230SOL    HW210590   0.807   4.790   5.033  0.1948  1.4353 -1.6684
 3231SOL     OW10591   2.352   6.916   1.096 -0.0360  0.4674 -0.4963
 3231SOL    HW110592   2.318   6.871   1.179 -0.3623  0.2134 -0.7624
 3231SOL    HW210593   2.372   6.847   1.027  2.2598  0.4857  0.0659
 3232SOL     OW10594   5.157   0.605   6.619  0.6597 -0.0311 -0.0428
 3232SOL    HW110595   5.246   0.566   6.645  1.1237  0.5124 -0.7751
 3232SOL    HW210596   5.150   0.609   6.519  0.9796  2.4758 -0.0238
 3233SOL     OW10597   0.109   1.828   5.755 -0.0794  0.1796 -0.5431
 3233SOL    HW110598   0.199   1.805   5.717  0.0847 -0.9295  0.4676
 3233SOL    HW210599   0.040   1.818   5.683  0.4515 -0.0357 -1.0393
 3234SOL     OW10600   3.705   0.831   2.255  0.1121 -0.0671 -0.6176
 3234SOL    HW110601   3.732   0.893   2.181 -1.2753  1.8324  0.3638
 3234SOL    HW210602   3.747   0.742   2.241  0.4656  0.4286 -3.2951
 3235SOL     OW10603   3.462   4.153   3.325  0.2631 -0.1909  0.0388
 3235SOL    HW110604   3.478   4.247   3.293  1.7375 -0.9461 -1.6541
 3235SOL    HW210605   3.520   4.136   3.405  0.8707  0.0162 -0.3420
 3236SOL     OW10606   2.062   6.319   4.704 -0.1736 -0.1524 -0.2645
 3236SOL    HW110607   2.035   6.341   4.610 -3.6414 -1.7369  0.2461
 3236SOL    HW210608   2.093   6.224   4.709  1.2052  0.2818  0.0430
 3237SOL     OW10609   6.562   1.034   2.410  0.5834 -0.3344  0.3137
 3237SOL    HW110610   6.473   1.077   2.396  0.8624 -0.2689 -1.4824
 3237SOL    HW210611   6.585   0.978   2.331  3.4661  2.0999 -0.7844
 3238SOL     OW10612   5.906   6.936   3.627 -0.1185 -0.6398 -0.1163
 3238SOL    HW110613   5.877   6.970   3.716  0.3095  1.5218 -0.7548
 3238SOL    HW210614   6.003   6.955   3.614 -0.5337  0.5674 -1.6793
 3239SOL     OW10615   6.453   6.460   3.127 -0.5446 -0.1432  0.6294
 3239SOL    HW110616   6.513   6.494   3.199 -0.1261 -1.1448  0.7765
 3239SOL    HW210617   6.358   6.478   3.151 -0.3688  0.1824  1.0851
 3240SOL     OW10618   0.724   0.538   3.343 -0.0133  0.9882 -0.5216
 3240SOL    HW110619   0.701   0.635   3.334 -1.5515  0.5830 -1.1817
 3240SOL    HW210620   0.770   0.507   3.260  2.1017  1.5319  0.3719
 3241SOL     OW10621   2.272   3.139   6.672  0.4341 -0.1942  0.2810
 3241SOL    HW110622   2.279   3.227   6.626  1.6088  0.0806  0.9462
 3241SOL    HW210623   2.285   3.066   6.606  3.9464  0.2059  0.3079
 3242SOL     OW10624   3.863   6.377   0.568 -0.0401 -0.3436 -0.5523
 3242SOL    HW110625   3.945   6.428   0.544 -0.7757 -0.0149 -2.5493
 3242SOL    HW210626   3.812   6.426   0.639  1.7607 -0.8789  1.1909
 3243SOL     OW10627   1.494   3.370   3.041  0.0858 -0.1898 -0.1725
 3243SOL    HW110628   1.533   3.455   3.006  0.4574 -0.4550 -0.3973
 3243SOL    HW210629   1.427   3.334   2.975  0.9509 -0.8096 -0.7304
 3244SOL     OW10630   6.173   5.659   6.412 -0.3420 -0.6000  0.1064
 3244SOL    HW110631   6.077   5.646   6.437 -0.4175 -0.5519 -0.1570
 3244SOL    HW210632   6.222   5.700   6.489 -0.1032 -2.4007  0.9663
 3245SOL     OW10633   2.150   0.969   1.278  0.2988  0.4270 -0.5094
 3245SOL    HW110634   2.128   0.975   1.375  0.1747  1.7626 -0.6078
 3245SOL    HW210635   2.067   0.950   1.226  0.1710  0.8494 -0.4589
 3246SOL     OW10636   7.011   2.505   3.843 -0.4295  0.2637 -0.0850
 3246SOL    HW110637   6.974   2.416   3.871 -2.1264  0.7394 -0.7010
 3246SOL    HW210638   6.987   2.574   3.911 -0.0842  0.4747 -0.1721
 3247SOL     OW10639   1.473   6.971   5.215 -0.0960  0.1794  0.4630
 3247SOL    HW110640   1.429   7.052   5.175  1.8025  2.4290  2.6329
 3247SOL    HW210641   1.494   6.905   5.143  0.7755  2.8241 -1.8431
 3248SOL     OW10642   3.603   1.142   4.625 -0.1668  0.5805  0.0359
 3248SOL    HW110643   3.585   1.228   4.577  0.6886  1.2243  0.8425
 3248SOL    HW210644   3.684   1.099   4.587  0.7559  1.2957  1.1237
 3249SOL     OW10645   2.867   1.828   4.209  0.4223 -0.5435 -0.2404
 3249SOL    HW110646   2.845   1.821   4.306  1.0294  0.2425 -0.0389
 3249SOL    HW210647   2.951   1.778   4.190  0.1688 -0.9129 -0.4216
 3250SOL     OW10648   1.809   4.360   4.301  0.4998 -0.7672  0.6202
 3250SOL    HW110649   1.880   4.410   4.252 -0.7400 -0.0996 -0.5496
 3250SOL    HW210650   1.801   4.396   4.394 -0.1047  0.9539 -0.0773
 3251SOL     OW10651   5.393   1.178   3.662 -0.2697  0.2234  0.2927
 3251SOL    HW110652   5.322   1.163   3.593 -1.2384  0.0212  1.3015
 3251SOL    HW210653   5.459   1.246   3.628 -0.3528 -0.3411 -1.0751
 3252SOL     OW10654   5.415   0.660   4.912 -0.0017  0.4925  0.6171
 3252SOL    HW110655   5.441   0.632   4.819  1.7907  2.4484  0.4443
 3252SOL    HW210656   5.447   0.592   4.978  0.3740  0.0028 -0.0573
 3253SOL     OW10657   4.432   1.578   2.326 -0.3080 -0.6484  0.1991
 3253SOL    HW110658   4.412   1.577   2.424 -0.7561 -0.4799  0.1098
 3253SOL    HW210659   4.503   1.646   2.308 -0.1610 -0.7404  0.4163
 3254SOL     OW10660   5.612   2.051   1.203  0.0580 -0.0444 -0.4376
 3254SOL    HW110661   5.521   2.066   1.164  0.0968 -1.0525 -0.9534
 3254SOL    HW210662   5.682   2.077   1.136  0.1675  0.6973 -0.0548
 3255SOL     OW10663   2.355   2.417   1.723 -0.4922 -0.0237 -0.1551
 3255SOL    HW110664   2.287   2.385   1.788 -0.2523  2.6758  1.5925
 3255SOL    HW210665   2.310   2.448   1.640 -0.9297 -2.1829 -0.7901
 3256SOL     OW10666   0.695   3.244   3.321  0.1817  0.0308 -0.4485
 3256SOL    HW110667   0.676   3.334   3.360  1.6579  0.4488 -0.6272
 3256SOL    HW210668   0.688   3.174   3.392  1.4233  0.6083  0.2612
 3257SOL     OW10669   2.309   4.931   1.699 -0.1269 -0.1530  0.9235
 3257SOL    HW110670   2.363   4.909   1.617 -1.2128  0.4067  0.0219
 3257SOL    HW210671   2.356   4.898   1.780  0.3918 -1.8640 -0.0235
 3258SOL     OW10672   4.931   1.931   0.532  0.2936 -0.4599  0.1882
 3258SOL    HW110673   4.839   1.918   0.570  0.2370 -0.8237 -0.0691
 3258SOL    HW210674   4.978   2.002   0.584 -0.8198  1.1559 -0.9156
 3259SOL     OW10675   0.970   3.249   5.159 -0.4815  0.1038  0.2382
 3259SOL    HW110676   0.909   3.199   5.221  1.3978 -1.3659  0.9878
 3259SOL    HW210677   0.960   3.212   5.067 -0.3455 -0.5137  0.4620
 3260SOL     OW10678   2.713   1.183   5.290 -0.3701  0.6849 -0.2695
 3260SOL    HW110679   2.713   1.086   5.315  0.8597  0.6548 -0.3254
 3260SOL    HW210680   2.651   1.233   5.351  0.5715  0.1923  1.1212
 3261SOL     OW10681   3.412   6.837   4.199 -0.2419  0.2482  0.0220
 3261SOL    HW110682   3.388   6.779   4.121  2.4934 -2.2717  0.8509
 3261SOL    HW210683   3.487   6.899   4.173 -0.5395  0.6858  0.1894
 3262SOL     OW10684   6.691   6.795   2.881 -0.1195  0.1755 -0.3189
 3262SOL    HW110685   6.736   6.883   2.893 -1.0233  0.5735  0.1968
 3262SOL    HW210686   6.594   6.809   2.863 -0.4749 -0.7469  0.7919
 3263SOL     OW10687   3.060   5.875   2.045  0.4746  0.5614  0.4565
 3263SOL    HW110688   3.140   5.832   2.004  1.1339  2.6351 -0.5547
 3263SOL    HW210689   3.066   5.869   2.145  2.2379  1.2447  0.4222
 3264SOL     OW10690   6.348   4.221   5.535 -0.6856  0.0287 -0.5098
 3264SOL    HW110691   6.408   4.297   5.508 -2.3673  1.6760  0.2036
 3264SOL    HW210692   6.400   4.158   5.593  0.6634  0.7960 -0.8193
 3265SOL     OW10693   2.918   0.050   2.155 -0.7550  0.7052 -0.0233
 3265SOL    HW110694   2.929  -0.044   2.122 -1.7740  0.4891  0.1905
 3265SOL    HW210695   2.864   0.049   2.239 -1.5463  1.5418 -0.5001
 3266SOL     OW10696   5.278   0.689   4.374  0.1165 -0.2041 -0.2027
 3266SOL    HW110697   5.324   0.687   4.286 -0.1421  3.1303 -0.5612
 3266SOL    HW210698   5.188   0.645   4.366 -0.0300  0.3032 -1.7007
 3267SOL     OW10699   1.436   6.128   3.805  0.5635 -0.1455  0.0694
 3267SOL    HW110700   1.492   6.154   3.726  0.8144  1.3224  0.7173
 3267SOL    HW210701   1.339   6.144   3.783  0.7378  1.8813  0.6179
 3268SOL     OW10702   0.758   2.245   4.852 -0.4261  0.4440 -0.0511
 3268SOL    HW110703   0.759   2.289   4.763 -1.2374  1.5369  0.4515
 3268SOL    HW210704   0.663   2.236   4.883 -0.2679 -1.3973  0.0105
 3269SOL     OW10705   4.844   2.035   5.892  0.5328  0.2257 -0.0036
 3269SOL    HW110706   4.817   2.114   5.948 -0.0020 -0.9414  1.4616
 3269SOL    HW210707   4.833   2.057   5.795 -0.0752  1.7664  0.3857
 3270SOL     OW10708   1.694   1.841   5.651 -0.3102  0.0311  0.5268
 3270SOL    HW110709   1.692   1.766   5.717 -0.2650 -0.9904 -0.5972
 3270SOL    HW210710   1.652   1.922   5.692  0.0616 -0.4443  1.9347
 3271SOL     OW10711   5.975   3.166   2.794 -0.1616  0.4577  0.0047
 3271SOL    HW110712   5.917   3.241   2.762 -0.8137  0.7681  1.7986
 3271SOL    HW210713   6.069   3.180   2.762 -0.8274  0.4713 -2.1113
 3272SOL     OW10714   2.131   5.281   4.932 -0.8209 -0.2799 -0.1302
 3272SOL    HW110715   2.189   5.219   4.983 -0.7773 -0.3039 -0.2096
 3272SOL    HW210716   2.040   5.284   4.974 -0.6806 -0.0270  0.1607
 3273SOL     OW10717   1.846   6.253   3.056  0.0836 -0.3031  0.3257
 3273SOL    HW110718   1.752   6.258   3.021 -0.1225 -1.3358  0.7024
 3273SOL    HW210719   1.886   6.165   3.033  0.2324 -0.6874  1.9060
 3274SOL     OW10720   3.282   0.066   2.383  0.0725  1.2531  0.8618
 3274SOL    HW110721   3.367   0.117   2.394  1.0010 -0.4593  2.1053
 3274SOL    HW210722   3.301  -0.022   2.339 -1.5360  2.0144 -1.5209
 3275SOL     OW10723   1.925   4.338   2.482  0.7886 -0.4115 -0.4176
 3275SOL    HW110724   1.877   4.377   2.403  2.1343 -0.5547 -1.3383
 3275SOL    HW210725   2.002   4.282   2.451  2.8561  1.4658  0.9808
 3276SOL     OW10726   0.489   2.799   4.323  0.0686 -0.3749  0.2388
 3276SOL    HW110727   0.409   2.819   4.380  0.4289  0.0399  0.6110
 3276SOL    HW210728   0.567   2.854   4.355  0.9589 -1.9762  0.9264
 3277SOL     OW10729   5.403   5.886   2.895 -0.2939  0.3284 -0.1229
 3277SOL    HW110730   5.319   5.832   2.895  1.4352 -2.6015 -0.8207
 3277SOL    HW210731   5.466   5.848   2.827  2.6722  0.5721  2.2884
 3278SOL     OW10732   6.199   3.451   5.951 -0.5184 -0.1113  0.0434
 3278SOL    HW110733   6.125   3.490   6.005  0.4893  2.5970 -0.4012
 3278SOL    HW210734   6.174   3.359   5.922 -2.7950 -0.0685  1.6339
 3279SOL     OW10735   4.645   6.523   1.860 -0.1686  0.4066 -0.1394
 3279SOL    HW110736   4.593   6.441   1.885  0.0951  0.1037 -0.5697
 3279SOL    HW210737   4.680   6.513   1.767 -1.8263  1.8829 -0.9522
 3280SOL     OW10738   3.242   1.722   6.802 -0.3378 -0.4114 -0.7642
 3280SOL    HW110739   3.200   1.772   6.726 -2.6840  1.1633  1.3938
 3280SOL    HW210740   3.186   1.641   6.823  0.0941 -0.6321 -0.4602
 3281SOL     OW10741   3.470   1.532   5.801 -0.0470 -0.7967 -0.2162
 3281SOL    HW110742   3.494   1.625   5.829  1.8102 -1.2462 -0.1222
 3281SOL    HW210743   3.522   1.467   5.857  0.1188 -1.8349 -1.5296
 3282SOL     OW10744   0.603   5.853   0.674 -0.3493 -0.1714 -0.1257
 3282SOL    HW110745   0.640   5.762   0.694 -0.0126 -0.0791 -0.3172
 3282SOL    HW210746   0.534   5.846   0.602  1.0514 -0.0371 -1.5326
 3283SOL     OW10747   5.798   4.647   6.701  0.2169 -0.5571 -0.0834
 3283SOL    HW110748   5.818   4.694   6.787 -0.0025  0.1035 -0.3837
 3283SOL    HW210749   5.872   4.583   6.680  0.5005 -0.3793  0.3593
 3284SOL     OW10750   1.480   1.422   1.061 -0.1420  1.3238 -0.4112
 3284SOL    HW110751   1.522   1.488   0.999 -0.6146  1.6350 -0.4054
 3284SOL    HW210752   1.431   1.471   1.133  0.4823  0.9676  0.2688
 3285SOL     OW10753   1.395   2.696   4.918 -0.1235 -0.2317 -0.1847
 3285SOL    HW110754   1.453   2.616   4.935 -1.2649 -0.6722  1.9808
 3285SOL    HW210755   1.366   2.696   4.822  1.9892 -0.9421 -0.8812
 3286SOL     OW10756   5.336   2.542   2.335  0.1979  0.7785  0.1280
 3286SOL    HW110757   5.377   2.565   2.423 -0.6034 -1.3765  1.1468
 3286SOL    HW210758   5.239   2.564   2.337  0.4488  2.0328 -0.7641
 3287SOL     OW10759   1.459   5.968   5.965  0.3453  0.1244 -0.2814
 3287SOL    HW110760   1.381   5.907   5.978  0.8834 -0.7312 -0.9253
 3287SOL    HW210761   1.430   6.062   5.981 -0.6425 -0.2354  0.1782
 3288SOL     OW10762   3.202   1.277   0.156  0.6256  1.0275  0.8222
 3288SOL    HW110763   3.273   1.266   0.226  1.0698  0.4872  0.2878
 3288SOL    HW210764   3.222   1.218   0.078 -0.3796  0.9186  0.6360
 3289SOL     OW10765   1.344   4.429   2.215  0.4709  0.3029  0.2963
 3289SOL    HW110766   1.287   4.348   2.203  0.1952  0.8574 -3.0980
 3289SOL    HW210767   1.440   4.401   2.226  0.4555 -0.5220 -1.4211
 3290SOL     OW10768   4.747   5.941   2.301  0.4937  0.2517 -0.3054
 3290SOL    HW110769   4.767   6.018   2.361  0.3054  0.6965 -0.8088
 3290SOL    HW210770   4.649   5.937   2.283  0.1972 -1.2991  1.3118
 3291SOL     OW10771   4.593   5.323   5.264  0.4296  0.2982  0.6136
 3291SOL    HW110772   4.495   5.345   5.261  0.1381 -0.8791  1.0269
 3291SOL    HW210773   4.605   5.233   5.304  1.5267 -0.5527 -1.5078
 3292SOL     OW10774   6.542   5.558   3.960 -0.4237 -0.1962 -0.6503
 3292SOL    HW110775   6.491   5.644   3.957 -0.8551 -0.4491 -0.5650
 3292SOL    HW210776   6.540   5.521   4.052 -0.5576 -0.4887 -0.7700
 3293SOL     OW10777   2.139   4.217   2.416 -0.4435 -0.0769  0.3760
 3293SOL    HW110778   2.142   4.117   2.413  0.2516 -0.0419 -0.7540
 3293SOL    HW210779   2.207   4.254   2.352 -1.1825  1.1132  0.2480
 3294SOL     OW10780   3.607   1.848   5.082  0.4376  0.2463 -0.0806
 3294SOL    HW110781   3.650   1.821   5.168 -0.1659 -0.5601 -0.0182
 3294SOL    HW210782   3.555   1.933   5.095  0.7746  0.4065  0.2157
 3295SOL     OW10783   6.903   3.809   0.574 -0.4604 -0.1369 -0.2177
 3295SOL    HW110784   6.896   3.835   0.671 -1.9867 -1.1786 -0.0099
 3295SOL    HW210785   6.822   3.756   0.548 -3.3837  5.1079 -3.6696
 3296SOL     OW10786   0.407   2.777   3.919  0.2255 -0.2106  0.7171
 3296SOL    HW110787   0.403   2.850   3.988 -1.2778  0.2311  0.2010
 3296SOL    HW210788   0.360   2.806   3.837 -1.0888 -2.0390  0.7567
 3297SOL     OW10789   4.163   2.878   5.600  0.8162 -0.0099  0.1453
 3297SOL    HW110790   4.131   2.869   5.506 -1.9593  1.3083  0.8639
 3297SOL    HW210791   4.199   2.970   5.614  2.2572 -0.5492  0.1300
 3298SOL     OW10792   5.068   1.766   5.351  0.5906 -0.0263 -0.0422
 3298SOL    HW110793   4.993   1.701   5.339  1.3391 -1.1783  1.1543
 3298SOL    HW210794   5.154   1.715   5.362  1.6888  1.2630 -2.0679
 3299SOL     OW10795   5.977   0.173   2.193  0.1575  0.1765  0.3608
 3299SOL    HW110796   5.939   0.198   2.104 -2.8410 -2.7420  0.6105
 3299SOL    HW210797   6.024   0.085   2.185  2.1665  1.0841  1.2751
 3300SOL     OW10798   4.495   4.345   6.975 -0.2635 -0.3362 -0.0639
 3300SOL    HW110799   4.589   4.317   6.992  0.1455  1.0127 -0.0360
 3300SOL    HW210800   4.491   4.444   6.961 -1.6366 -0.4126 -0.3533
 3301SOL     OW10801   0.945   4.658   2.169  0.0903 -0.2819 -0.3364
 3301SOL    HW110802   0.913   4.737   2.221 -0.7220 -0.6049 -0.3230
 3301SOL    HW210803   0.939   4.677   2.071 -1.0571 -0.6681 -0.3563
 3302SOL     OW10804   2.016   3.873   0.314 -0.6499 -0.4846 -0.1420
 3302SOL    HW110805   1.942   3.931   0.279  0.6620  2.5664  1.7223
 3302SOL    HW210806   2.036   3.897   0.409  1.6356 -2.3833 -0.0370
 3303SOL     OW10807   0.716   5.954   6.849  0.3796  0.4319 -0.4714
 3303SOL    HW110808   0.808   5.915   6.852  0.8286  1.4843 -0.3909
 3303SOL    HW210809   0.650   5.882   6.872  1.0441 -0.7254 -1.9773
 3304SOL     OW10810   3.438   4.997   5.709  0.3330  0.7535 -0.1986
 3304SOL    HW110811   3.434   4.897   5.711 -1.8072  0.7556 -1.5714
 3304SOL    HW210812   3.413   5.033   5.799  0.9980  0.0674  0.2724
 3305SOL     OW10813   4.829   6.066   2.733 -0.3920 -0.2289  0.5882
 3305SOL    HW110814   4.801   6.143   2.790  0.9562  1.2524 -0.6660
 3305SOL    HW210815   4.757   6.046   2.667 -0.6182  0.1747  0.7064
 3306SOL     OW10816   5.781   4.182   2.938 -0.2185  0.5945  0.1920
 3306SOL    HW110817   5.756   4.279   2.944  1.1342  0.9798 -0.0456
 3306SOL    HW210818   5.700   4.125   2.953 -0.6320  1.7187  2.7818
 3307SOL     OW10819   3.129   6.773   6.208  0.0394  0.1888  0.0881
 3307SOL    HW110820   3.170   6.849   6.158 -0.5734  0.8501  0.5640
 3307SOL    HW210821   3.031   6.769   6.187 -0.6004  1.5403  2.4678
 3308SOL     OW10822   1.936   4.182   1.194  0.0517 -0.1431  0.4295
 3308SOL    HW110823   1.991   4.208   1.273  0.1698 -0.2189  0.3728
 3308SOL    HW210824   1.981   4.107   1.145  0.9236  1.1141 -0.7582
 3309SOL     OW10825   3.839   5.459   6.228  0.1935 -0.4012 -1.0836
 3309SOL    HW110826   3.855   5.499   6.138  1.4646 -1.9063 -1.5837
 3309SOL    HW210827   3.794   5.525   6.287  0.8472  1.1935 -2.3105
 3310SOL     OW10828   1.494   4.237   5.924 -0.2668  0.1959  0.1211
 3310SOL    HW110829   1.580   4.225   5.873 -1.3988  0.4054 -1.9371
 3310SOL    HW210830   1.501   4.319   5.981  1.2540 -0.3685  0.8210
 3311SOL     OW10831   2.293   6.452   5.759 -0.1607  0.8332  0.1807
 3311SOL    HW110832   2.250   6.373   5.715 -0.4821  2.2437 -2.2381
 3311SOL    HW210833   2.312   6.522   5.690  0.4870  2.7225  2.1568
 3312SOL     OW10834   7.000   2.808   4.453  0.1533  0.2955 -0.0360
 3312SOL    HW110835   6.922   2.781   4.397  0.4122 -1.0119  0.2022
 3312SOL    HW210836   6.976   2.889   4.507 -0.1145  1.5634 -1.9651
 3313SOL     OW10837   0.487   5.182   4.109  0.2883 -0.0811 -0.6246
 3313SOL    HW110838   0.461   5.239   4.031 -1.7063  1.0523  0.7536
 3313SOL    HW210839   0.409   5.176   4.172  1.2193 -2.4888  0.3978
 3314SOL     OW10840   6.322   3.155   2.163 -0.2165  0.0317  0.4550
 3314SOL    HW110841   6.330   3.103   2.078 -0.4592  0.4789  0.1506
 3314SOL    HW210842   6.393   3.127   2.227 -0.0960 -0.3832  0.1420
 3315SOL     OW10843   5.820   1.200   1.803 -0.0056  0.2797 -0.1902
 3315SOL    HW110844   5.871   1.164   1.725 -0.6129  1.8237 -1.3504
 3315SOL    HW210845   5.722   1.201   1.781 -0.0550  2.1888 -0.0538
 3316SOL     OW10846   5.912   5.647   5.085 -0.1380  0.8920 -0.1449
 3316SOL    HW110847   5.937   5.565   5.033 -0.3857  1.1927 -0.7472
 3316SOL    HW210848   5.987   5.712   5.082  0.2734  0.4768  0.7883
 3317SOL     OW10849   4.824   4.458   0.465 -0.0351 -0.2915  0.1318
 3317SOL    HW110850   4.896   4.480   0.531 -1.5112 -1.6109  2.2930
 3317SOL    HW210851   4.839   4.366   0.429  0.1534  0.0096 -0.5901
 3318SOL     OW10852   0.461   2.576   6.807 -0.8059 -0.1730 -0.0482
 3318SOL    HW110853   0.539   2.516   6.824 -3.2455 -3.8735 -0.8053
 3318SOL    HW210854   0.414   2.595   6.894 -0.7285 -0.3813  0.0391
 3319SOL     OW10855   3.828   0.640   1.245 -0.0772 -0.3051  0.3889
 3319SOL    HW110856   3.830   0.726   1.295 -1.7242 -0.9880  1.7365
 3319SOL    HW210857   3.819   0.658   1.147  1.2416  1.0429  0.4883
 3320SOL     OW10858   0.231   0.592   6.756  0.5989 -0.7790  0.1726
 3320SOL    HW110859   0.236   0.497   6.727  0.0065 -0.6038 -0.5122
 3320SOL    HW210860   0.292   0.648   6.699  0.9454 -0.7419  0.5725
 3321SOL     OW10861   4.054   0.993   4.347  0.3653  0.3206 -0.2277
 3321SOL    HW110862   3.959   1.016   4.366  0.1558  0.4005 -1.2958
 3321SOL    HW210863   4.099   0.963   4.431 -1.3023 -2.2381 -0.1563
 3322SOL     OW10864   6.011   0.278   1.062 -0.1785 -0.1123 -0.5864
 3322SOL    HW110865   6.006   0.376   1.043 -1.7494  0.2393  1.2533
 3322SOL    HW210866   6.106   0.252   1.078  0.1077  1.5296  0.6824
 3323SOL     OW10867   4.538   3.397   6.419 -0.1069 -0.1370 -0.4006
 3323SOL    HW110868   4.605   3.323   6.421  0.0668  0.0363  0.2058
 3323SOL    HW210869   4.467   3.380   6.488  0.9559  1.2055  1.0870
 3324SOL     OW10870   6.452   5.085   3.208 -0.7040  0.1647 -0.1053
 3324SOL    HW110871   6.516   5.143   3.157 -2.5072  3.6792  1.2595
 3324SOL    HW210872   6.362   5.090   3.165 -1.3320 -0.0614  1.1407
 3325SOL     OW10873   5.902   0.973   1.391 -0.0253 -0.7538 -0.0547
 3325SOL    HW110874   5.905   0.972   1.490  2.3800 -2.4156 -0.0416
 3325SOL    HW210875   5.865   1.060   1.359  0.9642  0.6187  2.2784
 3326SOL     OW10876   1.767   1.106   0.322  0.0296 -0.0585 -0.6627
 3326SOL    HW110877   1.696   1.075   0.386 -0.7759 -0.5489 -1.7701
 3326SOL    HW210878   1.849   1.133   0.374  0.4267 -3.0496  0.4653
 3327SOL     OW10879   2.170   5.467   5.249  0.5035  0.0977 -0.4520
 3327SOL    HW110880   2.267   5.442   5.243  0.5161 -0.2188  0.9119
 3327SOL    HW210881   2.120   5.399   5.302 -0.8747 -0.7539 -2.7032
 3328SOL     OW10882   2.367   1.046   2.196  0.2060 -0.1484 -0.8766
 3328SOL    HW110883   2.362   1.127   2.254  0.6833 -1.2230  0.7174
 3328SOL    HW210884   2.463   1.025   2.176  0.2072 -1.4448  0.3890
 3329SOL     OW10885   3.896   0.932   1.998 -0.3024 -0.3405  0.1020
 3329SOL    HW110886   3.861   1.021   2.026  1.5300  0.4826 -0.0423
 3329SOL    HW210887   3.982   0.944   1.948 -1.0702 -2.0794 -1.7571
 3330SOL     OW10888   4.990   2.418   0.708 -0.2050  0.6268  0.5463
 3330SOL    HW110889   5.075   2.470   0.697  1.3341 -1.7371  0.5240
 3330SOL    HW210890   4.995   2.363   0.790 -1.1946 -0.5250 -0.1328
 3331SOL     OW10891   6.011   5.018   0.655 -0.0496  0.2206 -0.2012
 3331SOL    HW110892   6.000   4.926   0.693  0.3002  1.1074  2.2536
 3331SOL    HW210893   5.934   5.038   0.594 -0.7001 -1.3128  0.0659
 3332SOL     OW10894   1.653   1.401   6.922  0.2276 -0.1106 -0.2522
 3332SOL    HW110895   1.645   1.309   6.959  1.1993 -0.2515 -0.3713
 3332SOL    HW210896   1.589   1.462   6.969  0.2339 -0.6476  0.4669
 3333SOL     OW10897   2.641   5.136   4.914  0.2798 -0.1116  0.1680
 3333SOL    HW110898   2.559   5.131   4.971  0.1576 -1.3002 -0.0950
 3333SOL    HW210899   2.714   5.082   4.956  1.3942  1.9778  1.0990
 3334SOL     OW10900   4.142   6.027   0.670 -0.2496 -0.4350 -0.1867
 3334SOL    HW110901   4.211   5.954   0.671  0.0280 -0.1817  1.2864
 3334SOL    HW210902   4.100   6.034   0.761 -2.0026 -0.3625 -0.9530
 3335SOL     OW10903   0.804   3.152   4.555 -0.2985 -0.0247  0.1503
 3335SOL    HW110904   0.887   3.099   4.573 -1.8211 -2.0912  1.4718
 3335SOL    HW210905   0.830   3.241   4.518  2.5305 -0.3465  1.0693
 3336SOL     OW10906   4.817   3.041   3.218 -0.5514  0.0354  0.2481
 3336SOL    HW110907   4.736   2.992   3.253 -0.2003  0.1828  1.2906
 3336SOL    HW210908   4.839   3.117   3.279  1.0023 -0.6405  0.5697
 3337SOL     OW10909   3.772   1.855   3.411  0.2804 -0.2275 -0.1639
 3337SOL    HW110910   3.826   1.935   3.438 -1.0115  0.8379 -0.6166
 3337SOL    HW210911   3.691   1.885   3.361 -0.2148 -1.8398 -0.3861
 3338SOL     OW10912   3.510   6.682   3.476 -0.3257  0.1667 -0.4211
 3338SOL    HW110913   3.416   6.680   3.510 -0.1485  1.5169  0.1984
 3338SOL    HW210914   3.548   6.590   3.480 -1.3852 -0.2752 -0.0264
 3339SOL     OW10915   0.403   0.827   6.124 -0.2230 -0.3886  0.7393
 3339SOL    HW110916   0.376   0.908   6.072 -0.2117 -1.1809 -0.5528
 3339SOL    HW210917   0.345   0.818   6.205 -2.4081 -0.8050 -0.7723
 3340SOL     OW10918   6.786   6.614   1.407  0.5091 -0.2699 -1.0047
 3340SOL    HW110919   6.762   6.651   1.496  1.5426  0.8201 -1.1559
 3340SOL    HW210920   6.709   6.625   1.344 -0.7839 -2.3669  0.0784
 3341SOL     OW10921   6.556   5.674   2.122 -0.0735 -0.0335 -0.3256
 3341SOL    HW110922   6.466   5.712   2.098 -0.7676 -1.8208 -0.7484
 3341SOL    HW210923   6.616   5.678   2.042  0.2689  1.2276 -0.0234
 3342SOL     OW10924   0.343   3.690   3.901  0.6091  0.2387 -0.2717
 3342SOL    HW110925   0.346   3.651   3.809  2.0766 -3.2825  1.0625
 3342SOL    HW210926   0.282   3.634   3.958  1.9651  0.5409  1.5479
 3343SOL     OW10927   0.488   4.406   3.871  0.0354 -0.0057  0.1126
 3343SOL    HW110928   0.487   4.315   3.911 -3.3093 -0.4688 -0.7353
 3343SOL    HW210929   0.462   4.473   3.941 -0.9951 -0.1902 -0.0792
 3344SOL     OW10930   3.074   6.813   3.882 -0.2750 -0.2073  0.0304
 3344SOL    HW110931   3.015   6.893   3.873  1.0849  0.8264 -0.1019
 3344SOL    HW210932   3.019   6.730   3.884 -1.6265  0.6060 -1.5984
 3345SOL     OW10933   0.146   4.071   2.635 -0.5238 -0.3475  0.6087
 3345SOL    HW110934   0.064   4.014   2.642  0.8579 -2.4470  0.7623
 3345SOL    HW210935   0.148   4.115   2.545 -0.4007 -2.7397 -0.6647
 3346SOL     OW10936   1.564   4.457   0.053 -0.0119  0.1282  0.3181
 3346SOL    HW110937   1.542   4.507  -0.031  0.7964 -0.5735 -0.3294
 3346SOL    HW210938   1.663   4.442   0.058 -0.0516  0.1039  1.3799
 3347SOL     OW10939   2.143   3.683   1.829  0.1101  0.1940  0.5003
 3347SOL    HW110940   2.192   3.614   1.883 -0.8599  0.0661  1.2518
 3347SOL    HW210941   2.045   3.661   1.829 -0.2718  1.7791  1.0928
 3348SOL     OW10942   3.243   4.101   3.509  0.1377 -0.2008  0.0974
 3348SOL    HW110943   3.310   4.135   3.442 -0.2211 -0.8291 -0.5933
 3348SOL    HW210944   3.156   4.084   3.463 -0.9559  1.9292  1.2434
 3349SOL     OW10945   2.162   2.621   3.871  0.1178  0.0200  0.3323
 3349SOL    HW110946   2.114   2.618   3.958 -1.5437 -1.2352 -0.5657
 3349SOL    HW210947   2.210   2.709   3.862 -2.5554  1.6553  1.0420
 3350SOL     OW10948   3.411   0.120   6.171  0.2645 -0.1457 -0.0049
 3350SOL    HW110949   3.479   0.191   6.154  1.5994 -1.3954 -0.0515
 3350SOL    HW210950   3.413   0.094   6.268 -0.1718 -0.1886 -0.0033
 3351SOL     OW10951   4.338   0.156   2.583  0.0219 -0.9483  0.1852
 3351SOL    HW110952   4.371   0.209   2.505 -2.7900  0.6469 -0.0760
 3351SOL    HW210953   4.259   0.101   2.555 -1.4564  0.1502  1.9867
 3352SOL     OW10954   0.760   3.231   4.860 -0.1200  0.1578  0.1776
 3352SOL    HW110955   0.742   3.219   4.763 -2.1361 -1.3248  0.6664
 3352SOL    HW210956   0.812   3.153   4.894  0.9126  0.8544  0.2532
 3353SOL     OW10957   2.648   1.376   6.092  0.3120  0.4978  0.2989
 3353SOL    HW110958   2.581   1.397   6.163 -1.4039 -1.4162 -0.6443
 3353SOL    HW210959   2.626   1.428   6.009 -1.1589 -1.3767 -0.5658
 3354SOL     OW10960   3.617   2.087   3.750 -0.3372  0.2924 -0.6931
 3354SOL    HW110961   3.523   2.120   3.748 -1.2201 -2.0463 -0.9547
 3354SOL    HW210962   3.645   2.068   3.844 -0.8535 -0.8258 -0.7457
 3355SOL     OW10963   3.337   1.512   1.482  0.6234  0.4819  0.5548
 3355SOL    HW110964   3.394   1.572   1.539 -0.0338 -0.6318  2.4989
 3355SOL    HW210965   3.385   1.427   1.464  1.0917  1.0868 -1.2000
 3356SOL     OW10966   0.712   2.859   6.934  0.7313  0.2672 -0.4369
 3356SOL    HW110967   0.623   2.905   6.921  0.8278  0.6749  0.3273
 3356SOL    HW210968   0.785   2.927   6.925  0.8850  0.2363  0.4859
 3357SOL     OW10969   3.806   5.262   4.727 -0.1695 -0.0366 -0.0555
 3357SOL    HW110970   3.798   5.264   4.827  0.0413  0.5675 -0.0523
 3357SOL    HW210971   3.733   5.317   4.687  0.1761  0.3099 -0.2128
 3358SOL     OW10972   4.069   4.510   6.099 -0.4133 -0.1756  0.2335
 3358SOL    HW110973   3.997   4.468   6.154 -0.3012 -1.7573 -0.7556
 3358SOL    HW210974   4.076   4.463   6.011  2.5415 -0.8648  0.7188
 3359SOL     OW10975   5.073   5.968   2.682 -0.6396  0.5469  0.0739
 3359SOL    HW110976   4.980   6.004   2.678 -0.5792  0.7163  0.1781
 3359SOL    HW210977   5.129   6.010   2.611  0.0058  2.3249  1.5529
 3360SOL     OW10978   1.591   2.610   5.491 -0.2279  0.3974  0.1764
 3360SOL    HW110979   1.495   2.592   5.466  0.3695 -0.8423 -1.3966
 3360SOL    HW210980   1.629   2.530   5.536  0.8816 -0.3057 -1.8799
 3361SOL     OW10981   4.941   6.700   3.328  0.0041  0.5560  0.5567
 3361SOL    HW110982   4.952   6.604   3.306  2.3898  0.6023  1.2816
 3361SOL    HW210983   4.852   6.715   3.371 -1.0942 -0.9828 -1.0222
 3362SOL     OW10984   5.790   3.137   4.744  0.0845 -0.2318  0.3013
 3362SOL    HW110985   5.742   3.224   4.730  0.4024 -0.2749 -1.2323
 3362SOL    HW210986   5.723   3.067   4.768 -0.1826  0.4104  1.5144
 3363SOL     OW10987   6.921   0.661   3.742 -0.7329  0.0053  0.1589
 3363SOL    HW110988   6.865   0.623   3.668 -1.3608 -0.3385  0.7963
 3363SOL    HW210989   6.973   0.587   3.785  1.4468  0.5319 -1.4192
 3364SOL     OW10990   4.127   6.865   1.651 -0.2464 -0.3302  0.1315
 3364SOL    HW110991   4.127   6.855   1.750 -1.0038  2.1317  0.4469
 3364SOL    HW210992   4.048   6.818   1.612 -0.1840 -0.9443  0.7421
 3365SOL     OW10993   4.771   2.724   3.422  0.2060  0.0712  0.9762
 3365SOL    HW110994   4.716   2.689   3.346 -0.1158 -0.0436  1.2600
 3365SOL    HW210995   4.865   2.691   3.413  0.1771  0.0835  0.6124
 3366SOL     OW10996   4.409   6.342   4.350 -0.2612  0.0696 -1.0664
 3366SOL    HW110997   4.365   6.408   4.289  1.1474  1.4806 -0.6179
 3366SOL    HW210998   4.389   6.249   4.319 -1.4297  0.7154 -2.3352
 3367SOL     OW10999   3.618   6.992   3.091  0.1880 -0.3945  0.1086
 3367SOL    HW111000   3.554   7.066   3.075 -1.0924 -1.4170  0.2797
 3367SOL    HW211001   3.710   7.018   3.060 -0.5665  0.6231 -1.3300
 3368SOL     OW11002   4.412   4.260   5.260  0.0016  0.2350  0.3306
 3368SOL    HW111003   4.362   4.335   5.215 -0.6999 -0.8751 -0.8178
 3368SOL    HW211004   4.437   4.191   5.191 -0.0400 -0.9567  1.4790
 3369SOL     OW11005   5.547   3.394   2.837  0.3672  0.2175  0.1186
 3369SOL    HW111006   5.458   3.367   2.872 -0.0058 -1.3162 -1.8249
 3369SOL    HW211007   5.554   3.368   2.741  2.0252  2.5130 -0.4543
 3370SOL     OW11008   0.809   6.600   0.643  0.0273  0.5458  0.4044
 3370SOL    HW111009   0.812   6.503   0.617 -1.1412  0.4022  0.7482
 3370SOL    HW211010   0.773   6.608   0.735 -1.1389  1.3815 -0.1028
 3371SOL     OW11011   5.372   0.690   6.040  0.1705  0.5519  0.3915
 3371SOL    HW111012   5.430   0.612   6.017  0.1169  0.3467  0.9602
 3371SOL    HW211013   5.425   0.758   6.090  0.6728  1.6515 -1.5071
 3372SOL     OW11014   2.850   1.328   0.005  0.0563 -0.1052 -0.4089
 3372SOL    HW111015   2.765   1.360   0.047 -0.8126 -0.1738 -2.0271
 3372SOL    HW211016   2.873   1.238   0.040  0.5196  0.6798  1.4468
 3373SOL     OW11017   2.402   4.865   1.268 -0.5892 -0.0176 -0.3386
 3373SOL    HW111018   2.309   4.900   1.259 -0.4581  0.2622 -0.6169
 3373SOL    HW211019   2.442   4.898   1.353 -0.9625 -0.6546  0.0953
 3374SOL     OW11020   4.907   5.284   1.970 -0.1727  0.1224  0.6143
 3374SOL    HW111021   4.870   5.229   1.894  1.5299  1.4316 -1.2365
 3374SOL    HW211022   4.972   5.229   2.021 -0.3680 -0.3794  0.3358
 3375SOL     OW11023   4.315   0.877   3.185  0.0281 -0.8219  0.2182
 3375SOL    HW111024   4.361   0.917   3.264 -0.3908  1.5692 -0.6508
 3375SOL    HW211025   4.284   0.950   3.124  1.5290 -2.5464 -2.8705
 3376SOL     OW11026   4.520   0.109   5.526  0.8523 -0.6594 -0.0427
 3376SOL    HW111027   4.537   0.017   5.492 -0.7917 -0.5761 -1.2434
 3376SOL    HW211028   4.561   0.175   5.463 -1.6210 -0.5211 -1.6472
 3377SOL     OW11029   2.352   6.836   3.821  0.7610 -0.0002  0.7667
 3377SOL    HW111030   2.381   6.780   3.898  2.4565  2.9806  2.4706
 3377SOL    HW211031   2.302   6.916   3.854  1.0552  1.1121 -1.2941
 3378SOL     OW11032   4.099   0.601   2.192  0.4678 -0.3770  0.2335
 3378SOL    HW111033   4.162   0.670   2.225 -1.1371  1.2055  0.1465
 3378SOL    HW211034   4.038   0.572   2.266 -1.9075  1.8003 -0.7279
 3379SOL     OW11035   1.457   4.438   2.854 -0.2067 -0.0609 -1.0268
 3379SOL    HW111036   1.432   4.516   2.911 -0.7893 -1.1063  0.2227
 3379SOL    HW211037   1.445   4.460   2.758  0.5147  1.6725 -0.7552
 3380SOL     OW11038   2.428   2.060   1.692  0.4502 -1.3979  0.2047
 3380SOL    HW111039   2.435   2.097   1.599  0.3723 -0.6214  0.4990
 3380SOL    HW211040   2.349   2.100   1.738  2.2378  0.7306  1.6752
 3381SOL     OW11041   2.583   5.828   5.873  0.1635  0.0051  0.0992
 3381SOL    HW111042   2.483   5.835   5.884 -0.0224 -0.7868 -0.9743
 3381SOL    HW211043   2.612   5.893   5.803  1.0794  3.6365  3.4987
 3382SOL     OW11044   5.649   4.809   1.887  0.6157  0.2436 -0.2607
 3382SOL    HW111045   5.694   4.756   1.816  2.0146 -0.1413  0.8693
 3382SOL    HW211046   5.693   4.898   1.895  0.7553  0.1207  0.4039
 3383SOL     OW11047   0.071   5.506   5.642 -0.0520  0.3281 -0.4418
 3383SOL    HW111048   0.066   5.524   5.543 -2.5299  2.6110 -0.0328
 3383SOL    HW211049  -0.020   5.479   5.675  0.6457 -0.0152  1.2800
 3384SOL     OW11050   1.755   3.779   2.105 -0.3852 -0.1035 -0.5353
 3384SOL    HW111051   1.742   3.682   2.082  0.1189  0.2126 -2.3606
 3384SOL    HW211052   1.843   3.810   2.067 -0.8502  1.2271 -0.5629
 3385SOL     OW11053   6.787   3.963   1.162 -0.5510  0.0250 -0.4625
 3385SOL    HW111054   6.832   3.963   1.073  0.0001 -3.2226 -0.2953
 3385SOL    HW211055   6.689   3.978   1.150 -0.1321  2.6879 -1.2409
 3386SOL     OW11056   1.382   6.770   6.020 -0.5020 -0.3079  0.8563
 3386SOL    HW111057   1.326   6.825   5.959 -1.1217 -2.6431 -0.7883
 3386SOL    HW211058   1.339   6.681   6.034  1.4480 -1.1585  1.7783
 3387SOL     OW11059   4.848   0.398   2.381 -0.0411 -0.0612  0.1288
 3387SOL    HW111060   4.856   0.439   2.290 -0.2436  0.8903  0.5298
 3387SOL    HW211061   4.774   0.443   2.431  1.3524  0.8446  1.4874
 3388SOL     OW11062   3.177   0.290   0.295 -0.2563  0.0821 -0.1456
 3388SOL    HW111063   3.172   0.193   0.317  0.5251  0.1460  0.3489
 3388SOL    HW211064   3.101   0.338   0.340  0.4648 -0.0153  1.2252
 3389SOL     OW11065   3.104   0.459   2.316 -0.5746  0.1774 -0.8888
 3389SOL    HW111066   3.115   0.367   2.280  1.7960  0.5846 -1.3617
 3389SOL    HW211067   3.173   0.520   2.276  0.0583  1.4131  1.7882
 3390SOL     OW11068   2.660   2.055   6.692 -0.1829  0.0268  0.2409
 3390SOL    HW111069   2.755   2.055   6.661 -0.7751  0.1886 -1.7324
 3390SOL    HW211070   2.629   2.149   6.708 -0.1595  0.0076  0.4025
 3391SOL     OW11071   6.037   1.611   6.304 -0.0330 -0.1578  0.1294
 3391SOL    HW111072   6.069   1.532   6.356  1.9971  1.1491  1.0239
 3391SOL    HW211073   6.014   1.583   6.211  0.7359 -1.7737  0.3893
 3392SOL     OW11074   0.292   1.497   5.450 -0.8959 -0.6773 -0.1736
 3392SOL    HW111075   0.254   1.494   5.542  0.5070  1.4035  0.5514
 3392SOL    HW211076   0.361   1.426   5.439 -0.2346 -0.2054  0.8209
 3393SOL     OW11077   5.122   6.538   0.346 -0.2079 -0.1498  0.1405
 3393SOL    HW111078   5.136   6.616   0.285 -2.1427  0.7808  0.8061
 3393SOL    HW211079   5.165   6.556   0.434  0.3984 -0.3893 -0.1003
 3394SOL     OW11080   1.240   1.682   1.627  0.5622  0.2823  0.4022
 3394SOL    HW111081   1.286   1.632   1.700 -0.8239 -0.5761  0.7129
 3394SOL    HW211082   1.251   1.631   1.541 -3.2018 -2.2471  1.1868
 3395SOL     OW11083   2.009   5.602   6.973 -0.1818  0.2610  0.0719
 3395SOL    HW111084   2.100   5.620   6.936 -0.9248  0.1995 -1.9054
 3395SOL    HW211085   1.987   5.670   7.043  0.4264  1.7829 -1.1816
 3396SOL     OW11086   4.169   4.197   5.385 -0.2646  0.5592 -0.1149
 3396SOL    HW111087   4.227   4.122   5.416 -1.8038 -0.8373 -0.4778
 3396SOL    HW211088   4.221   4.283   5.387  0.9616 -0.1568  2.1824
 3397SOL     OW11089   1.646   0.931   0.766 -0.5077 -0.0569 -0.2746
 3397SOL    HW111090   1.652   1.021   0.810 -2.0653 -0.0517 -0.0364
 3397SOL    HW211091   1.588   0.938   0.685 -1.0487 -0.9587  0.0321
 3398SOL     OW11092   3.813   5.266   6.423  0.0130  0.1019 -0.3482
 3398SOL    HW111093   3.776   5.332   6.358 -1.6119  0.4352  0.8421
 3398SOL    HW211094   3.842   5.313   6.506 -1.0305 -0.6171  0.4591
 3399SOL     OW11095   0.964   1.702   5.162  0.1052  0.1698 -0.0378
 3399SOL    HW111096   0.990   1.787   5.117 -1.2347 -0.3886 -1.9777
 3399SOL    HW211097   1.034   1.678   5.229  0.2833  3.0058  0.9277
 3400SOL     OW11098   7.006   1.400   0.213 -0.3594  0.0248 -0.6742
 3400SOL    HW111099   7.056   1.364   0.134 -1.6853 -0.5161 -1.2918
 3400SOL    HW211100   6.972   1.323   0.268 -1.3096  0.3538 -0.7888
 3401SOL     OW11101   6.446   2.270   0.197  0.4506 -0.4211 -0.0946
 3401SOL    HW111102   6.389   2.221   0.263  0.6238 -1.6970 -0.8719
 3401SOL    HW211103   6.390   2.296   0.118  0.6874 -0.6534 -0.3373
 3402SOL     OW11104   5.979   1.410   6.844 -0.1610  0.3452 -0.0536
 3402SOL    HW111105   5.963   1.390   6.941  0.0890  0.3137 -0.0201
 3402SOL    HW211106   6.027   1.497   6.836 -0.1554  0.3327 -0.1485
 3403SOL     OW11107   5.980   4.054   6.190 -0.4537  0.8770  0.0076
 3403SOL    HW111108   6.033   4.026   6.270 -0.8866 -1.0310 -0.3297
 3403SOL    HW211109   5.998   4.151   6.170 -0.0212  1.2757  2.1344
 3404SOL     OW11110   3.960   4.091   1.680 -0.0120 -0.2022 -0.0104
 3404SOL    HW111111   3.945   4.171   1.621 -0.4155 -1.0962 -1.1509
 3404SOL    HW211112   4.048   4.100   1.726 -0.2681  1.1276  0.2726
 3405SOL     OW11113   2.622   2.110   2.580 -0.2565 -0.5823  0.6997
 3405SOL    HW111114   2.553   2.138   2.512 -0.4437 -2.4052  0.0990
 3405SOL    HW211115   2.578   2.057   2.652  0.2124 -0.0084  1.4215
 3406SOL     OW11116   5.786   1.477   1.866 -0.2497  0.3852  0.0460
 3406SOL    HW111117   5.826   1.392   1.832  0.0725  0.5579 -0.0131
 3406SOL    HW211118   5.692   1.460   1.895 -0.5796  0.2593 -1.0410
 3407SOL     OW11119   6.211   2.384   1.645 -0.7822  0.0748  0.1752
 3407SOL    HW111120   6.203   2.313   1.575  2.0169  0.5073 -0.7275
 3407SOL    HW211121   6.135   2.448   1.637 -0.8852 -0.2437 -2.0953
 3408SOL     OW11122   1.006   0.780   4.952  0.1040  0.3494 -0.4246
 3408SOL    HW111123   1.019   0.819   5.042 -0.4571 -0.6804  0.1305
 3408SOL    HW211124   0.927   0.823   4.908 -2.6439 -2.2430  1.5221
 3409SOL     OW11125   2.923   5.668   5.054  0.1863  0.3080 -0.0875
 3409SOL    HW111126   2.913   5.643   5.150  0.8219  0.7512  0.1029
 3409SOL    HW211127   2.833   5.679   5.012 -0.1047 -1.1889  0.1012
 3410SOL     OW11128   0.098   4.889   6.026 -0.5283 -0.1811 -0.7550
 3410SOL    HW111129   0.021   4.924   6.080 -0.5964 -1.5225  0.0687
 3410SOL    HW211130   0.117   4.952   5.950 -0.8687  1.4094  0.4236
 3411SOL     OW11131   3.229   1.518   2.728  0.0171  0.5562 -0.8715
 3411SOL    HW111132   3.249   1.575   2.808 -2.0328 -0.0311  0.1305
 3411SOL    HW211133   3.301   1.449   2.717  0.7404  1.1579 -0.0395
 3412SOL     OW11134   0.436   3.974   6.343 -0.2523  0.8287 -0.5962
 3412SOL    HW111135   0.445   3.940   6.249  2.3215 -0.8224  0.1525
 3412SOL    HW211136   0.363   3.924   6.390  0.3902 -0.4178 -0.8937
 3413SOL     OW11137   3.699   5.700   0.867 -0.7392  0.3384 -0.0331
 3413SOL    HW111138   3.647   5.623   0.830  0.5282 -0.2642 -0.6641
 3413SOL    HW211139   3.715   5.767   0.794  1.9238 -0.9387 -0.7704
 3414SOL     OW11140   4.821   1.472   2.166  0.1545  0.0469 -0.4036
 3414SOL    HW111141   4.776   1.384   2.148 -1.3307  1.3386 -3.8421
 3414SOL    HW211142   4.754   1.536   2.204  0.4126  0.5409 -0.7668
 3415SOL     OW11143   1.726   0.456   6.183 -0.2575 -0.3073 -0.1432
 3415SOL    HW111144   1.709   0.358   6.179  0.3626 -0.5329  1.6396
 3415SOL    HW211145   1.783   0.477   6.264  2.1069  1.1739 -2.0359
 3416SOL     OW11146   1.914   1.720   4.114  0.1549 -0.2178 -0.5105
 3416SOL    HW111147   1.953   1.789   4.175 -0.7549 -0.4677  0.3741
 3416SOL    HW211148   1.907   1.633   4.162 -0.1802 -0.5335 -1.1163
 3417SOL     OW11149   4.674   2.076   4.681 -0.1447 -0.2649  0.1958
 3417SOL    HW111150   4.630   2.006   4.624  0.4747 -1.7838  1.5101
 3417SOL    HW211151   4.648   2.063   4.776  1.8925 -0.2556  0.8013
 3418SOL     OW11152   2.360   3.284   0.070 -0.4132  0.0787 -0.5827
 3418SOL    HW111153   2.405   3.372   0.081  1.2778 -0.8938  0.7834
 3418SOL    HW211154   2.316   3.257   0.155  0.6518 -1.1704 -0.3846
 3419SOL     OW11155   5.127   3.789   5.407 -0.5432 -0.0927  0.1435
 3419SOL    HW111156   5.053   3.839   5.453  0.5353  0.7974  0.9811
 3419SOL    HW211157   5.213   3.807   5.454  0.1227 -1.6018 -0.4398
 3420SOL     OW11158   3.412   1.327   1.910  0.4168  0.0042 -0.4221
 3420SOL    HW111159   3.498   1.342   1.862  0.8971 -0.4893  0.2511
 3420SOL    HW211160   3.336   1.322   1.844  0.7135  1.6675 -0.9293
 3421SOL     OW11161   1.129   0.456   4.083 -0.4207  0.6941  0.2721
 3421SOL    HW111162   1.060   0.384   4.086  1.6446 -1.4386  0.0652
 3421SOL    HW211163   1.101   0.528   4.019 -3.2622  0.9371  1.6362
 3422SOL     OW11164   0.651   5.588   3.195  0.5619 -0.3144 -0.1133
 3422SOL    HW111165   0.575   5.654   3.191  0.3813 -0.4835  0.4097
 3422SOL    HW211166   0.616   5.500   3.229  0.7585 -0.7431 -0.9981
 3423SOL     OW11167   2.520   6.475   2.885  0.0983  0.1103  0.3910
 3423SOL    HW111168   2.477   6.505   2.799  0.6982 -1.2753 -0.4180
 3423SOL    HW211169   2.448   6.455   2.952 -0.4798 -0.6962 -0.4400
 3424SOL     OW11170   6.667   2.884   3.594  0.1192  0.1359 -0.1915
 3424SOL    HW111171   6.694   2.974   3.558  1.5470 -0.1218  0.1816
 3424SOL    HW211172   6.573   2.864   3.566  0.1966  1.2143 -1.3016
 3425SOL     OW11173   2.592   5.764   1.198 -0.0861  0.1131 -0.0664
 3425SOL    HW111174   2.583   5.796   1.293 -0.2317 -0.7618  0.2211
 3425SOL    HW211175   2.593   5.664   1.197  0.9902  0.1169 -0.8925
 3426SOL     OW11176   6.376   0.467   0.751 -0.2020  0.0172 -0.1646
 3426SOL    HW111177   6.369   0.543   0.816 -2.6644  0.7074 -1.1364
 3426SOL    HW211178   6.298   0.405   0.764  0.0155 -0.5764 -1.5521
 3427SOL     OW11179   5.840   6.212   1.135  0.2870 -0.5716  0.0571
 3427SOL    HW111180   5.891   6.229   1.219 -1.0709 -0.1522  0.8174
 3427SOL    HW211181   5.824   6.113   1.124  0.8638 -0.6645  0.0390
 3428SOL     OW11182   1.736   1.121   2.220 -0.0774  0.6565 -0.2555
 3428SOL    HW111183   1.789   1.037   2.227 -0.3107  0.5185 -0.1259
 3428SOL    HW211184   1.720   1.142   2.124  1.2752  1.3787 -0.3545
 3429SOL     OW11185   6.339   6.599   2.403  0.1163 -0.6949 -0.3296
 3429SOL    HW111186   6.435   6.608   2.376 -0.2374 -2.0373 -2.2515
 3429SOL    HW211187   6.329   6.520   2.464  0.1937 -0.7179 -0.3467
 3430SOL     OW11188   5.738   1.052   4.533  0.2795  0.0328  0.5972
 3430SOL    HW111189   5.775   1.141   4.559  1.8899 -0.1773 -0.7596
 3430SOL    HW211190   5.682   1.062   4.451  0.1535 -0.1463  0.6613
 3431SOL     OW11191   1.769   2.500   6.938  0.1560 -0.3880 -0.0137
 3431SOL    HW111192   1.776   2.521   6.840  0.5392 -0.8580 -0.0914
 3431SOL    HW211193   1.702   2.561   6.980  0.0500 -0.1223 -0.5517
 3432SOL     OW11194   2.748   6.551   6.966  0.3395  0.1106  0.1144
 3432SOL    HW111195   2.756   6.650   6.970 -0.9452  0.4335 -2.7611
 3432SOL    HW211196   2.815   6.514   6.901 -1.0756 -0.5165 -1.0521
 3433SOL     OW11197   6.202   0.836   5.426 -0.2677  0.3723 -0.4214
 3433SOL    HW111198   6.242   0.745   5.430 -0.0071  0.5160  0.2391
 3433SOL    HW211199   6.227   0.879   5.339  0.0262  0.0127 -0.5182
 3434SOL     OW11200   6.949   5.580   3.463 -0.6686 -0.7880  0.7115
 3434SOL    HW111201   6.871   5.520   3.481 -1.1633 -0.8403 -1.3759
 3434SOL    HW211202   6.916   5.672   3.441 -0.1305 -0.7165  0.1791
 3435SOL     OW11203   1.463   5.906   0.564  0.2085  0.0716  0.2400
 3435SOL    HW111204   1.479   5.954   0.651  0.7365  1.5928 -0.6476
 3435SOL    HW211205   1.374   5.862   0.567 -1.8167  3.7131  0.1000
 3436SOL     OW11206   2.666   1.282   3.303  0.2031  0.2454 -0.3634
 3436SOL    HW111207   2.742   1.261   3.365 -0.0271  0.1546 -0.1076
 3436SOL    HW211208   2.580   1.249   3.344  0.3234 -2.1007 -1.8350
 3437SOL     OW11209   4.993   2.738   1.167  0.5389 -0.3938  0.7213
 3437SOL    HW111210   4.926   2.807   1.192  0.1293 -0.7500  0.6241
 3437SOL    HW211211   5.082   2.781   1.150  0.1576  0.1607  0.1419
 3438SOL     OW11212   0.369   0.191   0.359  0.8235 -0.0963 -0.4788
 3438SOL    HW111213   0.287   0.180   0.303  1.5595  0.0347 -1.6179
 3438SOL    HW211214   0.349   0.163   0.453 -0.1870 -1.2357 -1.0030
 3439SOL     OW11215   4.410   6.837   3.308 -0.0671 -0.0591 -0.1152
 3439SOL    HW111216   4.510   6.840   3.304 -0.0263 -1.6199 -1.7386
 3439SOL    HW211217   4.375   6.926   3.336  1.7495  0.7812 -0.3841
 3440SOL     OW11218   5.351   4.695   4.328 -0.3096  0.3099  0.0696
 3440SOL    HW111219   5.252   4.706   4.325 -0.2408  0.9638 -0.0819
 3440SOL    HW211220   5.384   4.665   4.238 -0.5373 -1.6226  0.5847
 3441SOL     OW11221   5.591   3.840   1.776  0.3991 -0.5818  0.4133
 3441SOL    HW111222   5.630   3.839   1.683 -0.4554  0.0198  0.0375
 3441SOL    HW211223   5.527   3.916   1.784  1.0481 -0.1411  1.7540
 3442SOL     OW11224   5.457   4.063   1.807  0.2305  0.0756 -0.5499
 3442SOL    HW111225   5.515   4.140   1.784  1.4278 -0.9281 -1.0143
 3442SOL    HW211226   5.452   4.052   1.906  0.7171  0.2715 -0.5021
 3443SOL     OW11227   0.130   3.122   1.899  0.5775 -0.4278 -0.1320
 3443SOL    HW111228   0.139   3.058   1.976  0.2124 -1.0021 -0.5628
 3443SOL    HW211229   0.142   3.216   1.932 -0.8451 -0.5618  0.8558
 3444SOL     OW11230   1.697   3.201   4.763  0.2075 -0.2057 -0.5794
 3444SOL    HW111231   1.724   3.254   4.682 -2.6399 -0.1589 -1.6046
 3444SOL    HW211232   1.745   3.114   4.762  0.1083 -0.2908 -2.4762
 3445SOL     OW11233   2.216   0.741   5.767  0.4330 -0.8310  0.2811
 3445SOL    HW111234   2.162   0.721   5.848 -1.5385  0.8038 -0.5358
 3445SOL    HW211235   2.178   0.822   5.721  3.6630  0.4730 -0.3295
 3446SOL     OW11236   3.512   1.880   3.295 -0.0381 -0.4513 -0.1014
 3446SOL    HW111237   3.471   1.790   3.285 -0.3850 -0.2340 -0.6231
 3446SOL    HW211238   3.458   1.935   3.359 -1.2439  0.2316 -1.6480
 3447SOL     OW11239   0.835   4.632   4.429  0.2261  0.3149  0.2822
 3447SOL    HW111240   0.894   4.676   4.497 -0.9986 -0.8772  2.2336
 3447SOL    HW211241   0.816   4.538   4.457  0.3167 -0.5094 -2.1947
 3448SOL     OW11242   2.404   5.436   6.039  0.2016  0.6714 -0.3736
 3448SOL    HW111243   2.362   5.348   6.064  0.3860  1.0541  1.4342
 3448SOL    HW211244   2.496   5.441   6.079  0.7582  1.1161 -1.6806
 3449SOL     OW11245   3.182   5.655   3.532 -0.0189  0.0483  0.3398
 3449SOL    HW111246   3.161   5.720   3.459 -0.7314 -1.0128 -0.4286
 3449SOL    HW211247   3.113   5.583   3.533 -0.0439  0.0678  2.1123
 3450SOL     OW11248   5.836   6.017   6.888 -0.9168 -0.3732  0.3346
 3450SOL    HW111249   5.786   6.102   6.875  1.3449  0.7322 -1.9924
 3450SOL    HW211250   5.788   5.942   6.844  0.1063  0.9685 -3.3993
 3451SOL     OW11251   0.770   0.878   0.069 -0.1093  0.7879 -0.8387
 3451SOL    HW111252   0.738   0.948   0.134 -1.3495 -1.3526  1.0111
 3451SOL    HW211253   0.734   0.789   0.096  4.8081 -1.4190 -0.4372
 3452SOL     OW11254   5.334   6.398   2.420 -0.0850  0.1343 -0.0896
 3452SOL    HW111255   5.347   6.495   2.443 -0.7252 -0.0043  0.9506
 3452SOL    HW211256   5.319   6.346   2.504  0.6320 -0.9442 -0.5999
 3453SOL     OW11257   3.860   5.009   5.006 -0.7392 -0.1930  0.1188
 3453SOL    HW111258   3.863   5.109   5.013  0.9388 -0.2056 -0.1605
 3453SOL    HW211259   3.799   4.973   5.077  0.3220  0.8964  1.6383
 3454SOL     OW11260   1.490   2.098   4.574  0.0497  0.2644  0.0933
 3454SOL    HW111261   1.409   2.094   4.516 -0.8649  0.2846  1.3403
 3454SOL    HW211262   1.517   2.005   4.600 -0.2426  0.3152  0.5827
 3455SOL     OW11263   2.277   5.691   6.548 -0.5060 -0.2850  0.6596
 3455SOL    HW111264   2.287   5.790   6.563 -0.4667 -0.3730  1.2480
 3455SOL    HW211265   2.357   5.644   6.585 -0.4482 -0.5297  0.2313
 3456SOL     OW11266   4.072   4.530   5.624  0.5213  0.2351 -0.1260
 3456SOL    HW111267   4.026   4.612   5.656  0.0759  0.2623 -0.8172
 3456SOL    HW211268   4.058   4.519   5.525 -0.7815 -1.5028  0.1955
 3457SOL     OW11269   3.312   3.806   0.672  0.4047 -0.1729 -0.1419
 3457SOL    HW111270   3.270   3.730   0.721  0.3067 -0.3266 -0.4575
 3457SOL    HW211271   3.302   3.791   0.573  1.7300 -0.5048 -0.2365
 3458SOL     OW11272   4.827   5.767   4.576  0.5883  0.0312  0.6764
 3458SOL    HW111273   4.780   5.755   4.488 -0.6218  0.4709  1.2404
 3458SOL    HW211274   4.910   5.712   4.577  0.5479 -0.0909 -0.6931
 3459SOL     OW11275   5.253   3.178   0.429  0.4010  1.1440  0.1709
 3459SOL    HW111276   5.193   3.254   0.455 -1.2689  0.2365 -0.8954
 3459SOL    HW211277   5.240   3.157   0.332 -0.2207 -1.3855  0.7383
 3460SOL     OW11278   6.102   4.577   3.349  0.4101 -0.3225 -0.2884
 3460SOL    HW111279   6.178   4.565   3.285  1.2902  0.2698  0.6210
 3460SOL    HW211280   6.019   4.535   3.311  0.4337  1.5582 -2.6721
 3461SOL     OW11281   3.305   1.296   3.062 -0.4746 -0.4105  0.5427
 3461SOL    HW111282   3.304   1.226   2.991  1.1577  1.0553 -1.0264
 3461SOL    HW211283   3.225   1.356   3.051  0.4016  0.5309 -0.8577
 3462SOL     OW11284   0.259   2.615   5.486 -0.0945  0.2522  0.1393
 3462SOL    HW111285   0.231   2.657   5.400 -1.1308  0.3731  0.5188
 3462SOL    HW211286   0.189   2.631   5.555  0.4197 -0.4106  0.8335
 3463SOL     OW11287   6.022   0.588   1.017 -0.1820 -0.5378  0.3351
 3463SOL    HW111288   5.938   0.619   0.972 -0.1643 -0.3506  0.4289
 3463SOL    HW211289   6.068   0.667   1.057  0.3511 -0.5522 -0.2363
 3464SOL     OW11290   6.222   4.786   4.026  0.3346  0.6906  0.2556
 3464SOL    HW111291   6.243   4.711   3.963 -0.1060  0.4986  0.3359
 3464SOL    HW211292   6.135   4.769   4.071  0.1385  1.3418  0.1382
 3465SOL     OW11293   0.795   0.992   5.128 -0.1125 -0.7525 -0.3405
 3465SOL    HW111294   0.892   1.019   5.130 -0.7806  1.9633 -0.1423
 3465SOL    HW211295   0.739   1.071   5.153 -2.3890 -2.3730 -0.0852
 3466SOL     OW11296   0.446   1.457   2.392 -0.0566  0.2008  0.7132
 3466SOL    HW111297   0.379   1.460   2.317  1.5802 -1.5111 -0.9289
 3466SOL    HW211298   0.470   1.551   2.419 -2.3959  0.8516  0.7514
 3467SOL     OW11299   7.002   5.748   0.163  0.5136  0.5541  0.1121
 3467SOL    HW111300   7.007   5.773   0.260 -0.2446  1.5488 -0.0884
 3467SOL    HW211301   7.012   5.649   0.153 -0.5168  0.3133  1.2974
 3468SOL     OW11302   4.597   3.686   0.954 -0.2148  0.1620  0.3596
 3468SOL    HW111303   4.584   3.589   0.933 -1.3237  0.2968  0.3779
 3468SOL    HW211304   4.613   3.697   1.052  0.8839 -0.0813  0.2232
 3469SOL     OW11305   6.348   3.420   1.372  0.0508  0.4598 -0.2304
 3469SOL    HW111306   6.428   3.405   1.314  0.0042  0.0723 -0.1968
 3469SOL    HW211307   6.303   3.505   1.344 -0.1877  0.0842 -1.0149
 3470SOL     OW11308   1.384   0.037   4.750 -0.3933 -0.5737 -0.0114
 3470SOL    HW111309   1.459   0.051   4.815 -0.2824 -0.8354 -0.0824
 3470SOL    HW211310   1.407   0.080   4.662 -1.1816  1.1215  0.5552
 3471SOL     OW11311   3.367   3.690   5.886  0.0340 -0.4401 -0.4345
 3471SOL    HW111312   3.439   3.708   5.819  0.7965 -1.1531  0.1681
 3471SOL    HW211313   3.347   3.592   5.888 -1.2400 -0.2042 -0.8634
 3472SOL     OW11314   5.678   6.941   5.607 -0.0580  0.2046 -0.2095
 3472SOL    HW111315   5.621   7.023   5.621 -1.4397 -0.9352  1.1931
 3472SOL    HW211316   5.751   6.962   5.542 -1.1969  2.1550 -0.9451
 3473SOL     OW11317   6.089   6.354   2.439 -0.1857 -0.2446 -0.3463
 3473SOL    HW111318   6.045   6.330   2.525  1.2606  1.3140  0.8994
 3473SOL    HW211319   6.162   6.289   2.420  0.5957  0.3419  0.5290
 3474SOL     OW11320   1.927   0.883   2.155 -0.0692 -0.1285  0.1777
 3474SOL    HW111321   1.990   0.936   2.212 -1.3169  1.5187  0.1053
 3474SOL    HW211322   1.931   0.786   2.182  0.5300  0.3613  1.9809
 3475SOL     OW11323   6.178   3.685   4.968  0.3669  0.4577 -0.2557
 3475SOL    HW111324   6.206   3.726   4.881 -1.4850 -0.5962 -1.4396
 3475SOL    HW211325   6.217   3.593   4.976  0.5349  0.5529  0.0276
 3476SOL     OW11326   4.869   3.182   1.912 -0.4781  0.3026  0.0224
 3476SOL    HW111327   4.821   3.103   1.950 -1.3731  1.3070  1.0714
 3476SOL    HW211328   4.808   3.231   1.850 -0.5483  1.1293  0.7292
 3477SOL     OW11329   6.446   1.741   0.241  0.1884  0.2802  0.0201
 3477SOL    HW111330   6.508   1.665   0.223  1.2098  1.2082 -0.4828
 3477SOL    HW211331   6.424   1.788   0.156  1.4947  1.9910  0.5669
 3478SOL     OW11332   3.300   0.812   5.320 -0.2378  0.5227 -0.2603
 3478SOL    HW111333   3.350   0.729   5.343 -1.8846 -0.3757  0.2935
 3478SOL    HW211334   3.342   0.890   5.366  0.3814 -0.2665  0.5450
 3479SOL     OW11335   3.394   4.316   1.068  0.4147 -0.0296 -0.3324
 3479SOL    HW111336   3.430   4.351   1.155  0.7770 -2.0846  0.3854
 3479SOL    HW211337   3.296   4.334   1.063  0.3512 -0.0826  0.6031
 3480SOL     OW11338   1.256   1.130   2.352  0.1758  0.0019 -0.1136
 3480SOL    HW111339   1.283   1.054   2.294  3.3327  0.4297  0.6104
 3480SOL    HW211340   1.269   1.216   2.302  1.4205  0.2861  0.6606
 3481SOL     OW11341   4.738   2.105   4.061  0.0687 -0.7848  0.0957
 3481SOL    HW111342   4.771   2.050   4.137  0.8697 -0.1772  0.2083
 3481SOL    HW211343   4.805   2.103   3.987  0.4290  0.5339  0.3540
 3482SOL     OW11344   6.695   5.649   1.891 -0.3245  0.0986  0.1131
 3482SOL    HW111345   6.680   5.730   1.835  0.6733 -0.5066 -1.0679
 3482SOL    HW211346   6.745   5.581   1.838  0.7960 -0.4416  1.8007
 3483SOL     OW11347   0.867   0.641   3.571 -0.0829  0.3824  0.2102
 3483SOL    HW111348   0.945   0.691   3.533 -1.0314  1.3593 -0.5151
 3483SOL    HW211349   0.827   0.583   3.500 -0.5623  0.5760  0.3202
 3484SOL     OW11350   6.074   3.676   4.341 -0.0948 -0.1147 -0.2155
 3484SOL    HW111351   6.171   3.653   4.332 -0.0638  0.0328 -0.2553
 3484SOL    HW211352   6.048   3.738   4.267  0.2081  1.2404  0.7725
 3485SOL     OW11353   3.494   4.123   1.598 -0.1375 -0.3500 -0.2563
 3485SOL    HW111354   3.575   4.122   1.540  0.7869 -1.0658  1.0293
 3485SOL    HW211355   3.426   4.060   1.561  0.2837 -0.5095 -0.7705
 3486SOL     OW11356   3.573   5.548   3.133 -0.6964  0.8792  0.3387
 3486SOL    HW111357   3.526   5.632   3.159  0.4778  1.5893  0.2528
 3486SOL    HW211358   3.529   5.470   3.176 -0.7065  1.7143  1.8949
 3487SOL     OW11359   6.603   5.916   5.275 -0.1809 -0.7257 -0.0233
 3487SOL    HW111360   6.533   5.855   5.313 -1.3931  0.5076 -0.2044
 3487SOL    HW211361   6.559   5.995   5.233  1.3285 -0.0631 -0.4177
 3488SOL     OW11362   5.552   2.270   3.261 -0.5186 -0.2051  0.4093
 3488SOL    HW111363   5.463   2.284   3.217 -0.2883  0.2973  0.0975
 3488SOL    HW211364   5.581   2.175   3.247 -1.0145 -0.3802  0.5347
 3489SOL     OW11365   5.802   1.077   2.634 -0.4622  0.2197  0.0741
 3489SOL    HW111366   5.849   1.148   2.581 -1.1073 -0.4482 -1.4378
 3489SOL    HW211367   5.818   1.093   2.732  0.9902  1.3241 -0.3020
 3490SOL     OW11368   2.883   3.288   6.515 -0.4574 -0.2585  0.2161
 3490SOL    HW111369   2.928   3.365   6.560 -0.2245  0.1860 -0.7454
 3490SOL    HW211370   2.944   3.208   6.516 -0.4141 -0.2232  0.5850
 3491SOL     OW11371   6.379   3.891   4.351  0.3990 -0.7102  0.8946
 3491SOL    HW111372   6.401   3.794   4.364  1.2002 -0.4808  1.2904
 3491SOL    HW211373   6.456   3.936   4.305 -0.7376 -0.6559 -1.0594
 3492SOL     OW11374   5.665   3.629   2.562  0.2042  0.2010 -0.6778
 3492SOL    HW111375   5.752   3.621   2.611 -0.1110 -0.3007 -0.1813
 3492SOL    HW211376   5.603   3.687   2.615 -0.4655 -1.1062  0.0047
 3493SOL     OW11377   0.759   1.906   4.666  0.6464 -0.1762  0.5388
 3493SOL    HW111378   0.792   1.933   4.576  1.1320 -0.5812  0.5869
 3493SOL    HW211379   0.730   1.810   4.664 -0.1286  0.0545  0.6082
 3494SOL     OW11380   1.152   6.205   4.269 -0.7555 -0.1901 -0.2042
 3494SOL    HW111381   1.054   6.216   4.251 -1.2683  0.9341  2.6465
 3494SOL    HW211382   1.172   6.237   4.362  2.4099  0.0061 -0.8425
 3495SOL     OW11383   4.956   1.884   2.111  0.2509 -0.2831  0.3290
 3495SOL    HW111384   4.997   1.969   2.079  0.4192 -0.2334  0.6700
 3495SOL    HW211385   4.963   1.879   2.211 -0.6815 -0.2193  0.4032
 3496SOL     OW11386   5.944   3.117   4.500  0.6694  0.6193 -0.0889
 3496SOL    HW111387   5.983   3.209   4.502  2.2864 -0.0276 -0.6661
 3496SOL    HW211388   5.889   3.103   4.583  2.0250  1.4354  0.9974
 3497SOL     OW11389   4.205   6.730   5.271  0.0037  0.1768 -0.4372
 3497SOL    HW111390   4.282   6.792   5.256  0.3898 -0.0120  0.7160
 3497SOL    HW211391   4.238   6.647   5.317 -0.7930 -0.1570 -0.4585
 3498SOL     OW11392   4.213   5.158   6.686  0.2784 -0.5090  0.6770
 3498SOL    HW111393   4.192   5.232   6.751  0.9773  0.8540 -0.5773
 3498SOL    HW211394   4.135   5.146   6.624  0.1844 -0.7969  0.8504
 3499SOL     OW11395   6.619   4.295   5.486 -0.6439  0.3628  0.3377
 3499SOL    HW111396   6.639   4.383   5.445  1.3560 -0.0880  0.2060
 3499SOL    HW211397   6.657   4.222   5.429  0.2484 -0.3944  1.8196
 3500SOL     OW11398   1.431   4.859   3.512 -0.8169  0.2881 -0.7790
 3500SOL    HW111399   1.340   4.885   3.481 -1.7663 -1.7998  0.0443
 3500SOL    HW211400   1.454   4.910   3.595 -1.1066  1.0182 -1.1403
 3501SOL     OW11401   3.244   6.294   2.931 -0.0399 -0.6671  0.1627
 3501SOL    HW111402   3.328   6.276   2.879 -0.4663 -0.4097 -0.6451
 3501SOL    HW211403   3.176   6.336   2.870 -0.4227  0.0199  1.0355
 3502SOL     OW11404   5.770   3.114   5.884  0.3639 -0.3305  0.1704
 3502SOL    HW111405   5.726   3.204   5.889 -2.2467 -1.5686  1.1122
 3502SOL    HW211406   5.789   3.092   5.789  0.9438  1.1483 -0.0832
 3503SOL     OW11407   1.613   0.935   1.056 -0.5707  0.1145 -0.1655
 3503SOL    HW111408   1.610   0.893   0.965 -0.0421 -0.5981  0.1461
 3503SOL    HW211409   1.602   0.864   1.126  1.4466  0.3266  0.4001
 3504SOL     OW11410   0.128   1.976   1.516  0.2160 -0.8169  0.5177
 3504SOL    HW111411   0.117   2.073   1.540 -1.1584 -1.0275  0.8561
 3504SOL    HW211412   0.148   1.969   1.418 -0.8221 -0.2148  0.2385
 3505SOL     OW11413   6.484   4.537   5.114 -0.3217  0.9603  0.8200
 3505SOL    HW111414   6.411   4.542   5.046  0.7813 -0.0223 -0.5055
 3505SOL    HW211415   6.572   4.528   5.067  0.7384  2.7140  2.3487
 3506SOL     OW11416   1.879   4.277   5.075  0.0034 -0.5112 -0.3896
 3506SOL    HW111417   1.834   4.194   5.108 -0.1975  0.0152  0.6847
 3506SOL    HW211418   1.974   4.279   5.107 -0.5858  0.6803  1.4369
 3507SOL     OW11419   6.120   3.888   1.462 -0.1697 -0.3938 -0.0062
 3507SOL    HW111420   6.154   3.884   1.556 -0.1457  3.0841  0.2830
 3507SOL    HW211421   6.022   3.869   1.461 -0.0116 -1.2943  0.5760
 3508SOL     OW11422   5.846   4.426   3.658 -0.4912  0.5323 -0.4645
 3508SOL    HW111423   5.874   4.373   3.578 -1.5316  1.0155 -1.1812
 3508SOL    HW211424   5.747   4.416   3.671 -0.5153  1.3610  0.0811
 3509SOL     OW11425   6.220   6.853   1.622 -0.4449 -0.0037  0.2279
 3509SOL    HW111426   6.165   6.838   1.704 -1.3509 -1.3625 -0.5830
 3509SOL    HW211427   6.313   6.823   1.639 -0.1216  1.4798  1.3282
 3510SOL     OW11428   5.650   3.759   0.452 -0.0372  0.0275 -0.1841
 3510SOL    HW111429   5.624   3.738   0.547  0.6536  0.0825  0.0264
 3510SOL    HW211430   5.671   3.674   0.404  1.7942  0.1224  0.3792
 3511SOL     OW11431   3.487   2.826   5.306 -0.5686 -0.3793 -0.5228
 3511SOL    HW111432   3.402   2.774   5.292 -0.4707 -0.4618 -0.8213
 3511SOL    HW211433   3.465   2.924   5.307 -0.7794 -0.4295  0.2455
 3512SOL     OW11434   1.265   5.021   4.426 -0.2051  0.5124  0.0325
 3512SOL    HW111435   1.315   5.108   4.421 -0.8112  0.8225 -1.0697
 3512SOL    HW211436   1.180   5.035   4.477 -0.6517  0.7704 -0.7525
 3513SOL     OW11437   4.467   2.713   5.634  0.0978  0.2295  0.4245
 3513SOL    HW111438   4.453   2.809   5.656 -0.3614  0.6672 -1.5888
 3513SOL    HW211439   4.408   2.687   5.558 -0.9883 -2.1091  1.9290
 3514SOL     OW11440   6.662   3.339   6.127  0.0217  0.2750 -0.4507
 3514SOL    HW111441   6.669   3.352   6.226 -1.1297 -1.2458 -0.1257
 3514SOL    HW211442   6.642   3.243   6.108 -0.7340  0.7292 -2.1207
 3515SOL     OW11443   1.152   2.592   1.835  0.2419  0.0191  0.0351
 3515SOL    HW111444   1.099   2.620   1.755 -0.9015 -1.3936  0.2607
 3515SOL    HW211445   1.239   2.552   1.805 -0.6265 -1.4683 -0.5937
 3516SOL     OW11446   0.645   2.435   2.247 -0.1107 -0.0642  0.1733
 3516SOL    HW111447   0.595   2.491   2.313  0.3789 -0.6177  1.0458
 3516SOL    HW211448   0.628   2.468   2.155 -0.9662  0.6171  0.5617
 3517SOL     OW11449   0.637   6.619   0.231 -0.0986  0.5125  0.2377
 3517SOL    HW111450   0.688   6.549   0.181  0.6341  1.3831 -0.2746
 3517SOL    HW211451   0.701   6.676   0.283 -0.6314  1.1438  0.2091
 3518SOL     OW11452   6.956   6.103   2.599  0.3242 -0.0772  0.0232
 3518SOL    HW111453   6.881   6.153   2.556  0.6738  0.5188  0.0953
 3518SOL    HW211454   6.921   6.049   2.675 -0.1521 -0.4028 -0.4230
 3519SOL     OW11455   4.637   5.789   3.071 -0.3788 -0.0642  0.1580
 3519SOL    HW111456   4.577   5.764   3.148 -1.1136 -0.1363 -0.4257
 3519SOL    HW211457   4.710   5.848   3.105 -0.9538  0.2819  0.8411
 3520SOL     OW11458   2.125   3.357   4.872  0.1256 -0.1146  0.1982
 3520SOL    HW111459   2.182   3.390   4.948  1.5207 -0.2165 -0.7507
 3520SOL    HW211460   2.150   3.263   4.849  0.1243  0.0905 -0.7189
 3521SOL     OW11461   0.481   4.367   2.768 -0.2398  0.1036 -0.2184
 3521SOL    HW111462   0.453   4.277   2.736 -1.9197  0.4147  0.2321
 3521SOL    HW211463   0.553   4.358   2.836 -0.1720 -0.8741 -0.4116
 3522SOL     OW11464   5.717   2.624   4.296  0.7352 -0.4316  0.1020
 3522SOL    HW111465   5.625   2.629   4.257 -0.5597 -2.1212  2.6045
 3522SOL    HW211466   5.775   2.694   4.255 -1.6337  0.6881 -1.5833
 3523SOL     OW11467   4.408   5.985   1.329 -0.2869 -0.4713  0.0293
 3523SOL    HW111468   4.392   5.993   1.230  1.0467 -0.3670 -0.1929
 3523SOL    HW211469   4.339   6.038   1.378  0.7784  1.9655 -0.9578
 3524SOL     OW11470   3.362   5.654   3.762  0.0603 -0.7624 -0.0405
 3524SOL    HW111471   3.293   5.653   3.690  0.2969 -1.6662 -0.2685
 3524SOL    HW211472   3.350   5.575   3.822  0.3517 -0.4463  0.4449
 3525SOL     OW11473   0.570   0.327   5.797 -0.4485 -0.0199 -0.0020
 3525SOL    HW111474   0.525   0.256   5.743 -0.6401  0.4649 -0.4860
 3525SOL    HW211475   0.645   0.286   5.850  0.9508 -0.2206 -2.0210
 3526SOL     OW11476   4.512   1.469   5.466 -0.2997  0.2027  0.3522
 3526SOL    HW111477   4.499   1.530   5.388 -1.1685  0.3611  0.6142
 3526SOL    HW211478   4.590   1.501   5.520  0.7552 -0.3013 -0.8027
 3527SOL     OW11479   1.996   5.423   3.366 -0.1722 -0.0675  0.4388
 3527SOL    HW111480   1.977   5.463   3.455  0.1900 -0.6708  0.7962
 3527SOL    HW211481   1.927   5.353   3.346  0.0059 -0.2490  0.4536
 3528SOL     OW11482   0.146   5.766   0.387  0.0866  0.2781  0.5315
 3528SOL    HW111483   0.215   5.712   0.338  0.0342  0.5550  0.1471
 3528SOL    HW211484   0.121   5.719   0.472  1.0293  0.3536  0.8670
 3529SOL     OW11485   4.235   5.207   4.261 -0.1009  0.0184  0.2822
 3529SOL    HW111486   4.318   5.261   4.269  1.9010 -2.7776 -0.2165
 3529SOL    HW211487   4.212   5.196   4.164 -0.8722  0.4742  0.4051
 3530SOL     OW11488   5.599   3.381   6.341 -0.4970 -0.2640 -0.2011
 3530SOL    HW111489   5.693   3.413   6.335 -0.7516  0.9560  1.5283
 3530SOL    HW211490   5.559   3.379   6.249  0.7761  0.5520 -0.8076
 3531SOL     OW11491   2.215   0.138   5.659  0.4659  0.2822 -0.1277
 3531SOL    HW111492   2.177   0.228   5.677  0.1349  0.3896 -1.3029
 3531SOL    HW211493   2.214   0.084   5.744  0.5110  1.3060  0.5420
 3532SOL     OW11494   6.594   5.976   0.290  0.0036 -0.8737  0.0030
 3532SOL    HW111495   6.663   6.028   0.341  0.2405 -0.8643 -0.3202
 3532SOL    HW211496   6.544   6.039   0.229 -0.0854 -0.9314  0.0164
 3533SOL     OW11497   4.610   2.937   1.109  0.3632  0.4360  0.0454
 3533SOL    HW111498   4.603   2.901   1.016  2.2896 -3.5563  1.1997
 3533SOL    HW211499   4.530   2.994   1.129 -2.3961 -2.0829 -2.6680
 3534SOL     OW11500   5.056   6.100   6.393 -0.4443  0.7021  0.1962
 3534SOL    HW111501   5.039   6.109   6.491 -1.7752  0.9364 -0.0273
 3534SOL    HW211502   5.014   6.178   6.345  2.0277  1.7468 -0.3960
 3535SOL     OW11503   2.251   6.477   4.844  0.4186 -0.4134  0.9243
 3535SOL    HW111504   2.240   6.552   4.780  1.9967 -0.3149  0.7326
 3535SOL    HW211505   2.176   6.411   4.832  0.7831 -0.5094 -1.1757
 3536SOL     OW11506   5.156   5.331   5.108  0.1488 -0.4343  0.2013
 3536SOL    HW111507   5.176   5.271   5.030 -0.0559  1.6856 -1.5910
 3536SOL    HW211508   5.080   5.293   5.160 -0.1887 -1.5555 -1.0378
 3537SOL     OW11509   0.865   7.000   6.836 -0.3650 -0.1644 -0.2454
 3537SOL    HW111510   0.947   7.017   6.781  0.1153  1.6505  0.9497
 3537SOL    HW211511   0.810   7.083   6.841 -0.1501 -0.0846  2.3708
 3538SOL     OW11512   5.181   5.486   2.651 -0.0779 -0.0829 -0.4578
 3538SOL    HW111513   5.208   5.435   2.570 -1.4616 -0.0649 -0.9524
 3538SOL    HW211514   5.163   5.581   2.627 -1.4493 -0.2896 -0.3601
 3539SOL     OW11515   6.033   2.164   5.037  0.5534  0.1432 -0.1260
 3539SOL    HW111516   5.988   2.196   4.954 -0.2959 -0.8055 -0.0583
 3539SOL    HW211517   5.996   2.212   5.116  1.4315  1.1165 -0.2898
 3540SOL     OW11518   2.649   1.340   3.972 -0.4144 -0.2624  0.2882
 3540SOL    HW111519   2.659   1.269   4.041  0.5674 -3.2475 -2.6872
 3540SOL    HW211520   2.582   1.313   3.904 -0.3325  1.8945 -0.7554
 3541SOL     OW11521   0.222   6.908   4.860 -0.0488 -0.4250  0.0101
 3541SOL    HW111522   0.288   6.983   4.875  0.8340 -1.1219 -0.2960
 3541SOL    HW211523   0.129   6.944   4.867  0.3495  0.8673 -0.8411
 3542SOL     OW11524   0.357   4.494   6.962 -0.4927  0.1245  0.7420
 3542SOL    HW111525   0.324   4.428   7.029 -1.2034  0.8717  1.1475
 3542SOL    HW211526   0.296   4.573   6.960 -0.0916  0.4301 -0.2880
 3543SOL     OW11527   5.524   0.902   6.574  0.0863  0.0284  0.3173
 3543SOL    HW111528   5.430   0.905   6.607  0.1240 -0.1776  0.4500
 3543SOL    HW211529   5.526   0.924   6.476 -0.3941 -2.2240 -0.2673
 3544SOL     OW11530   6.571   5.935   0.884 -0.0714  0.2464  0.5587
 3544SOL    HW111531   6.585   5.939   0.983 -0.6278 -0.8662  0.6910
 3544SOL    HW211532   6.474   5.920   0.865  0.0748  0.1936 -0.1559
 3545SOL     OW11533   0.278   5.299   3.573 -0.3433 -0.1322 -0.0457
 3545SOL    HW111534   0.372   5.330   3.583 -0.1915 -0.8223  0.7748
 3545SOL    HW211535   0.216   5.369   3.610 -0.0212 -0.6291  1.4836
 3546SOL     OW11536   0.243   0.707   0.879 -0.1511  0.1029 -0.0638
 3546SOL    HW111537   0.217   0.626   0.932  0.2861 -0.2386 -0.3628
 3546SOL    HW211538   0.245   0.787   0.939 -0.0064 -0.2140  0.3594
 3547SOL     OW11539   4.755   2.380   3.812  0.2492  0.5830 -0.3368
 3547SOL    HW111540   4.686   2.452   3.819 -0.6289 -0.3499  1.1744
 3547SOL    HW211541   4.714   2.292   3.837  2.0228  0.0088  0.7399
 3548SOL     OW11542   6.282   5.168   2.235 -1.0659 -0.4974 -0.6464
 3548SOL    HW111543   6.320   5.146   2.324  0.9303 -0.8429 -1.5274
 3548SOL    HW211544   6.182   5.160   2.238 -1.0945  0.2069  1.7036
 3549SOL     OW11545   3.258   3.314   4.176 -0.6254  0.0145 -0.1648
 3549SOL    HW111546   3.342   3.328   4.123 -0.6764  0.1194 -0.2184
 3549SOL    HW211547   3.272   3.344   4.270 -0.3450 -0.7322  0.0371
 3550SOL     OW11548   2.876   0.876   6.681 -0.1825  0.4450  0.3735
 3550SOL    HW111549   2.901   0.851   6.588 -1.0127 -1.7860  0.6685
 3550SOL    HW211550   2.905   0.969   6.701  0.2486  0.8608 -2.0066
 3551SOL     OW11551   3.123   6.280   3.392  0.2406 -0.0188 -0.0205
 3551SOL    HW111552   3.125   6.254   3.488 -0.7383 -3.8861 -0.8649
 3551SOL    HW211553   3.212   6.318   3.365  0.5216  1.1485  2.3110
 3552SOL     OW11554   1.979   0.299   2.313 -0.2174  0.8676  0.0489
 3552SOL    HW111555   1.882   0.274   2.309 -0.0302 -0.0478  0.7589
 3552SOL    HW211556   1.988   0.390   2.353 -0.7296  0.4059  1.2694
 3553SOL     OW11557   6.820   4.079   6.767  0.0059  0.6298 -0.3318
 3553SOL    HW111558   6.878   4.013   6.816  0.3842  1.9033  1.0007
 3553SOL    HW211559   6.859   4.096   6.676  1.0136  0.5174  0.0649
 3554SOL     OW11560   2.148   4.301   5.154 -0.6661 -0.1614  0.0029
 3554SOL    HW111561   2.201   4.384   5.172 -0.5724 -0.6058  1.9593
 3554SOL    HW211562   2.185   4.225   5.207 -1.1547 -1.3264 -1.2537
 3555SOL     OW11563   0.670   4.777   1.113  0.3672  0.4708  0.0769
 3555SOL    HW111564   0.766   4.775   1.140  0.2541  0.4222  0.4734
 3555SOL    HW211565   0.658   4.723   1.030  0.4596 -0.6033  0.7447
 3556SOL     OW11566   6.991   4.681   3.090  0.4273  0.2171  0.0210
 3556SOL    HW111567   7.075   4.706   3.138 -0.1001  1.7379  0.1949
 3556SOL    HW211568   6.988   4.728   3.001 -0.0130 -0.2054 -0.1915
 3557SOL     OW11569   3.825   6.126   1.304  0.5234  0.3911 -0.0639
 3557SOL    HW111570   3.837   6.191   1.380  0.9116  0.4953 -0.2122
 3557SOL    HW211571   3.854   6.170   1.219 -0.6599  0.5544 -0.3980
 3558SOL     OW11572   0.630   0.668   0.177  0.1942  0.2875 -0.1062
 3558SOL    HW111573   0.544   0.706   0.212  0.0103 -0.3366  0.1257
 3558SOL    HW211574   0.694   0.653   0.252  0.2067 -0.0089 -0.1743
 3559SOL     OW11575   6.685   2.279   4.716 -0.2140  0.4681  1.0624
 3559SOL    HW111576   6.617   2.244   4.651  0.3458 -1.0646  1.2590
 3559SOL    HW211577   6.761   2.320   4.665 -0.4024  0.4777  0.7855
 3560SOL     OW11578   6.349   5.190   0.262  0.5692  0.1830  0.2009
 3560SOL    HW111579   6.272   5.149   0.214 -0.7472  3.9224 -1.2591
 3560SOL    HW211580   6.433   5.177   0.210  0.0588  0.0070 -0.5815
 3561SOL     OW11581   4.711   5.431   6.258 -0.3984 -0.2983 -0.0577
 3561SOL    HW111582   4.804   5.400   6.278 -1.3281 -2.2591  1.6398
 3561SOL    HW211583   4.674   5.378   6.182 -0.0827  0.6175 -0.8623
 3562SOL     OW11584   4.746   2.836   3.885 -0.3805  0.1938  0.2530
 3562SOL    HW111585   4.771   2.838   3.789  0.0994  2.0132  0.3723
 3562SOL    HW211586   4.759   2.927   3.925 -0.5140 -0.5278  2.0531
 3563SOL     OW11587   6.701   2.191   3.323  0.3920 -0.4722  0.3279
 3563SOL    HW111588   6.709   2.092   3.315 -4.3720 -1.0932  0.4972
 3563SOL    HW211589   6.688   2.231   3.232  1.4738 -0.0476  0.3399
 3564SOL     OW11590   3.308   6.403   6.654  0.5424  0.3392  0.1771
 3564SOL    HW111591   3.358   6.479   6.613  1.1985  0.0328  0.3923
 3564SOL    HW211592   3.231   6.378   6.595 -0.2700  1.7944  0.5955
 3565SOL     OW11593   3.533   6.796   0.905 -0.3299 -0.0011 -0.3842
 3565SOL    HW111594   3.538   6.787   0.806 -0.4640  0.4683 -0.4348
 3565SOL    HW211595   3.533   6.705   0.947 -1.5359 -0.2423 -0.8770
 3566SOL     OW11596   6.984   2.414   3.251 -0.2532 -0.1057 -0.4123
 3566SOL    HW111597   7.003   2.364   3.335 -2.4823 -0.9288 -0.3438
 3566SOL    HW211598   6.973   2.350   3.175  0.0089  0.5086 -0.9764
 3567SOL     OW11599   0.501   1.488   1.708  0.3401 -0.2407  0.3299
 3567SOL    HW111600   0.573   1.439   1.659  1.6358  0.6757  1.2574
 3567SOL    HW211601   0.531   1.582   1.726 -2.1166  1.0333 -1.5343
 3568SOL     OW11602   4.943   4.730   5.552 -0.3568  0.0844 -0.2199
 3568SOL    HW111603   4.880   4.808   5.559  1.2190  1.4897 -0.9757
 3568SOL    HW211604   5.008   4.747   5.478  0.0268 -1.9987 -0.4166
 3569SOL     OW11605   4.380   4.794   3.293  0.0295  0.0678 -0.3422
 3569SOL    HW111606   4.431   4.710   3.276 -0.6189 -0.2597 -0.7254
 3569SOL    HW211607   4.286   4.782   3.262 -0.7724  0.0580  1.8701
 3570SOL     OW11608   5.034   1.206   1.369 -0.0851  0.3310  0.2231
 3570SOL    HW111609   5.021   1.228   1.466  0.0916  0.9239  0.1196
 3570SOL    HW211610   5.123   1.240   1.339  0.2836 -0.7178  0.0894
 3571SOL     OW11611   2.305   1.078   0.058  0.1658  0.0983  0.1699
 3571SOL    HW111612   2.397   1.111   0.083  0.1232  0.6271 -0.3432
 3571SOL    HW211613   2.291   1.091  -0.040 -1.3763  2.3483  0.6214
 3572SOL     OW11614   1.824   0.553   5.948  0.5665  0.1598  0.7984
 3572SOL    HW111615   1.761   0.566   5.872  1.4527  0.2069  0.0479
 3572SOL    HW211616   1.773   0.534   6.032 -0.4143 -0.2094  0.1293
 3573SOL     OW11617   6.159   2.575   1.966  0.0983  0.6022 -0.1576
 3573SOL    HW111618   6.254   2.543   1.966  0.3699  1.2801 -2.1125
 3573SOL    HW211619   6.138   2.615   2.055  1.7410  0.7142  0.2187
 3574SOL     OW11620   5.826   0.205   6.895  0.4780  0.5013  0.4419
 3574SOL    HW111621   5.808   0.109   6.921  0.4175  1.0225  2.5178
 3574SOL    HW211622   5.924   0.218   6.882  0.2537 -0.9035 -4.7994
 3575SOL     OW11623   0.903   4.646   5.968  0.3416  0.0275 -0.4573
 3575SOL    HW111624   0.914   4.683   5.876  2.1555  0.2793 -0.1662
 3575SOL    HW211625   0.949   4.705   6.033  0.8843 -1.2545  0.3620
 3576SOL     OW11626   2.304   0.884   4.814 -0.3435 -0.7568 -0.4089
 3576SOL    HW111627   2.396   0.869   4.776 -0.2397 -2.4014  0.4114
 3576SOL    HW211628   2.311   0.895   4.913 -0.8938  0.7466 -0.5135
 3577SOL     OW11629   3.091   3.071   5.309 -0.5503 -0.2719 -0.4454
 3577SOL    HW111630   3.115   3.042   5.401  0.0888  0.3552 -0.4107
 3577SOL    HW211631   2.994   3.095   5.306 -0.6270 -0.5273  0.0020
 3578SOL     OW11632   5.557   6.241   1.554  0.4234 -0.4280 -0.1554
 3578SOL    HW111633   5.624   6.242   1.628  0.7943 -1.4231 -0.4544
 3578SOL    HW211634   5.465   6.234   1.592  0.5911 -0.6246  0.2215
 3579SOL     OW11635   4.867   1.310   5.389  0.0586  0.1147  0.4487
 3579SOL    HW111636   4.839   1.261   5.306 -0.2602 -0.3816  0.8413
 3579SOL    HW211637   4.889   1.244   5.461  1.3260  0.5072  0.4608
 3580SOL     OW11638   2.760   0.940   5.402 -0.3170 -0.0326  0.1109
 3580SOL    HW111639   2.789   0.968   5.493 -0.0246  0.6728 -0.1946
 3580SOL    HW211640   2.765   0.840   5.394  1.2904  0.0146  0.3112
 3581SOL     OW11641   1.230   3.146   1.331  0.0787 -0.4210 -0.2767
 3581SOL    HW111642   1.307   3.087   1.305 -0.5825 -1.2064 -0.4928
 3581SOL    HW211643   1.197   3.194   1.250 -1.6077 -2.4276 -0.8749
 3582SOL     OW11644   6.818   5.376   3.088 -0.5978  0.9017 -0.0868
 3582SOL    HW111645   6.857   5.299   3.138 -2.3211  0.2553  0.3157
 3582SOL    HW211646   6.892   5.437   3.059  0.5885  0.3932  1.7056
 3583SOL     OW11647   1.985   4.421   1.074 -0.0789 -0.4393 -0.4362
 3583SOL    HW111648   1.987   4.339   1.132 -0.5319  0.2542  0.5705
 3583SOL    HW211649   2.059   4.482   1.100  0.6341 -0.7667 -1.5906
 3584SOL     OW11650   0.248   3.944   4.704 -0.1039  0.1076  0.0587
 3584SOL    HW111651   0.290   4.024   4.660 -0.7272  0.6242  0.3882
 3584SOL    HW211652   0.215   3.881   4.634  2.5908 -1.0814 -0.2535
 3585SOL     OW11653   2.213   5.310   3.262  0.1356 -0.0467  0.1225
 3585SOL    HW111654   2.206   5.318   3.163 -0.3722 -2.3701 -0.0934
 3585SOL    HW211655   2.133   5.350   3.305  0.2798  0.8235 -0.3982
 3586SOL     OW11656   1.036   3.605   2.234 -0.2262  0.2264  0.1841
 3586SOL    HW111657   1.081   3.693   2.218 -0.4042 -0.0892 -2.7390
 3586SOL    HW211658   1.090   3.532   2.191 -2.8278 -0.2741 -2.6399
 3587SOL     OW11659   3.808   6.175   0.198  0.0619  0.5841  0.5058
 3587SOL    HW111660   3.743   6.145   0.128 -1.6456  0.3933  2.1124
 3587SOL    HW211661   3.856   6.095   0.234  0.6767  0.6419 -0.1583
 3588SOL     OW11662   0.241   4.965   1.553 -0.4482  0.0016  0.2952
 3588SOL    HW111663   0.226   5.056   1.590 -0.7005  0.1668 -0.2061
 3588SOL    HW211664   0.339   4.952   1.536 -0.5924  0.8707 -1.3606
 3589SOL     OW11665   0.675   6.006   3.144 -0.2837  0.5163  0.0771
 3589SOL    HW111666   0.690   6.087   3.087  0.5225  1.3313  1.4014
 3589SOL    HW211667   0.666   6.033   3.240 -0.9712 -0.8866  0.4442
 3590SOL     OW11668   6.078   6.063   4.095 -0.3520 -0.3840 -0.0892
 3590SOL    HW111669   6.031   5.988   4.139  0.9649 -0.8715  0.5416
 3590SOL    HW211670   6.019   6.103   4.024 -2.7732  0.8044  2.3985
 3591SOL     OW11671   4.424   6.052   5.007  0.1801  0.4184 -0.1168
 3591SOL    HW111672   4.345   5.999   4.977  0.8410 -0.8439  0.3005
 3591SOL    HW211673   4.485   6.068   4.929 -0.5866  1.6385 -0.5011
 3592SOL     OW11674   6.072   6.194   0.024  0.2607  0.6080 -0.2753
 3592SOL    HW111675   5.994   6.136  -0.001  0.6541  0.2000 -0.5760
 3592SOL    HW211676   6.066   6.280  -0.027  0.8076 -0.0315 -1.4707
 3593SOL     OW11677   4.896   2.513   6.438 -0.1468  0.1649 -0.0751
 3593SOL    HW111678   4.873   2.610   6.434  1.0867  0.4746 -0.0939
 3593SOL    HW211679   4.940   2.486   6.352  0.6669 -0.0917  0.4102
 3594SOL     OW11680   4.566   0.215   5.253 -0.1893 -0.0794 -0.3731
 3594SOL    HW111681   4.602   0.308   5.241  2.7492 -0.6606  2.5356
 3594SOL    HW211682   4.631   0.149   5.217 -0.0159 -1.0758  1.6108
 3595SOL     OW11683   1.610   3.530   5.238 -0.0960  0.0432 -0.5351
 3595SOL    HW111684   1.565   3.532   5.149  0.1132 -1.8808 -0.7133
 3595SOL    HW211685   1.703   3.493   5.228 -0.4981 -1.3611  0.6335
 3596SOL     OW11686   1.590   5.779   0.184 -0.1879 -0.0898 -0.0384
 3596SOL    HW111687   1.574   5.818   0.274 -1.8285  0.5684 -0.5790
 3596SOL    HW211688   1.523   5.815   0.119  0.4484 -1.1578 -1.3515
 3597SOL     OW11689   4.865   2.184   2.192  0.2278 -0.0499 -0.4911
 3597SOL    HW111690   4.923   2.125   2.135 -0.7001 -0.4661 -1.0245
 3597SOL    HW211691   4.817   2.250   2.135 -0.9137 -0.6419 -0.2559
 3598SOL     OW11692   1.941   3.249   3.915 -0.0120 -0.3979  0.1932
 3598SOL    HW111693   2.020   3.275   3.971  0.4869 -0.5011 -0.4405
 3598SOL    HW211694   1.884   3.329   3.899  1.0504  0.1500 -1.0187
 3599SOL     OW11695   4.121   2.667   0.600 -0.0736 -0.5529 -0.3020
 3599SOL    HW111696   4.133   2.761   0.569  2.0530 -0.5165  0.4985
 3599SOL    HW211697   4.034   2.631   0.564 -0.0847  1.0974 -2.1086
 3600SOL     OW11698   4.579   0.544   5.887  0.0778 -0.3574  0.3415
 3600SOL    HW111699   4.619   0.635   5.874  2.2428 -1.4899 -1.6335
 3600SOL    HW211700   4.521   0.522   5.808 -1.4537 -0.2693  1.3951
 3601SOL     OW11701   6.998   5.350   4.872 -0.0318 -0.1544  0.7149
 3601SOL    HW111702   6.966   5.417   4.939  3.3158  1.4821  0.8947
 3601SOL    HW211703   7.060   5.285   4.916 -0.6656 -1.3575 -0.1173
 3602SOL     OW11704   6.418   4.868   5.180 -0.6171  0.1540 -0.5037
 3602SOL    HW111705   6.435   4.814   5.262 -0.4672  1.2769  0.2176
 3602SOL    HW211706   6.486   4.846   5.110  0.4543  0.6005  0.3772
 3603SOL     OW11707   6.260   5.074   1.790 -0.6192 -0.0233 -0.4139
 3603SOL    HW111708   6.261   4.985   1.744 -1.1516 -0.7666  0.9624
 3603SOL    HW211709   6.234   5.062   1.886 -0.7622  1.6351 -0.2157
 3604SOL     OW11710   4.402   2.374   6.642 -0.0739  0.3378  0.3383
 3604SOL    HW111711   4.343   2.359   6.563  1.0756  1.3657 -0.7544
 3604SOL    HW211712   4.485   2.421   6.613  0.3044  0.8888  2.1991
 3605SOL     OW11713   2.415   2.169   1.408  0.2399  0.0293 -0.4848
 3605SOL    HW111714   2.466   2.255   1.403 -0.0117  0.1618 -0.8615
 3605SOL    HW211715   2.386   2.142   1.316 -0.7625  0.2016 -0.2376
 3606SOL     OW11716   5.844   6.676   6.319 -0.3475  0.4873  0.2649
 3606SOL    HW111717   5.898   6.752   6.283 -1.1654  0.3300 -1.3882
 3606SOL    HW211718   5.844   6.601   6.254 -0.5308 -0.4886  1.3524
 3607SOL     OW11719   4.345   3.134   1.727 -0.2659  0.1911 -0.8595
 3607SOL    HW111720   4.267   3.147   1.788 -0.3172 -2.6626 -0.1647
 3607SOL    HW211721   4.419   3.089   1.777  0.8701  0.5551 -2.1548
 3608SOL     OW11722   5.134   1.991   5.578 -0.2685 -0.3750 -0.2177
 3608SOL    HW111723   5.130   1.900   5.618  3.0319 -0.2882  0.5641
 3608SOL    HW211724   5.189   1.988   5.494  0.5276  0.9732  0.2226
 3609SOL     OW11725   5.757   6.619   1.044 -0.1397  0.0279 -0.1351
 3609SOL    HW111726   5.726   6.712   1.024  0.9936  0.1118 -1.6284
 3609SOL    HW211727   5.845   6.603   1.000 -0.6257 -1.9823 -0.4451
 3610SOL     OW11728   5.627   4.610   4.836  0.5801  0.4411  0.6840
 3610SOL    HW111729   5.550   4.561   4.876 -0.7440  1.3787 -0.6146
 3610SOL    HW211730   5.676   4.660   4.908 -0.8476  0.9255  1.3505
 3611SOL     OW11731   3.702   5.449   2.901  0.2286  0.7245 -0.1225
 3611SOL    HW111732   3.629   5.410   2.846 -0.6699  0.1091  1.4498
 3611SOL    HW211733   3.663   5.497   2.980  1.4906  1.2978  0.1823
 3612SOL     OW11734   2.914   1.506   1.158  0.0645 -0.1313 -0.1059
 3612SOL    HW111735   2.862   1.569   1.216 -1.1555 -1.9263  0.8486
 3612SOL    HW211736   3.005   1.492   1.197 -0.5497 -0.8856  1.1232
 3613SOL     OW11737   3.044   3.963   3.374 -0.4242 -0.0300 -0.2622
 3613SOL    HW111738   3.009   3.973   3.281  2.3936 -1.0470 -1.5390
 3613SOL    HW211739   3.017   3.874   3.410  1.0160 -0.9457 -1.3563
 3614SOL     OW11740   0.928   6.241   2.226  0.2220 -0.6578  0.3563
 3614SOL    HW111741   0.917   6.329   2.179 -1.2314 -1.0862 -0.1524
 3614SOL    HW211742   0.978   6.256   2.312 -0.2328  0.7223  0.4162
 3615SOL     OW11743   2.551   2.786   5.964  0.3142  0.0510  0.2805
 3615SOL    HW111744   2.497   2.870   5.972 -0.4763 -0.0666 -2.7437
 3615SOL    HW211745   2.495   2.709   5.993 -1.4171 -0.0878 -2.9444
 3616SOL     OW11746   5.658   1.022   3.979 -0.4358  0.0475 -0.3870
 3616SOL    HW111747   5.667   1.040   3.881  0.6889  0.7115 -0.1803
 3616SOL    HW211748   5.740   1.055   4.027 -1.5989  1.1272  0.9629
 3617SOL     OW11749   3.767   0.330   6.968 -0.3297  0.0881  0.0338
 3617SOL    HW111750   3.829   0.354   7.043 -0.9033  0.0790  0.5194
 3617SOL    HW211751   3.779   0.395   6.893  2.0560 -1.3403 -0.9432
 3618SOL     OW11752   5.524   1.357   4.625  0.1575  0.0293 -0.2647
 3618SOL    HW111753   5.544   1.406   4.710  0.7905  1.0904 -1.0046
 3618SOL    HW211754   5.441   1.395   4.584 -0.4037 -0.7808  0.0775
 3619SOL     OW11755   5.054   5.393   4.458  0.0942  0.4082 -0.4466
 3619SOL    HW111756   5.101   5.307   4.439 -1.1242 -0.1300 -1.1425
 3619SOL    HW211757   5.061   5.413   4.556 -0.1917 -0.8390 -0.1486
 3620SOL     OW11758   1.789   0.345   1.612  0.7091  1.0364 -0.6451
 3620SOL    HW111759   1.692   0.341   1.637  0.2757 -3.6295 -2.1632
 3620SOL    HW211760   1.844   0.333   1.695 -0.0843  1.4489 -0.0401
 3621SOL     OW11761   3.856   5.040   5.956 -0.4033  0.6683 -0.0508
 3621SOL    HW111762   3.842   4.957   5.901 -0.2813  0.9262 -0.4738
 3621SOL    HW211763   3.799   5.035   6.038  0.2765 -0.2561  0.3960
 3622SOL     OW11764   6.102   3.854   6.067 -0.0212  0.0287 -0.1900
 3622SOL    HW111765   6.069   3.943   6.099  1.1728  0.4728 -0.1574
 3622SOL    HW211766   6.202   3.852   6.070 -0.0221 -1.2299 -0.4321
 3623SOL     OW11767   6.535   6.879   4.932  0.1139  0.2609 -0.7286
 3623SOL    HW111768   6.553   6.811   4.862  0.7743 -1.3893  0.9455
 3623SOL    HW211769   6.615   6.938   4.943  1.0218 -1.0994  0.3153
 3624SOL     OW11770   2.538   6.524   5.933  0.1545 -0.3071  0.1495
 3624SOL    HW111771   2.615   6.461   5.936  1.1679  0.8718 -0.4354
 3624SOL    HW211772   2.466   6.486   5.874  1.0926 -0.5588 -0.8677
 3625SOL     OW11773   3.764   4.813   6.691 -0.5107 -0.1168 -0.1981
 3625SOL    HW111774   3.672   4.848   6.674 -0.9539 -0.7641  0.7652
 3625SOL    HW211775   3.816   4.881   6.743 -1.4701 -0.9239  1.9466
 3626SOL     OW11776   2.718   5.811   6.465 -0.2223  0.4479  0.2210
 3626SOL    HW111777   2.652   5.809   6.540 -0.8990  0.3585 -0.3623
 3626SOL    HW211778   2.687   5.877   6.396 -0.5451 -0.7359 -0.8042
 3627SOL     OW11779   2.056   5.041   6.369  0.6671  0.5941 -0.3819
 3627SOL    HW111780   1.994   5.111   6.334 -0.4917  0.8696  2.0663
 3627SOL    HW211781   2.041   4.956   6.318 -2.1205  0.5202  0.3754
 3628SOL     OW11782   1.742   6.417   1.134 -0.2467 -0.6536  0.2869
 3628SOL    HW111783   1.742   6.439   1.037 -0.2222 -2.7153 -0.2166
 3628SOL    HW211784   1.824   6.365   1.157  0.6239  1.2788  1.8149
 3629SOL     OW11785   6.602   6.377   5.902 -0.3607 -0.4720 -0.0198
 3629SOL    HW111786   6.656   6.362   5.819 -1.3265 -2.5025 -0.3251
 3629SOL    HW211787   6.651   6.340   5.981 -0.8517 -1.4102 -0.1519
 3630SOL     OW11788   3.108   1.526   3.487  0.2286 -0.2461  0.2651
 3630SOL    HW111789   3.054   1.509   3.405  0.6868 -0.6016  0.0320
 3630SOL    HW211790   3.176   1.454   3.498  0.0750 -0.2778  1.0429
 3631SOL     OW11791   4.942   1.509   1.437  0.3452 -0.2136 -0.0831
 3631SOL    HW111792   4.902   1.599   1.449 -3.0289 -1.4741 -0.6728
 3631SOL    HW211793   4.923   1.476   1.345 -0.1855 -2.2260  0.6855
 3632SOL     OW11794   0.266   0.136   0.620 -0.2824  0.5033  0.0979
 3632SOL    HW111795   0.166   0.130   0.617 -0.2692 -1.6587  1.4034
 3632SOL    HW211796   0.300   0.072   0.688  2.1498 -0.6974 -2.0804
 3633SOL     OW11797   1.104   4.365   0.189 -0.1822 -0.5674 -0.5684
 3633SOL    HW111798   1.061   4.368   0.279 -0.1077  0.3039 -0.5442
 3633SOL    HW211799   1.085   4.451   0.141  1.1371 -0.3591 -0.7418
 3634SOL     OW11800   4.341   5.554   1.868 -0.0465 -0.0001 -0.3924
 3634SOL    HW111801   4.366   5.469   1.822  1.0483 -1.2109  2.2543
 3634SOL    HW211802   4.422   5.594   1.911 -1.2808 -0.0347  2.1389
 3635SOL     OW11803   0.428   0.809   0.322 -0.1085  0.4146  0.3731
 3635SOL    HW111804   0.394   0.760   0.403 -1.1687 -0.2948 -0.4743
 3635SOL    HW211805   0.519   0.846   0.342 -0.0139 -0.4079  1.6301
 3636SOL     OW11806   4.066   0.461   4.984 -0.3049 -0.5665 -0.7617
 3636SOL    HW111807   3.991   0.404   5.018 -1.2661  0.8340 -0.4668
 3636SOL    HW211808   4.153   0.414   5.001 -0.9035 -0.9905  1.4972
 3637SOL     OW11809   4.239   1.238   5.802  0.6183  0.1677  0.6514
 3637SOL    HW111810   4.204   1.195   5.886  0.1840 -1.0961 -0.1506
 3637SOL    HW211811   4.165   1.289   5.758  0.9102  1.0436  1.1401
 3638SOL     OW11812   5.742   1.879   2.982 -0.0642 -0.1816  0.4006
 3638SOL    HW111813   5.655   1.881   3.032  0.0886  1.5054  0.6608
 3638SOL    HW211814   5.725   1.891   2.884 -0.0909  1.7399  0.5899
 3639SOL     OW11815   0.902   6.041   1.880  0.0504 -0.4129  0.1405
 3639SOL    HW111816   1.000   6.038   1.861  0.5357 -3.8069  2.2851
 3639SOL    HW211817   0.852   5.992   1.809  0.4843 -2.2743  1.0296
 3640SOL     OW11818   4.516   4.301   6.066 -0.0879 -0.6033 -0.3961
 3640SOL    HW111819   4.519   4.396   6.034  1.6331  0.5725  2.8749
 3640SOL    HW211820   4.607   4.261   6.060  0.0657 -0.6864  1.8455
 3641SOL     OW11821   6.524   0.663   3.858 -1.1170  0.5997 -0.4956
 3641SOL    HW111822   6.505   0.623   3.948  0.8380 -1.6726 -0.9929
 3641SOL    HW211823   6.483   0.604   3.787  1.3026 -0.3033 -1.2308
 3642SOL     OW11824   5.128   2.060   4.404 -0.6023  0.2296  0.1911
 3642SOL    HW111825   5.113   2.157   4.420  2.9887  0.7222  1.5573
 3642SOL    HW211826   5.054   2.007   4.446 -1.8610  2.3101  0.7120
 3643SOL     OW11827   5.451   3.148   3.745  0.3957  0.9681  0.5651
 3643SOL    HW111828   5.412   3.157   3.654  2.2702 -0.5830 -0.4765
 3643SOL    HW211829   5.421   3.224   3.803 -0.7297  2.0605 -1.3682
 3644SOL     OW11830   4.703   3.983   5.562  0.3065 -0.1427 -0.3907
 3644SOL    HW111831   4.637   4.025   5.500 -0.6962 -1.0166  0.0505
 3644SOL    HW211832   4.692   3.884   5.560  0.7344 -0.2238  0.6561
 3645SOL     OW11833   6.809   5.654   3.971 -0.2297 -0.2893 -0.0975
 3645SOL    HW111834   6.809   5.753   3.957  1.2149  0.0011  1.4989
 3645SOL    HW211835   6.715   5.621   3.981 -0.6893  1.0881  0.3387
 3646SOL     OW11836   4.055   2.808   5.317 -0.4674  0.0918  0.9233
 3646SOL    HW111837   4.104   2.732   5.274  1.6694  1.4121  0.9146
 3646SOL    HW211838   3.957   2.800   5.297 -0.1758 -2.0933  0.1052
 3647SOL     OW11839   5.186   6.637   4.632 -0.2981  0.3846  0.2507
 3647SOL    HW111840   5.193   6.671   4.539 -0.7513 -0.4288 -0.0900
 3647SOL    HW211841   5.127   6.697   4.686 -1.3223 -0.0110 -0.4175
 3648SOL     OW11842   5.963   0.004   4.165 -0.4730 -0.0907  0.1611
 3648SOL    HW111843   6.061   0.011   4.184 -0.1650  0.1546 -1.3960
 3648SOL    HW211844   5.936  -0.092   4.167 -0.2445 -0.1497  0.7417
 3649SOL     OW11845   0.491   2.331   3.973  0.4084  0.4432  0.3004
 3649SOL    HW111846   0.450   2.419   3.952  0.0659  0.1055 -0.4923
 3649SOL    HW211847   0.556   2.341   4.048  0.2562  1.3362  0.3179
 3650SOL     OW11848   5.521   5.708   7.017  0.8044 -0.2640 -0.3493
 3650SOL    HW111849   5.506   5.710   7.116  0.7062 -1.3494 -0.3297
 3650SOL    HW211850   5.509   5.614   6.983 -1.9858  0.4989 -1.8072
 3651SOL     OW11851   0.686   4.235   1.269 -0.1562 -0.2860  0.2381
 3651SOL    HW111852   0.779   4.252   1.300  0.4888 -0.1137 -1.6815
 3651SOL    HW211853   0.649   4.317   1.226 -0.4523 -0.9335 -0.7891
 3652SOL     OW11854   3.659   1.074   5.924 -0.7035 -0.1045  0.1991
 3652SOL    HW111855   3.750   1.081   5.883 -1.0768  1.2740 -0.4296
 3652SOL    HW211856   3.591   1.059   5.853 -0.8422 -2.9964  0.8034
 3653SOL     OW11857   4.873   0.004   2.107  0.0037  0.2285  0.2129
 3653SOL    HW111858   4.942  -0.006   2.179  0.3543  0.9869 -0.0022
 3653SOL    HW211859   4.918   0.001   2.017 -0.4491 -0.8673  0.0093
 3654SOL     OW11860   6.359   6.600   5.315  0.1056 -0.0989  0.1739
 3654SOL    HW111861   6.331   6.691   5.285 -0.1294 -0.5749 -1.1206
 3654SOL    HW211862   6.442   6.573   5.267 -0.2126 -0.8439  0.0271
 3655SOL     OW11863   1.171   3.336   6.308  0.2353  0.4744  0.1567
 3655SOL    HW111864   1.137   3.383   6.226 -0.1156 -1.1455 -0.6718
 3655SOL    HW211865   1.155   3.238   6.299  2.5607 -0.0521  1.0134
 3656SOL     OW11866   4.820   6.709   4.481 -0.3637  0.2641  0.1872
 3656SOL    HW111867   4.870   6.626   4.506  0.0608  0.2388 -0.7243
 3656SOL    HW211868   4.739   6.685   4.428 -0.7747  0.3774  0.7527
 3657SOL     OW11869   4.015   3.836   0.701  0.0586  0.4739 -0.5730
 3657SOL    HW111870   3.968   3.924   0.709  0.4633  0.5178  2.5594
 3657SOL    HW211871   3.965   3.767   0.752  2.4134  0.1756  1.5534
 3658SOL     OW11872   2.658   5.594   0.513  0.6015  0.1554 -0.2906
 3658SOL    HW111873   2.605   5.647   0.447  1.3004  0.2978 -0.7527
 3658SOL    HW211874   2.690   5.510   0.469  1.2146  0.3317 -0.1837
 3659SOL     OW11875   3.042   1.499   2.029 -0.1400  0.6744 -0.4937
 3659SOL    HW111876   3.052   1.577   1.968  1.6594  1.8335  1.1934
 3659SOL    HW211877   3.031   1.530   2.123  3.2279 -1.0209  0.6026
 3660SOL     OW11878   4.946   2.902   4.463  0.3373  0.0824  0.7159
 3660SOL    HW111879   4.924   2.991   4.503 -2.9238 -0.2833  0.0205
 3660SOL    HW211880   4.889   2.886   4.383 -0.0615 -3.1132  1.4778
 3661SOL     OW11881   3.508   3.371   1.268  0.0393  0.7264 -0.9335
 3661SOL    HW111882   3.492   3.421   1.352  0.5206  1.4706 -1.2690
 3661SOL    HW211883   3.495   3.273   1.284 -0.7043  0.9320 -0.2166
 3662SOL     OW11884   2.943   2.853   6.396 -0.2807 -0.1378  0.5089
 3662SOL    HW111885   2.859   2.800   6.407  0.6445 -1.6124  0.7574
 3662SOL    HW211886   2.994   2.852   6.481  0.3740  0.0726  0.1251
 3663SOL     OW11887   1.524   3.495   1.441 -0.5533 -0.2659 -0.0696
 3663SOL    HW111888   1.472   3.416   1.473 -1.6202  0.2455 -0.5031
 3663SOL    HW211889   1.528   3.564   1.513 -1.9578  0.4002 -0.6002
 3664SOL     OW11890   1.077   0.561   3.277  0.3691  0.6980  0.5120
 3664SOL    HW111891   1.029   0.502   3.212  2.2515  1.5306 -1.7477
 3664SOL    HW211892   1.032   0.650   3.280 -0.5614  0.2230  1.4981
 3665SOL     OW11893   3.083   0.412   2.587 -0.5854 -0.1393  0.2863
 3665SOL    HW111894   2.996   0.437   2.629 -0.1794  0.4996  0.7479
 3665SOL    HW211895   3.089   0.455   2.497  0.1840  1.6408  1.1420
 3666SOL     OW11896   4.417   0.391   1.685  0.3820 -0.0305  0.1041
 3666SOL    HW111897   4.440   0.469   1.626  0.4167 -0.4157 -0.4035
 3666SOL    HW211898   4.404   0.310   1.628  0.6641 -0.4686  0.6620
 3667SOL     OW11899   0.912   2.792   2.500  0.0307  0.1008 -0.5677
 3667SOL    HW111900   0.899   2.735   2.581 -0.4221  1.5432  0.4032
 3667SOL    HW211901   0.948   2.736   2.425  0.2826 -1.2924  0.5671
 3668SOL     OW11902   4.604   0.168   2.671  0.1405 -0.1027  0.0311
 3668SOL    HW111903   4.508   0.169   2.643  0.2496 -0.7963 -0.3631
 3668SOL    HW211904   4.626   0.256   2.715 -0.1386  0.8452 -1.6488
 3669SOL     OW11905   1.065   3.650   0.457  0.0484  0.6564 -0.4784
 3669SOL    HW111906   1.137   3.621   0.520 -1.8796 -0.6407  1.2582
 3669SOL    HW211907   1.035   3.742   0.481 -0.4309  0.3054  0.2849
 3670SOL     OW11908   6.789   1.055   6.361  0.8046 -0.5443 -0.1813
 3670SOL    HW111909   6.839   1.069   6.275  0.8715 -0.9176 -0.2079
 3670SOL    HW211910   6.691   1.051   6.341  0.8011 -0.3490 -0.2031
 3671SOL     OW11911   2.626   6.733   2.690  0.7137 -0.1236  0.6170
 3671SOL    HW111912   2.546   6.678   2.664 -0.0207  2.2636 -2.9062
 3671SOL    HW211913   2.595   6.817   2.736  1.5154 -0.6467  2.1845
 3672SOL     OW11914   5.181   4.117   3.101  0.3606 -0.6766  0.2136
 3672SOL    HW111915   5.245   4.193   3.091 -0.4369  0.0618  0.5514
 3672SOL    HW211916   5.125   4.109   3.018 -0.7417  0.2428  0.8445
 3673SOL     OW11917   5.586   1.997   0.871 -0.4676 -0.7007 -0.7005
 3673SOL    HW111918   5.656   2.068   0.863 -2.6783  2.0428  2.0338
 3673SOL    HW211919   5.621   1.922   0.928 -0.0295  1.1852  1.6635
 3674SOL     OW11920   2.811   0.996   4.818 -0.1595  0.9646  0.2855
 3674SOL    HW111921   2.842   1.085   4.853  0.6258 -0.1295  2.5925
 3674SOL    HW211922   2.864   0.923   4.862 -1.6675 -0.7154 -0.5766
 3675SOL     OW11923   5.514   4.223   1.020 -0.3988  0.0382  0.5250
 3675SOL    HW111924   5.435   4.234   1.081 -0.7300 -0.3526  0.1787
 3675SOL    HW211925   5.483   4.225   0.925  0.1345  0.7978  0.3578
 3676SOL     OW11926   4.100   2.150   5.858  0.2504 -0.1038  0.0145
 3676SOL    HW111927   4.197   2.127   5.857  0.0849 -0.8092 -0.3253
 3676SOL    HW211928   4.059   2.118   5.943  0.1392 -0.5550 -0.2095
 3677SOL     OW11929   2.992   6.124   2.376 -0.6591 -0.6488 -0.3933
 3677SOL    HW111930   2.899   6.085   2.375 -0.1455 -1.9330 -1.1189
 3677SOL    HW211931   2.988   6.220   2.351 -1.7404 -0.8497 -1.0589
 3678SOL     OW11932   2.186   6.191   1.278 -0.5840 -0.4148 -0.0032
 3678SOL    HW111933   2.086   6.192   1.266 -0.6871  1.2503  0.6695
 3678SOL    HW211934   2.230   6.174   1.190 -1.4603 -0.2740 -0.4789
 3679SOL     OW11935   1.874   2.463   0.673 -0.7756 -0.0269 -0.5765
 3679SOL    HW111936   1.877   2.441   0.770 -0.8710  0.9133 -0.3528
 3679SOL    HW211937   1.947   2.529   0.651 -1.7861  1.0595 -0.7832
 3680SOL     OW11938   3.332   2.985   4.626 -0.1571  0.1061 -0.3154
 3680SOL    HW111939   3.411   3.046   4.635 -1.5563  1.6765  2.9616
 3680SOL    HW211940   3.343   2.907   4.688 -0.6118 -0.3184 -0.7624
 3681SOL     OW11941   5.078   6.666   5.912 -0.0405  0.1512 -0.7674
 3681SOL    HW111942   5.017   6.654   5.833  0.5286  1.0997 -1.3693
 3681SOL    HW211943   5.166   6.624   5.891 -0.5736 -1.5966  0.2649
 3682SOL     OW11944   4.629   2.146   3.802 -0.5512 -0.0245 -0.2271
 3682SOL    HW111945   4.649   2.123   3.897 -0.1346 -0.7208 -0.4728
 3682SOL    HW211946   4.684   2.089   3.742  0.4038  1.5268 -0.8854
 3683SOL     OW11947   2.473   6.412   4.054 -0.1797  0.2007  0.1730
 3683SOL    HW111948   2.572   6.413   4.045  0.3809 -1.5213  4.1974
 3683SOL    HW211949   2.438   6.319   4.043 -1.2468  0.6362 -0.2968
 3684SOL     OW11950   6.126   2.785   4.705  0.1664 -0.2228  0.8611
 3684SOL    HW111951   6.049   2.755   4.649  1.2418 -2.4530  0.4668
 3684SOL    HW211952   6.135   2.885   4.698 -0.5332 -0.2630 -1.9148
 3685SOL     OW11953   3.040   5.681   1.574 -0.5698  0.0756  0.3966
 3685SOL    HW111954   3.054   5.723   1.484 -0.2994  1.6601  1.1338
 3685SOL    HW211955   2.942   5.682   1.595 -0.6055 -0.0292  0.2401
 3686SOL     OW11956   0.854   1.494   0.157 -0.1171  0.5724 -0.2990
 3686SOL    HW111957   0.779   1.553   0.129 -0.0085  0.4801 -0.7870
 3686SOL    HW211958   0.929   1.550   0.193 -0.6707  0.6245  0.7961
 3687SOL     OW11959   1.084   3.073   6.305 -0.1847 -0.2226  0.4602
 3687SOL    HW111960   1.058   3.016   6.383  0.8640 -0.7903  0.4201
 3687SOL    HW211961   1.170   3.039   6.267  0.5027  1.4196  0.4638
 3688SOL     OW11962   2.909   4.287   0.634 -0.1200 -0.1091 -0.4211
 3688SOL    HW111963   2.958   4.202   0.651 -0.3691 -0.7029 -2.4293
 3688SOL    HW211964   2.811   4.270   0.633 -0.3358  0.7238  1.7046
 3689SOL     OW11965   3.704   3.489   6.776  0.5227  0.3114  0.1228
 3689SOL    HW111966   3.758   3.532   6.703 -2.1123  1.4405 -1.3049
 3689SOL    HW211967   3.623   3.544   6.794 -1.0037 -2.0776  1.0314
 3690SOL     OW11968   2.326   0.264   4.130 -0.1076 -0.2093  0.1469
 3690SOL    HW111969   2.396   0.326   4.093 -1.0240  1.2455  0.7511
 3690SOL    HW211970   2.247   0.263   4.069 -0.0395 -0.9296  0.0636
 3691SOL     OW11971   6.532   2.083   6.211  0.1588 -0.1230 -0.5237
 3691SOL    HW111972   6.631   2.074   6.198  0.2800  1.7857 -1.2453
 3691SOL    HW211973   6.486   2.080   6.121 -0.7120 -3.0844 -0.0905
 3692SOL     OW11974   3.729   5.068   1.653  0.2475 -0.6276  0.0604
 3692SOL    HW111975   3.655   5.131   1.631 -0.0713 -1.0523 -0.0856
 3692SOL    HW211976   3.790   5.058   1.574  1.1181  0.5995  0.5370
 3693SOL     OW11977   2.998   6.781   0.066  0.3639  0.2139  0.3279
 3693SOL    HW111978   3.060   6.740  -0.001 -0.2074 -0.7471  0.3583
 3693SOL    HW211979   2.910   6.801   0.022  0.4809  0.9652  0.4340
 3694SOL     OW11980   4.496   0.037   2.945 -0.5789 -0.0232 -0.0876
 3694SOL    HW111981   4.507   0.060   2.849 -0.1283 -0.7759 -0.2261
 3694SOL    HW211982   4.404   0.004   2.962 -0.9152  0.8771 -0.0868
 3695SOL     OW11983   2.778   4.750   4.100  0.1212 -0.1085 -0.3467
 3695SOL    HW111984   2.704   4.689   4.130 -0.8169  0.3533 -1.5959
 3695SOL    HW211985   2.805   4.726   4.007  1.1710  0.1000 -0.1067
 3696SOL     OW11986   6.064   4.366   2.137  0.5781  0.2184 -0.7718
 3696SOL    HW111987   6.163   4.382   2.138  0.5142  0.5998 -0.2266
 3696SOL    HW211988   6.036   4.324   2.223  0.1498  0.8810 -0.5726
 3697SOL     OW11989   2.645   4.253   1.466 -0.3793 -0.8318 -0.0913
 3697SOL    HW111990   2.694   4.173   1.501 -0.5020 -0.7327  0.3185
 3697SOL    HW211991   2.651   4.327   1.532 -0.4317 -0.5661 -0.3833
 3698SOL     OW11992   3.560   3.790   2.825 -0.4014 -0.5884  0.1240
 3698SOL    HW111993   3.486   3.829   2.880 -1.2614 -0.7471 -0.9127
 3698SOL    HW211994   3.647   3.805   2.873 -1.0474 -0.1035  1.1925
 3699SOL     OW11995   5.542   5.587   1.924  0.3501  0.4403 -0.1045
 3699SOL    HW111996   5.461   5.583   1.865 -1.0995 -0.4416  1.8440
 3699SOL    HW211997   5.547   5.677   1.967  0.3395  0.4530 -0.1293
 3700SOL     OW11998   4.549   1.832   0.858 -0.4071  0.2499 -0.1741
 3700SOL    HW111999   4.558   1.733   0.862  1.9207  0.4558  1.1880
 3700SOL    HW212000   4.454   1.858   0.880 -1.1827 -1.6412 -1.0937
 3701SOL     OW12001   4.779   0.536   6.499  0.2735  0.0108  0.2319
 3701SOL    HW112002   4.825   0.560   6.414 -1.3414  1.4362 -0.3082
 3701SOL    HW212003   4.819   0.589   6.574  0.5061  0.1235  0.0329
 3702SOL     OW12004   3.707   4.670   5.578 -0.3140 -0.0842 -0.6458
 3702SOL    HW112005   3.792   4.708   5.613  0.1502 -1.3154 -0.3850
 3702SOL    HW212006   3.719   4.572   5.560 -2.2258 -0.7801  1.3866
 3703SOL     OW12007   4.106   4.969   5.661 -0.3866  0.6536  0.6121
 3703SOL    HW112008   4.190   5.018   5.683 -1.3994  2.1804  1.2145
 3703SOL    HW212009   4.049   5.025   5.602 -0.3079 -1.0268 -1.1356
 3704SOL     OW12010   2.231   6.760   4.665  0.1041  0.8987 -0.5139
 3704SOL    HW112011   2.241   6.746   4.567 -1.9175  0.8967 -0.7633
 3704SOL    HW212012   2.268   6.850   4.690  1.4772  0.5127 -1.0920
 3705SOL     OW12013   0.528   2.732   5.526  0.2273  0.2875 -0.2143
 3705SOL    HW112014   0.435   2.695   5.531 -0.8018  2.6726 -0.2594
 3705SOL    HW212015   0.581   2.700   5.603 -1.3172  0.5355  1.0040
 3706SOL     OW12016   1.091   6.627   0.642 -0.7832  0.1788 -0.0325
 3706SOL    HW112017   0.999   6.611   0.677 -1.2292  1.4399 -0.5983
 3706SOL    HW212018   1.090   6.632   0.543 -0.3909  1.7899  0.0135
 3707SOL     OW12019   3.695   5.973   2.369 -0.2314 -0.1031  0.0168
 3707SOL    HW112020   3.707   6.060   2.416 -1.9902  1.3007 -1.9395
 3707SOL    HW212021   3.614   5.926   2.404 -0.1694 -0.2065  0.0232
 3708SOL     OW12022   1.583   1.899   3.188  0.1937  0.4882  0.4627
 3708SOL    HW112023   1.546   1.926   3.100 -1.0245 -0.2189  0.7278
 3708SOL    HW212024   1.550   1.961   3.259  1.5464  1.3370  0.3823
 3709SOL     OW12025   1.149   3.716   5.903 -0.0391  0.8423 -0.1866
 3709SOL    HW112026   1.198   3.657   5.840  0.6232  0.2343  0.8734
 3709SOL    HW212027   1.184   3.810   5.896  2.0352  0.2358  1.2548
 3710SOL     OW12028   3.813   2.620   5.304  0.2977  0.0104 -0.4288
 3710SOL    HW112029   3.860   2.559   5.367  1.7754  4.0846  2.8548
 3710SOL    HW212030   3.714   2.607   5.313  0.5259 -0.7622  1.4393
 3711SOL     OW12031   4.422   6.730   6.188 -0.1778  0.0747  0.1429
 3711SOL    HW112032   4.385   6.753   6.278  0.0517 -0.4760  0.3841
 3711SOL    HW212033   4.516   6.696   6.198 -0.6609 -1.4189 -0.1245
 3712SOL     OW12034   5.158   1.756   6.105 -0.3721  0.2962 -0.7228
 3712SOL    HW112035   5.058   1.756   6.104 -0.4168  0.9787 -3.4201
 3712SOL    HW212036   5.191   1.768   6.199 -2.8352  2.0751 -0.0042
 3713SOL     OW12037   6.520   6.827   1.345 -0.1367  0.1421  0.3172
 3713SOL    HW112038   6.559   6.839   1.437 -0.5051  0.2206  0.4643
 3713SOL    HW212039   6.526   6.731   1.318 -0.0307  0.1181  0.4264
 3714SOL     OW12040   0.705   3.946   1.215 -0.4205 -0.0569  0.0212
 3714SOL    HW112041   0.779   3.879   1.222  0.2724  0.5851 -0.8025
 3714SOL    HW212042   0.731   4.029   1.264 -0.0002  0.6415 -1.3080
 3715SOL     OW12043   1.159   6.125   4.780 -0.4091 -0.4238 -0.9045
 3715SOL    HW112044   1.182   6.160   4.871  0.7176 -1.2778 -0.8316
 3715SOL    HW212045   1.118   6.198   4.725 -1.6695 -0.0596  0.4697
 3716SOL     OW12046   6.628   5.775   1.654  0.5000 -0.0058  0.5412
 3716SOL    HW112047   6.606   5.694   1.599  0.4490 -1.5970  2.7674
 3716SOL    HW212048   6.572   5.852   1.624 -0.0167 -0.9940 -1.1408
 3717SOL     OW12049   5.136   4.258   6.525 -0.0043  0.2800 -0.5862
 3717SOL    HW112050   5.110   4.324   6.454 -0.4187  1.3670  0.5382
 3717SOL    HW212051   5.236   4.245   6.523  0.2505  1.9020 -0.0565
 3718SOL     OW12052   3.047   1.578   5.142 -0.8825  0.0579 -0.0665
 3718SOL    HW112053   3.117   1.632   5.189 -0.3527  1.3183 -2.2111
 3718SOL    HW212054   2.962   1.579   5.196 -0.1790  1.0570  1.0663
 3719SOL     OW12055   3.109   3.076   4.207 -0.0681  0.3359  0.1906
 3719SOL    HW112056   3.178   3.144   4.183  0.9815 -1.1318 -1.1922
 3719SOL    HW212057   3.047   3.063   4.130 -0.1242 -0.4043  0.3496
 3720SOL     OW12058   5.228   2.345   1.542 -0.1103  0.3423  0.4868
 3720SOL    HW112059   5.131   2.354   1.521 -0.0013  1.3645  0.3845
 3720SOL    HW212060   5.281   2.343   1.457 -0.0834 -0.9325  0.5143
 3721SOL     OW12061   6.115   0.450   3.924  0.3777  0.0673  0.3330
 3721SOL    HW112062   6.146   0.386   3.995 -0.2697 -0.3102  0.2814
 3721SOL    HW212063   6.078   0.532   3.966 -0.6066 -0.4303  0.4626
 3722SOL     OW12064   5.171   0.967   5.025  0.0226 -0.3642 -0.0277
 3722SOL    HW112065   5.271   0.962   5.028 -0.0034 -0.8520  0.2042
 3722SOL    HW212066   5.141   0.967   4.930  0.3932  3.9397 -0.3226
 3723SOL     OW12067   1.404   5.553   0.501 -0.6007  0.1636 -0.1493
 3723SOL    HW112068   1.425   5.508   0.414  0.2139  1.0712 -0.4502
 3723SOL    HW212069   1.313   5.526   0.532 -0.2094 -1.5562 -0.3802
 3724SOL     OW12070   4.276   6.383   0.189 -0.5639  0.2527  0.6742
 3724SOL    HW112071   4.275   6.285   0.211 -0.6082  0.1828  0.3784
 3724SOL    HW212072   4.289   6.394   0.090  1.6504  0.5788  0.9512
 3725SOL     OW12073   2.136   1.144   1.929 -0.1277 -0.5259  0.9068
 3725SOL    HW112074   2.134   1.050   1.895  0.5034 -0.5949  1.0354
 3725SOL    HW212075   2.198   1.149   2.008 -0.5942 -0.1149  1.2572
 3726SOL     OW12076   4.949   1.682   4.188  0.2967 -0.0517 -0.2832
 3726SOL    HW112077   5.016   1.610   4.202  3.2506  2.5347  0.1103
 3726SOL    HW212078   4.927   1.688   4.091  1.4716 -0.3180 -0.5858
 3727SOL     OW12079   6.784   2.033   5.378  0.2702 -0.1460 -0.0936
 3727SOL    HW112080   6.771   1.943   5.336 -1.0970  0.8455 -1.9588
 3727SOL    HW212081   6.879   2.062   5.365  0.1503 -0.3382 -1.6720
 3728SOL     OW12082   1.788   6.540   2.705  0.4760 -0.3343  0.2930
 3728SOL    HW112083   1.738   6.625   2.690  0.3981 -0.4217  0.0453
 3728SOL    HW212084   1.733   6.463   2.671  1.3781 -0.3101 -1.3286
 3729SOL     OW12085   5.319   6.547   5.875 -0.0900 -0.3214 -0.2407
 3729SOL    HW112086   5.398   6.512   5.925  1.6261  1.7432 -1.3696
 3729SOL    HW212087   5.316   6.507   5.783 -0.6241 -0.6828 -0.0771
 3730SOL     OW12088   4.441   5.665   6.956  0.7447 -0.6329  0.1544
 3730SOL    HW112089   4.437   5.714   6.869  1.3431 -0.9861 -0.0787
 3730SOL    HW212090   4.496   5.582   6.946  0.1244 -1.1231  0.6592
 3731SOL     OW12091   2.788   6.428   5.945  0.1256  0.3910  0.5354
 3731SOL    HW112092   2.835   6.342   5.921 -3.1478 -1.0579 -1.2867
 3731SOL    HW212093   2.831   6.504   5.896  2.1022 -0.3797  0.9519
 3732SOL     OW12094   1.718   6.286   5.858 -0.3151  0.2337  0.2725
 3732SOL    HW112095   1.748   6.204   5.906 -0.3090  0.9738  1.5580
 3732SOL    HW212096   1.778   6.362   5.880 -1.2717  0.9773  0.3739
 3733SOL     OW12097   0.692   6.509   2.694  0.1084 -0.1286 -0.5110
 3733SOL    HW112098   0.606   6.466   2.722  0.7827 -0.8088  0.5795
 3733SOL    HW212099   0.769   6.463   2.739  1.0675  0.3515 -1.6055
 3734SOL     OW12100   5.738   6.920   1.900  0.7080 -0.0171 -0.3483
 3734SOL    HW112101   5.719   6.822   1.894 -0.6525  0.2414 -0.6460
 3734SOL    HW212102   5.671   6.962   1.962  0.1382  1.0013 -1.6236
 3735SOL     OW12103   6.664   6.083   1.574  0.2668  0.2511 -0.2215
 3735SOL    HW112104   6.719   6.046   1.649  0.9432  2.8700  0.6505
 3735SOL    HW212105   6.715   6.154   1.526 -1.1867  0.5344 -1.4449
 3736SOL     OW12106   2.156   2.237   1.418 -0.3767 -0.2908 -0.0539
 3736SOL    HW112107   2.180   2.334   1.424  0.3504 -0.5438  3.1037
 3736SOL    HW212108   2.239   2.184   1.399 -0.4443 -0.4176  0.0065
 3737SOL     OW12109   5.789   0.919   6.161  0.0857  0.0400 -0.4471
 3737SOL    HW112110   5.862   0.943   6.097  1.1612 -0.9123  0.3682
 3737SOL    HW212111   5.829   0.880   6.244 -1.3492 -0.2523  0.1412
 3738SOL     OW12112   1.319   3.869   6.477 -0.1226 -0.0551 -0.0470
 3738SOL    HW112113   1.413   3.850   6.506 -0.5521 -0.2443  1.3089
 3738SOL    HW212114   1.286   3.792   6.422  0.0085 -0.7237  0.7788
 3739SOL     OW12115   3.825   6.463   4.632  0.0990 -0.1492  0.5484
 3739SOL    HW112116   3.791   6.393   4.694 -0.7993  1.4032  1.8906
 3739SOL    HW212117   3.907   6.430   4.584 -0.4173 -2.1378  0.9852
 3740SOL     OW12118   2.967   5.671   5.773  0.1449  0.1449  0.0345
 3740SOL    HW112119   2.906   5.710   5.841 -1.7225  0.2273 -1.5892
 3740SOL    HW212120   2.980   5.574   5.791  1.9316  0.6650  2.0270
 3741SOL     OW12121   2.797   3.631   5.848 -1.1663 -0.2850 -0.1445
 3741SOL    HW112122   2.769   3.568   5.776  0.0870 -0.1449 -0.7764
 3741SOL    HW212123   2.846   3.580   5.919  2.0724  0.2042 -1.8325
 3742SOL     OW12124   5.087   6.940   6.298 -0.2100 -0.2374  0.0041
 3742SOL    HW112125   5.064   6.945   6.200 -0.0344  0.5253 -0.0005
 3742SOL    HW212126   5.163   7.001   6.318 -2.1299  1.9447  1.1571
 3743SOL     OW12127   3.305   1.063   0.009 -0.3016  0.5339  0.6103
 3743SOL    HW112128   3.309   1.050  -0.090 -2.0993  0.6338  0.4827
 3743SOL    HW212129   3.392   1.037   0.050  0.1406 -0.4816 -0.8914
 3744SOL     OW12130   5.030   1.640   2.018 -0.3539  0.1806 -0.6900
 3744SOL    HW112131   5.001   1.735   2.034 -0.7203  0.0129 -0.3102
 3744SOL    HW212132   4.954   1.579   2.041 -0.1861 -0.1937 -1.1314
 3745SOL     OW12133   4.897   1.645   2.902  0.3990  0.1331  0.2210
 3745SOL    HW112134   4.907   1.656   3.001 -0.8176 -0.5215  0.4298
 3745SOL    HW212135   4.867   1.552   2.882 -0.0366  0.4675 -0.7098
 3746SOL     OW12136   3.632   0.506   4.918 -0.6170 -0.1100  0.2300
 3746SOL    HW112137   3.700   0.490   4.846 -0.0866  0.3862  0.6134
 3746SOL    HW212138   3.657   0.588   4.970 -1.8235  0.4066  0.0138
 3747SOL     OW12139   6.220   6.029   3.010  0.1527  0.4063 -0.0561
 3747SOL    HW112140   6.156   6.027   3.087  0.1410  2.2711  0.0354
 3747SOL    HW212141   6.241   6.124   2.986  2.1394 -0.1439 -0.7306
 3748SOL     OW12142   0.194   4.232   1.533 -0.4699 -0.3577 -0.1631
 3748SOL    HW112143   0.172   4.144   1.492  0.3140 -0.4324 -0.4394
 3748SOL    HW212144   0.124   4.256   1.600 -1.8125 -0.2103 -1.5690
 3749SOL     OW12145   5.729   3.973   3.571 -0.5578 -0.7052  0.5060
 3749SOL    HW112146   5.787   3.965   3.652  1.1731  0.5227 -0.5574
 3749SOL    HW212147   5.685   3.884   3.553 -0.8089 -1.0657  2.6025
 3750SOL     OW12148   0.179   2.721   2.228  0.2148  0.0374 -0.5532
 3750SOL    HW112149   0.277   2.704   2.215  0.2575 -2.3414  1.9457
 3750SOL    HW212150   0.128   2.636   2.211 -1.1603  0.6829  0.2032
 3751SOL     OW12151   5.657   6.555   5.691  0.0964  0.0410 -0.6643
 3751SOL    HW112152   5.722   6.627   5.717 -1.6977  2.0305 -1.3397
 3751SOL    HW212153   5.607   6.525   5.772  0.9518 -0.6138 -0.3543
 3752SOL     OW12154   5.797   6.327   4.698 -0.3780 -0.0609  0.0083
 3752SOL    HW112155   5.850   6.372   4.626 -1.2013 -0.2985 -0.7638
 3752SOL    HW212156   5.752   6.396   4.754 -0.3127  0.1100 -0.1486
 3753SOL     OW12157   1.085   5.101   5.162 -0.5109 -0.1396 -0.6157
 3753SOL    HW112158   1.104   5.146   5.250 -0.9814 -1.0872 -0.0132
 3753SOL    HW212159   1.127   5.010   5.162 -0.0551  0.0630 -1.5945
 3754SOL     OW12160   6.594   5.373   2.207  0.6673 -0.1740 -0.0529
 3754SOL    HW112161   6.547   5.301   2.155  1.4940 -0.2047 -0.7916
 3754SOL    HW212162   6.588   5.459   2.158 -1.8663  0.7535  1.6769
 3755SOL     OW12163   6.789   2.463   2.356 -0.0043  0.3994 -0.1186
 3755SOL    HW112164   6.776   2.544   2.413  0.4653  1.5894 -1.6084
 3755SOL    HW212165   6.706   2.446   2.302  0.1155  0.2530 -0.2588
 3756SOL     OW12166   4.132   5.296   5.055 -0.1050 -0.5195 -0.0337
 3756SOL    HW112167   4.064   5.369   5.062  0.3017 -0.2403  1.4750
 3756SOL    HW212168   4.195   5.317   4.980  0.3893  1.0537  0.7692
 3757SOL     OW12169   5.782   1.955   3.401  0.1846  0.4506  0.5702
 3757SOL    HW112170   5.759   1.857   3.401  0.5452  0.3428 -0.8178
 3757SOL    HW212171   5.851   1.973   3.471 -1.5784  0.1691  2.4926
 3758SOL     OW12172   1.194   6.945   6.941  0.4359  0.1646 -0.1266
 3758SOL    HW112173   1.167   6.861   6.988  0.5399  0.2355  0.0609
 3758SOL    HW212174   1.294   6.950   6.937  0.4291 -0.6342 -1.7776
 3759SOL     OW12175   1.991   4.153   5.447 -0.2103  0.1188  0.6326
 3759SOL    HW112176   1.894   4.131   5.436 -0.4728  1.4043  0.0857
 3759SOL    HW212177   2.047   4.087   5.397 -0.8648 -0.0116  0.0638
 3760SOL     OW12178   6.225   1.126   6.724 -0.1822  0.0229  0.1105
 3760SOL    HW112179   6.241   1.139   6.822 -0.4937 -0.4686  0.2286
 3760SOL    HW212180   6.159   1.194   6.692 -0.2145  0.0734  0.2797
 3761SOL     OW12181   2.799   0.260   6.868 -0.0354  0.3341  0.2084
 3761SOL    HW112182   2.757   0.339   6.824 -0.0878  0.1335 -0.1039
 3761SOL    HW212183   2.897   0.274   6.875  0.2591 -0.4810 -1.7879
 3762SOL     OW12184   2.743   0.675   0.531  0.1065 -0.0160  0.0250
 3762SOL    HW112185   2.824   0.620   0.552 -0.9826 -3.1953 -3.0904
 3762SOL    HW212186   2.771   0.764   0.496  1.9902  1.0507  3.7514
 3763SOL     OW12187   2.866   3.380   0.281 -0.0489 -0.4138  0.2763
 3763SOL    HW112188   2.854   3.456   0.345  2.1522  0.7041 -0.5253
 3763SOL    HW212189   2.962   3.352   0.280 -0.5344 -2.2110 -0.5820
 3764SOL     OW12190   1.585   0.954   6.508  0.0690  0.0352 -0.0853
 3764SOL    HW112191   1.606   0.859   6.486 -1.3939 -0.9981  2.5227
 3764SOL    HW212192   1.543   0.998   6.429  1.1609 -1.3184 -1.4899
 3765SOL     OW12193   2.018   3.345   5.411  0.0809 -0.2443 -0.7148
 3765SOL    HW112194   2.117   3.351   5.422  0.0439 -1.4865  0.6512
 3765SOL    HW212195   1.986   3.258   5.448 -1.8627  1.3611  1.6594
 3766SOL     OW12196   0.950   5.448   1.644  0.5056 -0.0984 -1.1477
 3766SOL    HW112197   0.928   5.474   1.738  1.3041  1.7263 -1.4092
 3766SOL    HW212198   1.018   5.374   1.645  1.7675  1.0128 -0.2152
 3767SOL     OW12199   0.088   4.792   0.405 -0.0743  0.1483 -0.6390
 3767SOL    HW112200   0.008   4.735   0.387  0.1055 -0.6780  1.0304
 3767SOL    HW212201   0.158   4.774   0.336 -0.0688 -1.5739 -0.2123
 3768SOL     OW12202   2.206   1.796   0.470 -0.3150 -0.3748 -0.2028
 3768SOL    HW112203   2.162   1.873   0.516  0.6672  0.6519 -0.9307
 3768SOL    HW212204   2.268   1.750   0.533  1.0562  1.0463 -0.4748
 3769SOL     OW12205   4.215   2.593   0.300  0.1601 -0.0356 -0.0714
 3769SOL    HW112206   4.282   2.568   0.370  0.2191  1.4268  0.4356
 3769SOL    HW212207   4.160   2.670   0.333 -0.3442  0.1608 -1.3202
 3770SOL     OW12208   4.597   5.446   6.911 -0.3367 -0.2506 -0.3034
 3770SOL    HW112209   4.606   5.351   6.883  1.3093 -0.2768  0.2136
 3770SOL    HW212210   4.685   5.492   6.902 -0.4926  0.5622  1.8284
 3771SOL     OW12211   6.522   5.545   0.298  0.2042 -0.4998 -0.2611
 3771SOL    HW112212   6.557   5.513   0.386 -0.4503 -1.6702 -0.4121
 3771SOL    HW212213   6.590   5.527   0.227  0.7199  0.4178 -0.0165
 3772SOL     OW12214   0.197   3.963   1.985  0.1626 -0.1052  0.2747
 3772SOL    HW112215   0.195   4.061   2.005 -1.6897 -0.1421  0.4602
 3772SOL    HW212216   0.126   3.917   2.039  0.0824 -1.3461 -0.8472
 3773SOL     OW12217   2.885   1.877   2.009 -0.2409  0.5057  0.1829
 3773SOL    HW112218   2.951   1.836   1.946  0.6299  2.4235 -0.2230
 3773SOL    HW212219   2.933   1.915   2.088 -1.2642 -1.2865  1.7282
 3774SOL     OW12220   4.023   5.759   5.780  0.0498  0.4329 -0.6552
 3774SOL    HW112221   3.994   5.708   5.861  1.1234  1.4544  0.4244
 3774SOL    HW212222   4.053   5.694   5.709  2.2547 -0.4968  1.0073
 3775SOL     OW12223   4.281   5.062   1.974 -0.0622  0.6699 -0.2482
 3775SOL    HW112224   4.263   5.108   1.887 -2.1724  1.2060  0.4179
 3775SOL    HW212225   4.261   5.125   2.050  0.0021 -0.3581  0.6462
 3776SOL     OW12226   4.761   4.980   5.556 -0.0148  0.5431 -0.1599
 3776SOL    HW112227   4.816   5.063   5.566 -0.4550  0.9045 -0.6780
 3776SOL    HW212228   4.716   4.981   5.466  0.4390 -0.5367 -0.4134
 3777SOL     OW12229   3.376   2.101   0.141 -0.5823  0.4826 -0.2580
 3777SOL    HW112230   3.463   2.121   0.096 -0.7851  1.2820 -0.3017
 3777SOL    HW212231   3.393   2.072   0.235 -0.2318 -0.0120 -0.4681
 3778SOL     OW12232   5.561   1.588   3.881 -0.2796 -0.0790 -0.0378
 3778SOL    HW112233   5.574   1.656   3.809 -0.6087 -0.8487 -0.8398
 3778SOL    HW212234   5.639   1.525   3.881 -0.8031 -0.7459 -0.4745
 3779SOL     OW12235   3.087   4.870   4.478 -0.2269 -0.5760  0.3551
 3779SOL    HW112236   3.181   4.903   4.465 -0.0730 -0.7018  1.1014
 3779SOL    HW212237   3.034   4.889   4.396  0.2703  0.1230  0.1838
 3780SOL     OW12238   1.926   4.700   4.855 -0.3442 -0.1067  0.4779
 3780SOL    HW112239   2.002   4.728   4.914 -0.0188 -0.5998  0.3046
 3780SOL    HW212240   1.920   4.762   4.776 -0.7227  0.4998  0.9743
 3781SOL     OW12241   2.679   3.375   0.088 -0.1143  0.1609 -0.3416
 3781SOL    HW112242   2.602   3.432   0.120  0.1289 -0.3264  1.1872
 3781SOL    HW212243   2.746   3.366   0.162  0.2716 -1.3920 -0.8606
 3782SOL     OW12244   5.592   1.998   3.201  0.2617 -0.4145  0.1172
 3782SOL    HW112245   5.505   1.948   3.206 -1.0329  1.6904  0.4235
 3782SOL    HW212246   5.638   1.994   3.289 -0.0197 -0.7670  0.2496
 3783SOL     OW12247   2.232   2.325   4.936 -0.2907 -0.3919 -0.1277
 3783SOL    HW112248   2.214   2.340   4.838 -1.9739 -1.1186  0.0351
 3783SOL    HW212249   2.173   2.252   4.970 -1.0124  1.0344  1.8524
 3784SOL     OW12250   5.861   3.867   3.093  0.6684 -0.9510 -0.7448
 3784SOL    HW112251   5.850   3.914   3.006  0.0806 -0.3394 -0.3507
 3784SOL    HW212252   5.773   3.829   3.121  1.1209 -2.2532 -1.0275
 3785SOL     OW12253   6.070   6.041   2.507 -0.1255 -0.4066 -0.3180
 3785SOL    HW112254   6.145   6.067   2.446  0.4395 -0.1754  0.4512
 3785SOL    HW212255   6.050   5.944   2.496  0.2030 -0.4396 -0.6267
 3786SOL     OW12256   0.051   5.139   6.286  0.2874  0.6363 -0.5612
 3786SOL    HW112257   0.107   5.178   6.212 -0.6552 -1.0110 -2.2341
 3786SOL    HW212258   0.012   5.214   6.340 -1.3376  2.1522 -3.5307
 3787SOL     OW12259   1.538   0.922   5.721 -0.2759  0.1891  0.3442
 3787SOL    HW112260   1.624   0.933   5.671  0.0496  2.0388  1.2006
 3787SOL    HW212261   1.462   0.926   5.656  0.1711  1.6423 -0.1377
 3788SOL     OW12262   4.233   0.509   0.498 -0.3341 -0.7608  0.0267
 3788SOL    HW112263   4.287   0.471   0.423  2.0311  0.0832  1.2202
 3788SOL    HW212264   4.272   0.480   0.585 -3.0467 -1.7746  1.0468
 3789SOL     OW12265   5.821   1.396   1.117 -0.4909 -0.0707  0.5995
 3789SOL    HW112266   5.900   1.418   1.061 -1.8681 -0.0777 -1.4580
 3789SOL    HW212267   5.815   1.461   1.193 -0.5036  2.2711 -1.2746
 3790SOL     OW12268   1.350   6.533   4.054  0.2805 -0.2285 -0.6769
 3790SOL    HW112269   1.346   6.433   4.050 -0.2803 -0.2106 -0.6543
 3790SOL    HW212270   1.279   6.566   4.117  1.6715  0.0830  0.7916
 3791SOL     OW12271   0.650   5.035   3.932 -0.3443 -0.1271 -0.1939
 3791SOL    HW112272   0.605   4.966   3.876 -3.3384  2.7826 -1.7184
 3791SOL    HW212273   0.603   5.043   4.020  0.9785 -0.9955  0.6319
 3792SOL     OW12274   5.186   4.586   1.357  0.3185  0.6923 -0.5925
 3792SOL    HW112275   5.187   4.686   1.357  2.8804  0.7461 -0.8581
 3792SOL    HW212276   5.097   4.553   1.324 -0.5557  2.8621 -0.5538
 3793SOL     OW12277   2.071   6.540   2.636  0.0321 -0.2478  0.7714
 3793SOL    HW112278   2.103   6.446   2.631  1.0891  0.0984  0.7259
 3793SOL    HW212279   1.975   6.542   2.662 -0.1798 -1.3579  0.1141
 3794SOL     OW12280   0.482   4.686   0.440 -0.3398 -0.4084 -0.0964
 3794SOL    HW112281   0.550   4.759   0.447 -0.1074 -0.4984 -1.3123
 3794SOL    HW212282   0.422   4.689   0.521  1.0476 -0.2942  0.9534
 3795SOL     OW12283   6.372   6.664   4.525 -0.0383  0.1032 -0.5672
 3795SOL    HW112284   6.454   6.665   4.582  0.1651 -2.0488 -0.7450
 3795SOL    HW212285   6.396   6.689   4.431  0.2603  0.2438 -0.4542
 3796SOL     OW12286   4.548   4.430   1.089 -0.1529  0.2716  0.2611
 3796SOL    HW112287   4.452   4.409   1.107  0.3473 -0.9069  1.6835
 3796SOL    HW212288   4.602   4.346   1.091  1.1071  1.0564  0.7204
 3797SOL     OW12289   1.525   6.288   3.582  0.4480  0.1407 -0.2902
 3797SOL    HW112290   1.512   6.295   3.484 -1.0925  0.1970 -0.1147
 3797SOL    HW212291   1.550   6.377   3.620  0.9891  0.1291 -0.6240
 3798SOL     OW12292   5.859   2.488   6.696  0.3918  0.2055  0.1039
 3798SOL    HW112293   5.816   2.574   6.721  2.0040  0.9316  0.5217
 3798SOL    HW212294   5.927   2.504   6.624 -2.2455 -1.4199 -3.0182
 3799SOL     OW12295   3.858   1.912   5.564 -0.0048 -0.3714  0.3435
 3799SOL    HW112296   3.776   1.855   5.571  0.0795 -0.3786  1.4638
 3799SOL    HW212297   3.931   1.860   5.521  0.2042 -1.2932  1.7471
 3800SOL     OW12298   5.953   1.483   5.295  0.1242 -0.4970 -0.9758
 3800SOL    HW112299   6.020   1.527   5.236 -0.2725  1.7168  0.0874
 3800SOL    HW212300   5.862   1.520   5.276 -0.3899 -1.5294 -0.6283
 3801SOL     OW12301   5.782   2.232   6.616  0.0366 -0.1211 -0.3583
 3801SOL    HW112302   5.825   2.308   6.664 -1.1988 -0.1136  0.7892
 3801SOL    HW212303   5.741   2.266   6.531  1.2367  0.0830 -0.8808
 3802SOL     OW12304   1.092   1.281   4.424  0.0297  0.4467 -0.2124
 3802SOL    HW112305   1.137   1.369   4.406  1.0330 -0.1204 -0.5760
 3802SOL    HW212306   1.150   1.207   4.389 -1.0897 -0.3292 -0.4711
 3803SOL     OW12307   0.174   5.976   3.338  0.2712  0.2558 -0.1632
 3803SOL    HW112308   0.094   5.991   3.280  1.2591 -1.5656 -2.0885
 3803SOL    HW212309   0.254   6.019   3.297  0.8585 -0.4463  0.2193
 3804SOL     OW12310   0.223   4.407   4.946 -0.6163 -0.3227 -0.3329
 3804SOL    HW112311   0.281   4.468   4.893 -1.4669 -0.1012 -1.0282
 3804SOL    HW212312   0.277   4.328   4.976  0.4037  0.5983  0.2977
 3805SOL     OW12313   0.125   4.297   3.369  0.1867 -0.2361  0.2959
 3805SOL    HW112314   0.094   4.333   3.281  1.3954  0.2378  0.0394
 3805SOL    HW212315   0.067   4.220   3.396 -3.4125  2.6103  1.5396
 3806SOL     OW12316   4.348   1.497   0.724 -0.4334  0.2353  0.0103
 3806SOL    HW112317   4.353   1.513   0.822  0.0673 -0.3283  0.0780
 3806SOL    HW212318   4.380   1.405   0.703 -4.4466 -1.2945 -0.2208
 3807SOL     OW12319   2.927   6.785   6.022  0.1605  0.6226  0.0493
 3807SOL    HW112320   2.832   6.756   6.038  0.1151 -0.7246 -2.2656
 3807SOL    HW212321   2.927   6.877   5.983 -0.5702 -0.7442 -3.5174
 3808SOL     OW12322   1.081   0.999   1.396 -0.7672 -0.1875 -0.0592
 3808SOL    HW112323   1.080   0.934   1.319 -0.6387 -0.0419 -0.1845
 3808SOL    HW212324   1.108   1.089   1.363 -0.9610 -0.0661  0.1132
 3809SOL     OW12325   0.513   5.748   1.943 -0.0220 -0.5690 -0.1290
 3809SOL    HW112326   0.579   5.678   1.915  0.3357  0.0477 -0.8674
 3809SOL    HW212327   0.558   5.837   1.947 -0.6923 -0.2196 -0.1463
 3810SOL     OW12328   4.545   4.730   3.016 -0.1842  0.0097  0.1325
 3810SOL    HW112329   4.468   4.793   3.028  0.4204  1.1551 -1.5552
 3810SOL    HW212330   4.550   4.702   2.920  0.4381 -1.4960  0.5790
 3811SOL     OW12331   6.368   5.695   0.716  0.1792 -0.4308 -0.2542
 3811SOL    HW112332   6.350   5.596   0.716 -1.1244 -0.2194  0.3176
 3811SOL    HW212333   6.383   5.726   0.622 -4.0103 -0.4706 -1.1529
 3812SOL     OW12334   3.567   5.288   6.733  0.0456 -0.0977  0.0793
 3812SOL    HW112335   3.477   5.266   6.769  0.1648 -0.5785  0.0897
 3812SOL    HW212336   3.559   5.323   6.639 -0.1976  0.4249  0.2890
 3813SOL     OW12337   3.202   3.716   2.875  0.2395 -0.6432 -0.2926
 3813SOL    HW112338   3.201   3.740   2.972  1.0372 -3.3535  0.4599
 3813SOL    HW212339   3.109   3.717   2.839  0.0288  1.4569  0.1363
 3814SOL     OW12340   6.704   6.149   0.480  0.4060 -0.3946 -0.2134
 3814SOL    HW112341   6.730   6.113   0.570  1.2232 -0.6971 -0.5574
 3814SOL    HW212342   6.634   6.219   0.491 -0.4792 -1.3768  0.5554
 3815SOL     OW12343   4.798   3.971   3.720 -0.5618  0.4913 -0.0365
 3815SOL    HW112344   4.782   4.046   3.784  0.3376  0.1722  0.5777
 3815SOL    HW212345   4.878   3.991   3.663  0.5080 -0.5438  1.0287
 3816SOL     OW12346   6.297   0.107   1.618  0.2869  0.1235 -0.5857
 3816SOL    HW112347   6.300   0.116   1.518  1.4531 -0.0131 -0.5753
 3816SOL    HW212348   6.260   0.018   1.642  1.9845 -0.7193 -0.9546
 3817SOL     OW12349   1.393   5.805   4.009 -0.4839  0.1721 -0.1675
 3817SOL    HW112350   1.330   5.882   4.003  1.1010  1.5918  0.3317
 3817SOL    HW212351   1.487   5.839   4.004  0.2870 -1.9929 -2.5277
 3818SOL     OW12352   4.775   5.501   5.291 -0.5027 -0.0204  0.2678
 3818SOL    HW112353   4.706   5.433   5.264 -0.8504  0.6679 -0.6042
 3818SOL    HW212354   4.830   5.526   5.212  0.4973 -0.2482  0.8699
 3819SOL     OW12355   2.308   2.684   3.399 -0.1407  0.2075 -0.2500
 3819SOL    HW112356   2.326   2.682   3.300 -0.5487 -0.8077 -0.3120
 3819SOL    HW212357   2.323   2.593   3.437 -3.8852 -0.4971 -0.0925
 3820SOL     OW12358   2.480   4.843   1.905 -0.0309  0.4988  0.3873
 3820SOL    HW112359   2.492   4.745   1.889 -0.4792  0.5904 -0.5865
 3820SOL    HW212360   2.472   4.860   2.003 -1.0011 -0.5731  0.5175
 3821SOL     OW12361   5.317   2.289   3.158  0.3257 -0.0931 -0.0503
 3821SOL    HW112362   5.266   2.325   3.235 -1.3763 -0.1805 -1.0959
 3821SOL    HW212363   5.271   2.209   3.121  1.4195 -0.4068 -0.8077
 3822SOL     OW12364   6.982   1.121   5.162  0.3449 -0.9692  0.0260
 3822SOL    HW112365   6.926   1.073   5.230  0.0123 -0.4916  0.0974
 3822SOL    HW212366   7.078   1.117   5.190  0.1939 -0.6349  0.6208
 3823SOL     OW12367   4.971   0.070   1.866 -0.4525 -0.3784  0.5370
 3823SOL    HW112368   5.002   0.113   1.782 -0.0353 -2.0032 -0.1759
 3823SOL    HW212369   4.883   0.024   1.850  0.4109 -2.0854  0.5010
 3824SOL     OW12370   0.078   2.913   4.847 -0.2814 -0.1301 -0.3328
 3824SOL    HW112371  -0.002   2.859   4.823 -0.6024 -0.3386  1.0966
 3824SOL    HW212372   0.160   2.871   4.807 -0.8682  0.1714 -1.9341
 3825SOL     OW12373   3.168   4.991   3.901 -0.1500  0.1548 -0.1769
 3825SOL    HW112374   3.240   4.966   3.835 -0.8239  0.5465 -1.0808
 3825SOL    HW212375   3.179   4.936   3.984  1.6699  0.7741  0.0316
 3826SOL     OW12376   1.025   0.681   1.596  0.2614 -0.3618  0.2045
 3826SOL    HW112377   1.065   0.595   1.565  0.0549  0.0994 -1.4452
 3826SOL    HW212378   0.971   0.721   1.522 -2.2896 -0.3575  1.9506
 3827SOL     OW12379   4.992   6.423   3.239 -0.3575 -0.0145  0.0376
 3827SOL    HW112380   5.070   6.381   3.193 -0.0389 -0.4764  0.9680
 3827SOL    HW212381   5.010   6.427   3.338 -0.0635  2.9722 -0.0631
 3828SOL     OW12382   6.688   3.037   3.033  0.0145 -0.2251 -0.5714
 3828SOL    HW112383   6.613   3.027   2.968  0.8210  0.8683 -1.7182
 3828SOL    HW212384   6.708   3.134   3.047  0.5642 -0.4704  0.5030
 3829SOL     OW12385   0.743   2.352   1.114  0.5568  0.2070  0.4245
 3829SOL    HW112386   0.836   2.351   1.153  0.1044  0.0356  1.5347
 3829SOL    HW212387   0.728   2.438   1.065  1.9736 -0.5549 -1.5013
 3830SOL     OW12388   6.897   3.322   4.882  0.5861 -0.0587 -0.1235
 3830SOL    HW112389   6.967   3.266   4.839 -0.8284 -3.0013  1.0933
 3830SOL    HW212390   6.816   3.325   4.824  0.4507  0.2359  0.0774
 3831SOL     OW12391   0.314   0.783   3.843  0.7765  0.0591  0.2357
 3831SOL    HW112392   0.305   0.882   3.831  0.1579 -0.0217 -0.0475
 3831SOL    HW212393   0.245   0.751   3.908 -0.3294 -0.4410 -1.1246
 3832SOL     OW12394   0.175   2.780   2.513 -0.5208  0.0977 -0.3239
 3832SOL    HW112395   0.265   2.759   2.551 -0.8650 -2.5652 -0.7804
 3832SOL    HW212396   0.175   2.763   2.415 -1.6107 -0.2892 -0.2689
 3833SOL     OW12397   5.961   1.687   4.343  0.2551  0.1687  0.3656
 3833SOL    HW112398   5.913   1.719   4.425 -0.8684  1.2455 -0.6604
 3833SOL    HW212399   5.921   1.601   4.312  1.3241 -0.7697  1.4457
 3834SOL     OW12400   0.428   4.569   5.309 -0.5091  0.3683 -0.4779
 3834SOL    HW112401   0.335   4.539   5.291  0.0029 -0.6386 -1.6062
 3834SOL    HW212402   0.427   4.652   5.363 -2.0608  0.5360 -0.7346
 3835SOL     OW12403   1.520   5.451   1.927 -0.0434 -0.0596  0.0387
 3835SOL    HW112404   1.583   5.415   1.996 -1.6228 -0.8297  1.1260
 3835SOL    HW212405   1.464   5.377   1.890 -1.2648  0.7977  0.1100
 3836SOL     OW12406   3.372   0.631   6.570 -0.2035 -0.1050 -0.2611
 3836SOL    HW112407   3.317   0.714   6.570 -1.0432 -0.6326  0.9641
 3836SOL    HW212408   3.469   0.654   6.563 -0.2646  1.1242  2.2507
 3837SOL     OW12409   4.119   2.225   1.754 -0.3082  0.8814  0.2164
 3837SOL    HW112410   4.181   2.236   1.832  1.0860 -1.7767 -0.3914
 3837SOL    HW212411   4.051   2.156   1.776 -1.3568  1.7721 -0.1470
 3838SOL     OW12412   3.112   1.459   0.612  0.1784 -0.4586  0.1777
 3838SOL    HW112413   3.036   1.476   0.550  0.8879  0.9722 -0.3435
 3838SOL    HW212414   3.100   1.370   0.656 -2.1458  0.0245  0.6438
 3839SOL     OW12415   1.280   4.471   2.567 -0.0721 -0.2839 -0.5619
 3839SOL    HW112416   1.212   4.522   2.514 -1.8386 -0.1503  1.6830
 3839SOL    HW212417   1.255   4.375   2.571 -0.8781 -0.0322  1.2905
 3840SOL     OW12418   2.683   6.477   5.363  0.2823  0.1284  0.4012
 3840SOL    HW112419   2.770   6.438   5.392  0.8276  0.3020 -0.9101
 3840SOL    HW212420   2.672   6.569   5.402  1.9686  1.2168 -1.5000
 3841SOL     OW12421   2.539   4.090   0.345  0.0760  0.2568 -0.1066
 3841SOL    HW112422   2.611   4.020   0.343 -0.7513 -0.6387  0.8607
 3841SOL    HW212423   2.481   4.079   0.264 -0.6482 -0.8495  0.5324
 3842SOL     OW12424   2.596   5.883   1.491  0.0755 -0.2124  0.2797
 3842SOL    HW112425   2.665   5.812   1.479 -0.2538 -0.1788 -2.2899
 3842SOL    HW212426   2.506   5.841   1.505  0.0019 -0.3050 -0.4533
 3843SOL     OW12427   6.799   5.867   5.040 -0.7516 -0.7648 -0.1933
 3843SOL    HW112428   6.874   5.812   5.077  1.3771  0.8534 -1.7768
 3843SOL    HW212429   6.742   5.901   5.114  0.1700 -1.9518  1.0923
 3844SOL     OW12430   3.394   4.438   5.786  0.5185 -0.3999 -0.2424
 3844SOL    HW112431   3.412   4.521   5.734  1.0627 -1.7285 -2.3221
 3844SOL    HW212432   3.432   4.447   5.878 -0.1953  1.9304 -0.1205
 3845SOL     OW12433   6.846   1.116   2.975  0.2275 -0.2113  0.0379
 3845SOL    HW112434   6.921   1.062   3.014 -0.2596 -1.3903 -0.6044
 3845SOL    HW212435   6.787   1.148   3.048  0.6869 -0.2950  0.4555
 3846SOL     OW12436   0.116   6.758   3.878  0.0428  0.2723  0.9908
 3846SOL    HW112437   0.094   6.856   3.882  1.2841  0.5342  2.7760
 3846SOL    HW212438   0.214   6.747   3.864 -0.2858 -0.7772 -0.7802
 3847SOL     OW12439   5.035   5.028   1.737 -0.6340 -0.2011 -0.4486
 3847SOL    HW112440   5.109   5.085   1.772 -1.4319  0.1429  0.7565
 3847SOL    HW212441   4.970   5.086   1.687 -0.5982 -0.3309 -0.6447
 3848SOL     OW12442   0.366   3.821   6.679 -0.1728  0.1012 -0.6071
 3848SOL    HW112443   0.347   3.908   6.634  1.4864  1.4583  1.1393
 3848SOL    HW212444   0.449   3.830   6.735 -0.4999 -2.3318  0.3849
 3849SOL     OW12445   6.421   5.552   5.634  0.3622 -0.3183  0.2489
 3849SOL    HW112446   6.448   5.629   5.692 -0.3419  1.7330 -1.9896
 3849SOL    HW212447   6.350   5.582   5.570 -2.0031 -3.5868  1.0663
 3850SOL     OW12448   5.594   6.016   2.454  0.4203 -0.2491  0.5331
 3850SOL    HW112449   5.502   6.056   2.449  0.9416  0.8336 -1.7235
 3850SOL    HW212450   5.645   6.060   2.528 -0.2423  0.6399  0.4870
 3851SOL     OW12451   6.506   6.513   2.874  0.4990  0.1416 -0.3039
 3851SOL    HW112452   6.494   6.480   2.968  1.0385 -1.8715 -0.8848
 3851SOL    HW212453   6.426   6.566   2.847 -1.4744 -2.4313  0.0638
 3852SOL     OW12454   6.735   1.886   1.946 -0.0098  0.5067 -0.4888
 3852SOL    HW112455   6.773   1.794   1.938  0.0769  0.6044 -1.4084
 3852SOL    HW212456   6.654   1.893   1.888 -0.3468  0.8445  0.0222
 3853SOL     OW12457   5.721   1.049   4.912 -0.4627  0.0326 -0.3605
 3853SOL    HW112458   5.649   1.006   4.857 -2.0460  0.3669  1.3464
 3853SOL    HW212459   5.758   0.983   4.977  0.4390  0.0125 -0.8703
 3854SOL     OW12460   2.506   5.987   4.296 -0.3611  0.1985 -0.1781
 3854SOL    HW112461   2.604   5.999   4.275 -0.2002  0.6733  0.7874
 3854SOL    HW212462   2.463   6.076   4.307 -0.8394 -0.0158 -0.2724
 3855SOL     OW12463   0.572   2.571   1.000 -0.0726  0.2225  0.1613
 3855SOL    HW112464   0.473   2.558   1.006  0.1251 -1.1638  0.8807
 3855SOL    HW212465   0.608   2.514   0.927  0.3419 -0.2377  0.7178
 3856SOL     OW12466   3.310   6.522   5.280 -0.2945  0.0370 -0.1269
 3856SOL    HW112467   3.380   6.482   5.340  0.4566 -0.0856 -1.0704
 3856SOL    HW212468   3.341   6.613   5.250 -1.5180  0.9200  1.1678
 3857SOL     OW12469   4.776   6.398   5.513  0.1032 -0.8860  0.5941
 3857SOL    HW112470   4.770   6.299   5.524 -1.0581 -1.3402 -2.9002
 3857SOL    HW212471   4.872   6.425   5.506  0.4290 -2.3714 -1.9066
 3858SOL     OW12472   5.133   2.295   2.215  0.2228  0.0543  0.5004
 3858SOL    HW112473   5.112   2.230   2.142 -0.4503  0.2344  0.5204
 3858SOL    HW212474   5.161   2.382   2.174 -1.7843  0.7067  0.3749
 3859SOL     OW12475   6.137   4.546   5.606  0.7036  0.1794 -0.4475
 3859SOL    HW112476   6.196   4.509   5.534  1.0782 -0.5403  0.2115
 3859SOL    HW212477   6.193   4.576   5.683  0.3388  1.3907 -0.6339
 3860SOL     OW12478   0.863   5.999   3.508  0.1692 -0.5157 -0.1960
 3860SOL    HW112479   0.935   6.062   3.480 -1.7843  2.4255  0.9736
 3860SOL    HW212480   0.882   5.966   3.601  1.3815 -2.1032 -0.9440
 3861SOL     OW12481   1.839   5.620   5.819  0.0014  0.6598 -0.0383
 3861SOL    HW112482   1.742   5.645   5.825 -0.7852 -1.3401 -2.2484
 3861SOL    HW212483   1.859   5.592   5.725  1.7067 -2.6558  1.1577
 3862SOL     OW12484   5.501   0.058   3.231 -0.4887 -0.6359 -0.1205
 3862SOL    HW112485   5.594   0.047   3.263 -1.6177  0.5726  4.2025
 3862SOL    HW212486   5.486   0.153   3.202 -0.5054 -0.7198 -0.3920
 3863SOL     OW12487   0.299   4.300   6.441 -0.1801 -0.1157  0.1411
 3863SOL    HW112488   0.334   4.354   6.365  0.3954 -0.0151  0.4699
 3863SOL    HW212489   0.260   4.361   6.510 -0.5589 -0.1969  0.0024
 3864SOL     OW12490   6.545   1.214   2.673  0.3019 -0.1423  0.0121
 3864SOL    HW112491   6.493   1.150   2.730  0.1952  0.6414  0.8162
 3864SOL    HW212492   6.482   1.261   2.610 -0.6450  3.0384  3.0153
 3865SOL     OW12493   5.236   1.710   2.948  0.1955  0.2804 -0.2625
 3865SOL    HW112494   5.263   1.619   2.917  0.4420  0.0932  0.4728
 3865SOL    HW212495   5.280   1.780   2.892  0.2804 -0.0497 -0.6079
 3866SOL     OW12496   3.977   6.334   4.347  0.0021  0.0345 -0.5974
 3866SOL    HW112497   4.036   6.337   4.428  1.3046  1.0710 -1.5555
 3866SOL    HW212498   4.030   6.357   4.266 -1.6925  0.8002 -1.5270
 3867SOL     OW12499   4.199   2.091   5.385 -0.0254 -0.4537  0.3997
 3867SOL    HW112500   4.111   2.052   5.357 -0.7331  1.6699 -0.5728
 3867SOL    HW212501   4.191   2.191   5.390  1.6605 -0.3632  2.8589
 3868SOL     OW12502   0.107   3.258   3.589 -0.0068 -0.2158  0.1404
 3868SOL    HW112503   0.090   3.170   3.632  0.5246  0.0934  1.0011
 3868SOL    HW212504   0.204   3.281   3.596 -0.3894  1.1984  1.4528
 3869SOL     OW12505   3.589   5.075   1.942  0.6290 -0.4171  0.0685
 3869SOL    HW112506   3.613   5.111   2.033  2.2200  0.2817 -0.5932
 3869SOL    HW212507   3.565   5.151   1.882  1.0886 -0.7411 -0.5240
 3870SOL     OW12508   3.743   2.455   0.886 -0.0711  0.0154 -0.0089
 3870SOL    HW112509   3.730   2.550   0.915  3.6239  1.0122 -1.0878
 3870SOL    HW212510   3.686   2.436   0.807 -0.2475  1.6495 -0.3158
 3871SOL     OW12511   6.322   6.202   4.148 -0.0407 -0.0401  0.1531
 3871SOL    HW112512   6.241   6.142   4.149  0.9064 -1.3631  1.3117
 3871SOL    HW212513   6.345   6.226   4.054 -1.5314  0.0336 -0.2213
 3872SOL     OW12514   2.891   5.987   4.927  0.3526  0.2289  0.6312
 3872SOL    HW112515   2.920   5.983   4.831 -0.4577  1.9908  0.2575
 3872SOL    HW212516   2.807   5.935   4.939 -0.8465  1.8550 -0.2042
 3873SOL     OW12517   4.031   0.476   2.873  0.0307 -0.1690  0.1954
 3873SOL    HW112518   3.965   0.466   2.798  0.5275  0.6989 -0.3691
 3873SOL    HW212519   4.111   0.419   2.854 -0.1765 -0.5407  0.4427
 3874SOL     OW12520   3.630   3.680   6.057  0.1493 -0.3074  0.2115
 3874SOL    HW112521   3.668   3.634   5.978  0.7006  0.8458 -0.2207
 3874SOL    HW212522   3.548   3.631   6.088  0.5613 -1.3983 -0.3718
 3875SOL     OW12523   2.452   5.574   4.092  0.0408  0.0786 -0.1185
 3875SOL    HW112524   2.520   5.535   4.154 -0.1259 -1.5214 -0.8925
 3875SOL    HW212525   2.497   5.609   4.010 -0.0128 -0.3804 -0.3416
 3876SOL     OW12526   5.200   3.359   5.376 -0.1815  0.8890 -0.1878
 3876SOL    HW112527   5.134   3.315   5.316  0.0163  1.1317 -0.5854
 3876SOL    HW212528   5.156   3.434   5.426 -0.9336 -0.6908  1.6536
 3877SOL     OW12529   2.795   6.797   2.049 -0.3318 -0.3168  0.2494
 3877SOL    HW112530   2.752   6.859   1.984 -0.4561 -0.5130  0.1393
 3877SOL    HW212531   2.750   6.707   2.043  0.6187 -0.7651 -0.4408
 3878SOL     OW12532   4.901   6.576   1.437  0.1709  0.7403  0.0239
 3878SOL    HW112533   4.891   6.532   1.527 -0.5536 -0.3232 -0.5591
 3878SOL    HW212534   4.971   6.647   1.443  0.3528  0.4850  1.3537
 3879SOL     OW12535   6.925   1.307   4.303 -0.2202  0.0414 -0.2715
 3879SOL    HW112536   6.991   1.244   4.345  1.0702  0.9294 -0.8788
 3879SOL    HW212537   6.835   1.265   4.300  0.5993 -1.7625 -0.6322
 3880SOL     OW12538   6.680   6.526   6.750 -0.0815  0.5242 -0.4573
 3880SOL    HW112539   6.622   6.543   6.670 -0.7489 -0.1859 -0.1280
 3880SOL    HW212540   6.772   6.561   6.731 -0.2873  0.5697 -1.4479
 3881SOL     OW12541   4.961   5.214   0.798  0.2568 -0.6309 -0.0941
 3881SOL    HW112542   4.902   5.192   0.876 -1.7608  2.0708 -0.6795
 3881SOL    HW212543   4.931   5.162   0.718 -0.4202 -0.3413 -0.0370
 3882SOL     OW12544   1.792   0.880   1.928 -0.2467  0.6554 -0.4711
 3882SOL    HW112545   1.841   0.816   1.868 -0.9373  0.0198 -0.3733
 3882SOL    HW212546   1.839   0.887   2.016 -0.4603 -0.1586 -0.2816
 3883SOL     OW12547   6.791   0.492   0.515  0.4453 -0.1734 -0.6491
 3883SOL    HW112548   6.889   0.483   0.534  0.3992  0.8790  0.1612
 3883SOL    HW212549   6.740   0.484   0.600 -0.1717 -0.5040 -1.0416
 3884SOL     OW12550   5.380   3.584   6.054 -0.8608  0.3954 -0.0769
 3884SOL    HW112551   5.326   3.650   6.002 -2.3250  1.0100  2.0807
 3884SOL    HW212552   5.435   3.632   6.122 -0.8394 -0.5350  0.5757
 3885SOL     OW12553   3.864   5.699   2.525  0.3400 -0.4386  0.1718
 3885SOL    HW112554   3.883   5.712   2.622  1.6954 -0.7257 -0.0288
 3885SOL    HW212555   3.809   5.775   2.491  0.2636 -0.0915  1.0593
 3886SOL     OW12556   4.929   4.208   5.261  0.3618  0.1900  0.1485
 3886SOL    HW112557   4.938   4.113   5.231  0.0260  0.2356 -0.1078
 3886SOL    HW212558   4.923   4.211   5.361  0.4549 -0.0536  0.1622
 3887SOL     OW12559   5.715   0.932   3.145 -0.2973 -0.5090  0.1175
 3887SOL    HW112560   5.663   0.966   3.224 -1.4228 -0.3729 -0.6509
 3887SOL    HW212561   5.794   0.880   3.177 -0.1845  0.3734  1.3252
 3888SOL     OW12562   3.887   5.213   3.690  0.7874 -0.3269  0.4691
 3888SOL    HW112563   3.851   5.276   3.759 -0.8899 -0.6543 -0.0675
 3888SOL    HW212564   3.836   5.127   3.693  0.8358 -0.4348 -1.0315
 3889SOL     OW12565   1.469   5.172   0.834  0.4052 -0.0133  0.8088
 3889SOL    HW112566   1.557   5.128   0.814 -1.1452 -3.9570  1.7033
 3889SOL    HW212567   1.440   5.148   0.927 -0.1967  4.0391  1.8717
 3890SOL     OW12568   3.321   6.584   2.459  0.5504  0.0709  0.1308
 3890SOL    HW112569   3.331   6.528   2.541  2.1572 -0.8580 -0.6459
 3890SOL    HW212570   3.281   6.530   2.385  1.2875  0.1756 -0.3633
 3891SOL     OW12571   3.347   5.961   4.289  0.0975  0.4397  0.5700
 3891SOL    HW112572   3.382   5.939   4.198 -0.6377  0.9396  0.1559
 3891SOL    HW212573   3.381   6.051   4.318 -0.2597  0.6079  0.4720
 3892SOL     OW12574   2.910   5.499   3.133  0.0099 -0.1267  0.0891
 3892SOL    HW112575   3.001   5.533   3.107  0.0144 -0.4690 -0.3510
 3892SOL    HW212576   2.842   5.568   3.110  0.0899 -0.1348 -0.1757
 3893SOL     OW12577   0.176   0.112   1.155  0.3967  0.3208 -0.2491
 3893SOL    HW112578   0.114   0.183   1.123  0.1514  1.5570  2.6375
 3893SOL    HW212579   0.153   0.025   1.112 -3.0936  0.8236  0.3675
 3894SOL     OW12580   0.212   5.425   1.370  0.0283 -0.0554  0.1256
 3894SOL    HW112581   0.207   5.516   1.328 -1.3729 -0.5648 -0.8639
 3894SOL    HW212582   0.304   5.388   1.357 -0.1362  0.1413 -1.7928
 3895SOL     OW12583   4.068   6.234   4.055  0.5393  0.2985  0.4422
 3895SOL    HW112584   4.067   6.220   3.956 -0.4044 -0.0252  0.4853
 3895SOL    HW212585   4.134   6.171   4.097  0.6459  0.1527  0.0612
 3896SOL     OW12586   3.168   0.296   0.016 -0.0459 -0.2725 -0.2388
 3896SOL    HW112587   3.170   0.274   0.114  0.5667 -0.3510 -0.2652
 3896SOL    HW212588   3.124   0.384   0.002 -0.6831 -0.5383  0.0542
 3897SOL     OW12589   6.661   2.588   1.232 -0.5330  0.4677 -0.1024
 3897SOL    HW112590   6.709   2.510   1.190  0.0115 -0.1282  1.5634
 3897SOL    HW212591   6.619   2.559   1.318 -1.7537  1.6256 -0.2837
 3898SOL     OW12592   0.127   3.189   4.372 -0.4100 -0.2139 -0.1167
 3898SOL    HW112593   0.072   3.242   4.436  1.3059  0.5554  0.8059
 3898SOL    HW212594   0.194   3.134   4.422 -1.6367 -2.7604 -1.0936
 3899SOL     OW12595   6.170   4.950   3.640  0.0075 -0.6268 -0.0719
 3899SOL    HW112596   6.112   4.879   3.678  0.5584 -1.0348  0.0212
 3899SOL    HW212597   6.113   5.020   3.597 -0.5761 -0.6899  0.5803
 3900SOL     OW12598   5.162   4.366   6.994  0.0856  0.1929  0.2548
 3900SOL    HW112599   5.170   4.411   7.083  1.2613  0.5263  0.0025
 3900SOL    HW212600   5.159   4.435   6.922 -0.3458 -0.0849  0.0061
 3901SOL     OW12601   6.788   2.310   0.161 -0.4274  0.2764  0.5604
 3901SOL    HW112602   6.859   2.372   0.128 -0.2528  0.2739  0.9237
 3901SOL    HW212603   6.702   2.359   0.169 -0.3052  0.4553  0.7809
 3902SOL     OW12604   1.124   4.956   2.710  0.4449  0.1512 -0.0857
 3902SOL    HW112605   1.029   4.925   2.716  0.0633  1.3589  0.5237
 3902SOL    HW212606   1.155   4.954   2.615  0.0035 -0.8103 -0.2106
 3903SOL     OW12607   4.734   3.777   0.403  0.3787  0.3778  0.1256
 3903SOL    HW112608   4.778   3.845   0.461  0.8257 -0.4987  0.8456
 3903SOL    HW212609   4.640   3.763   0.433  0.2342  0.7774 -0.1251
 3904SOL     OW12610   5.322   0.450   1.117 -0.0836 -0.3391 -0.1774
 3904SOL    HW112611   5.300   0.518   1.047 -2.0348  0.3966  1.0526
 3904SOL    HW212612   5.295   0.359   1.084 -1.9122  0.1216 -0.0564
 3905SOL     OW12613   2.535   2.483   2.950  0.3989  0.0979  0.3422
 3905SOL    HW112614   2.601   2.453   2.882 -0.2230 -1.9619  0.5607
 3905SOL    HW212615   2.540   2.423   3.030  0.2676  1.7052  1.6127
 3906SOL     OW12616   2.817   1.040   1.562  0.2362 -0.0886 -0.3199
 3906SOL    HW112617   2.798   1.026   1.465  1.1829  0.5813 -0.6209
 3906SOL    HW212618   2.797   0.956   1.613  1.6638 -1.1206 -1.4011
 3907SOL     OW12619   4.160   5.514   3.465  0.5795 -0.0681  0.3351
 3907SOL    HW112620   4.097   5.454   3.514 -0.4380  0.5629 -0.1602
 3907SOL    HW212621   4.108   5.571   3.401  2.0430 -2.2725 -3.0391
 3908SOL     OW12622   3.221   6.338   1.452 -0.0609 -0.1448 -0.2469
 3908SOL    HW112623   3.132   6.295   1.470 -0.0577 -0.3715 -0.7457
 3908SOL    HW212624   3.216   6.435   1.473 -1.1965  0.3806 -2.6140
 3909SOL     OW12625   4.818   0.818   6.167  0.2695  0.5279  0.4325
 3909SOL    HW112626   4.885   0.890   6.189  1.1637 -0.3538  0.6309
 3909SOL    HW212627   4.859   0.728   6.181 -0.0247 -0.0942 -2.1547
 3910SOL     OW12628   4.008   3.800   6.360  0.2188  0.3355  0.8702
 3910SOL    HW112629   4.050   3.870   6.303 -1.6600 -0.1789 -1.2693
 3910SOL    HW212630   4.006   3.831   6.455  0.5106  2.6608  0.1713
 3911SOL     OW12631   5.203   5.075   5.324 -0.0646 -0.0291  0.2024
 3911SOL    HW112632   5.271   5.103   5.391  0.8235  0.8887 -1.0456
 3911SOL    HW212633   5.124   5.137   5.328  0.0465  0.1059  0.3061
 3912SOL     OW12634   3.852   3.280   3.591 -1.0865 -0.8837 -0.9178
 3912SOL    HW112635   3.943   3.288   3.634 -0.3028 -1.2775 -2.4274
 3912SOL    HW212636   3.825   3.184   3.589 -1.4497 -0.7885 -0.6633
 3913SOL     OW12637   3.623   1.207   3.169 -0.6227 -0.5313 -0.8557
 3913SOL    HW112638   3.564   1.269   3.222 -1.2921 -0.1494 -1.9949
 3913SOL    HW212639   3.688   1.163   3.229 -0.7956  0.5348  0.1466
 3914SOL     OW12640   4.669   6.985   4.857  0.3525  0.1119  0.7835
 3914SOL    HW112641   4.710   6.893   4.859 -1.3938 -0.7490 -0.5692
 3914SOL    HW212642   4.695   7.031   4.773  3.0888  1.8621  2.4257
 3915SOL     OW12643   3.511   3.156   0.643 -0.3117  0.1076  0.6259
 3915SOL    HW112644   3.565   3.208   0.709  0.5141  0.1802 -0.0850
 3915SOL    HW212645   3.502   3.210   0.559 -2.5538  0.6261  1.1406
 3916SOL     OW12646   5.524   2.214   4.119 -0.1442 -0.0246 -0.3209
 3916SOL    HW112647   5.435   2.259   4.129  0.0137  0.2906 -0.3240
 3916SOL    HW212648   5.581   2.237   4.198 -0.0264 -0.1365 -0.3751
 3917SOL     OW12649   2.782   6.660   6.295  0.1430 -0.2033 -0.0945
 3917SOL    HW112650   2.868   6.616   6.319  1.0620  1.2088 -0.6978
 3917SOL    HW212651   2.752   6.717   6.372 -0.2611 -0.6612  0.0994
 3918SOL     OW12652   4.762   5.628   0.173 -0.3492 -0.4285 -0.5457
 3918SOL    HW112653   4.695   5.674   0.231  0.3305 -0.8245  0.5864
 3918SOL    HW212654   4.761   5.529   0.192  0.0332 -0.5397 -1.0680
 3919SOL     OW12655   1.263   4.866   4.122 -0.7750 -0.7532 -0.0412
 3919SOL    HW112656   1.243   4.851   4.026 -0.1002  0.1038 -0.3365
 3919SOL    HW212657   1.325   4.945   4.131 -1.9860  0.0991  1.1914
 3920SOL     OW12658   0.950   4.524   1.078 -0.1556  0.3667 -0.2760
 3920SOL    HW112659   0.989   4.523   0.985 -2.0786  1.2754 -1.1516
 3920SOL    HW212660   0.945   4.618   1.111  1.7573 -0.0347  1.3789
 3921SOL     OW12661   1.132   1.595   0.133  0.2111  0.1366  0.0683
 3921SOL    HW112662   1.169   1.507   0.163  0.3973  0.5149  0.9825
 3921SOL    HW212663   1.184   1.669   0.176  0.0302  0.6958 -0.6573
 3922SOL     OW12664   1.615   4.934   4.076 -0.3810  0.0904  0.1272
 3922SOL    HW112665   1.546   5.004   4.097  0.7778  1.3290 -0.0870
 3922SOL    HW212666   1.661   4.957   3.990  0.1105 -0.8755  0.1236
 3923SOL     OW12667   5.958   0.267   2.707 -0.4465  0.6979 -0.8783
 3923SOL    HW112668   6.048   0.307   2.721 -0.1475 -0.2832  0.0552
 3923SOL    HW212669   5.957   0.215   2.621  0.3427 -0.5426 -0.1579
 3924SOL     OW12670   0.771   1.192   5.508  0.1454 -0.1103 -0.1444
 3924SOL    HW112671   0.828   1.245   5.445  0.6776 -0.5087 -0.0057
 3924SOL    HW212672   0.819   1.182   5.595  0.6894 -1.9855 -0.6087
 3925SOL     OW12673   0.178   6.434   4.969 -0.1480  0.1140  0.5347
 3925SOL    HW112674   0.235   6.352   4.968 -1.3627 -0.7554  1.4420
 3925SOL    HW212675   0.236   6.514   4.982  1.1480 -0.4838 -1.1342
 3926SOL     OW12676   3.786   6.778   2.106  0.1517 -0.6198  0.0503
 3926SOL    HW112677   3.857   6.846   2.126  0.6950 -0.7569 -1.3375
 3926SOL    HW212678   3.700   6.807   2.148  0.5196  0.6171 -0.0176
 3927SOL     OW12679   3.264   0.251   3.659  0.3683  0.4194 -0.6076
 3927SOL    HW112680   3.262   0.240   3.560  3.0899  0.2195 -0.7104
 3927SOL    HW212681   3.303   0.340   3.682 -1.5501  1.0722  0.3304
 3928SOL     OW12682   0.974   2.504   5.913  0.1249  0.4749 -0.4358
 3928SOL    HW112683   0.961   2.411   5.879  1.7342 -0.2031  0.7247
 3928SOL    HW212684   0.888   2.537   5.952 -0.4799 -0.4861 -0.9111
 3929SOL     OW12685   6.551   2.392   6.893  0.3555 -0.3280 -0.1310
 3929SOL    HW112686   6.605   2.442   6.961  1.0226  1.4467 -1.8875
 3929SOL    HW212687   6.457   2.381   6.927  0.1726  2.1430  0.3566
 3930SOL     OW12688   2.435   5.202   4.468 -0.3521  0.4905  0.3703
 3930SOL    HW112689   2.380   5.241   4.542  0.7544 -0.0264  1.4867
 3930SOL    HW212690   2.501   5.271   4.436  0.5010  0.0952  1.2322
 3931SOL     OW12691   4.354   1.782   7.016 -0.0771  0.1437 -0.0240
 3931SOL    HW112692   4.394   1.702   6.971  2.5624  1.4873 -0.2390
 3931SOL    HW212693   4.334   1.760   7.111  1.4821 -0.5639  0.1809
 3932SOL     OW12694   6.903   2.806   4.130  0.2984  0.1896 -0.1609
 3932SOL    HW112695   6.873   2.823   4.036  1.2378  2.0694 -0.1676
 3932SOL    HW212696   7.001   2.826   4.138  1.0023 -2.9741  0.5306
 3933SOL     OW12697   2.416   6.405   1.730  0.6497  0.0729  0.1718
 3933SOL    HW112698   2.371   6.382   1.816  0.5232 -0.4578 -0.0365
 3933SOL    HW212699   2.384   6.344   1.658 -0.5222  1.5740 -0.6456
 3934SOL     OW12700   0.437   5.279   2.884 -0.5938 -0.8486  0.1936
 3934SOL    HW112701   0.485   5.194   2.862 -0.6213 -0.9775  0.6144
 3934SOL    HW212702   0.398   5.272   2.976  0.6014  0.1547  0.8133
 3935SOL     OW12703   2.399   3.671   6.843  0.1182 -0.4074 -0.4936
 3935SOL    HW112704   2.470   3.633   6.783 -0.7487 -2.4467 -0.3350
 3935SOL    HW212705   2.313   3.679   6.792 -0.1103 -0.2049 -0.0842
 3936SOL     OW12706   0.596   2.191   3.527 -0.6150 -0.4962 -0.3159
 3936SOL    HW112707   0.640   2.237   3.450 -0.7404  2.0257  1.0317
 3936SOL    HW212708   0.555   2.258   3.588 -1.0037 -2.4359  1.7039
 3937SOL     OW12709   0.872   2.630   1.904  0.0758  0.3092 -0.0222
 3937SOL    HW112710   0.928   2.672   1.833 -0.2666 -0.1448 -0.5686
 3937SOL    HW212711   0.928   2.567   1.957 -0.1669 -1.0740 -1.3459
 3938SOL     OW12712   3.573   5.010   6.660  0.0016  0.2494  0.1263
 3938SOL    HW112713   3.596   5.108   6.663  0.7979  0.0508  1.4660
 3938SOL    HW212714   3.479   4.997   6.690  0.3318  0.4998  1.3114
 3939SOL     OW12715   3.307   0.583   2.152  0.2371  0.7095  0.0178
 3939SOL    HW112716   3.355   0.665   2.181  1.3718 -0.3832  1.4066
 3939SOL    HW212717   3.292   0.585   2.053  1.1794  2.0869 -0.1076
 3940SOL     OW12718   5.910   2.648   2.400  0.1864  0.2798 -0.1839
 3940SOL    HW112719   5.812   2.663   2.386 -0.1343 -0.9805  0.5643
 3940SOL    HW212720   5.926   2.612   2.492  1.3549  0.4252 -0.3096
 3941SOL     OW12721   4.501   1.907   2.699  0.0743 -0.7130 -0.1123
 3941SOL    HW112722   4.523   1.877   2.792  0.1546 -0.0248  0.0996
 3941SOL    HW212723   4.569   1.871   2.635  0.3930 -0.6529  0.1882
 3942SOL     OW12724   2.941   0.122   5.981  0.1375 -0.1813 -0.6185
 3942SOL    HW112725   3.031   0.164   5.994  0.3779 -0.4486 -1.3891
 3942SOL    HW212726   2.886   0.180   5.921  0.4139 -0.8853 -1.5556
 3943SOL     OW12727   0.776   3.649   2.164  0.5115 -0.1913  0.5165
 3943SOL    HW112728   0.723   3.617   2.244  0.2237  1.9257  1.2444
 3943SOL    HW212729   0.873   3.633   2.180  0.3166 -1.6667  0.3538
 3944SOL     OW12730   1.905   6.589   3.626  0.1994  0.3454 -0.2498
 3944SOL    HW112731   1.999   6.574   3.658  0.5078  0.8216 -0.8952
 3944SOL    HW212732   1.907   6.649   3.545 -0.7648  1.5491  0.5871
 3945SOL     OW12733   2.369   6.237   4.376 -0.7898  0.4014 -0.2113
 3945SOL    HW112734   2.291   6.180   4.348 -0.8406  0.4535 -0.1780
 3945SOL    HW212735   2.341   6.334   4.374 -1.3315  0.3140  1.6839
 3946SOL     OW12736   1.877   3.630   1.813  0.5855  0.3953 -0.2027
 3946SOL    HW112737   1.818   3.558   1.777  0.9555  0.5133 -1.0575
 3946SOL    HW212738   1.857   3.716   1.767 -0.5912  1.1172  1.5323
 3947SOL     OW12739   0.424   3.401   6.607  0.0271 -0.2505 -0.1553
 3947SOL    HW112740   0.507   3.350   6.631 -0.4117 -0.9145 -0.0267
 3947SOL    HW212741   0.449   3.481   6.552  0.5827 -1.6933 -2.1386
 3948SOL     OW12742   3.698   3.925   5.333 -0.2974  0.7459 -0.4935
 3948SOL    HW112743   3.751   3.878   5.404 -0.7256 -0.5049 -0.9763
 3948SOL    HW212744   3.604   3.892   5.335 -0.0640 -0.1242 -2.3472
 3949SOL     OW12745   5.258   5.402   2.176 -0.5145 -0.0163  0.3437
 3949SOL    HW112746   5.300   5.393   2.266  1.8965  2.1945 -0.4345
 3949SOL    HW212747   5.162   5.425   2.186 -0.1390  0.8839  2.3916
 3950SOL     OW12748   5.967   1.718   6.048  0.1791  0.2029  0.3003
 3950SOL    HW112749   5.959   1.672   5.959  1.3841  1.3508 -0.4536
 3950SOL    HW212750   6.055   1.764   6.053 -0.0983  0.6154  1.9000
 3951SOL     OW12751   0.359   4.608   3.739 -0.0536 -0.0992 -0.5617
 3951SOL    HW112752   0.265   4.615   3.772  0.2223  1.1180  0.0352
 3951SOL    HW212753   0.392   4.514   3.752 -0.8792 -0.3135  0.0702
 3952SOL     OW12754   4.753   1.578   0.148  0.2267 -0.3534  0.3956
 3952SOL    HW112755   4.728   1.641   0.075  1.9695 -0.7056 -0.5521
 3952SOL    HW212756   4.819   1.622   0.209  1.2331 -1.1202 -0.1079
 3953SOL     OW12757   0.023   3.959   6.867  0.8849  0.8193  0.1548
 3953SOL    HW112758   0.103   3.899   6.864  2.2868  2.6739 -2.2469
 3953SOL    HW212759   0.045   4.047   6.827 -3.2297  0.3166 -4.0830
 3954SOL     OW12760   2.048   3.820   5.565 -0.3429  0.1408 -0.0743
 3954SOL    HW112761   2.146   3.830   5.548 -0.1744 -2.2096 -0.8432
 3954SOL    HW212762   1.997   3.834   5.480 -0.6138  0.3997  0.1242
 3955SOL     OW12763   0.578   6.056   3.441  0.2940 -0.3935  0.4087
 3955SOL    HW112764   0.511   5.992   3.479 -2.2162  1.3530 -0.7575
 3955SOL    HW212765   0.666   6.045   3.488 -0.1137 -4.3000  0.5466
 3956SOL     OW12766   5.868   4.338   0.399 -0.0178 -0.0079  0.2668
 3956SOL    HW112767   5.852   4.340   0.498 -0.8909 -2.1114  0.2108
 3956SOL    HW212768   5.876   4.243   0.368 -0.7272  0.5638 -1.8318
 3957SOL     OW12769   3.161   2.459   1.665 -0.1930 -0.3807 -0.1608
 3957SOL    HW112770   3.087   2.443   1.730 -1.8102 -0.2260 -1.8861
 3957SOL    HW212771   3.216   2.537   1.696 -0.4510 -0.7650  1.3584
 3958SOL     OW12772   5.060   1.479   6.192 -0.0243 -0.0395 -0.2191
 3958SOL    HW112773   5.000   1.445   6.265 -0.6977 -0.1964 -0.8304
 3958SOL    HW212774   5.098   1.567   6.218 -0.2025 -0.1295  0.3539
 3959SOL     OW12775   5.569   6.954   4.719 -0.1679  0.1733  0.3459
 3959SOL    HW112776   5.627   6.893   4.664 -0.4196  0.1901  0.0594
 3959SOL    HW212777   5.622   7.034   4.746 -0.4130  0.8264 -1.0150
 3960SOL     OW12778   1.875   6.180   6.169  0.4923 -0.1788 -0.2896
 3960SOL    HW112779   1.805   6.217   6.230  0.5112  1.9132 -1.4279
 3960SOL    HW212780   1.832   6.128   6.095  0.2286 -0.1025 -0.1894
 3961SOL     OW12781   4.076   4.828   0.664  0.3183  0.0847 -0.2511
 3961SOL    HW112782   4.045   4.758   0.599  2.3865 -0.7359 -0.4302
 3961SOL    HW212783   4.066   4.793   0.758 -1.3765  0.7401 -0.1431
 3962SOL     OW12784   2.529   2.411   5.437 -0.5227  0.5171 -0.3891
 3962SOL    HW112785   2.621   2.401   5.399 -1.0517 -2.5370 -1.1765
 3962SOL    HW212786   2.480   2.483   5.388  0.8596  0.9332 -1.2100
 3963SOL     OW12787   3.377   0.426   6.913  0.2026 -0.1064  0.0778
 3963SOL    HW112788   3.423   0.374   6.842  0.8436 -1.2272  1.2753
 3963SOL    HW212789   3.327   0.364   6.974 -0.1233  0.7896  0.7546
 3964SOL     OW12790   0.418   3.782   2.031 -0.5401  0.7986 -0.2178
 3964SOL    HW112791   0.408   3.716   2.106  0.0822  2.0799  1.0578
 3964SOL    HW212792   0.332   3.830   2.017 -0.9323 -0.0916 -1.0036
 3965SOL     OW12793   2.418   2.766   6.284 -0.1143 -0.0095  0.1880
 3965SOL    HW112794   2.420   2.779   6.383 -1.5585 -3.4988  0.8205
 3965SOL    HW212795   2.502   2.720   6.255 -0.7439 -1.2408  0.2553
 3966SOL     OW12796   1.035   1.029   2.512 -0.0483  0.0462  0.2746
 3966SOL    HW112797   1.077   0.940   2.529 -0.7579 -1.3658 -4.2193
 3966SOL    HW212798   1.106   1.097   2.495  0.4451 -0.0268  1.8580
 3967SOL     OW12799   3.783   5.626   5.706  0.2094 -0.7978  0.6495
 3967SOL    HW112800   3.721   5.581   5.771  0.2521  0.0786  1.3072
 3967SOL    HW212801   3.764   5.724   5.704  0.3950 -0.7730 -0.4650
 3968SOL     OW12802   7.009   4.324   6.343 -0.1205  0.2441 -0.2057
 3968SOL    HW112803   6.997   4.421   6.325  1.1213  0.1332 -1.8541
 3968SOL    HW212804   7.105   4.306   6.367 -0.7943 -0.2886  2.4210
 3969SOL     OW12805   6.137   1.417   5.845 -0.8316 -0.5212 -0.2286
 3969SOL    HW112806   6.072   1.419   5.920 -1.4737  0.0923 -0.7811
 3969SOL    HW212807   6.160   1.322   5.822 -1.2333 -0.7257  0.2224
 3970SOL     OW12808   0.689   0.511   1.876  0.1940 -0.4946 -0.3819
 3970SOL    HW112809   0.749   0.450   1.824 -0.0806  1.2163 -2.9041
 3970SOL    HW212810   0.730   0.532   1.964  1.9073 -1.6123 -0.8726
 3971SOL     OW12811   5.643   6.381   2.625 -0.0063  0.1642  0.1369
 3971SOL    HW112812   5.567   6.341   2.676  1.5334 -1.6744  1.1068
 3971SOL    HW212813   5.724   6.324   2.636  1.4629  1.9101 -1.1047
 3972SOL     OW12814   3.564   3.589   3.887 -0.1536 -0.1194  0.1235
 3972SOL    HW112815   3.579   3.669   3.945 -1.4069  0.0011  0.3197
 3972SOL    HW212816   3.596   3.608   3.794 -1.3847  1.0399 -0.1078
 3973SOL     OW12817   5.632   6.078   6.174  0.4471 -0.0799  0.0887
 3973SOL    HW112818   5.535   6.055   6.166  0.9667 -1.8140 -3.3032
 3973SOL    HW212819   5.643   6.177   6.178 -1.4515  0.1495  0.4957
 3974SOL     OW12820   2.658   5.154   5.235  0.3866 -0.2454  0.3272
 3974SOL    HW112821   2.698   5.098   5.163  1.1724 -0.5932  1.0234
 3974SOL    HW212822   2.729   5.183   5.299 -0.6636 -2.4705  2.6758
 3975SOL     OW12823   1.353   3.004   2.510 -0.0085 -0.2278  0.2085
 3975SOL    HW112824   1.425   2.983   2.444  0.0795 -0.6618  0.4391
 3975SOL    HW212825   1.279   3.051   2.463  0.9151  1.2568  0.1886
 3976SOL     OW12826   1.983   1.831   2.538  0.5167 -0.3708  0.1061
 3976SOL    HW112827   1.893   1.823   2.494 -0.6086 -0.8581  2.3113
 3976SOL    HW212828   1.989   1.918   2.586  0.2191 -1.3091  1.9305
 3977SOL     OW12829   1.869   1.489   1.923  0.1104  0.3412  0.2604
 3977SOL    HW112830   1.888   1.396   1.954 -0.2835  0.6154  1.3930
 3977SOL    HW212831   1.950   1.526   1.877  0.6164 -0.2068  0.6866
 3978SOL     OW12832   5.086   5.102   0.084 -0.1171 -0.5891 -0.1685
 3978SOL    HW112833   5.026   5.042   0.137  1.4477 -0.0915  2.3131
 3978SOL    HW212834   5.042   5.191   0.071 -1.1470 -1.2159 -1.1129
 3979SOL     OW12835   4.675   1.742   0.501 -0.2884  0.3628 -0.2806
 3979SOL    HW112836   4.590   1.691   0.516 -0.2904  0.4203 -0.0915
 3979SOL    HW212837   4.654   1.839   0.492 -0.2833  0.3327 -0.6326
 3980SOL     OW12838   3.486   4.781   0.183  0.0773 -0.2296  0.0272
 3980SOL    HW112839   3.524   4.693   0.208 -2.6611 -1.1514  1.2911
 3980SOL    HW212840   3.525   4.853   0.241  3.1394 -0.3110 -1.7318
 3981SOL     OW12841   0.539   2.061   4.671  0.3422  0.2206  0.0476
 3981SOL    HW112842   0.621   2.008   4.688 -0.1651 -0.4673  0.3790
 3981SOL    HW212843   0.522   2.123   4.748 -0.6124 -1.1581  0.9832
 3982SOL     OW12844   5.748   2.639   2.025  0.0580 -0.4046  0.5180
 3982SOL    HW112845   5.749   2.667   1.929 -0.5975 -2.8287 -0.2537
 3982SOL    HW212846   5.655   2.644   2.061 -0.2426 -2.2720  0.0982
 3983SOL     OW12847   1.611   5.557   5.455 -0.5074  0.0619 -0.3619
 3983SOL    HW112848   1.560   5.504   5.523  0.3010  0.2866  0.4433
 3983SOL    HW212849   1.570   5.649   5.448 -0.7850 -0.0640 -0.4153
 3984SOL     OW12850   3.485   1.609   1.906 -0.3738 -0.2409  0.3294
 3984SOL    HW112851   3.453   1.515   1.899  1.0345 -0.7799  0.7188
 3984SOL    HW212852   3.585   1.609   1.919 -0.4617  1.2742  1.1619
 3985SOL     OW12853   0.005   0.587   5.104  0.0953 -0.1510  0.2095
 3985SOL    HW112854   0.048   0.496   5.101 -0.6829 -0.5248  0.0775
 3985SOL    HW212855   0.036   0.641   5.026  1.3949  0.0993  0.8642
 3986SOL     OW12856   2.132   3.276   2.106  0.2271 -0.4327 -0.2802
 3986SOL    HW112857   2.165   3.339   2.036 -1.9580  1.9352  0.6795
 3986SOL    HW212858   2.102   3.327   2.186 -2.9543 -2.5254  0.0700
 3987SOL     OW12859   3.764   2.802   0.242  0.6142  0.2987 -0.3831
 3987SOL    HW112860   3.743   2.789   0.339  0.9932 -1.8727 -0.5433
 3987SOL    HW212861   3.701   2.868   0.203 -0.7141 -0.1317  0.9504
 3988SOL     OW12862   2.633   6.318   0.869 -0.3014  0.1089  0.2595
 3988SOL    HW112863   2.664   6.224   0.857  1.1848  0.4640  1.0136
 3988SOL    HW212864   2.581   6.347   0.789 -0.2081 -1.1278 -0.2727
 3989SOL     OW12865   4.868   0.727   0.217 -0.2276  0.4935 -0.1967
 3989SOL    HW112866   4.957   0.767   0.241 -0.3077  0.5416  0.0207
 3989SOL    HW212867   4.861   0.721   0.117  0.5599 -0.7307 -0.1964
 3990SOL     OW12868   1.049   6.255   4.994  0.4881 -0.1465  0.1647
 3990SOL    HW112869   1.042   6.155   4.991  2.6355 -0.3517  0.2484
 3990SOL    HW212870   1.052   6.285   5.089 -1.1290  0.1131  0.1519
 3991SOL     OW12871   4.689   2.672   6.126  0.2229  0.9100 -0.2293
 3991SOL    HW112872   4.644   2.608   6.189  1.0426  0.7408  0.1927
 3991SOL    HW212873   4.675   2.641   6.032 -0.3015  0.7048 -0.0889
 3992SOL     OW12874   4.862   0.075   1.374 -0.6405  0.0193  1.1105
 3992SOL    HW112875   4.808   0.158   1.388 -1.8323 -0.5080 -0.1674
 3992SOL    HW212876   4.867   0.024   1.460 -1.8055  0.3146  1.3732
 3993SOL     OW12877   5.112   5.612   4.302  0.2457  0.5017  0.6889
 3993SOL    HW112878   5.054   5.587   4.225 -0.1951 -0.7014  1.3861
 3993SOL    HW212879   5.079   5.568   4.385  2.2615 -0.3950  1.0748
 3994SOL     OW12880   5.200   4.237   6.176 -0.2941 -0.1701 -0.1879
 3994SOL    HW112881   5.136   4.163   6.194 -0.8477  0.2180 -0.5294
 3994SOL    HW212882   5.172   4.319   6.227  1.2727 -0.6653  1.5475
 3995SOL     OW12883   1.185   2.116   2.554 -0.2738 -0.3399  0.0642
 3995SOL    HW112884   1.123   2.105   2.632 -0.8131 -2.0739 -0.5622
 3995SOL    HW212885   1.204   2.027   2.514  2.1979  0.2078 -0.1426
 3996SOL     OW12886   3.488   5.899   5.701  0.1065 -0.0541  0.3585
 3996SOL    HW112887   3.487   5.849   5.615  0.5523  0.5238  0.0173
 3996SOL    HW212888   3.509   5.836   5.776  0.5285 -0.4001 -0.0530
 3997SOL     OW12889   3.579   3.951   6.405 -0.1867  0.1060  0.3268
 3997SOL    HW112890   3.594   3.853   6.421 -2.1859 -1.1612 -3.8741
 3997SOL    HW212891   3.645   3.984   6.338 -1.5872  0.5969 -0.8867
 3998SOL     OW12892   2.234   0.601   6.142 -0.2460  0.2705  0.1012
 3998SOL    HW112893   2.167   0.527   6.134  0.6905 -0.6221  0.3143
 3998SOL    HW212894   2.193   0.678   6.190 -2.4234  1.3516 -3.1558
 3999SOL     OW12895   1.154   1.593   5.316 -0.6825 -0.2347 -0.0608
 3999SOL    HW112896   1.184   1.501   5.289 -2.0237 -0.9389  0.7297
 3999SOL    HW212897   1.217   1.630   5.384 -0.7836 -1.0863  0.5140
 4000SOL     OW12898   2.513   4.773   0.761 -0.5510  0.2586 -0.4442
 4000SOL    HW112899   2.487   4.863   0.797 -0.2894 -0.4970  1.7906
 4000SOL    HW212900   2.588   4.736   0.816  0.3072 -0.7463 -2.2208
 4001SOL     OW12901   3.095   1.068   6.564 -0.3137  0.2479 -0.5392
 4001SOL    HW112902   3.016   1.050   6.505 -0.3621 -2.1470  0.1764
 4001SOL    HW212903   3.070   1.133   6.635 -1.0313  1.0534 -1.4933
 4002SOL     OW12904   5.763   0.220   0.279 -0.3423  0.0793 -0.4275
 4002SOL    HW112905   5.690   0.270   0.325 -1.6055 -1.5439 -0.5460
 4002SOL    HW212906   5.816   0.168   0.346  0.3456  0.7989 -0.4054
 4003SOL     OW12907   1.148   5.543   6.632  0.6026  0.2931 -0.4287
 4003SOL    HW112908   1.134   5.444   6.622  1.9452  0.0476 -0.0587
 4003SOL    HW212909   1.175   5.563   6.727 -0.5276  1.1356 -0.2617
 4004SOL     OW12910   1.815   4.210   0.894  0.3561  0.7292  0.5517
 4004SOL    HW112911   1.843   4.229   0.988 -1.3749  1.8048  0.8937
 4004SOL    HW212912   1.725   4.167   0.894  0.8617 -0.4150 -0.5988
 4005SOL     OW12913   3.341   6.427   3.361  0.6272  0.1960 -0.2530
 4005SOL    HW112914   3.413   6.467   3.305  0.6198  0.0729 -0.3487
 4005SOL    HW212915   3.352   6.459   3.456  1.7933 -1.1109  0.0879
 4006SOL     OW12916   2.011   4.514   3.300 -0.3754  0.0585  0.2354
 4006SOL    HW112917   2.068   4.435   3.324 -0.3063 -0.0779 -0.3599
 4006SOL    HW212918   1.972   4.500   3.209 -1.5256  0.0690  0.7194
 4007SOL     OW12919   6.221   5.107   3.071  0.5565 -0.1749 -0.4723
 4007SOL    HW112920   6.196   5.078   2.978 -0.1973  2.0505 -1.0128
 4007SOL    HW212921   6.152   5.075   3.135  1.2846 -2.0778 -0.5642
 4008SOL     OW12922   6.716   3.777   0.066 -0.5326  0.0948 -0.0025
 4008SOL    HW112923   6.765   3.864   0.057  0.4323 -0.4699 -0.4098
 4008SOL    HW212924   6.640   3.789   0.130 -0.2396  1.1613  0.1817
 4009SOL     OW12925   0.604   1.078   1.981 -0.3810 -0.2263  0.9657
 4009SOL    HW112926   0.610   1.159   2.038 -0.2543 -0.0216  0.6623
 4009SOL    HW212927   0.683   1.019   1.998  0.9403  0.9517 -0.7029
 4010SOL     OW12928   5.131   1.366   5.942  0.0596  0.1508  0.1944
 4010SOL    HW112929   5.111   1.419   6.025 -0.0989 -0.4482  0.5463
 4010SOL    HW212930   5.082   1.406   5.865  0.0954  0.6302  0.4156
 4011SOL     OW12931   3.177   4.717   0.353  0.1632 -0.3257 -0.3687
 4011SOL    HW112932   3.206   4.812   0.356 -1.5762  0.2110  0.8762
 4011SOL    HW212933   3.128   4.694   0.437 -0.9302 -1.8222 -1.3579
 4012SOL     OW12934   2.554   0.740   6.887 -0.7884  0.2656 -0.7231
 4012SOL    HW112935   2.519   0.745   6.981 -0.0870  1.2961 -0.4934
 4012SOL    HW212936   2.634   0.800   6.878 -0.7641  0.0809 -1.9464
 4013SOL     OW12937   2.812   3.069   6.269 -0.1048  0.3781  0.3066
 4013SOL    HW112938   2.812   2.994   6.203 -0.1094  0.2230  0.4831
 4013SOL    HW212939   2.881   3.053   6.339 -0.9923 -0.1262  1.0883
 4014SOL     OW12940   5.542   3.757   1.286 -0.1715  0.3125 -0.4151
 4014SOL    HW112941   5.590   3.684   1.237  0.0903 -0.0032  0.2989
 4014SOL    HW212942   5.599   3.791   1.360 -1.7345 -1.3924  1.7037
 4015SOL     OW12943   3.532   5.209   5.547  0.2469 -0.2646  0.1195
 4015SOL    HW112944   3.507   5.139   5.614 -2.4794 -0.0774 -0.6041
 4015SOL    HW212945   3.566   5.290   5.595  0.4633 -0.9233  1.1172
 4016SOL     OW12946   1.158   1.199   6.395  0.0155 -0.3314 -0.2692
 4016SOL    HW112947   1.174   1.269   6.465  1.6234 -1.7060  0.8166
 4016SOL    HW212948   1.064   1.165   6.403 -0.6481  1.3335 -0.5265
 4017SOL     OW12949   5.429   2.420   1.930  0.1322 -0.1243  0.7007
 4017SOL    HW112950   5.408   2.353   1.858  0.2912  0.7175 -0.1559
 4017SOL    HW212951   5.478   2.375   2.005  1.8376 -0.6540 -0.6577
 4018SOL     OW12952   2.345   0.798   0.853  0.1348  0.2538 -0.3732
 4018SOL    HW112953   2.276   0.835   0.791 -0.8441  1.8893  1.5688
 4018SOL    HW212954   2.435   0.832   0.827  0.1777 -1.2300 -2.4271
 4019SOL     OW12955   3.129   2.785   6.202 -0.1478 -0.4455 -0.3706
 4019SOL    HW112956   3.219   2.799   6.243 -0.4496 -0.3453  0.2752
 4019SOL    HW212957   3.058   2.812   6.268 -0.6365  0.3951 -1.2141
 4020SOL     OW12958   4.361   4.630   0.920  0.4091  0.0646 -0.0435
 4020SOL    HW112959   4.356   4.586   0.830  1.1368 -0.2015  0.0386
 4020SOL    HW212960   4.362   4.729   0.908  0.7031  0.0266 -0.3443
 4021SOL     OW12961   1.518   2.304   5.166  0.6715 -0.0433 -0.1857
 4021SOL    HW112962   1.544   2.373   5.098  0.8115  0.6958  0.6146
 4021SOL    HW212963   1.438   2.334   5.217  2.3654  0.8775  2.1068
 4022SOL     OW12964   0.159   5.098   0.506  0.3905 -0.1365  0.1209
 4022SOL    HW112965   0.147   5.003   0.480  1.9711 -0.2161 -0.3614
 4022SOL    HW212966   0.083   5.126   0.566  0.0991 -1.7814  0.5584
 4023SOL     OW12967   5.458   3.075   6.929 -0.3901 -0.9009  0.2226
 4023SOL    HW112968   5.520   3.010   6.972  1.1478  0.3484 -0.0386
 4023SOL    HW212969   5.501   3.165   6.923 -2.2225  0.0245  0.0077
 4024SOL     OW12970   1.713   1.599   6.220 -0.0986 -0.4234 -0.8611
 4024SOL    HW112971   1.794   1.550   6.253  0.1844  1.5867  1.8263
 4024SOL    HW212972   1.742   1.681   6.170 -0.3834  0.5248  0.4597
 4025SOL     OW12973   0.288   4.759   0.242  0.5530 -0.6606 -0.2641
 4025SOL    HW112974   0.334   4.824   0.182  0.0889  0.4825  0.5689
 4025SOL    HW212975   0.339   4.749   0.327 -0.3181  0.0654  0.3716
 4026SOL     OW12976   0.287   2.624   5.820 -0.6434 -0.3469  0.2471
 4026SOL    HW112977   0.199   2.646   5.777  0.5507 -0.2330 -2.3189
 4026SOL    HW212978   0.342   2.707   5.830  0.5364 -0.8703 -1.5098
 4027SOL     OW12979   3.730   4.107   2.935  0.1612 -0.3412  0.0816
 4027SOL    HW112980   3.774   4.196   2.923  0.1517 -0.2795  0.5031
 4027SOL    HW212981   3.643   4.107   2.886 -0.4062  0.3054  1.0538
 4028SOL     OW12982   4.525   5.532   2.965  0.0130 -0.3736 -0.4918
 4028SOL    HW112983   4.450   5.504   3.025  0.3867 -0.5996 -0.1240
 4028SOL    HW212984   4.595   5.461   2.964  1.3348  0.8577  1.0501
 4029SOL     OW12985   2.558   2.053   4.343  0.3749  0.3700 -0.3801
 4029SOL    HW112986   2.495   2.118   4.383 -0.2148 -1.9313  2.8570
 4029SOL    HW212987   2.635   2.101   4.302 -0.3039  3.0811  1.3122
 4030SOL     OW12988   4.401   5.198   0.763 -0.2571  0.3636  0.0156
 4030SOL    HW112989   4.430   5.146   0.682  0.0785  0.9449 -0.2389
 4030SOL    HW212990   4.343   5.274   0.735 -0.9977 -0.0380  0.4179
 4031SOL     OW12991   0.092   1.063   0.245 -0.0027 -0.0449  0.0327
 4031SOL    HW112992   0.100   0.965   0.227  1.5646 -0.0655  0.6682
 4031SOL    HW212993   0.066   1.110   0.161 -0.1215 -0.9240 -0.4418
 4032SOL     OW12994   1.895   0.803   2.693 -0.1138  0.8396  0.3404
 4032SOL    HW112995   1.974   0.746   2.669 -0.1461  1.2803 -0.8991
 4032SOL    HW212996   1.848   0.763   2.772  1.8232  1.0379  1.6620
 4033SOL     OW12997   5.859   1.104   3.736 -0.3025 -0.3947  0.3972
 4033SOL    HW112998   5.933   1.072   3.677  0.1785 -1.0192  1.3136
 4033SOL    HW212999   5.774   1.059   3.709  0.0240 -1.1063  0.5266
 4034SOL     OW13000   3.292   6.827   2.242 -0.1417 -0.2484  0.7529
 4034SOL    HW113001   3.221   6.790   2.183 -0.4212 -0.2277  1.0697
 4034SOL    HW213002   3.322   6.757   2.307 -1.6866  0.4596  2.2961
 4035SOL     OW13003   4.717   4.714   6.793  0.0156  0.2392  0.0791
 4035SOL    HW113004   4.704   4.702   6.891 -1.4146 -0.4978 -0.1737
 4035SOL    HW213005   4.763   4.801   6.776  0.4837  0.2725  1.4050
 4036SOL     OW13006   5.005   1.826   2.679  0.5483 -0.3233  0.2403
 4036SOL    HW113007   5.035   1.754   2.617 -0.6498 -0.7187  0.0887
 4036SOL    HW213008   4.986   1.787   2.769  1.1266  0.0434  0.5346
 4037SOL     OW13009   6.119   4.223   4.019 -0.0166 -0.0745  0.5360
 4037SOL    HW113010   6.172   4.142   4.047  1.3067 -0.0417 -1.5805
 4037SOL    HW213011   6.064   4.199   3.939  2.7489  1.7474 -2.1203
 4038SOL     OW13012   1.146   5.376   4.773  0.2482  0.1915 -0.4796
 4038SOL    HW113013   1.074   5.444   4.791 -0.5155 -0.6523 -0.3032
 4038SOL    HW213014   1.214   5.380   4.846  1.1635  1.9614 -1.3477
 4039SOL     OW13015   5.120   6.069   4.381  0.2701 -0.0165 -0.0843
 4039SOL    HW113016   5.080   6.045   4.469  0.0834  1.4800  0.2610
 4039SOL    HW213017   5.202   6.125   4.394 -1.1700  2.4462 -0.7993
 4040SOL     OW13018   5.099   4.939   4.656 -0.4096 -0.4667  0.3773
 4040SOL    HW113019   5.127   5.006   4.586 -0.2142 -0.8483  0.0887
 4040SOL    HW213020   5.017   4.891   4.625  1.6614 -3.2230 -1.3139
 4041SOL     OW13021   1.213   4.017   6.745  0.5207  0.5289  0.2761
 4041SOL    HW113022   1.288   4.056   6.691  0.4907  1.1121  0.6417
 4041SOL    HW213023   1.151   3.967   6.685  1.7771 -0.9169  0.1186
 4042SOL     OW13024   6.282   3.675   1.829  0.9008  0.1285 -0.7190
 4042SOL    HW113025   6.344   3.607   1.789  0.7258 -0.3504 -0.1941
 4042SOL    HW213026   6.253   3.644   1.919  0.0999  0.4692 -0.8505
 4043SOL     OW13027   4.325   0.283   5.224  0.2217 -0.2195 -0.5167
 4043SOL    HW113028   4.425   0.276   5.228  0.4915  2.9038  0.0994
 4043SOL    HW213029   4.290   0.310   5.313 -0.7281  2.6455 -1.6666
 4044SOL     OW13030   1.741   5.961   5.694  0.0878 -0.2547 -0.1817
 4044SOL    HW113031   1.796   6.037   5.729 -1.4364  0.9339 -0.2092
 4044SOL    HW213032   1.736   5.967   5.594  0.2673 -0.6134 -0.2118
 4045SOL     OW13033   6.350   4.959   3.830  0.3889 -0.0670  0.3277
 4045SOL    HW113034   6.289   4.973   3.753  2.1195  1.2646 -0.8725
 4045SOL    HW213035   6.302   4.908   3.902 -2.4067  1.7261 -0.1271
 4046SOL     OW13036   2.218   4.188   4.897  0.7878  0.5693  0.0749
 4046SOL    HW113037   2.192   4.236   4.980  1.8672 -2.1688  2.1616
 4046SOL    HW213038   2.258   4.099   4.921 -0.5049 -1.1575 -3.4567
 4047SOL     OW13039   1.849   2.340   5.932 -0.4842 -0.5737  0.1439
 4047SOL    HW113040   1.919   2.309   5.867  0.4200  0.2812  0.6765
 4047SOL    HW213041   1.777   2.389   5.883  0.1279 -0.0386 -0.2304
 4048SOL     OW13042   2.998   5.719   4.227 -0.9707  0.1873 -0.0364
 4048SOL    HW113043   2.979   5.773   4.146 -0.7632  0.0013 -0.2105
 4048SOL    HW213044   2.922   5.657   4.245 -1.2640  0.6164  0.2334
 4049SOL     OW13045   1.899   4.571   5.429 -0.0321 -0.0765  0.0045
 4049SOL    HW113046   1.843   4.494   5.398 -1.4992  0.3607  1.4293
 4049SOL    HW213047   1.936   4.620   5.349 -0.8797 -0.9488 -0.9515
 4050SOL     OW13048   1.622   6.821   0.606  0.6026  0.5888 -0.2447
 4050SOL    HW113049   1.541   6.880   0.604  0.0801 -0.1068 -0.0360
 4050SOL    HW213050   1.680   6.841   0.527  1.0062  2.1590  0.4126
 4051SOL     OW13051   0.202   6.025   2.487  0.1157  0.3809 -0.1098
 4051SOL    HW113052   0.220   5.928   2.472  1.4414  0.8169 -1.6117
 4051SOL    HW213053   0.105   6.038   2.510 -0.4991 -1.1260 -1.6556
 4052SOL     OW13054   5.971   0.762   5.166  0.5921  0.2321  0.2070
 4052SOL    HW113055   5.902   0.834   5.160 -1.0183 -1.2969 -0.7018
 4052SOL    HW213056   6.061   0.803   5.174 -0.3324  2.3260  0.7378
 4053SOL     OW13057   0.815   6.689   2.514  0.8212  0.1726  0.5235
 4053SOL    HW113058   0.785   6.620   2.580  1.2875 -0.8322 -0.2914
 4053SOL    HW213059   0.745   6.702   2.444  1.6472 -1.1680 -0.6025
 4054SOL     OW13060   2.375   1.817   2.502 -0.1190  0.3442 -0.5858
 4054SOL    HW113061   2.467   1.853   2.516  0.7861 -2.0376  0.0711
 4054SOL    HW213062   2.335   1.795   2.591 -0.6456 -0.2524 -0.9660
 4055SOL     OW13063   5.051   6.428   3.878  0.3568  0.7166  0.1204
 4055SOL    HW113064   5.115   6.360   3.915  0.4982  0.8990  0.2127
 4055SOL    HW213065   5.101   6.492   3.819 -0.0601 -0.2689 -1.3445
 4056SOL     OW13066   4.607   6.895   6.538 -0.0562  0.1907  0.3810
 4056SOL    HW113067   4.691   6.905   6.485 -1.2482  1.1859 -1.4495
 4056SOL    HW213068   4.627   6.852   6.625  2.5991  1.7894  0.6659
 4057SOL     OW13069   0.151   0.119   0.227 -0.0781 -0.1678 -0.1425
 4057SOL    HW113070   0.157   0.111   0.127 -2.6640 -1.6807 -0.2526
 4057SOL    HW213071   0.056   0.130   0.255  0.7864  3.6267  2.0575
 4058SOL     OW13072   0.571   6.761   6.121 -0.5186 -0.9129  0.8570
 4058SOL    HW113073   0.587   6.763   6.023 -0.4709 -1.0572  0.8613
 4058SOL    HW213074   0.657   6.741   6.169 -0.5040 -0.6609  0.9385
 4059SOL     OW13075   4.305   1.318   1.353 -0.0854  0.1617 -0.0021
 4059SOL    HW113076   4.231   1.300   1.418 -0.0303  0.4300  0.1337
 4059SOL    HW213077   4.317   1.417   1.342  0.9653  0.1356  0.7797
 4060SOL     OW13078   3.162   1.392   3.866  0.3630 -0.0660  0.1951
 4060SOL    HW113079   3.143   1.486   3.840  1.1972 -0.1230 -0.7008
 4060SOL    HW213080   3.085   1.354   3.917 -0.4324  0.7463 -0.3946
 4061SOL     OW13081   0.200   3.641   1.520 -0.5858 -0.0244 -0.2600
 4061SOL    HW113082   0.216   3.712   1.588  0.9452 -2.5175  2.2360
 4061SOL    HW213083   0.256   3.659   1.439 -0.8348  1.9600 -0.0371
 4062SOL     OW13084   6.810   6.727   2.378 -0.2411 -0.2736  0.1754
 4062SOL    HW113085   6.735   6.674   2.338  0.7257 -2.3169  0.9283
 4062SOL    HW213086   6.816   6.708   2.476  0.2338  1.1529  0.4353
 4063SOL     OW13087   4.578   2.574   6.541  0.3264 -0.0062 -0.3053
 4063SOL    HW113088   4.562   2.553   6.444 -1.0967 -0.0571 -0.0797
 4063SOL    HW213089   4.649   2.644   6.548  2.0976 -1.6202 -1.2640
 4064SOL     OW13090   6.964   4.271   6.063 -0.2978  0.5249  0.2349
 4064SOL    HW113091   7.028   4.323   6.006  0.8933 -0.5623  0.5510
 4064SOL    HW213092   6.993   4.276   6.159 -0.5347 -0.2170  0.3481
 4065SOL     OW13093   5.977   2.815   1.546  0.4885 -0.7664 -0.4507
 4065SOL    HW113094   5.993   2.910   1.572  0.3924 -1.6523  3.4697
 4065SOL    HW213095   5.893   2.809   1.492  0.4361  1.3523 -0.6756
 4066SOL     OW13096   0.533   6.467   4.449 -0.0921  0.3451 -0.6275
 4066SOL    HW113097   0.576   6.387   4.491  0.1993  0.6242 -0.3871
 4066SOL    HW213098   0.559   6.472   4.353  1.2360  1.0612 -0.2527
 4067SOL     OW13099   1.837   0.314   4.917  0.1165 -0.3666  0.2211
 4067SOL    HW113100   1.878   0.280   4.832  0.0947 -0.4771  0.2545
 4067SOL    HW213101   1.880   0.401   4.942 -0.7630  0.3299 -0.5943
 4068SOL     OW13102   1.210   3.230   0.483  0.6712 -0.4012  0.1264
 4068SOL    HW113103   1.151   3.190   0.413 -0.9277 -1.2749  1.9138
 4068SOL    HW213104   1.154   3.273   0.553  2.2562  0.7783  0.7189
 4069SOL     OW13105   6.263   5.689   3.151 -0.7664 -0.2193 -0.2222
 4069SOL    HW113106   6.170   5.686   3.115 -1.0210  0.6637  0.3161
 4069SOL    HW213107   6.318   5.616   3.110 -1.1820  0.4058 -1.9728
 4070SOL     OW13108   5.491   6.384   0.078  0.0205 -0.3091  0.4865
 4070SOL    HW113109   5.530   6.348   0.163  0.0401 -1.5883 -0.0397
 4070SOL    HW213110   5.416   6.325   0.049  0.1000  0.0488 -0.4550
 4071SOL     OW13111   1.501   0.468   5.906  0.4828 -0.1219 -0.3127
 4071SOL    HW113112   1.530   0.534   5.837 -1.8724  0.8178 -0.4919
 4071SOL    HW213113   1.489   0.378   5.863  0.8819  0.0121 -0.7080
 4072SOL     OW13114   2.867   6.990   5.490  0.4176 -0.0493  0.5621
 4072SOL    HW113115   2.829   6.968   5.400  1.2562  2.3060 -0.4362
 4072SOL    HW213116   2.909   6.908   5.529  0.0550 -1.1229 -1.2019
 4073SOL     OW13117   0.092   4.043   1.359 -0.0713  0.1905  0.0983
 4073SOL    HW113118   0.154   4.016   1.286 -0.3067 -0.3451  0.0932
 4073SOL    HW213119   0.012   4.089   1.321 -0.2216 -0.1403  0.0101
 4074SOL     OW13120   5.968   3.297   6.970  0.7109  0.2212 -0.2762
 4074SOL    HW113121   5.954   3.374   7.033  2.0057 -0.7730  1.3112
 4074SOL    HW213122   6.056   3.309   6.923  0.5785  0.0451 -0.5747
 4075SOL     OW13123   0.590   4.936   4.552  0.3931  0.2600  0.2355
 4075SOL    HW113124   0.684   4.941   4.516 -0.4392  0.9216 -2.0182
 4075SOL    HW213125   0.531   4.998   4.500 -1.2384  0.1602  1.8784
 4076SOL     OW13126   2.189   6.165   0.113 -0.4613 -0.2988  0.2230
 4076SOL    HW113127   2.153   6.210   0.194 -2.0804  2.6918 -1.9872
 4076SOL    HW213128   2.134   6.190   0.033  1.6462 -2.2843 -2.0136
 4077SOL     OW13129   5.430   3.659   4.924  0.3311 -0.0278 -0.7716
 4077SOL    HW113130   5.359   3.726   4.942 -0.0756 -0.7007  0.1645
 4077SOL    HW213131   5.514   3.706   4.895  0.0915  0.8845 -0.0138
 4078SOL     OW13132   6.878   6.751   2.669  0.5859  0.0006 -0.2893
 4078SOL    HW113133   6.807   6.749   2.740  1.0966  0.6894  0.2594
 4078SOL    HW213134   6.951   6.688   2.695  0.2696 -0.5596 -0.7537
 4079SOL     OW13135   6.436   0.199   2.251  0.2809 -0.0974 -0.2251
 4079SOL    HW113136   6.529   0.162   2.259  1.1515  2.3062  2.4616
 4079SOL    HW213137   6.421   0.233   2.159  0.7788 -3.4184 -1.6954
 4080SOL     OW13138   5.104   1.400   5.502  0.2281  0.5804 -0.0164
 4080SOL    HW113139   5.146   1.317   5.538  1.6278  0.7380 -1.1810
 4080SOL    HW213140   5.012   1.379   5.469 -0.1553 -0.0718  1.3931
 4081SOL     OW13141   3.598   5.755   3.866  0.0387 -0.5720 -0.4093
 4081SOL    HW113142   3.519   5.747   3.805  0.4471  1.1032 -1.2205
 4081SOL    HW213143   3.676   5.707   3.826  0.3659  0.7050 -1.3565
 4082SOL     OW13144   0.897   4.064   6.367  0.2494 -0.6952 -0.0439
 4082SOL    HW113145   0.801   4.080   6.391 -0.1286 -1.2718 -1.0960
 4082SOL    HW213146   0.934   4.145   6.322  0.0834 -0.6909 -0.1725
 4083SOL     OW13147   1.717   2.661   4.637 -0.8606 -0.0930  0.0555
 4083SOL    HW113148   1.667   2.748   4.641 -1.5906 -0.5166  0.4748
 4083SOL    HW213149   1.659   2.592   4.592 -1.5766 -1.1801  2.4911
 4084SOL     OW13150   5.651   0.658   3.929  0.0652 -0.0628 -0.2955
 4084SOL    HW113151   5.650   0.632   4.026  0.4982  2.4933  0.4605
 4084SOL    HW213152   5.594   0.739   3.915  1.0975  0.4301 -1.9357
 4085SOL     OW13153   3.128   2.781   1.763  0.3125 -0.2658 -0.1463
 4085SOL    HW113154   3.138   2.876   1.733 -0.3356 -0.1590 -0.0312
 4085SOL    HW213155   3.215   2.749   1.801  0.6170  0.1849 -0.4477
 4086SOL     OW13156   1.572   6.948   3.564  0.4373 -0.4961  0.1906
 4086SOL    HW113157   1.518   7.023   3.602 -0.2597  0.0361 -1.7122
 4086SOL    HW213158   1.537   6.925   3.473  0.9586 -2.8142  0.5167
 4087SOL     OW13159   1.639   5.965   2.867  0.5335  0.3876 -0.2049
 4087SOL    HW113160   1.730   5.931   2.844  0.8021 -1.0026  2.4912
 4087SOL    HW213161   1.582   5.889   2.900 -2.6311  0.6606 -4.3277
 4088SOL     OW13162   5.512   1.524   1.878  0.2986 -0.4543 -0.0863
 4088SOL    HW113163   5.464   1.560   1.957  0.6517 -1.3153  0.5324
 4088SOL    HW213164   5.457   1.539   1.796  1.2453  3.2199 -0.2122
 4089SOL     OW13165   6.952   3.973   0.099  0.3376 -0.5141  0.0529
 4089SOL    HW113166   7.016   3.941   0.169  2.2997  2.7286 -0.0779
 4089SOL    HW213167   6.993   3.963   0.009 -0.7900 -1.4895 -0.3863
 4090SOL     OW13168   0.409   5.867   0.447  0.2737  0.1618 -0.1311
 4090SOL    HW113169   0.324   5.873   0.394  1.3793  1.2275 -1.8937
 4090SOL    HW213170   0.428   5.956   0.489  0.1472 -0.2935  0.9436
 4091SOL     OW13171   1.163   0.417   6.992  0.3173  0.3829  0.0452
 4091SOL    HW113172   1.094   0.487   7.011 -0.8369 -0.0950 -2.0674
 4091SOL    HW213173   1.170   0.355   7.071  0.3278  1.9960  1.3658
 4092SOL     OW13174   6.129   0.941   2.495  0.8422 -0.2868  0.2518
 4092SOL    HW113175   6.149   0.897   2.407 -0.3571 -1.3342  0.4802
 4092SOL    HW213176   6.147   0.876   2.569  2.9091  0.9350  0.8991
 4093SOL     OW13177   5.217   5.534   5.542  0.1162 -0.0177  0.3489
 4093SOL    HW113178   5.152   5.557   5.470 -0.1144  0.3347  0.6648
 4093SOL    HW213179   5.304   5.508   5.501  0.5764  1.9699 -0.0196
 4094SOL     OW13180   1.544   5.298   4.127  0.5324 -0.1370  0.0341
 4094SOL    HW113181   1.550   5.359   4.048  0.2678  2.3018  1.7926
 4094SOL    HW213182   1.617   5.319   4.191  0.3206 -1.5864  0.7977
 4095SOL     OW13183   3.539   5.299   4.245  0.3588 -0.0580  0.0944
 4095SOL    HW113184   3.462   5.242   4.275  0.1039  0.9696  1.5178
 4095SOL    HW213185   3.508   5.393   4.232  0.7111 -0.2282 -2.5074
 4096SOL     OW13186   6.776   3.083   5.492  0.6549  0.4277 -0.1204
 4096SOL    HW113187   6.848   3.079   5.562  0.4740  1.1382  0.1091
 4096SOL    HW213188   6.699   3.027   5.521  0.4677  0.9384  0.3829
 4097SOL     OW13189   1.502   4.711   1.346  0.2611  0.3168  0.4150
 4097SOL    HW113190   1.597   4.686   1.326  0.2490  0.9765 -0.5375
 4097SOL    HW213191   1.488   4.713   1.445  0.8149 -1.3430  0.5630
 4098SOL     OW13192   4.665   4.927   4.777  0.5649  0.2048  0.2880
 4098SOL    HW113193   4.676   4.840   4.825  0.7168 -1.2626 -2.2388
 4098SOL    HW213194   4.591   4.918   4.710  0.2793  2.1919  0.2967
 4099SOL     OW13195   5.985   4.446   1.433 -0.5062 -0.3668 -0.2451
 4099SOL    HW113196   5.895   4.439   1.389 -1.6037 -0.9379  1.9881
 4099SOL    HW213197   6.034   4.523   1.393 -1.8114 -0.2440 -1.7665
 4100SOL     OW13198   2.054   3.693   4.322  0.5583  0.1923 -0.0656
 4100SOL    HW113199   2.087   3.756   4.393  1.5757  0.1727 -0.5051
 4100SOL    HW213200   2.106   3.708   4.237 -0.5510  0.1337 -0.7825
 4101SOL     OW13201   3.601   0.029   2.766  0.1137 -0.5699  0.7358
 4101SOL    HW113202   3.532  -0.043   2.771  1.1025 -1.5272  0.9556
 4101SOL    HW213203   3.671   0.003   2.699 -0.1791  0.8006 -0.1636
 4102SOL     OW13204   6.562   4.070   6.765 -0.2212  0.2476  0.0902
 4102SOL    HW113205   6.536   4.050   6.859 -0.9190  0.4153 -0.0653
 4102SOL    HW213206   6.658   4.099   6.763  0.0655 -0.6381  0.6290
 4103SOL     OW13207   0.196   1.943   5.456  0.3423  0.0725 -0.3624
 4103SOL    HW113208   0.145   1.995   5.388  1.0559 -0.8041 -1.5930
 4103SOL    HW213209   0.212   1.850   5.423  1.7720 -0.0092  0.4625
 4104SOL     OW13210   1.998   1.258   1.412  0.0640 -0.1053  0.1982
 4104SOL    HW113211   1.979   1.165   1.444  3.7463 -0.6947  1.2472
 4104SOL    HW213212   1.919   1.294   1.364 -2.5541 -2.6557  2.2386
 4105SOL     OW13213   5.982   5.957   3.731 -0.0434 -0.1684  0.1617
 4105SOL    HW113214   5.908   5.907   3.685 -1.0186 -1.2704  2.7366
 4105SOL    HW213215   5.943   6.014   3.803  1.5676 -0.0480  0.9734
 4106SOL     OW13216   3.164   2.956   2.092  0.2593 -1.0236  1.1114
 4106SOL    HW113217   3.122   3.003   2.015 -1.3393 -1.4656  1.6716
 4106SOL    HW213218   3.101   2.955   2.170  1.3863 -1.5719  2.0656
 4107SOL     OW13219   0.743   4.702   2.869  0.2842 -0.4276 -0.0858
 4107SOL    HW113220   0.688   4.643   2.810 -0.9086  0.3760  0.1830
 4107SOL    HW213221   0.720   4.684   2.965 -0.6978  1.0256 -0.0315
 4108SOL     OW13222   3.516   1.521   6.919 -0.3208  0.5413 -0.2391
 4108SOL    HW113223   3.503   1.609   6.966  0.3023  1.6351 -1.9924
 4108SOL    HW213224   3.600   1.478   6.950 -0.4718  0.7088  0.4109
 4109SOL     OW13225   0.373   6.640   2.762  0.1806  0.1088  0.1474
 4109SOL    HW113226   0.460   6.680   2.792  0.6936 -1.8462  1.4414
 4109SOL    HW213227   0.379   6.540   2.767 -1.8402 -0.0981 -0.6699
 4110SOL     OW13228   3.160   0.143   2.613 -0.2098  0.3626  0.2582
 4110SOL    HW113229   3.202   0.105   2.531 -1.0364  0.4759 -0.2361
 4110SOL    HW213230   3.141   0.241   2.599 -3.5251 -0.3057 -0.8303
 4111SOL     OW13231   3.853   1.411   4.821  0.2887 -0.2564  0.2819
 4111SOL    HW113232   3.788   1.478   4.858  1.9479  0.7199  1.5862
 4111SOL    HW213233   3.897   1.450   4.740 -1.6314 -1.4457 -1.4070
 4112SOL     OW13234   2.121   3.635   1.486  0.4477  0.3012  0.0700
 4112SOL    HW113235   2.202   3.658   1.431 -0.0425 -0.2105 -0.9113
 4112SOL    HW213236   2.149   3.585   1.567  1.2525  1.6472  0.6531
 4113SOL     OW13237   5.950   0.995   5.956 -0.8833 -0.0163  0.6003
 4113SOL    HW113238   5.878   1.056   5.923 -0.4528  1.1608  1.7602
 4113SOL    HW213239   6.036   1.045   5.961 -0.1610 -1.1818  0.0337
 4114SOL     OW13240   6.417   2.448   1.967  0.5865  0.3347 -0.0486
 4114SOL    HW113241   6.351   2.406   2.030  0.9286  0.1440  0.1838
 4114SOL    HW213242   6.454   2.378   1.907  0.9640  0.3496  0.1663
 4115SOL     OW13243   5.776   6.105   4.887 -0.5366 -0.1811  0.4554
 4115SOL    HW113244   5.714   6.131   4.961 -0.3373  0.5898  0.3600
 4115SOL    HW213245   5.779   6.177   4.818 -0.0743 -0.5180  0.1148
 4116SOL     OW13246   4.618   6.818   1.590  0.5939  0.1068  0.0564
 4116SOL    HW113247   4.533   6.857   1.555 -0.9154 -0.3078  2.9605
 4116SOL    HW213248   4.620   6.720   1.573  0.1712  0.0114  0.5393
 4117SOL     OW13249   1.168   4.219   2.564  0.4624 -0.1882  0.4529
 4117SOL    HW113250   1.101   4.186   2.629 -0.9955  2.2777  0.3080
 4117SOL    HW213251   1.129   4.218   2.472  0.7425  0.8488  0.3058
 4118SOL     OW13252   6.199   1.945   5.001 -0.4663 -0.0967  0.1369
 4118SOL    HW113253   6.140   2.025   5.012 -1.6844 -0.8308 -0.7590
 4118SOL    HW213254   6.272   1.966   4.936 -2.1688 -0.3611 -1.9932
 4119SOL     OW13255   2.104   5.066   2.231 -0.2580  0.2048  1.1027
 4119SOL    HW113256   2.125   5.156   2.194  1.6265  0.1392  1.9018
 4119SOL    HW213257   2.152   5.054   2.318  1.7924 -2.5514 -0.2488
 4120SOL     OW13258   1.285   5.617   0.161  0.3329 -0.2433  0.1443
 4120SOL    HW113259   1.191   5.584   0.149  0.4782 -0.7331  0.3587
 4120SOL    HW213260   1.282   5.708   0.203 -0.0123 -1.0142  1.8603
 4121SOL     OW13261   0.895   5.978   0.265  0.2980 -0.1814 -0.5265
 4121SOL    HW113262   0.834   5.920   0.210  0.6392  0.4557 -1.6045
 4121SOL    HW213263   0.848   6.064   0.286  1.0473  0.6006 -1.9528
 4122SOL     OW13264   6.891   2.679   5.029  0.5679  0.2130 -0.7242
 4122SOL    HW113265   6.845   2.590   5.030 -0.9206  0.9530  0.3498
 4122SOL    HW213266   6.989   2.666   5.039  0.4800 -1.3440 -1.5247
 4123SOL     OW13267   6.194   1.182   1.275  0.7289 -0.3179 -0.4375
 4123SOL    HW113268   6.266   1.251   1.277 -0.7858  1.3404 -0.8854
 4123SOL    HW213269   6.214   1.111   1.343  0.5679  2.4543  2.7845
 4124SOL     OW13270   2.945   3.787   6.403  0.4691 -0.2953 -0.0297
 4124SOL    HW113271   2.998   3.870   6.417  0.8763 -0.6790  0.7737
 4124SOL    HW213272   2.858   3.795   6.452  0.4123 -0.2515 -0.1382
 4125SOL     OW13273   0.902   6.358   2.595 -0.1760  0.2548 -0.1364
 4125SOL    HW113274   0.851   6.361   2.509  2.5853 -0.3381 -1.9621
 4125SOL    HW213275   0.863   6.290   2.656 -1.1431 -0.6385 -1.7065
 4126SOL     OW13276   3.370   3.821   0.019  0.2264  0.4604 -0.1699
 4126SOL    HW113277   3.301   3.799   0.088  0.3746  1.9115  0.4737
 4126SOL    HW213278   3.348   3.909  -0.024  0.0466 -0.4801 -2.1250
 4127SOL     OW13279   5.096   3.881   2.069  0.3868  0.1887 -0.1578
 4127SOL    HW113280   5.113   3.810   2.138  0.0104  1.8173  1.7219
 4127SOL    HW213281   4.998   3.903   2.067  0.2847 -0.3298 -1.7630
 4128SOL     OW13282   1.189   0.502   0.846 -0.5813  0.2710  0.8733
 4128SOL    HW113283   1.245   0.425   0.816  0.5035  1.1609  0.5303
 4128SOL    HW213284   1.101   0.499   0.799 -0.1509 -0.1792  0.0626
 4129SOL     OW13285   5.156   4.531   0.202 -0.1882  0.5958  0.0638
 4129SOL    HW113286   5.057   4.524   0.192  0.0100 -0.5447 -1.4480
 4129SOL    HW213287   5.186   4.623   0.179 -0.6955  0.3483 -1.7655
 4130SOL     OW13288   5.811   3.132   1.340  0.5385 -0.2890  0.5065
 4130SOL    HW113289   5.781   3.182   1.259  0.2142 -0.7863  0.3117
 4130SOL    HW213290   5.801   3.189   1.421  0.2842  0.0013  0.2710
 4131SOL     OW13291   5.058   3.124   3.916 -0.3636  0.2607  0.0149
 4131SOL    HW113292   5.084   3.133   4.012  2.4069  0.4810 -0.6654
 4131SOL    HW213293   5.128   3.166   3.859 -2.8999  2.0022 -2.0885
 4132SOL     OW13294   6.867   1.628   0.171  0.4978 -0.5371 -0.5468
 4132SOL    HW113295   6.932   1.557   0.198  1.9860  1.2312  0.7517
 4132SOL    HW213296   6.777   1.606   0.207  1.0240 -1.5205  0.2216
 4133SOL     OW13297   4.349   2.373   1.011  0.2711  0.2482 -0.6315
 4133SOL    HW113298   4.287   2.441   0.972 -0.2460  0.4345  0.5008
 4133SOL    HW213299   4.380   2.402   1.101 -0.7179 -1.4230  0.3051
 4134SOL     OW13300   3.078   1.613   4.834  0.1880 -0.9224  0.0634
 4134SOL    HW113301   3.118   1.595   4.924 -0.3623 -0.7427  0.3482
 4134SOL    HW213302   2.990   1.659   4.845  0.2060 -0.7190 -0.5732
 4135SOL     OW13303   0.789   5.602   5.633  0.5594  0.1836  0.0297
 4135SOL    HW113304   0.746   5.682   5.590 -0.3486 -0.0186  0.5414
 4135SOL    HW213305   0.887   5.602   5.613  0.6361  1.6175  0.2950
 4136SOL     OW13306   6.083   1.586   4.710  0.0255  0.2368 -0.1086
 4136SOL    HW113307   6.022   1.656   4.747  0.5359  0.4044  0.4415
 4136SOL    HW213308   6.110   1.523   4.784  1.5030  0.9010 -0.0391
 4137SOL     OW13309   0.810   5.322   3.172  0.2139  0.3122 -0.0742
 4137SOL    HW113310   0.711   5.321   3.177  0.2350  1.2087  0.6928
 4137SOL    HW213311   0.842   5.240   3.125 -0.7510 -1.2929  1.9262
 4138SOL     OW13312   4.108   3.472   4.085 -0.7138  0.5610 -0.1025
 4138SOL    HW113313   4.179   3.444   4.149  0.8592  1.6655 -1.2750
 4138SOL    HW213314   4.092   3.399   4.019 -0.7960  0.2327  0.2809
 4139SOL     OW13315   0.598   3.643   2.388  0.1354  0.3089  0.0428
 4139SOL    HW113316   0.499   3.660   2.392  0.2928  1.0429  0.9438
 4139SOL    HW213317   0.634   3.630   2.480  0.8699 -0.0742 -0.2876
 4140SOL     OW13318   5.826   4.907   4.800  0.2039  0.3041 -0.1394
 4140SOL    HW113319   5.892   4.923   4.874  0.6573 -1.3812 -0.1268
 4140SOL    HW213320   5.734   4.927   4.832  0.4622  0.2192  0.6870
 4141SOL     OW13321   3.764   5.223   4.111  0.0547 -0.3899 -0.3158
 4141SOL    HW113322   3.672   5.248   4.142  0.2907  2.3252 -1.5257
 4141SOL    HW213323   3.803   5.156   4.174 -0.9437  1.9168  3.0576
 4142SOL     OW13324   1.327   3.030   6.208 -0.3002  0.3815 -0.3885
 4142SOL    HW113325   1.382   2.947   6.202 -2.8075 -1.3199 -1.7187
 4142SOL    HW213326   1.384   3.109   6.187  2.2367 -0.9210  1.1290
 4143SOL     OW13327   5.410   0.308   4.093 -0.5787  0.6550  0.2339
 4143SOL    HW113328   5.489   0.334   4.149 -0.5674  1.1951 -0.0202
 4143SOL    HW213329   5.345   0.256   4.148  0.3412 -0.5353  0.2242
 4144SOL     OW13330   3.813   6.991   2.561  0.3870  0.2604 -1.0588
 4144SOL    HW113331   3.787   6.984   2.465 -0.4740 -2.8911 -0.7086
 4144SOL    HW213332   3.912   6.992   2.569  0.4879 -0.8719 -1.9644
 4145SOL     OW13333   2.162   2.003   4.962 -0.1123  0.1784 -0.5994
 4145SOL    HW113334   2.085   1.940   4.952  1.1441 -1.4088 -0.6963
 4145SOL    HW213335   2.235   1.976   4.900 -0.3666  3.1839 -2.4402
 4146SOL     OW13336   4.940   0.375   4.794 -0.2083  0.1721 -0.1991
 4146SOL    HW113337   4.939   0.461   4.845  0.4892 -1.1724  2.2089
 4146SOL    HW213338   4.850   0.360   4.752 -1.0570  0.9923  1.2697
 4147SOL     OW13339   5.598   5.079   3.158 -0.3234 -0.0976  0.2502
 4147SOL    HW113340   5.498   5.079   3.162 -0.3827 -0.9756 -0.7221
 4147SOL    HW213341   5.632   5.173   3.164 -1.0225  0.0608  3.5897
 4148SOL     OW13342   2.019   2.964   6.848  0.6509 -0.3280  0.2901
 4148SOL    HW113343   2.093   3.008   6.898  0.7944  1.2216 -1.1924
 4148SOL    HW213344   2.051   2.938   6.757 -0.2831 -0.7986  0.0797
 4149SOL     OW13345   6.554   0.399   0.134 -0.1464  0.1272  0.6573
 4149SOL    HW113346   6.581   0.492   0.110 -0.5017  0.4254  1.3693
 4149SOL    HW213347   6.624   0.335   0.103 -0.0561  0.5984 -0.1211
 4150SOL     OW13348   3.834   2.082   1.812  0.2172 -0.2409 -0.9394
 4150SOL    HW113349   3.793   2.005   1.861  0.9648  0.3991  0.7508
 4150SOL    HW213350   3.794   2.168   1.844  0.8459  0.2075 -1.3176
 4151SOL     OW13351   4.481   4.779   6.494 -0.1273  0.4535  0.2827
 4151SOL    HW113352   4.508   4.683   6.503  0.4875  0.6412  0.5167
 4151SOL    HW213353   4.409   4.800   6.560  0.5819  0.4563  1.0636
 4152SOL     OW13354   1.370   1.097   0.245 -0.2488 -0.2792  0.2887
 4152SOL    HW113355   1.334   1.109   0.337  0.5257 -0.8841  0.6789
 4152SOL    HW213356   1.344   1.007   0.210  0.7163 -0.6573  0.5100
 4153SOL     OW13357   2.521   3.407   5.982 -0.1752 -0.5752  0.8630
 4153SOL    HW113358   2.555   3.335   6.042 -2.2276  0.6652  3.7551
 4153SOL    HW213359   2.422   3.397   5.971 -0.5300  1.7593  1.3792
 4154SOL     OW13360   5.015   1.396   2.354  0.2831  0.1825  0.3528
 4154SOL    HW113361   4.959   1.417   2.273  1.7493  1.2451 -0.4261
 4154SOL    HW213362   5.087   1.331   2.329 -0.0458 -0.5114  1.1455
 4155SOL     OW13363   1.757   2.221   3.207  0.5168  0.3074 -0.2404
 4155SOL    HW113364   1.783   2.236   3.303 -0.2299  1.8452 -0.2561
 4155SOL    HW213365   1.658   2.214   3.201  0.4962  1.2166 -1.0244
 4156SOL     OW13366   1.008   3.575   2.887  0.8533 -0.5780 -0.1009
 4156SOL    HW113367   0.959   3.635   2.949  2.2228 -0.2366  0.6780
 4156SOL    HW213368   1.051   3.501   2.939  1.9596 -0.3290 -0.6409
 4157SOL     OW13369   2.825   0.610   4.845  0.2475 -0.3395  0.0546
 4157SOL    HW113370   2.869   0.674   4.783 -0.7763  2.4938  2.0379
 4157SOL    HW213371   2.764   0.549   4.793  0.2272  1.1819 -1.8006
 4158SOL     OW13372   6.775   0.198   1.191 -0.1773  0.0440 -0.4417
 4158SOL    HW113373   6.804   0.174   1.284 -0.6965 -2.7241 -0.9103
 4158SOL    HW213374   6.685   0.241   1.193 -0.4095 -0.4738  0.2960
 4159SOL     OW13375   1.211   6.604   2.971 -0.1448  0.4253  0.0107
 4159SOL    HW113376   1.206   6.629   3.068 -0.9985 -1.5898  0.5373
 4159SOL    HW213377   1.150   6.663   2.918  0.6588  1.8354  0.6034
 4160SOL     OW13378   3.914   6.473   6.666  0.0836 -0.2579  0.4413
 4160SOL    HW113379   3.845   6.506   6.731 -1.0339  0.2475 -0.9638
 4160SOL    HW213380   3.873   6.462   6.576  2.0365  0.8403 -0.6441
 4161SOL     OW13381   2.861   1.485   1.560  0.0537  0.1559  0.3030
 4161SOL    HW113382   2.864   1.527   1.469  2.2566  0.6823  0.5593
 4161SOL    HW213383   2.786   1.526   1.613 -0.5325  0.6649 -0.8904
 4162SOL     OW13384   2.004   3.106   6.023 -0.4053  0.3962 -0.4645
 4162SOL    HW113385   1.961   3.195   6.037 -0.3924  0.1149  1.7206
 4162SOL    HW213386   2.017   3.090   5.925 -1.7933  2.1134 -0.9752
 4163SOL     OW13387   3.593   1.881   0.156 -0.7596 -0.1110 -0.0370
 4163SOL    HW113388   3.675   1.865   0.102 -0.6736 -1.2076  0.4093
 4163SOL    HW213389   3.512   1.863   0.099 -0.6990 -3.9936  0.8649
 4164SOL     OW13390   3.954   0.020   6.318 -0.2697  0.5310 -0.4494
 4164SOL    HW113391   4.030  -0.027   6.362 -0.2314  1.8290  0.9546
 4164SOL    HW213392   3.904  -0.044   6.260  0.2655 -1.0022  0.7261
 4165SOL     OW13393   3.472   5.976   3.401 -0.2474  0.3817  0.4073
 4165SOL    HW113394   3.418   5.956   3.319 -0.7824  0.2689  0.7855
 4165SOL    HW213395   3.417   6.028   3.466  0.3736  1.0086  0.4438
 4166SOL     OW13396   6.431   1.079   3.643  0.3256  0.0225 -0.5222
 4166SOL    HW113397   6.442   1.058   3.546  2.8767 -1.2797 -0.0438
 4166SOL    HW213398   6.408   0.995   3.693  3.4894 -0.3856  0.4876
 4167SOL     OW13399   0.092   2.951   4.209  0.5033  0.1414 -0.3130
 4167SOL    HW113400   0.088   3.009   4.290  1.2956 -0.7085  0.3647
 4167SOL    HW213401   0.151   2.994   4.141  0.0299  0.7462 -0.3523
 4168SOL     OW13402   5.035   2.667   4.896  0.5846  0.2282 -0.5350
 4168SOL    HW113403   4.958   2.634   4.951 -0.0139 -0.8422 -1.9554
 4168SOL    HW213404   5.115   2.611   4.913  0.8350  0.8180  0.3127
 4169SOL     OW13405   1.857   1.393   6.743 -0.6049 -0.1121 -0.3369
 4169SOL    HW113406   1.939   1.349   6.781  0.3067  1.7157 -0.0748
 4169SOL    HW213407   1.787   1.400   6.814  0.8210  2.6278  0.9692
 4170SOL     OW13408   0.685   4.760   2.244  0.8967 -0.8453  0.9858
 4170SOL    HW113409   0.760   4.810   2.289  0.0876  1.3097  0.0765
 4170SOL    HW213410   0.687   4.779   2.146 -1.4200  0.1434  1.0728
 4171SOL     OW13411   1.571   3.720   1.649  0.3202 -0.9453  0.1410
 4171SOL    HW113412   1.567   3.820   1.650 -0.7937 -0.9825  0.4749
 4171SOL    HW213413   1.666   3.691   1.633  0.7363  0.1518  0.4954
 4172SOL     OW13414   2.432   4.001   0.653 -0.5008 -0.1680  0.2171
 4172SOL    HW113415   2.466   4.063   0.582  0.8826  0.8966  1.7232
 4172SOL    HW213416   2.392   3.920   0.611  1.1382 -0.0187 -1.7643
 4173SOL     OW13417   3.995   0.126   6.855  0.2143 -0.7607  0.2041
 4173SOL    HW113418   3.957   0.065   6.925 -0.2308  1.7612  2.3108
 4173SOL    HW213419   4.089   0.151   6.881 -0.3897  1.1886  0.6454
 4174SOL     OW13420   5.185   4.983   3.925  0.0738 -0.1011  0.0154
 4174SOL    HW113421   5.202   5.012   3.831 -1.0244 -1.8509 -0.7645
 4174SOL    HW213422   5.146   4.891   3.926  2.3681 -1.1659  2.3183
 4175SOL     OW13423   2.243   4.242   6.005  0.0688  0.0510 -0.3124
 4175SOL    HW113424   2.244   4.315   5.936 -1.6790  1.4620  1.0641
 4175SOL    HW213425   2.298   4.269   6.083  0.0621 -0.4639 -0.1265
 4176SOL     OW13426   2.552   2.558   5.149  0.1595 -1.0667 -0.4434
 4176SOL    HW113427   2.624   2.489   5.143  1.7486  0.5722 -0.8880
 4176SOL    HW213428   2.581   2.632   5.209 -1.0772 -0.2545 -0.8000
 4177SOL     OW13429   5.866   4.668   4.685  0.2550 -0.0471  0.8106
 4177SOL    HW113430   5.781   4.616   4.696  0.0028  0.6386  2.4653
 4177SOL    HW213431   5.851   4.762   4.716  1.3003  0.4095 -0.0336
 4178SOL     OW13432   4.946   4.969   5.081 -0.3928 -0.1271 -0.2283
 4178SOL    HW113433   4.893   5.009   5.006 -0.4327  0.1171 -0.0696
 4178SOL    HW213434   5.038   4.946   5.048 -0.1513  0.7032 -0.1479
 4179SOL     OW13435   1.262   1.950   5.546 -0.0934  0.3245  0.4493
 4179SOL    HW113436   1.165   1.940   5.526  0.5498 -2.4247 -2.0771
 4179SOL    HW213437   1.315   1.929   5.464  2.7002 -1.1875  2.4557
 4180SOL     OW13438   4.846   5.133   1.583 -0.2218 -0.3908 -0.1635
 4180SOL    HW113439   4.751   5.147   1.558 -0.5316  0.7211  1.4956
 4180SOL    HW213440   4.905   5.182   1.518 -0.7846 -0.5335 -0.8011
 4181SOL     OW13441   5.791   4.033   5.902 -0.9305  0.0637 -0.4742
 4181SOL    HW113442   5.712   4.032   5.840  1.3106  1.9384 -3.7146
 4181SOL    HW213443   5.836   3.944   5.901 -0.2804  0.3469 -2.6814
 4182SOL     OW13444   6.583   3.920   2.530 -0.0421 -0.4389  0.0642
 4182SOL    HW113445   6.539   3.841   2.574 -1.0475 -0.0970 -0.2980
 4182SOL    HW213446   6.514   3.989   2.510  0.7704  0.3698  0.0099
 4183SOL     OW13447   0.066   2.328   6.741  0.1516  0.1098 -0.7073
 4183SOL    HW113448  -0.033   2.322   6.727  0.1225  2.8560 -2.3327
 4183SOL    HW213449   0.108   2.239   6.722 -1.9487 -1.1261  0.0598
 4184SOL     OW13450   2.295   5.299   2.149 -0.1860  0.2645  0.6431
 4184SOL    HW113451   2.382   5.266   2.186  0.4188 -1.0925 -1.7920
 4184SOL    HW213452   2.275   5.252   2.064 -2.1694  2.2567 -0.0913
 4185SOL     OW13453   1.301   4.187   3.405  0.3365  0.5918 -0.1832
 4185SOL    HW113454   1.217   4.163   3.356  0.7049 -0.9173 -0.1354
 4185SOL    HW213455   1.362   4.107   3.407  1.4687  1.4492  0.4000
 4186SOL     OW13456   0.543   4.649   5.848  0.1008  0.2352 -0.5463
 4186SOL    HW113457   0.487   4.568   5.867  0.4639  0.2462  0.6355
 4186SOL    HW213458   0.552   4.704   5.932  1.3016  0.5933 -0.8941
 4187SOL     OW13459   2.032   4.915   1.726 -0.2585 -0.1248 -0.3359
 4187SOL    HW113460   2.132   4.911   1.720  0.3229 -0.6031  4.7816
 4187SOL    HW213461   2.002   5.010   1.716  1.1869  0.5391  1.0129
 4188SOL     OW13462   5.726   6.704   3.542 -0.7999  0.5272 -0.5281
 4188SOL    HW113463   5.740   6.680   3.446  1.1354  0.7073 -0.3284
 4188SOL    HW213464   5.808   6.748   3.578 -2.1556  2.1896  0.7223
 4189SOL     OW13465   2.986   6.775   0.921  0.2935  0.3082 -0.2859
 4189SOL    HW113466   2.985   6.734   0.830 -1.3248  0.5706 -0.4103
 4189SOL    HW213467   2.992   6.874   0.913 -1.8077  0.4832 -0.2180
 4190SOL     OW13468   0.899   2.744   5.571 -0.4901 -0.0022 -0.0466
 4190SOL    HW113469   0.881   2.690   5.654 -1.0818 -0.0510 -0.2039
 4190SOL    HW213470   0.846   2.828   5.574 -0.8260 -0.1940 -0.5657
 4191SOL     OW13471   2.392   2.184   2.371  0.3416  0.5728 -0.0126
 4191SOL    HW113472   2.389   2.103   2.312  0.9619  0.9922 -0.6409
 4191SOL    HW213473   2.328   2.173   2.447  0.5563 -0.5844  0.0112
 4192SOL     OW13474   1.863   5.893   4.518  0.5618 -0.8060  0.1342
 4192SOL    HW113475   1.831   5.971   4.465  1.7796 -0.5726 -0.2907
 4192SOL    HW213476   1.787   5.829   4.532 -0.6732  0.8288  1.2257
 4193SOL     OW13477   2.169   4.341   2.804 -0.1565 -0.3212  1.1209
 4193SOL    HW113478   2.142   4.251   2.772 -0.2708 -0.2663  1.0634
 4193SOL    HW213479   2.100   4.377   2.867 -0.8814  0.3715 -0.0284
 4194SOL     OW13480   3.780   5.719   2.808  0.4541 -0.0750 -0.2372
 4194SOL    HW113481   3.795   5.764   2.896  0.7466 -0.9487  0.1837
 4194SOL    HW213482   3.749   5.625   2.824  0.6220 -0.2817 -1.0662
 4195SOL     OW13483   5.379   0.067   4.857 -0.0302 -0.0421 -0.4342
 4195SOL    HW113484   5.445   0.007   4.812 -0.0539  0.0973 -0.6560
 4195SOL    HW213485   5.297   0.015   4.880 -0.0330 -0.1070 -0.5861
 4196SOL     OW13486   3.470   0.661   2.875 -0.0468 -0.1595  0.6196
 4196SOL    HW113487   3.506   0.576   2.912  1.6326  0.0721 -0.3579
 4196SOL    HW213488   3.467   0.730   2.947  0.4304 -0.5039  0.9761
 4197SOL     OW13489   4.539   5.776   5.247  0.1286  0.2838 -0.1503
 4197SOL    HW113490   4.537   5.873   5.269  0.0584 -0.1859  2.1961
 4197SOL    HW213491   4.633   5.748   5.229  0.2541  0.6318 -0.0483
 4198SOL     OW13492   5.514   0.103   0.882 -0.2491 -0.4764 -0.2487
 4198SOL    HW113493   5.547   0.065   0.795  0.4315 -1.4435  0.4038
 4198SOL    HW213494   5.593   0.132   0.937 -0.7295  1.6431 -0.5832
 4199SOL     OW13495   5.329   2.883   2.192 -0.1217  0.3910  0.0601
 4199SOL    HW113496   5.254   2.894   2.257 -0.5599  0.3052 -0.4213
 4199SOL    HW213497   5.402   2.948   2.214  0.5382 -0.8543  1.7398
 4200SOL     OW13498   4.063   5.818   1.140 -0.3106  0.1402  0.5363
 4200SOL    HW113499   4.103   5.774   1.220 -0.4584  1.5939  1.4563
 4200SOL    HW213500   4.125   5.809   1.062  0.2983 -0.4462  1.0766
 4201SOL     OW13501   6.779   6.702   2.044  0.3055 -0.1489 -0.1366
 4201SOL    HW113502   6.809   6.732   2.135 -3.0007 -0.3652  1.1567
 4201SOL    HW213503   6.751   6.607   2.048 -0.5634  0.0483 -1.2002
 4202SOL     OW13504   3.590   0.117   1.660 -0.2120  0.0458 -0.3785
 4202SOL    HW113505   3.533   0.131   1.741  0.3515  0.4584 -0.0460
 4202SOL    HW213506   3.661   0.050   1.680  0.7936  1.1594 -0.0683
 4203SOL     OW13507   4.280   2.250   0.065  0.1534  0.0048 -0.1761
 4203SOL    HW113508   4.267   2.347   0.084 -0.9964 -0.3761  1.1674
 4203SOL    HW213509   4.285   2.236  -0.034  0.0631  1.3839 -0.4006
 4204SOL     OW13510   6.028   6.759   5.187 -0.1270  0.0406  0.4005
 4204SOL    HW113511   6.082   6.801   5.259  1.6502 -0.0527 -0.8125
 4204SOL    HW213512   6.063   6.667   5.168 -1.1842 -0.3156  0.0443
 4205SOL     OW13513   2.207   3.738   1.088 -0.2083 -0.1350  0.0973
 4205SOL    HW113514   2.181   3.657   1.141  0.5437  0.1718  0.9783
 4205SOL    HW213515   2.240   3.809   1.151 -1.5249  1.1352 -0.5899
 4206SOL     OW13516   5.508   2.925   5.557  0.6794  0.5205  0.5785
 4206SOL    HW113517   5.417   2.910   5.595 -0.4295 -0.0888 -2.0760
 4206SOL    HW213518   5.576   2.876   5.612 -0.4397  1.6247  3.0677
 4207SOL     OW13519   6.542   6.291   5.460  0.1246  0.5616 -0.0873
 4207SOL    HW113520   6.565   6.367   5.522 -0.0493 -0.1812  0.9095
 4207SOL    HW213521   6.554   6.204   5.508 -0.8845 -0.0032 -0.8204
 4208SOL     OW13522   0.077   6.241   2.799 -0.4713 -0.3352  0.0306
 4208SOL    HW113523   0.008   6.228   2.872  0.4155 -0.7300  0.8229
 4208SOL    HW213524   0.039   6.210   2.712 -1.6998  0.5162  0.2353
 4209SOL     OW13525   3.059   5.290   4.675  0.3574  0.8657  0.2538
 4209SOL    HW113526   3.067   5.336   4.764 -0.8856  0.7558  0.4355
 4209SOL    HW213527   3.009   5.204   4.686 -2.2670  2.1412 -0.9501
 4210SOL     OW13528   5.604   2.158   2.942  0.8486 -0.2701 -0.5207
 4210SOL    HW113529   5.528   2.158   2.878  0.3788  1.0868  0.0134
 4210SOL    HW213530   5.586   2.092   3.015  1.5903 -2.1659 -1.9527
 4211SOL     OW13531   6.521   3.732   2.710 -0.4364 -0.4617 -0.2445
 4211SOL    HW113532   6.558   3.694   2.795  0.2432 -0.8098 -0.6858
 4211SOL    HW213533   6.501   3.658   2.646  2.3270 -0.1237 -1.6948
 4212SOL     OW13534   2.437   1.288   6.276 -0.2834 -0.8382 -0.2234
 4212SOL    HW113535   2.377   1.358   6.236  1.5664 -0.3650 -2.4227
 4212SOL    HW213536   2.454   1.216   6.208  1.8761 -0.7451  0.1410
 4213SOL     OW13537   6.946   5.581   2.763  0.2963  0.4146  0.5852
 4213SOL    HW113538   7.015   5.527   2.714 -0.0078 -0.2367  0.8717
 4213SOL    HW213539   6.862   5.585   2.709  0.2888  0.5412  0.6038
 4214SOL     OW13540   5.783   3.796   2.311 -0.2505  0.2923  0.1866
 4214SOL    HW113541   5.713   3.725   2.304  0.3964 -0.2995 -0.5392
 4214SOL    HW213542   5.756   3.875   2.256 -0.3282  0.0330 -0.1537
 4215SOL     OW13543   5.141   0.165   0.913 -0.2041 -0.2986 -0.0084
 4215SOL    HW113544   5.044   0.181   0.895 -0.3774  1.0982  1.8258
 4215SOL    HW213545   5.166   0.072   0.886 -1.5352 -0.0180 -2.4116
 4216SOL     OW13546   5.885   1.264   2.419 -0.2660 -0.2750 -0.6013
 4216SOL    HW113547   5.795   1.304   2.402 -1.6990 -2.2128  1.8924
 4216SOL    HW213548   5.946   1.335   2.454 -1.8049  0.4643  0.7330
 4217SOL     OW13549   0.455   2.254   2.401  0.4605  0.3456 -0.3177
 4217SOL    HW113550   0.455   2.348   2.434  0.6917  1.2024 -2.5978
 4217SOL    HW213551   0.502   2.249   2.313  2.2684 -2.2730  0.6366
 4218SOL     OW13552   5.860   2.831   4.535 -0.1219  0.3370  0.1391
 4218SOL    HW113553   5.779   2.847   4.591 -0.3765  0.3969 -0.2450
 4218SOL    HW213554   5.890   2.917   4.493  0.4067  0.4013  0.6329
 4219SOL     OW13555   6.104   2.109   1.815  0.3787 -0.2519 -0.1534
 4219SOL    HW113556   6.165   2.130   1.891  0.7697  2.4341 -1.1016
 4219SOL    HW213557   6.077   2.194   1.769 -0.1263 -1.7225 -2.7980
 4220SOL     OW13558   6.573   4.789   4.963  0.3992  0.8827 -0.1678
 4220SOL    HW113559   6.494   4.815   4.907 -1.3213 -0.0456  1.7157
 4220SOL    HW213560   6.616   4.708   4.923 -0.7735  0.2628 -0.2161
 4221SOL     OW13561   0.350   4.539   4.094 -0.4226  0.4869  0.0249
 4221SOL    HW113562   0.395   4.628   4.092  1.6102 -0.4852 -0.5700
 4221SOL    HW213563   0.334   4.511   4.188 -0.4927  1.1804  0.2265
 4222SOL     OW13564   4.787   1.526   3.527 -0.2074  0.2497 -0.1220
 4222SOL    HW113565   4.774   1.620   3.497 -1.0944  0.1226 -0.1657
 4222SOL    HW213566   4.784   1.522   3.627 -1.1996  0.1390 -0.1453
 4223SOL     OW13567   4.388   1.604   2.582  0.3652 -0.2543 -0.1869
 4223SOL    HW113568   4.473   1.576   2.628 -0.5009 -1.4460  0.7408
 4223SOL    HW213569   4.352   1.685   2.628 -0.0144 -0.9073  0.7093
 4224SOL     OW13570   5.282   0.663   0.942  0.1988  0.1015  0.0487
 4224SOL    HW113571   5.292   0.659   0.843 -0.3997  2.4252 -0.1583
 4224SOL    HW213572   5.329   0.743   0.978  1.3222 -1.2656  1.8285
 4225SOL     OW13573   5.810   6.766   5.354  0.4792 -0.5057 -0.4491
 4225SOL    HW113574   5.832   6.859   5.381 -0.4891 -0.9213  2.0190
 4225SOL    HW213575   5.869   6.738   5.278  3.1058  0.9797  0.9046
 4226SOL     OW13576   0.676   4.367   0.912  0.1347 -0.4828  0.3766
 4226SOL    HW113577   0.725   4.285   0.942  0.9418  0.1780  0.8937
 4226SOL    HW213578   0.604   4.389   0.979 -0.8113 -1.3624 -0.3049
 4227SOL     OW13579   5.950   2.050   0.139 -0.6797 -0.4273  0.0968
 4227SOL    HW113580   6.015   1.984   0.178 -0.2676 -1.2727 -1.8967
 4227SOL    HW213581   5.992   2.094   0.059 -1.8823  0.4140 -0.0904
 4228SOL     OW13582   6.192   0.070   1.985 -0.3224  0.0279  0.2593
 4228SOL    HW113583   6.114   0.064   1.922  0.1918  0.6093 -0.4503
 4228SOL    HW213584   6.277   0.066   1.933  0.1124  0.6038  0.9117
 4229SOL     OW13585   5.721   0.584   2.785 -0.1265 -0.2403  0.3775
 4229SOL    HW113586   5.726   0.606   2.882 -0.7524 -0.9974  0.5940
 4229SOL    HW213587   5.782   0.644   2.734  0.7619 -0.3201  1.3195
 4230SOL     OW13588   1.798   5.208   5.974  0.5869 -0.2791  0.0308
 4230SOL    HW113589   1.725   5.274   5.992  2.5699  2.2902 -0.6815
 4230SOL    HW213590   1.778   5.157   5.891  1.1023  3.0072 -2.3190
 4231SOL     OW13591   4.998   2.482   3.757  0.0471 -0.6088  0.0514
 4231SOL    HW113592   4.913   2.433   3.776 -0.1448 -0.2859  0.0175
 4231SOL    HW213593   5.072   2.442   3.812 -0.1373 -0.8500  0.1245
 4232SOL     OW13594   1.573   4.655   2.070 -0.6860  0.1261 -0.0149
 4232SOL    HW113595   1.646   4.637   2.137 -1.7540  0.2980  1.2209
 4232SOL    HW213596   1.542   4.568   2.031 -0.3158 -0.0070 -0.0215
 4233SOL     OW13597   1.804   6.986   5.847 -0.1672 -0.2864  0.4287
 4233SOL    HW113598   1.834   6.993   5.752 -0.8721 -1.8650  0.0572
 4233SOL    HW213599   1.709   7.018   5.855 -0.4829 -1.1709  0.3648
 4234SOL     OW13600   0.920   6.479   1.155  0.1001  0.2170  0.2374
 4234SOL    HW113601   1.015   6.496   1.129  0.7789 -1.5668  1.4199
 4234SOL    HW213602   0.869   6.448   1.075  0.9363 -0.4794 -0.0315
 4235SOL     OW13603   1.976   1.325   1.068 -0.3488 -0.2589  0.4013
 4235SOL    HW113604   1.927   1.315   1.155  2.6104 -1.3846  2.0926
 4235SOL    HW213605   2.060   1.271   1.071  0.9921  1.4554 -2.3310
 4236SOL     OW13606   2.442   2.007   6.838  0.1039  0.1975 -0.1719
 4236SOL    HW113607   2.523   1.970   6.793  1.1042 -0.2163  1.9026
 4236SOL    HW213608   2.424   2.099   6.802  0.8658 -0.1009 -1.3855
 4237SOL     OW13609   6.513   0.497   4.530 -0.0916  0.5538 -0.6495
 4237SOL    HW113610   6.578   0.456   4.594  1.0094 -1.1808 -2.7457
 4237SOL    HW213611   6.552   0.580   4.491 -0.5057  1.2716  0.4308
 4238SOL     OW13612   5.883   6.654   3.321 -0.5382  0.0453  0.2699
 4238SOL    HW113613   5.950   6.713   3.276 -1.5931  0.0810 -1.3507
 4238SOL    HW213614   5.928   6.572   3.356  0.6826  1.0607  1.1520
 4239SOL     OW13615   0.915   3.729   1.537 -0.0489 -0.6012  0.4875
 4239SOL    HW113616   0.822   3.708   1.567 -0.4631 -0.8411 -0.8883
 4239SOL    HW213617   0.958   3.791   1.602 -0.5973 -1.7319  1.9916
 4240SOL     OW13618   1.865   0.575   3.645  0.2707  0.0033  0.6103
 4240SOL    HW113619   1.842   0.482   3.614 -0.5455  0.8559 -1.5054
 4240SOL    HW213620   1.964   0.588   3.638  0.1720 -0.0024 -1.3147
 4241SOL     OW13621   5.704   0.400   3.367 -0.4551 -0.0934  0.4343
 4241SOL    HW113622   5.710   0.406   3.267 -0.3427  0.8272  0.4845
 4241SOL    HW213623   5.610   0.382   3.394 -0.6581  0.5360  0.1822
 4242SOL     OW13624   5.969   6.390   1.869 -0.2350 -0.2032 -0.1377
 4242SOL    HW113625   5.967   6.391   1.969  0.7766  0.7421 -0.0974
 4242SOL    HW213626   6.058   6.356   1.837  0.1827  1.2406 -0.6468
 4243SOL     OW13627   3.672   3.707   6.513  0.5637 -0.5781 -0.1473
 4243SOL    HW113628   3.757   3.735   6.558  0.3216  1.3706 -0.8093
 4243SOL    HW213629   3.694   3.666   6.424  0.8927 -2.0934  0.5954
 4244SOL     OW13630   6.749   5.897   2.755 -0.3192  0.0695 -0.6449
 4244SOL    HW113631   6.659   5.862   2.780  0.1761 -1.5547 -0.9861
 4244SOL    HW213632   6.812   5.820   2.742  0.5575  1.0379 -2.5907
 4245SOL     OW13633   4.822   3.249   1.128 -0.1673  0.0244  0.6913
 4245SOL    HW113634   4.879   3.316   1.174 -0.9888  1.0499  0.2419
 4245SOL    HW213635   4.726   3.263   1.152 -0.3637 -0.9478  0.5402
 4246SOL     OW13636   3.740   3.859   0.878  0.2300 -0.3957 -0.1473
 4246SOL    HW113637   3.790   3.819   0.955 -0.8847 -2.9534 -0.6207
 4246SOL    HW213638   3.659   3.906   0.912  0.0627 -0.9967  0.3215
 4247SOL     OW13639   6.120   2.799   2.563 -0.1166  0.3939 -0.8038
 4247SOL    HW113640   6.082   2.856   2.490  2.7315  0.8029 -2.1060
 4247SOL    HW213641   6.205   2.756   2.531  2.1283  1.7732  2.7055
 4248SOL     OW13642   4.431   2.966   5.763  0.6919  0.2111  0.2189
 4248SOL    HW113643   4.407   3.011   5.677  0.3317 -0.3644  0.0131
 4248SOL    HW213644   4.349   2.956   5.820  1.1995  2.1497  1.4002
 4249SOL     OW13645   2.407   4.726   5.113  0.5002  0.5574 -0.3240
 4249SOL    HW113646   2.389   4.798   5.181 -0.1898  0.6769 -0.6235
 4249SOL    HW213647   2.394   4.636   5.156  0.3015  0.6297 -0.2270
 4250SOL     OW13648   5.291   2.856   6.877  0.4884 -0.3864  0.0302
 4250SOL    HW113649   5.212   2.858   6.938  0.4777 -0.1853  0.0110
 4250SOL    HW213650   5.315   2.950   6.851 -0.3129 -0.5277 -1.3229
 4251SOL     OW13651   4.402   5.453   3.509 -0.3988  0.2589 -0.3532
 4251SOL    HW113652   4.314   5.494   3.487 -0.7269 -0.9157 -1.2987
 4251SOL    HW213653   4.416   5.454   3.608 -1.5485  0.2919 -0.1867
 4252SOL     OW13654   3.553   6.460   0.188 -0.2597 -0.1998  0.2276
 4252SOL    HW113655   3.577   6.410   0.105 -1.9790 -1.8605  0.6647
 4252SOL    HW213656   3.613   6.431   0.263 -1.3653 -1.8628  0.5274
 4253SOL     OW13657   0.995   6.195   3.897 -0.1893  0.2992 -0.4283
 4253SOL    HW113658   0.952   6.131   3.961  1.9553 -1.7636 -0.9147
 4253SOL    HW213659   0.939   6.278   3.891 -2.3550 -0.9050  1.3188
 4254SOL     OW13660   3.372   1.829   7.007  0.5318  0.1536 -0.3374
 4254SOL    HW113661   3.320   1.911   7.029  1.9311  0.9324  0.2139
 4254SOL    HW213662   3.334   1.785   6.926 -0.4096  1.1899 -0.4737
 4255SOL     OW13663   6.642   3.574   2.912  0.1785 -0.0258 -0.2330
 4255SOL    HW113664   6.729   3.531   2.939 -0.7252 -0.4629  2.1957
 4255SOL    HW213665   6.566   3.513   2.936 -0.8808  0.8907 -1.1755
 4256SOL     OW13666   0.070   1.908   6.009 -0.5434  0.1126  0.1042
 4256SOL    HW113667   0.102   1.833   6.067 -0.4815  0.9186  1.1325
 4256SOL    HW213668   0.100   1.893   5.915 -0.3044 -1.0106  0.3516
 4257SOL     OW13669   3.940   1.811   0.547  0.1668  0.4142  0.3769
 4257SOL    HW113670   3.997   1.821   0.466  1.3899 -1.9056  0.8678
 4257SOL    HW213671   3.844   1.825   0.523  0.4527 -0.6950 -1.5735
 4258SOL     OW13672   5.935   2.823   0.927  0.1064  0.3049 -0.1610
 4258SOL    HW113673   5.866   2.893   0.944 -0.8458 -0.7206  0.2612
 4258SOL    HW213674   5.891   2.736   0.907  1.2473 -0.7106  1.5033
 4259SOL     OW13675   4.475   4.884   4.569 -0.0206  0.1013  0.2112
 4259SOL    HW113676   4.529   4.884   4.484 -0.2479  2.0715  0.0208
 4259SOL    HW213677   4.439   4.975   4.585 -1.1488 -0.5733  1.7269
 4260SOL     OW13678   5.099   5.791   4.841 -0.7049 -0.0386 -0.0000
 4260SOL    HW113679   5.103   5.750   4.749 -0.2888  0.3318 -0.1514
 4260SOL    HW213680   5.169   5.750   4.898 -0.5598  0.1715 -0.0291
 4261SOL     OW13681   6.420   5.049   6.237 -0.1182 -0.1190 -0.4052
 4261SOL    HW113682   6.346   5.108   6.208  0.3796  0.0084 -1.4650
 4261SOL    HW213683   6.460   5.004   6.157 -0.0359 -1.3559  0.3013
 4262SOL     OW13684   4.476   4.652   5.234  0.1302  0.0739 -0.6353
 4262SOL    HW113685   4.525   4.574   5.273 -0.6911 -0.1184  0.0183
 4262SOL    HW213686   4.400   4.620   5.177 -0.8744  0.3895  0.4948
 4263SOL     OW13687   0.565   4.193   2.184 -0.0824 -0.0726  0.3250
 4263SOL    HW113688   0.509   4.125   2.231 -0.5875  0.5359  0.6083
 4263SOL    HW213689   0.597   4.261   2.249  1.4356 -0.6930  0.2685
 4264SOL     OW13690   5.617   3.157   0.516  0.0658  0.0886 -0.2585
 4264SOL    HW113691   5.570   3.124   0.433 -0.3705  0.1995 -0.0616
 4264SOL    HW213692   5.715   3.142   0.507 -0.1018 -1.0954 -0.2538
 4265SOL     OW13693   6.996   2.532   2.211  0.1969 -0.3533 -0.1148
 4265SOL    HW113694   6.918   2.507   2.269  0.2995 -0.1653  0.1075
 4265SOL    HW213695   6.966   2.538   2.116 -0.7145  2.2888  0.2341
 4266SOL     OW13696   6.595   4.970   3.691  0.1659 -0.0154 -0.4532
 4266SOL    HW113697   6.611   4.999   3.596  0.3902  4.0534  0.6430
 4266SOL    HW213698   6.496   4.965   3.707  0.1134  0.7576 -0.5216
 4267SOL     OW13699   1.216   2.145   5.264  0.3154 -0.4177  0.5798
 4267SOL    HW113700   1.303   2.109   5.230  1.0779  1.0874  0.8832
 4267SOL    HW213701   1.203   2.238   5.231 -1.3736 -0.7480  0.2363
 4268SOL     OW13702   5.938   3.027   5.629  0.2032 -0.0449  0.3110
 4268SOL    HW113703   5.921   3.014   5.532 -1.0568 -0.4333  0.5637
 4268SOL    HW213704   6.026   3.073   5.642  0.6960 -0.5846 -0.9719
 4269SOL     OW13705   4.760   0.318   1.662  0.3626  0.1824  0.0837
 4269SOL    HW113706   4.761   0.224   1.694  0.0977  0.5089  1.0769
 4269SOL    HW213707   4.748   0.380   1.740 -3.0004  0.8827 -0.8094
 4270SOL     OW13708   5.147   2.549   1.913  0.0723  0.4626  0.0169
 4270SOL    HW113709   5.180   2.642   1.927 -1.0635  0.8398  0.2877
 4270SOL    HW213710   5.225   2.488   1.897  0.8993  1.2751  0.8361
 4271SOL     OW13711   6.366   0.191   5.032  0.6301  0.1421 -0.1791
 4271SOL    HW113712   6.457   0.179   5.073 -0.2762  1.9376  2.6257
 4271SOL    HW213713   6.302   0.127   5.074  0.2932 -0.2348 -1.2291
 4272SOL     OW13714   5.342   4.182   4.684  0.4403  0.7104  0.0480
 4272SOL    HW113715   5.398   4.133   4.751 -1.0573 -0.9886  0.1097
 4272SOL    HW213716   5.312   4.119   4.613 -1.0997  1.6545 -0.1745
 4273SOL     OW13717   6.193   1.044   0.989  0.3767  0.3341  0.4702
 4273SOL    HW113718   6.264   1.064   0.921 -2.4792  0.3278 -2.7563
 4273SOL    HW213719   6.193   1.116   1.058  2.6368  1.0338 -0.1638
 4274SOL     OW13720   1.263   3.468   4.154  0.0034 -0.1669 -0.1380
 4274SOL    HW113721   1.330   3.394   4.159 -0.0521 -0.2727 -0.8410
 4274SOL    HW213722   1.296   3.547   4.205  0.9205 -0.0182 -0.9490
 4275SOL     OW13723   5.795   0.021   0.459  0.1599  0.1330  0.1133
 4275SOL    HW113724   5.821  -0.070   0.426  1.3151  0.2476  0.6542
 4275SOL    HW213725   5.712   0.014   0.515 -0.4345 -0.4033 -0.8136
 4276SOL     OW13726   6.328   4.274   1.011  0.3944  0.6010  0.0621
 4276SOL    HW113727   6.338   4.294   1.108 -1.6841  1.2417  0.1890
 4276SOL    HW213728   6.394   4.329   0.958  0.3592  1.5538  0.9849
 4277SOL     OW13729   3.136   0.843   0.786 -0.2075  0.0891  0.4132
 4277SOL    HW113730   3.147   0.873   0.691 -1.0857 -1.0498 -0.0782
 4277SOL    HW213731   3.079   0.908   0.835 -1.1868 -0.1846 -0.3283
 4278SOL     OW13732   5.099   3.449   6.916  0.0145  0.0830  0.4181
 4278SOL    HW113733   5.023   3.479   6.974 -0.7217 -1.4898  0.3083
 4278SOL    HW213734   5.100   3.503   6.832 -2.2842 -1.1905 -0.5128
 4279SOL     OW13735   2.951   4.897   4.234  0.1227 -0.5484 -0.1812
 4279SOL    HW113736   2.895   4.833   4.181  0.2212 -0.6040 -0.2179
 4279SOL    HW213737   2.970   4.978   4.179 -1.2954  0.2089  0.3892
 4280SOL     OW13738   5.174   0.261   1.950  0.3608 -0.5192  0.0980
 4280SOL    HW113739   5.191   0.183   2.011 -1.4143  0.1662  1.5522
 4280SOL    HW213740   5.089   0.245   1.899  1.1472 -0.4895 -1.2877
 4281SOL     OW13741   1.675   6.348   1.653  0.2699  0.1703 -0.2696
 4281SOL    HW113742   1.740   6.381   1.585  1.1575  0.3197  0.6136
 4281SOL    HW213743   1.683   6.404   1.736 -1.1985  0.3715 -0.2386
 4282SOL     OW13744   3.406   5.998   2.378 -0.2124 -0.6404  0.2035
 4282SOL    HW113745   3.419   5.995   2.477 -0.1151 -0.0631  0.2102
 4282SOL    HW213746   3.342   5.926   2.351 -1.7698  0.4260  0.9308
 4283SOL     OW13747   2.147   2.260   3.541 -0.2581 -0.2696 -0.0848
 4283SOL    HW113748   2.112   2.167   3.551  1.4229 -0.8087  1.4644
 4283SOL    HW213749   2.141   2.308   3.628  0.0419  0.6453 -0.5529
 4284SOL     OW13750   0.222   6.148   3.558  0.2722  0.5274  0.0715
 4284SOL    HW113751   0.229   6.083   3.482  0.1751 -0.0711  0.5670
 4284SOL    HW213752   0.134   6.136   3.604  0.2786  0.9747  0.2041
 4285SOL     OW13753   3.715   6.287   5.342  0.7611  0.2625  0.0428
 4285SOL    HW113754   3.729   6.235   5.258  0.2038 -0.1440  0.1960
 4285SOL    HW213755   3.689   6.381   5.320 -0.6295 -0.1710 -0.2573
 4286SOL     OW13756   4.531   1.191   5.502  0.6418  0.2907  0.0488
 4286SOL    HW113757   4.587   1.138   5.439  1.0274  0.6728  0.0694
 4286SOL    HW213758   4.540   1.288   5.481 -0.3551  0.3359 -0.2381
 4287SOL     OW13759   3.356   1.878   1.301  0.3788  0.2508  0.4028
 4287SOL    HW113760   3.439   1.860   1.354  0.2286 -1.1369  0.2113
 4287SOL    HW213761   3.356   1.821   1.218  0.9950  2.9291 -1.5716
 4288SOL     OW13762   5.185   6.578   1.235  0.6703  0.0859 -0.4471
 4288SOL    HW113763   5.113   6.612   1.295  0.1942 -1.0922 -0.3110
 4288SOL    HW213764   5.262   6.545   1.291  0.7667  0.1655 -0.5338
 4289SOL     OW13765   3.019   1.262   1.567 -0.4441 -0.3575 -0.3024
 4289SOL    HW113766   2.939   1.322   1.572 -1.2000 -1.3011 -0.8403
 4289SOL    HW213767   2.991   1.168   1.585  0.5538 -0.6960 -0.4889
 4290SOL     OW13768   2.282   2.868   4.217 -0.1590 -0.1486 -0.3497
 4290SOL    HW113769   2.294   2.889   4.314  0.5049  0.5970 -0.5754
 4290SOL    HW213770   2.340   2.791   4.193  0.0530 -0.0206 -0.2554
 4291SOL     OW13771   2.337   6.649   3.506  0.9883 -0.0991  0.1347
 4291SOL    HW113772   2.393   6.570   3.480 -0.7647 -2.0551  1.9241
 4291SOL    HW213773   2.279   6.625   3.584 -0.5833  2.5998 -0.0695
 4292SOL     OW13774   0.661   3.717   6.765  0.1083  0.1618  0.2286
 4292SOL    HW113775   0.671   3.815   6.781 -1.2991  0.1355  1.5346
 4292SOL    HW213776   0.639   3.701   6.668  0.6915  1.0843 -0.0687
 4293SOL     OW13777   1.101   3.255   1.974  0.8186 -0.2880  0.2243
 4293SOL    HW113778   1.007   3.250   2.009  0.5666  0.1500 -0.3678
 4293SOL    HW213779   1.122   3.351   1.953  2.0118 -0.1035  2.0013
 4294SOL     OW13780   5.478   0.515   3.165  0.1316 -0.1959  0.2840
 4294SOL    HW113781   5.463   0.427   3.118  0.5809 -0.0161 -0.2097
 4294SOL    HW213782   5.563   0.555   3.132  0.7927 -0.3651  1.7410
 4295SOL     OW13783   1.247   5.293   4.551  0.3972 -0.1150  0.3790
 4295SOL    HW113784   1.281   5.369   4.495  0.2255 -0.3640 -0.0689
 4295SOL    HW213785   1.194   5.330   4.627 -0.5519  0.1969 -0.4066
 4296SOL     OW13786   3.644   2.879   2.135  0.5231  0.5263  0.0307
 4296SOL    HW113787   3.690   2.961   2.100 -1.8020  3.1941  2.6001
 4296SOL    HW213788   3.678   2.859   2.227  0.2292 -0.7111 -0.1217
 4297SOL     OW13789   3.161   0.246   6.086 -0.4224 -0.3598 -0.5101
 4297SOL    HW113790   3.233   0.179   6.063 -0.0020 -0.0317 -0.1720
 4297SOL    HW213791   3.142   0.241   6.184 -0.9345 -0.5097 -0.6154
 4298SOL     OW13792   3.891   5.833   6.128 -0.1336  0.5127  0.1240
 4298SOL    HW113793   3.977   5.851   6.080 -1.3608  2.4911 -1.4838
 4298SOL    HW213794   3.834   5.915   6.127 -2.6358 -1.1285 -0.0588
 4299SOL     OW13795   3.907   4.807   3.009 -0.6212 -0.1820 -0.3841
 4299SOL    HW113796   3.964   4.887   2.997 -0.0113 -0.4183  0.7439
 4299SOL    HW213797   3.843   4.822   3.084 -0.3228 -0.8307  0.0153
 4300SOL     OW13798   0.083   1.984   3.143 -0.5258  0.2006 -0.2329
 4300SOL    HW113799   0.045   1.892   3.132  1.7116 -0.8855  0.7138
 4300SOL    HW213800   0.165   1.993   3.087 -1.3076  2.0582 -1.1956
 4301SOL     OW13801   4.417   4.130   6.807  0.2544 -0.2417 -0.2532
 4301SOL    HW113802   4.326   4.089   6.798  0.3516 -0.4516 -0.2832
 4301SOL    HW213803   4.409   4.220   6.850 -0.0605  0.1210 -1.0587
 4302SOL     OW13804   0.026   1.340   6.086 -0.0491  0.2283 -0.0018
 4302SOL    HW113805  -0.015   1.250   6.099  1.4075 -0.5750 -0.7441
 4302SOL    HW213806   0.072   1.368   6.171 -1.6851  0.9447  0.6926
 4303SOL     OW13807   2.863   3.579   1.447  0.1079 -0.1828  0.1443
 4303SOL    HW113808   2.866   3.628   1.360  0.5156 -1.2040 -0.4389
 4303SOL    HW213809   2.873   3.481   1.430 -2.4028 -0.6792  1.1091
 4304SOL     OW13810   1.645   3.521   6.937  0.0690 -0.3618 -0.4358
 4304SOL    HW113811   1.729   3.530   6.883  0.7053 -0.8912  0.4466
 4304SOL    HW213812   1.665   3.535   7.033 -0.4456 -2.4327  0.0395
 4305SOL     OW13813   2.882   5.749   6.664  0.1913  0.3332 -0.5161
 4305SOL    HW113814   2.811   5.758   6.594 -0.1877 -0.7693 -0.2942
 4305SOL    HW213815   2.890   5.835   6.714 -2.6808 -0.1574  1.0060
 4306SOL     OW13816   2.055   4.658   2.121  0.5908  0.6038 -0.0979
 4306SOL    HW113817   2.102   4.659   2.209 -0.1997 -1.0773  0.3765
 4306SOL    HW213818   2.080   4.740   2.069  2.4182  0.7708  0.9630
 4307SOL     OW13819   3.899   2.435   1.263 -0.0604  0.2096  0.2989
 4307SOL    HW113820   3.845   2.512   1.227  0.9243  1.2821  1.0457
 4307SOL    HW213821   3.935   2.381   1.187 -0.7654  0.4834 -0.2398
 4308SOL     OW13822   0.045   2.236   1.544  0.3765  0.1665 -0.5940
 4308SOL    HW113823  -0.021   2.287   1.489  1.2861  0.9475 -0.9849
 4308SOL    HW213824   0.090   2.298   1.608  0.7886 -0.3427 -0.3825
 4309SOL     OW13825   0.455   5.679   4.503  0.1608  0.3490  0.1541
 4309SOL    HW113826   0.537   5.734   4.516  0.0457  0.0973  2.1761
 4309SOL    HW213827   0.374   5.736   4.518 -0.0034  0.1192  0.1514
 4310SOL     OW13828   2.345   5.252   0.534 -0.6842 -0.2877  0.1346
 4310SOL    HW113829   2.290   5.334   0.519 -1.1169 -0.4297  0.9220
 4310SOL    HW213830   2.363   5.208   0.445 -1.0009  0.2948 -0.2259
 4311SOL     OW13831   1.241   6.140   0.809  0.2086  0.3575  0.0231
 4311SOL    HW113832   1.222   6.136   0.907  0.4596 -0.6982  0.0412
 4311SOL    HW213833   1.193   6.065   0.762 -0.9967  1.6224 -0.8691
 4312SOL     OW13834   6.232   0.536   3.356 -0.0077 -0.3285 -0.7475
 4312SOL    HW113835   6.246   0.605   3.285  0.8721  0.6458  0.3439
 4312SOL    HW213836   6.309   0.472   3.355 -0.2690 -0.6395 -1.0280
 4313SOL     OW13837   0.492   1.314   3.648 -0.4147 -0.7793  0.3294
 4313SOL    HW113838   0.509   1.225   3.606 -0.0562  0.0213 -1.2977
 4313SOL    HW213839   0.569   1.339   3.707  0.5221 -0.6223 -0.9092
 4314SOL     OW13840   0.306   6.009   4.822  0.2818 -0.5958 -0.1156
 4314SOL    HW113841   0.212   6.010   4.788 -0.0544 -2.0086  0.6969
 4314SOL    HW213842   0.335   5.915   4.838  0.6635 -0.0597  2.8303
 4315SOL     OW13843   4.344   4.553   0.656 -0.2841 -0.5540  0.8883
 4315SOL    HW113844   4.249   4.528   0.675 -0.8346 -1.1142 -2.1316
 4315SOL    HW213845   4.368   4.525   0.563  2.3693  1.0196  0.9991
 4316SOL     OW13846   5.001   0.659   3.231  0.2780 -0.1711 -0.0056
 4316SOL    HW113847   4.916   0.607   3.239  0.9867 -1.2435  0.7198
 4316SOL    HW213848   5.079   0.601   3.254  1.1069  1.1545  0.6878
 4317SOL     OW13849   6.533   3.140   1.914 -0.1505  0.0003  0.0839
 4317SOL    HW113850   6.568   3.046   1.903  0.2322 -0.4598  3.8175
 4317SOL    HW213851   6.590   3.188   1.981 -0.6021  2.8256 -1.4454
 4318SOL     OW13852   6.357   3.965   3.516  0.8584 -0.0138  0.0458
 4318SOL    HW113853   6.384   3.878   3.557 -0.1461 -0.3945 -0.0643
 4318SOL    HW213854   6.282   3.949   3.452 -0.4911  1.1467  1.2739
 4319SOL     OW13855   4.278   1.687   6.062 -0.4729 -0.0287 -0.3579
 4319SOL    HW113856   4.294   1.763   6.124  1.8160 -0.4514 -0.3369
 4319SOL    HW213857   4.234   1.720   5.978 -1.9156  0.8359  0.7000
 4320SOL     OW13858   6.337   6.290   6.869 -0.4571 -0.4469  0.2214
 4320SOL    HW113859   6.322   6.389   6.866 -2.9944 -0.7861 -1.2432
 4320SOL    HW213860   6.262   6.246   6.919  1.0572 -1.6130  1.5683
 4321SOL     OW13861   4.035   0.108   5.472 -0.1327 -0.2021 -0.5532
 4321SOL    HW113862   3.988   0.087   5.557  2.5988 -1.8586  0.6728
 4321SOL    HW213863   4.037   0.027   5.413  2.9371 -0.9661  0.4076
 4322SOL     OW13864   0.728   2.340   4.615  0.1692 -0.0943 -0.1756
 4322SOL    HW113865   0.678   2.306   4.536  0.1098 -0.9376  0.2160
 4322SOL    HW213866   0.677   2.415   4.658 -0.6691 -0.8069  0.0946
 4323SOL     OW13867   3.794   6.905   3.884  0.3160 -0.2604  0.1138
 4323SOL    HW113868   3.745   6.875   3.803 -1.9315 -1.7967  1.9099
 4323SOL    HW213869   3.784   6.837   3.957 -0.0814  2.2347  2.5543
 4324SOL     OW13870   6.418   4.603   1.607  0.1073 -0.2451  0.1448
 4324SOL    HW113871   6.488   4.538   1.579  1.7878  0.7307  1.8327
 4324SOL    HW213872   6.458   4.670   1.670 -1.6642  2.1028 -1.0745
 4325SOL     OW13873   2.697   5.986   0.596 -0.2473 -0.0327  0.1156
 4325SOL    HW113874   2.626   5.932   0.640 -0.8122 -0.9407 -1.8208
 4325SOL    HW213875   2.753   5.927   0.538  0.9964  0.9744  0.2426
 4326SOL     OW13876   1.832   1.591   3.330  0.0834  0.0675  0.3044
 4326SOL    HW113877   1.740   1.576   3.366  0.4901  0.4949  1.5730
 4326SOL    HW213878   1.827   1.654   3.253 -0.5314  1.4305  1.4119
 4327SOL     OW13879   2.409   4.865   6.122  0.0033 -0.0248 -0.4493
 4327SOL    HW113880   2.495   4.916   6.130  0.7516 -1.4064  1.0194
 4327SOL    HW213881   2.405   4.797   6.195 -3.1443  1.1309  0.6225
 4328SOL     OW13882   2.470   5.296   4.048 -0.1851 -0.3269  0.1324
 4328SOL    HW113883   2.392   5.271   4.106 -0.1622  1.0299  0.7867
 4328SOL    HW213884   2.447   5.378   3.995  1.4274  1.2784  1.7908
 4329SOL     OW13885   4.158   1.277   6.208  0.6030  0.4506 -0.4253
 4329SOL    HW113886   4.223   1.338   6.163  0.6963  0.0496 -0.8279
 4329SOL    HW213887   4.168   1.184   6.173 -0.3278  0.4215 -0.6403
 4330SOL     OW13888   2.630   4.943   5.558  0.0466  0.6498 -0.0691
 4330SOL    HW113889   2.697   4.947   5.484 -0.2267  0.6563 -0.3179
 4330SOL    HW213890   2.632   4.852   5.599  0.7012  0.8639  0.3905
 4331SOL     OW13891   6.285   1.348   5.144 -0.1324 -0.2040  0.5784
 4331SOL    HW113892   6.275   1.444   5.171 -1.3272 -0.2251  0.2279
 4331SOL    HW213893   6.383   1.325   5.142  0.2661  1.3720 -0.5835
 4332SOL     OW13894   0.734   4.469   3.764 -0.2428  0.1207 -0.4839
 4332SOL    HW113895   0.659   4.416   3.805  0.3775 -1.2359 -1.0290
 4332SOL    HW213896   0.737   4.559   3.806  0.0868 -1.0330  2.2070
 4333SOL     OW13897   4.985   0.518   3.552 -0.5808  0.0067  0.2485
 4333SOL    HW113898   5.031   0.438   3.514  0.5191  0.6887  0.1182
 4333SOL    HW213899   4.945   0.494   3.641  1.0585 -0.2937  0.9351
 4334SOL     OW13900   6.200   7.015   4.682 -0.2556 -0.1936  0.1949
 4334SOL    HW113901   6.162   6.959   4.608  0.7947 -1.4239  0.5511
 4334SOL    HW213902   6.143   7.096   4.695 -1.9933 -1.3000 -0.1670
 4335SOL     OW13903   3.890   3.098   0.287  0.3002  0.6261 -0.2338
 4335SOL    HW113904   3.963   3.131   0.228  0.4328 -0.3838 -0.6419
 4335SOL    HW213905   3.879   3.000   0.276 -0.9391  0.7176  0.0302
 4336SOL     OW13906   4.144   0.704   2.791  0.6659  0.1607 -0.3687
 4336SOL    HW113907   4.110   0.626   2.844  0.2934  0.0915 -0.7092
 4336SOL    HW213908   4.103   0.788   2.825 -0.6069 -0.0224 -1.4049
 4337SOL     OW13909   5.244   1.139   1.745 -0.3789 -0.1801 -0.8451
 4337SOL    HW113910   5.315   1.104   1.684  0.0048 -2.1026  0.5913
 4337SOL    HW213911   5.190   1.208   1.697 -0.1830 -1.6489 -3.4034
 4338SOL     OW13912   0.180   3.051   2.586  0.5453 -0.1287  0.0411
 4338SOL    HW113913   0.272   3.041   2.623  1.0185  1.4949 -0.6324
 4338SOL    HW213914   0.154   2.966   2.539  1.7281 -0.5816  0.1634
 4339SOL     OW13915   0.318   6.098   5.653 -0.0569  0.1262  0.1911
 4339SOL    HW113916   0.241   6.035   5.644 -0.1296  0.2300  0.0922
 4339SOL    HW213917   0.296   6.168   5.720  0.8679 -1.2333  2.0157
 4340SOL     OW13918   0.947   4.818   1.156  0.1049 -0.6662 -0.5505
 4340SOL    HW113919   0.937   4.916   1.142 -1.5256 -0.7343 -0.1565
 4340SOL    HW213920   1.044   4.793   1.157  0.5420  0.9458 -0.5148
 4341SOL     OW13921   1.225   0.543   1.108 -0.0888  0.2338  0.1784
 4341SOL    HW113922   1.317   0.550   1.145  0.3141 -0.1040 -0.7224
 4341SOL    HW213923   1.229   0.546   1.008 -0.8607 -1.6149  0.0541
 4342SOL     OW13924   0.032   1.452   6.441  0.0685 -0.3827 -0.0034
 4342SOL    HW113925   0.049   1.461   6.539 -0.0999 -1.4563  0.1296
 4342SOL    HW213926   0.004   1.541   6.404 -2.1386 -0.4484  1.3526
 4343SOL     OW13927   2.664   1.486   5.843  0.5606  0.2845  0.4812
 4343SOL    HW113928   2.707   1.576   5.831 -0.9606  0.9311 -0.4407
 4343SOL    HW213929   2.727   1.414   5.815  1.7714  1.0460  1.1373
 4344SOL     OW13930   0.902   0.274   4.092 -0.3409  0.0132 -0.0825
 4344SOL    HW113931   0.847   0.337   4.146 -0.2863  1.2499 -1.4113
 4344SOL    HW213932   0.865   0.268   3.999  0.6512 -0.6112 -0.4595
 4345SOL     OW13933   2.860   3.556   2.544 -0.0275  0.2658  0.0048
 4345SOL    HW113934   2.763   3.542   2.527 -0.2670  1.3180  0.4823
 4345SOL    HW213935   2.904   3.467   2.560 -0.9198 -0.2051 -0.1028
 4346SOL     OW13936   5.685   6.512   4.493  0.5347 -0.0866 -0.0841
 4346SOL    HW113937   5.662   6.607   4.512  1.3685  0.0527  0.2931
 4346SOL    HW213938   5.602   6.456   4.494 -0.2662  0.9361 -2.2755
 4347SOL     OW13939   5.398   4.469   4.918 -0.5839 -0.1056  0.0464
 4347SOL    HW113940   5.301   4.445   4.919 -0.4202 -0.7613  0.5785
 4347SOL    HW213941   5.453   4.390   4.946  0.0430  0.5230  0.6450
 4348SOL     OW13942   1.173   0.798   4.719 -0.1019 -0.0972 -0.4806
 4348SOL    HW113943   1.125   0.866   4.664 -1.8042 -0.8978 -0.0245
 4348SOL    HW213944   1.134   0.795   4.811  0.2606 -1.3546 -0.3509
 4349SOL     OW13945   4.950   0.144   2.435 -0.9164  0.5654  0.0604
 4349SOL    HW113946   4.910   0.221   2.385 -0.1152  0.5220 -0.6641
 4349SOL    HW213947   5.001   0.085   2.372 -2.5896 -1.3097  0.3727
 4350SOL     OW13948   0.457   3.902   4.388 -0.0518  0.3573 -0.0629
 4350SOL    HW113949   0.409   3.823   4.347 -1.2171 -0.4649  2.6385
 4350SOL    HW213950   0.534   3.869   4.442 -0.2089  1.0971  0.6282
 4351SOL     OW13951   0.624   6.797   2.314 -0.1095  0.2463 -0.1376
 4351SOL    HW113952   0.612   6.876   2.255  0.1692  0.2667 -0.1698
 4351SOL    HW213953   0.593   6.819   2.407 -0.8321  0.1158 -0.3464
 4352SOL     OW13954   4.613   0.504   5.180 -0.0876 -0.5959 -0.2535
 4352SOL    HW113955   4.542   0.573   5.195  2.5452  2.2646  0.2454
 4352SOL    HW213956   4.652   0.477   5.268  0.4095 -0.9578 -0.5792
 4353SOL     OW13957   0.883   6.312   1.356  0.5497  0.6329 -0.3136
 4353SOL    HW113958   0.968   6.258   1.356  0.0447 -0.1976 -1.3834
 4353SOL    HW213959   0.889   6.383   1.287  0.7358  1.2002  0.2724
 4354SOL     OW13960   3.635   4.595   1.069 -0.3925 -0.1695  0.1332
 4354SOL    HW113961   3.548   4.605   1.117 -0.8554 -0.7938 -0.5495
 4354SOL    HW213962   3.651   4.498   1.049  0.3527 -0.0397  0.0488
 4355SOL     OW13963   3.739   4.955   1.116  0.3708  0.1600  0.0759
 4355SOL    HW113964   3.654   4.946   1.064  1.2689 -1.0340 -1.2682
 4355SOL    HW213965   3.722   4.933   1.212 -0.6988 -0.8264 -0.3085
 4356SOL     OW13966   6.346   0.674   6.159 -0.1714 -0.3473  0.3626
 4356SOL    HW113967   6.368   0.577   6.145 -1.4060 -0.7774  1.1623
 4356SOL    HW213968   6.411   0.713   6.224  1.2398 -0.2164 -1.0716
 4357SOL     OW13969   5.180   1.092   5.675  0.7380  0.7868 -0.2597
 4357SOL    HW113970   5.242   1.055   5.605  0.3690  0.2701 -0.3240
 4357SOL    HW213971   5.230   1.152   5.736  1.3964  0.0591 -0.0641
 4358SOL     OW13972   2.681   5.367   1.620  0.0892 -0.4491  0.4678
 4358SOL    HW113973   2.639   5.336   1.534  0.0165  1.5647 -0.2725
 4358SOL    HW213974   2.612   5.362   1.693 -0.6447  0.2615 -0.1540
 4359SOL     OW13975   1.277   0.829   6.921  0.0070  0.3184  0.0274
 4359SOL    HW113976   1.189   0.782   6.914 -0.0131  0.2513  0.6270
 4359SOL    HW213977   1.336   0.800   6.846 -0.6313  0.6991 -0.6384
 4360SOL     OW13978   2.439   6.168   2.762  0.3899 -0.4072 -0.1313
 4360SOL    HW113979   2.492   6.119   2.832  2.1433 -0.5630 -1.4876
 4360SOL    HW213980   2.461   6.266   2.767  0.0324 -0.3294 -0.0639
 4361SOL     OW13981   4.127   4.113   0.944  0.3542 -0.0575 -0.6204
 4361SOL    HW113982   4.039   4.128   0.898 -0.2041  0.9715  0.7385
 4361SOL    HW213983   4.171   4.201   0.962  0.3278 -0.3772  1.2197
 4362SOL     OW13984   5.589   0.617   5.468 -0.3085 -0.6196  0.2536
 4362SOL    HW113985   5.593   0.700   5.412 -0.9254 -0.3076  0.6681
 4362SOL    HW213986   5.659   0.621   5.538  1.1491 -1.4623 -1.0832
 4363SOL     OW13987   1.258   5.266   0.047 -0.5764 -0.3672 -0.1491
 4363SOL    HW113988   1.222   5.172   0.044 -0.4790 -0.3821 -1.8909
 4363SOL    HW213989   1.325   5.274   0.122 -0.6213 -1.6762  0.0518
 4364SOL     OW13990   3.406   0.969   3.909  0.1667 -0.0068  0.4187
 4364SOL    HW113991   3.486   0.958   3.851 -0.9742 -2.8202 -0.7991
 4364SOL    HW213992   3.429   0.950   4.004  0.8011 -1.7872 -0.0563
 4365SOL     OW13993   5.878   1.469   1.558 -0.2488  0.0750  0.1546
 4365SOL    HW113994   5.796   1.415   1.541  0.4616 -0.9824 -0.0155
 4365SOL    HW213995   5.856   1.546   1.619 -1.4596  0.1239 -0.3193
 4366SOL     OW13996   4.615   5.714   5.572 -0.0703  0.2479 -0.1430
 4366SOL    HW113997   4.651   5.773   5.500 -1.2723  0.0948 -0.9015
 4366SOL    HW213998   4.579   5.630   5.532 -1.1824  0.3567  0.5631
 4367SOL     OW13999   3.738   6.154   5.112  0.3239  0.0241 -0.4786
 4367SOL    HW114000   3.745   6.058   5.084 -1.5928  0.4217 -2.6808
 4367SOL    HW214001   3.715   6.210   5.032 -0.6199  2.0214  1.1011
 4368SOL     OW14002   5.521   2.187   3.697  0.0474  0.5278  0.6820
 4368SOL    HW114003   5.601   2.170   3.756 -0.6994  0.0681  1.5898
 4368SOL    HW214004   5.517   2.284   3.673  0.2235  0.7759  1.6105
 4369SOL     OW14005   5.041   1.850   2.354  0.0520  0.1369  0.0329
 4369SOL    HW114006   5.063   1.764   2.398  1.3808  0.6683  0.4535
 4369SOL    HW214007   5.121   1.884   2.305 -0.3085  1.3427  0.2447
 4370SOL     OW14008   6.518   0.777   3.194 -0.1156 -0.4097  0.7668
 4370SOL    HW114009   6.463   0.712   3.141  1.1947 -2.0511  1.3644
 4370SOL    HW214010   6.613   0.746   3.197  0.3364  0.9873  1.9667
 4371SOL     OW14011   1.285   1.830   2.139 -0.7312  0.1756 -0.4422
 4371SOL    HW114012   1.294   1.880   2.053 -0.3740 -0.2361 -0.6485
 4371SOL    HW214013   1.350   1.755   2.141 -1.5131 -0.5189 -0.3004
 4372SOL     OW14014   5.764   2.429   3.633  0.2509  0.0328 -0.2622
 4372SOL    HW114015   5.755   2.521   3.595 -1.9046  0.0085  0.0922
 4372SOL    HW214016   5.740   2.361   3.564 -0.0204 -0.1729  0.0293
 4373SOL     OW14017   2.556   0.271   0.523 -0.3117 -0.2557  0.8517
 4373SOL    HW114018   2.637   0.309   0.569  0.6824  1.4562 -2.0716
 4373SOL    HW214019   2.580   0.247   0.429 -2.9724 -0.7638  0.2443
 4374SOL     OW14020   4.530   4.938   6.295 -0.0132 -0.5147 -0.2430
 4374SOL    HW114021   4.629   4.956   6.290 -0.3949  2.2375  0.4707
 4374SOL    HW214022   4.513   4.870   6.366  1.3265 -0.5241  0.1089
 4375SOL     OW14023   5.061   1.186   5.158 -0.3986  0.5083 -0.4010
 4375SOL    HW114024   5.123   1.223   5.228 -0.7879  1.1256 -0.3783
 4375SOL    HW214025   5.104   1.107   5.115  0.1292  0.5264  0.0739
 4376SOL     OW14026   6.973   0.649   4.589  0.4341 -0.1740  0.0485
 4376SOL    HW114027   7.033   0.679   4.663  1.2608  0.7686 -0.9695
 4376SOL    HW214028   6.948   0.553   4.603  0.8956 -0.1253  1.3207
 4377SOL     OW14029   3.758   1.470   0.061 -0.0910 -0.2308  0.3776
 4377SOL    HW114030   3.692   1.492   0.132 -0.9232  1.8749 -0.9421
 4377SOL    HW214031   3.843   1.520   0.078 -0.7127  1.2831 -0.6626
 4378SOL     OW14032   2.972   4.182   0.286  0.2701  0.2000  0.7142
 4378SOL    HW114033   2.891   4.224   0.326 -1.1338 -0.0283 -1.6927
 4378SOL    HW214034   3.037   4.253   0.258  0.0135  0.5004  0.8826
 4379SOL     OW14035   3.672   4.939   5.474 -0.1390  0.1342 -0.4424
 4379SOL    HW114036   3.599   4.981   5.528  0.0082  0.5446 -0.5562
 4379SOL    HW214037   3.676   4.841   5.494 -0.2819  0.2267  0.0702
 4380SOL     OW14038   5.987   4.621   4.986  0.8073 -0.0138 -0.1572
 4380SOL    HW114039   5.975   4.646   4.890  0.3987 -1.7298 -0.5843
 4380SOL    HW214040   6.079   4.583   4.999  0.2557 -1.4309 -0.2729
 4381SOL     OW14041   0.446   1.538   3.064 -0.4209 -0.3076  0.0991
 4381SOL    HW114042   0.435   1.616   3.126 -1.8094  0.2822 -0.8500
 4381SOL    HW214043   0.498   1.566   2.984  1.1991 -1.0189  0.8564
 4382SOL     OW14044   1.892   5.144   0.013  0.0387  0.1060 -0.1331
 4382SOL    HW114045   1.852   5.158  -0.077  0.0820  0.7632 -0.0564
 4382SOL    HW214046   1.825   5.097   0.072  0.4211 -1.3584 -0.8210
 4383SOL     OW14047   2.385   4.694   2.262 -0.4241 -0.2348 -0.0726
 4383SOL    HW114048   2.456   4.732   2.202 -0.4861  2.5918  1.4709
 4383SOL    HW214049   2.341   4.768   2.313 -4.6500 -1.8052 -1.0331
 4384SOL     OW14050   5.453   0.645   0.351  0.2804 -0.7815  0.8807
 4384SOL    HW114051   5.488   0.721   0.296  1.6279 -1.4553  0.7726
 4384SOL    HW214052   5.523   0.574   0.359 -1.1072 -2.2610  0.5556
 4385SOL     OW14053   3.406   2.311   0.496 -0.0304  0.0694  0.2520
 4385SOL    HW114054   3.421   2.212   0.486 -0.1383  0.0534  0.2534
 4385SOL    HW214055   3.326   2.338   0.443  1.4093  0.5705 -1.8205
 4386SOL     OW14056   1.665   6.935   2.116  0.2869  0.1196  0.0636
 4386SOL    HW114057   1.649   6.966   2.209  1.3484 -0.4867  0.4667
 4386SOL    HW214058   1.585   6.955   2.060 -0.4030  0.4119  1.1211
 4387SOL     OW14059   3.428   6.134   6.507 -0.1793  0.1097 -0.7695
 4387SOL    HW114060   3.492   6.160   6.435  0.0307 -0.7533 -0.8995
 4387SOL    HW214061   3.347   6.091   6.466 -0.3562  0.2146 -0.5348
 4388SOL     OW14062   4.360   1.851   5.140 -0.1138  0.0760 -0.0182
 4388SOL    HW114063   4.286   1.901   5.095  1.0252  1.9979  0.1065
 4388SOL    HW214064   4.410   1.914   5.201  1.3326 -1.2634  0.2423
 4389SOL     OW14065   1.486   2.852   3.202 -0.6404 -0.0413 -0.0100
 4389SOL    HW114066   1.461   2.927   3.264 -2.1201 -0.3638 -0.1686
 4389SOL    HW214067   1.573   2.873   3.158 -0.5170  1.0966  0.7237
 4390SOL     OW14068   2.577   3.669   6.043  0.8801  0.2409  0.6105
 4390SOL    HW114069   2.562   3.575   6.011  0.7342  0.2706  0.5922
 4390SOL    HW214070   2.492   3.706   6.081  0.2059  1.2419 -1.6646
 4391SOL     OW14071   1.238   5.305   3.041 -0.1471  0.7507 -0.1158
 4391SOL    HW114072   1.210   5.259   3.126  2.3422 -1.7719 -0.5157
 4391SOL    HW214073   1.178   5.275   2.967 -0.3006  0.3503  0.1626
 4392SOL     OW14074   6.595   5.504   3.164 -0.0643 -0.3044  0.1653
 4392SOL    HW114075   6.674   5.461   3.122 -0.7835 -3.2629  1.6133
 4392SOL    HW214076   6.518   5.502   3.100 -0.3003 -1.9710  0.4663
 4393SOL     OW14077   4.938   2.587   2.060 -0.1011 -0.4860 -0.2618
 4393SOL    HW114078   4.872   2.516   2.034 -1.0427 -0.2047  1.2523
 4393SOL    HW214079   5.026   2.569   2.015 -0.6842 -1.8872 -0.8963
 4394SOL     OW14080   6.737   2.859   6.414  0.1301 -0.3241 -0.7096
 4394SOL    HW114081   6.702   2.949   6.436 -0.1984 -0.3735 -1.0225
 4394SOL    HW214082   6.693   2.790   6.472 -0.1594 -0.3658 -0.9785
 4395SOL     OW14083   3.842   2.103   0.192 -0.8545 -0.1937  0.8751
 4395SOL    HW114084   3.831   2.006   0.173  0.9291 -0.1333 -0.8670
 4395SOL    HW214085   3.890   2.147   0.116 -1.2978  1.9950  1.7662
 4396SOL     OW14086   1.177   3.084   4.814  0.0356 -0.4521  0.0270
 4396SOL    HW114087   1.242   3.038   4.874  2.3494 -0.4859 -2.2927
 4396SOL    HW214088   1.220   3.166   4.775 -2.7661  1.8510  1.3725
 4397SOL     OW14089   2.102   3.823   5.130  0.2587  0.1049  0.0219
 4397SOL    HW114090   2.161   3.808   5.209  1.8467  1.9258 -0.7428
 4397SOL    HW214091   2.138   3.898   5.075 -2.3293  0.7225 -0.9771
 4398SOL     OW14092   1.587   3.928   2.576 -0.2201 -0.0820  0.2744
 4398SOL    HW114093   1.574   3.856   2.507  1.5461 -1.0144  0.8435
 4398SOL    HW214094   1.679   3.966   2.567  0.1586 -0.4193  2.2779
 4399SOL     OW14095   3.064   1.727   1.873 -0.2430  0.0149 -0.4980
 4399SOL    HW114096   3.147   1.766   1.912 -0.5824 -0.6949  1.0424
 4399SOL    HW214097   3.087   1.661   1.801  0.5887 -0.7692  0.4548
 4400SOL     OW14098   4.098   1.701   4.885  0.7216  0.3662 -0.2482
 4400SOL    HW114099   4.188   1.666   4.857  0.2721  0.3792 -1.8125
 4400SOL    HW214100   4.105   1.741   4.976  1.9609 -0.9715  0.2977
 4401SOL     OW14101   1.640   6.536   3.620  0.4491 -0.0217 -0.2832
 4401SOL    HW114102   1.738   6.537   3.603  0.3347 -1.9355 -1.3637
 4401SOL    HW214103   1.594   6.587   3.547  0.5495 -0.6385 -0.7911
 4402SOL     OW14104   2.499   2.184   5.985  0.3759 -0.4247  0.3744
 4402SOL    HW114105   2.532   2.244   5.911 -1.6082  0.6284  0.2591
 4402SOL    HW214106   2.541   2.094   5.976  2.6516  0.5981 -0.0896
 4403SOL     OW14107   4.407   5.092   5.718  0.0936  0.2107 -0.3501
 4403SOL    HW114108   4.389   5.028   5.792  1.7512  0.0657 -0.0410
 4403SOL    HW214109   4.433   5.181   5.757  2.0096 -0.1554 -0.6984
 4404SOL     OW14110   6.151   3.569   2.100  0.0112 -0.0763 -0.5167
 4404SOL    HW114111   6.189   3.480   2.073 -0.3672 -0.1162 -0.9396
 4404SOL    HW214112   6.051   3.566   2.092 -0.5026 -1.0464  3.6001
 4405SOL     OW14113   1.729   2.578   2.390 -0.2767 -0.1133  0.5000
 4405SOL    HW114114   1.767   2.570   2.482  0.1490 -1.8359  0.2047
 4405SOL    HW214115   1.694   2.490   2.361  1.7698 -0.2354 -1.9143
 4406SOL     OW14116   6.704   1.308   3.409  0.4174 -0.1339 -0.2574
 4406SOL    HW114117   6.731   1.389   3.460 -2.5121 -0.3002  1.8193
 4406SOL    HW214118   6.698   1.230   3.471  1.5440 -1.5829 -1.8894
 4407SOL     OW14119   6.526   3.032   2.802  0.2368 -0.0261 -0.2852
 4407SOL    HW114120   6.438   2.988   2.784 -0.1878 -0.1870  1.8856
 4407SOL    HW214121   6.598   2.985   2.752 -0.6231 -1.2893 -0.3901
 4408SOL     OW14122   5.799   4.413   0.074 -0.1652  0.3128 -0.1617
 4408SOL    HW114123   5.722   4.364   0.115  0.2437  1.6143  2.3010
 4408SOL    HW214124   5.862   4.442   0.145  1.6764  0.9234 -1.9558
 4409SOL     OW14125   2.343   4.111   1.854  0.4469  0.4919 -0.2857
 4409SOL    HW114126   2.412   4.164   1.805 -0.0147  1.8893  0.5264
 4409SOL    HW214127   2.332   4.021   1.810  2.4622  0.3984 -0.6742
 4410SOL     OW14128   4.963   0.592   6.192 -0.2177 -0.2408 -0.0982
 4410SOL    HW114129   4.907   0.508   6.190 -0.1711 -0.3009  0.7009
 4410SOL    HW214130   5.024   0.593   6.113 -0.1119 -1.0352 -0.0346
 4411SOL     OW14131   3.822   3.864   1.781 -0.4740 -0.1585  0.5237
 4411SOL    HW114132   3.898   3.927   1.766  0.7971 -1.6521  0.4259
 4411SOL    HW214133   3.744   3.914   1.819  0.3975  1.4894  0.2368
 4412SOL     OW14134   5.947   6.415   3.463 -0.1389  0.1222 -0.3447
 4412SOL    HW114135   6.013   6.410   3.537 -0.4707  1.6140  0.0829
 4412SOL    HW214136   5.862   6.370   3.491  0.2621 -0.7064 -0.4322
 4413SOL     OW14137   3.329   3.312   6.549 -0.0513 -0.4205  0.0570
 4413SOL    HW114138   3.361   3.403   6.521  0.5800 -0.7743 -0.4177
 4413SOL    HW214139   3.334   3.304   6.649 -0.3871  0.1672  0.1209
 4414SOL     OW14140   5.456   4.924   5.947 -0.2481  0.2151 -0.3266
 4414SOL    HW114141   5.495   5.009   5.912 -0.5643  0.1712 -0.7899
 4414SOL    HW214142   5.521   4.881   6.010 -0.1134  0.8309 -0.0403
 4415SOL     OW14143   6.295   2.189   2.015 -0.4808  0.5685 -0.0498
 4415SOL    HW114144   6.267   2.254   2.086  0.4377 -0.5513  1.3941
 4415SOL    HW214145   6.354   2.236   1.949 -1.4302  1.6568 -0.1587
 4416SOL     OW14146   6.565   1.439   6.973  0.1822  0.1759 -0.4177
 4416SOL    HW114147   6.479   1.483   6.949 -0.4752  0.3424  1.9802
 4416SOL    HW214148   6.548   1.344   6.999  0.7490  0.1372 -0.1627
 4417SOL     OW14149   4.703   6.394   6.237  0.6299 -0.0613  0.5259
 4417SOL    HW114150   4.702   6.356   6.144  0.7886  1.7552 -0.2699
 4417SOL    HW214151   4.720   6.493   6.232  0.0836  0.1665  2.4688
 4418SOL     OW14152   0.151   4.893   5.556 -1.0292  0.7635 -0.4666
 4418SOL    HW114153   0.235   4.946   5.543 -0.9164  0.3485 -1.4622
 4418SOL    HW214154   0.174   4.797   5.570 -1.3012  0.7727  0.0546
 4419SOL     OW14155   4.716   4.571   2.470 -0.1715  0.0648 -0.0408
 4419SOL    HW114156   4.723   4.640   2.542 -0.1062 -1.3445  1.3749
 4419SOL    HW214157   4.662   4.607   2.394 -0.1397  1.6497  0.6402
 4420SOL     OW14158   6.544   3.799   0.259 -0.3646 -0.0644 -0.1763
 4420SOL    HW114159   6.446   3.798   0.280 -0.3444 -0.4005 -0.0883
 4420SOL    HW214160   6.595   3.765   0.338 -0.1376  0.5933 -0.0348
 4421SOL     OW14161   2.647   2.534   0.126 -0.3489  0.2293 -0.4982
 4421SOL    HW114162   2.564   2.589   0.136 -0.5700 -0.1454 -0.2276
 4421SOL    HW214163   2.712   2.582   0.067 -1.4522 -0.2699 -2.1996
 4422SOL     OW14164   6.131   2.165   6.614  0.0636  0.2467 -0.1627
 4422SOL    HW114165   6.210   2.104   6.622  0.5521  0.5647 -1.9605
 4422SOL    HW214166   6.047   2.110   6.609  0.3551 -0.2056 -0.1629
 4423SOL     OW14167   1.173   6.683   3.240  0.3272 -0.0476  0.0929
 4423SOL    HW114168   1.118   6.620   3.295  0.8687 -1.1515 -0.5875
 4423SOL    HW214169   1.195   6.764   3.294  0.1600 -0.7330  1.2243
 4424SOL     OW14170   3.036   6.628   4.952 -0.0711 -0.5310 -0.0228
 4424SOL    HW114171   3.058   6.530   4.947  0.1099 -0.4287 -2.6560
 4424SOL    HW214172   3.039   6.667   4.860 -1.6215  1.6570  0.7880
 4425SOL     OW14173   6.732   4.660   0.611 -0.3702  0.5262  0.4725
 4425SOL    HW114174   6.694   4.729   0.550 -0.7477  1.3420  1.5970
 4425SOL    HW214175   6.702   4.569   0.582  0.3241  0.7855 -1.1648
 4426SOL     OW14176   5.797   6.556   0.672  0.1635 -0.0918  0.2097
 4426SOL    HW114177   5.834   6.595   0.587  0.4992  1.7387  1.1250
 4426SOL    HW214178   5.723   6.615   0.705  1.0015  0.0421  1.9200
 4427SOL     OW14179   6.437   1.846   0.008 -0.1161 -0.7737 -0.0929
 4427SOL    HW114180   6.480   1.827  -0.080 -0.2188 -0.5459 -0.1926
 4427SOL    HW214181   6.494   1.909   0.060 -0.9961  0.6466 -0.7980
 4428SOL     OW14182   6.705   6.600   0.355 -0.7419 -0.2520 -0.0849
 4428SOL    HW114183   6.793   6.609   0.309 -0.4462  1.1294  0.6788
 4428SOL    HW214184   6.658   6.688   0.355 -1.8731 -0.8326  0.0391
 4429SOL     OW14185   0.542   1.345   5.425 -0.0852 -0.2020  0.1264
 4429SOL    HW114186   0.535   1.395   5.511  0.3483 -0.5626  0.3763
 4429SOL    HW214187   0.589   1.258   5.441  3.2620  1.2422 -1.0910
 4430SOL     OW14188   5.308   4.403   4.512 -0.3065 -0.8787  0.6785
 4430SOL    HW114189   5.339   4.316   4.553 -2.7407 -1.0283  2.4446
 4430SOL    HW214190   5.383   4.469   4.516  0.2825 -1.5415  3.6096
 4431SOL     OW14191   6.370   2.045   6.733  0.0880 -0.1427 -0.1016
 4431SOL    HW114192   6.449   1.985   6.746 -0.4370 -0.9838 -0.6183
 4431SOL    HW214193   6.308   2.035   6.811  0.7928  1.0319  0.6349
 4432SOL     OW14194   3.276   3.327   4.452 -0.1426 -0.6108 -0.7112
 4432SOL    HW114195   3.195   3.268   4.462  0.7442 -1.6875  0.6600
 4432SOL    HW214196   3.249   3.422   4.464 -1.1862 -0.9685  0.0171
 4433SOL     OW14197   1.876   4.120   2.983  0.1853 -0.2055 -0.1618
 4433SOL    HW114198   1.868   4.133   2.884 -2.1591  0.3966  0.0444
 4433SOL    HW214199   1.787   4.094   3.021  1.4430 -2.3455  1.5687
 4434SOL     OW14200   3.301   6.093   5.899 -0.3149 -0.1926 -0.7064
 4434SOL    HW114201   3.377   6.038   5.932  0.1238  1.3044  0.9518
 4434SOL    HW214202   3.214   6.046   5.918  0.0851 -0.7300 -0.1867
 4435SOL     OW14203   5.915   1.211   4.692  0.4744  0.1388  0.6747
 4435SOL    HW114204   5.915   1.152   4.772  0.8272 -0.1858  0.4378
 4435SOL    HW214205   6.009   1.234   4.667  0.3313  1.3806  1.1845
 4436SOL     OW14206   4.677   0.270   3.443 -0.7851  0.1194  0.2235
 4436SOL    HW114207   4.687   0.221   3.356 -2.8163 -0.9783  0.5546
 4436SOL    HW214208   4.681   0.368   3.427 -1.8429 -0.0461 -1.2258
 4437SOL     OW14209   0.516   3.110   6.958  0.2433 -0.6304 -0.2298
 4437SOL    HW114210   0.556   3.125   7.049  0.2267  0.0472 -0.3271
 4437SOL    HW214211   0.419   3.132   6.960  0.0732 -1.3551 -0.2305
 4438SOL     OW14212   2.659   6.185   2.407  0.5706 -0.4817  0.0325
 4438SOL    HW114213   2.669   6.242   2.488 -0.7648 -0.5295  0.2544
 4438SOL    HW214214   2.692   6.235   2.327  0.4302  0.1806  0.3806
 4439SOL     OW14215   6.583   0.392   5.189 -0.1320 -0.3410 -0.8336
 4439SOL    HW114216   6.531   0.461   5.139  0.3794  1.1780  0.6258
 4439SOL    HW214217   6.661   0.436   5.234  0.4781 -1.9723 -0.2351
 4440SOL     OW14218   2.321   6.353   1.456  0.2965  0.4095  0.8238
 4440SOL    HW114219   2.416   6.369   1.428  1.3214 -1.9792  2.5926
 4440SOL    HW214220   2.266   6.330   1.376  1.5680  0.2548 -0.0372
 4441SOL     OW14221   1.943   2.476   3.469  0.3481 -0.0449 -0.6832
 4441SOL    HW114222   1.975   2.524   3.551 -1.8159 -0.0056  0.2165
 4441SOL    HW214223   1.916   2.543   3.400 -1.1068  0.0595 -0.0567
 4442SOL     OW14224   6.626   5.770   3.053  0.0975 -0.4724 -0.1142
 4442SOL    HW114225   6.625   5.679   3.095 -0.3699 -0.0419  0.8529
 4442SOL    HW214226   6.720   5.804   3.050  0.1353 -0.4888  0.6520
 4443SOL     OW14227   1.909   5.519   6.699  0.1790  0.1886 -0.2461
 4443SOL    HW114228   1.931   5.567   6.614 -1.0986  1.3013  0.0118
 4443SOL    HW214229   1.916   5.583   6.776  1.2300 -0.7857  0.4970
 4444SOL     OW14230   0.284   6.251   5.897  0.0445 -0.8700  0.5194
 4444SOL    HW114231   0.209   6.281   5.955 -1.5222 -1.8007 -0.9368
 4444SOL    HW214232   0.351   6.200   5.952 -0.5784 -0.3952  1.7590
 4445SOL     OW14233   2.353   5.167   6.228 -0.8353 -0.3363  0.5258
 4445SOL    HW114234   2.270   5.111   6.235 -0.0422 -1.4089  1.9059
 4445SOL    HW214235   2.410   5.131   6.153 -1.6143  0.4454 -0.4694
 4446SOL     OW14236   5.333   6.063   1.346  0.2540 -0.1110 -0.1135
 4446SOL    HW114237   5.403   5.992   1.334 -0.8626 -1.1552 -0.7986
 4446SOL    HW214238   5.365   6.149   1.308  1.5873 -0.2772  0.5854
 4447SOL     OW14239   4.741   5.367   3.012  0.3326 -0.3652 -0.1345
 4447SOL    HW114240   4.741   5.457   3.056  0.2991 -0.6631  0.4862
 4447SOL    HW214241   4.823   5.358   2.955 -0.7487  0.9075 -1.9982
 4448SOL     OW14242   5.166   1.438   0.090  0.3169  0.0422  0.0060
 4448SOL    HW114243   5.142   1.481   0.003 -0.3649 -3.2425 -1.6104
 4448SOL    HW214244   5.235   1.368   0.075  0.7636 -0.0965  2.2978
 4449SOL     OW14245   3.176   2.167   2.356  0.0904  0.4740 -0.3205
 4449SOL    HW114246   3.113   2.243   2.368  0.1194  0.7444 -1.8035
 4449SOL    HW214247   3.173   2.134   2.262 -0.3277 -1.7305  0.4037
 4450SOL     OW14248   3.520   4.126   4.260  0.1017  0.2438  0.6219
 4450SOL    HW114249   3.614   4.158   4.249  0.6669 -1.0912  1.3647
 4450SOL    HW214250   3.471   4.139   4.174  0.4081  2.6297  0.7413
 4451SOL     OW14251   1.311   6.889   3.362 -0.0434  0.5733 -0.2390
 4451SOL    HW114252   1.282   6.911   3.455  1.3842  1.4349  0.0284
 4451SOL    HW214253   1.269   6.954   3.299 -0.6432  0.2781 -0.1503
 4452SOL     OW14254   3.118   4.991   1.485  0.2725  0.1203  0.1926
 4452SOL    HW114255   3.177   5.010   1.564 -0.3839  1.4658  0.3733
 4452SOL    HW214256   3.023   5.001   1.512 -0.0479 -1.3835 -0.2783
 4453SOL     OW14257   6.102   5.972   5.505  1.2581 -0.6514 -0.0110
 4453SOL    HW114258   6.163   6.037   5.549 -2.3252  1.7832  1.8721
 4453SOL    HW214259   6.027   5.949   5.567 -0.6996 -2.1179 -2.7080
 4454SOL     OW14260   5.062   2.531   5.255  0.1123  0.1914 -0.4184
 4454SOL    HW114261   5.026   2.597   5.190 -0.3049  0.3502 -0.0343
 4454SOL    HW214262   5.109   2.457   5.206  0.2669  0.5830 -0.8648
 4455SOL     OW14263   6.506   2.138   4.235  0.2638 -0.2291 -0.0752
 4455SOL    HW114264   6.589   2.103   4.192 -0.4802 -3.4285  0.8371
 4455SOL    HW214265   6.426   2.106   4.184 -0.5488  3.4695 -1.4280
 4456SOL     OW14266   5.075   2.488   1.022  0.5599  0.1564 -0.3963
 4456SOL    HW114267   5.014   2.550   1.072  1.0502  0.1534  0.2093
 4456SOL    HW214268   5.096   2.409   1.079  2.1076  0.7401 -0.1080
 4457SOL     OW14269   1.345   4.065   4.634  0.0598  0.4070  0.9471
 4457SOL    HW114270   1.390   4.080   4.722  3.5629 -0.0161 -0.6028
 4457SOL    HW214271   1.373   4.136   4.569 -1.3261 -0.0663 -0.2279
 4458SOL     OW14272   5.202   2.866   1.085 -0.0727  0.0151 -0.2829
 4458SOL    HW114273   5.163   2.948   1.044  2.2715 -0.3700 -3.6844
 4458SOL    HW214274   5.284   2.891   1.137 -1.8787  0.2346  2.6830
 4459SOL     OW14275   3.034   0.495   5.467 -0.5025 -0.0804 -0.1231
 4459SOL    HW114276   3.101   0.421   5.468 -0.6543 -0.2144  0.1117
 4459SOL    HW214277   3.052   0.557   5.543 -0.7946 -0.2496  0.0833
 4460SOL     OW14278   3.078   6.790   2.799 -0.4454 -0.1319  0.5955
 4460SOL    HW114279   3.149   6.730   2.835 -0.1308  0.8542  1.6941
 4460SOL    HW214280   3.080   6.788   2.699 -0.7911 -2.3048  0.5895
 4461SOL     OW14281   6.098   0.617   4.584  0.3951 -0.0260 -0.3011
 4461SOL    HW114282   6.012   0.568   4.603  1.5005 -1.5081  1.1381
 4461SOL    HW214283   6.132   0.592   4.494  0.3572 -1.0715 -0.0396
 4462SOL     OW14284   2.763   4.001   0.902  0.5798 -0.1997 -0.0128
 4462SOL    HW114285   2.702   3.922   0.905  2.4030 -1.7008 -0.6013
 4462SOL    HW214286   2.854   3.975   0.935  0.6580  2.2833  2.0266
 4463SOL     OW14287   2.620   0.450   3.686  0.4808 -0.1048  0.6494
 4463SOL    HW114288   2.606   0.447   3.587  1.6107 -0.2129  0.4856
 4463SOL    HW214289   2.612   0.358   3.723 -0.1989 -0.0294  0.7040
 4464SOL     OW14290   1.539   6.528   4.313  0.1894  0.7011  0.7302
 4464SOL    HW114291   1.447   6.566   4.318  0.1018  0.4200  1.3910
 4464SOL    HW214292   1.560   6.503   4.219  0.1300  2.0758  0.3384
 4465SOL     OW14293   2.351   5.475   6.872 -0.2895  0.3368  0.5623
 4465SOL    HW114294   2.289   5.407   6.835 -2.3848  2.5151 -0.1421
 4465SOL    HW214295   2.443   5.462   6.834 -0.6394 -1.9609  0.3984
 4466SOL     OW14296   0.752   5.146   3.698  0.1214  0.3737  0.2659
 4466SOL    HW114297   0.731   5.107   3.788  1.1958  2.3487  1.4322
 4466SOL    HW214298   0.850   5.157   3.688  0.1625 -1.2411 -1.8466
 4467SOL     OW14299   4.923   4.885   6.880  0.3754 -0.1184  0.2794
 4467SOL    HW114300   4.917   4.984   6.884 -0.0798 -0.1730  1.4186
 4467SOL    HW214301   4.880   4.846   6.961  3.5777 -1.0987  1.6785
 4468SOL     OW14302   3.144   3.769   6.772 -0.0461  0.0211  0.2066
 4468SOL    HW114303   3.154   3.727   6.682  1.0849  0.4248  0.1272
 4468SOL    HW214304   3.159   3.868   6.765 -0.7949  0.1748  0.7040
 4469SOL     OW14305   0.138   4.792   4.495  0.6170 -0.4861  0.2442
 4469SOL    HW114306   0.053   4.748   4.467 -0.2649  0.3214  1.5286
 4469SOL    HW214307   0.187   4.734   4.560 -0.7887  0.5210  2.3234
 4470SOL     OW14308   5.623   6.301   0.337 -0.3179 -0.1417 -0.1986
 4470SOL    HW114309   5.569   6.218   0.343 -1.1771  0.4980  1.7557
 4470SOL    HW214310   5.603   6.360   0.416 -1.2549  2.8471 -2.4915
 4471SOL     OW14311   0.294   3.959   5.950  0.0380 -0.2489  0.0424
 4471SOL    HW114312   0.339   4.037   5.992  3.1316 -2.0480  0.3978
 4471SOL    HW214313   0.286   3.974   5.851  0.6590  0.4945  0.0959
 4472SOL     OW14314   5.344   5.539   3.951  0.1146 -0.0539 -0.4302
 4472SOL    HW114315   5.279   5.462   3.947 -1.4313  1.1440  0.5349
 4472SOL    HW214316   5.294   5.625   3.939  1.7476  0.8451 -1.0376
 4473SOL     OW14317   4.933   0.790   5.824  0.0852 -0.4362  0.2681
 4473SOL    HW114318   4.974   0.880   5.833  0.5657 -0.1798 -3.2206
 4473SOL    HW214319   4.833   0.798   5.829  0.1211  0.3218 -0.0846
 4474SOL     OW14320   1.620   4.395   2.223 -0.1751 -0.2570 -0.3848
 4474SOL    HW114321   1.665   4.310   2.195  0.1107  0.3642 -1.8724
 4474SOL    HW214322   1.686   4.469   2.222 -0.3526 -0.0478  1.2083
 4475SOL     OW14323   6.148   0.565   4.327  0.4316 -0.0041  1.3372
 4475SOL    HW114324   6.086   0.528   4.257  0.5147  4.9467 -1.8619
 4475SOL    HW214325   6.239   0.528   4.313 -0.3156 -2.0380  1.4895
 4476SOL     OW14326   2.764   0.180   1.732 -0.8453  0.0965  0.3506
 4476SOL    HW114327   2.811   0.227   1.807  0.3477 -0.4161 -0.0446
 4476SOL    HW214328   2.703   0.111   1.769 -0.7111  0.2521  0.8666
 4477SOL     OW14329   0.856   2.841   3.389  0.2392 -0.3948  0.4247
 4477SOL    HW114330   0.891   2.933   3.372  1.6151 -0.7037  1.3531
 4477SOL    HW214331   0.922   2.774   3.353 -0.1925 -1.0086  0.7621
 4478SOL     OW14332   3.416   0.682   6.884 -0.2331  0.6504  0.1696
 4478SOL    HW114333   3.382   0.687   6.790  0.3328 -0.4042 -0.1151
 4478SOL    HW214334   3.399   0.590   6.920 -0.6497  1.1173  1.1900
 4479SOL     OW14335   4.606   1.427   2.598 -0.0137 -0.1789  0.0745
 4479SOL    HW114336   4.676   1.372   2.553  1.4504  0.5687  1.3410
 4479SOL    HW214337   4.604   1.406   2.696 -0.4513  0.9528  0.3291
 4480SOL     OW14338   0.529   0.216   0.992  0.2566  0.0673 -0.6682
 4480SOL    HW114339   0.579   0.198   0.908  2.0030  0.2230  0.2988
 4480SOL    HW214340   0.508   0.129   1.038  0.5002  0.0517 -0.5881
 4481SOL     OW14341   1.875   2.645   5.780 -0.0898  0.0290 -0.4123
 4481SOL    HW114342   1.826   2.588   5.714  0.0026 -1.4802  0.7590
 4481SOL    HW214343   1.973   2.638   5.764  0.2066 -3.0114  1.7626
 4482SOL     OW14344   6.428   6.903   2.784 -0.0247 -0.2887 -0.3934
 4482SOL    HW114345   6.407   6.915   2.687  0.4456  0.9621 -0.3607
 4482SOL    HW214346   6.452   6.991   2.824 -2.6086 -0.3236  1.4656
 4483SOL     OW14347   6.514   1.339   2.406  0.0472  0.2595  0.5256
 4483SOL    HW114348   6.474   1.429   2.387 -1.0509  0.0741  1.8062
 4483SOL    HW214349   6.442   1.271   2.412  0.8898 -0.7673 -0.6382
 4484SOL     OW14350   3.971   2.044   6.835 -0.7044 -0.7132 -0.7646
 4484SOL    HW114351   4.030   1.964   6.849 -1.7626 -1.6581 -1.5291
 4484SOL    HW214352   3.979   2.106   6.913  2.0297 -0.3034 -1.2517
 4485SOL     OW14353   1.140   6.021   1.730  0.0624 -0.1273  0.2769
 4485SOL    HW114354   1.186   6.094   1.679  0.6146  0.4824  1.6005
 4485SOL    HW214355   1.198   5.993   1.806 -0.8071 -0.9214  0.6530
 4486SOL     OW14356   0.705   0.151   4.507 -0.0424  0.2219  0.3082
 4486SOL    HW114357   0.801   0.154   4.536 -0.2569 -1.5325  1.3639
 4486SOL    HW214358   0.653   0.096   4.572 -0.9539 -2.3866 -2.4525
 4487SOL     OW14359   2.711   3.846   0.261 -0.2989  0.0830  0.2576
 4487SOL    HW114360   2.704   3.874   0.165  2.3131  1.7110  0.4725
 4487SOL    HW214361   2.755   3.756   0.266  0.2587  0.3316 -0.0608
 4488SOL     OW14362   6.844   2.378   1.416  0.1849  0.4507  0.0416
 4488SOL    HW114363   6.770   2.377   1.483 -0.1391  0.8682 -0.3080
 4488SOL    HW214364   6.806   2.368   1.324  0.3666  2.4775 -0.3027
 4489SOL     OW14365   2.047   2.293   5.737 -0.5035 -0.3094  0.4378
 4489SOL    HW114366   1.991   2.272   5.656 -0.9660 -1.0139  0.9283
 4489SOL    HW214367   2.133   2.335   5.708 -0.0888 -1.7320 -0.5296
 4490SOL     OW14368   6.783   4.210   4.938  0.4257 -0.6759  0.4647
 4490SOL    HW114369   6.742   4.293   4.899 -0.7924 -2.0707 -1.3960
 4490SOL    HW214370   6.718   4.165   4.998  0.3673 -1.2682 -0.0354
 4491SOL     OW14371   4.871   5.886   1.007 -0.2492 -0.0856 -0.0112
 4491SOL    HW114372   4.846   5.913   1.100 -0.8974 -1.7443  0.3346
 4491SOL    HW214373   4.956   5.833   1.009 -0.4348 -0.4007 -0.3116
 4492SOL     OW14374   6.714   4.136   5.894  0.3299 -0.5441 -0.0056
 4492SOL    HW114375   6.688   4.045   5.927  0.7016 -0.8849 -0.6340
 4492SOL    HW214376   6.774   4.179   5.961  0.2461 -0.8094  0.2457
 4493SOL     OW14377   0.476   4.425   4.725  0.2809 -0.3993 -0.2849
 4493SOL    HW114378   0.487   4.524   4.717 -0.0130 -0.3500 -0.0591
 4493SOL    HW214379   0.565   4.381   4.708  0.5053 -0.0762  0.0321
 4494SOL     OW14380   6.106   1.179   2.632 -0.0109  0.3192  0.1390
 4494SOL    HW114381   6.113   1.108   2.562 -1.1804  0.8075 -0.4901
 4494SOL    HW214382   6.176   1.249   2.615  0.0446  0.1748 -0.2335
 4495SOL     OW14383   6.383   6.871   5.623  0.1327  0.1768 -0.0907
 4495SOL    HW114384   6.352   6.778   5.642 -1.7421  1.1158  1.8835
 4495SOL    HW214385   6.360   6.931   5.700  2.6834  2.0127 -0.5968
 4496SOL     OW14386   2.549   3.180   0.519 -0.1285 -0.1808  0.3317
 4496SOL    HW114387   2.567   3.149   0.425 -0.6190 -1.5970  0.6749
 4496SOL    HW214388   2.595   3.119   0.583  1.3309  1.5652  1.0153
 4497SOL     OW14389   0.988   0.260   1.042  0.2920 -0.0436 -0.2186
 4497SOL    HW114390   0.938   0.208   1.111 -1.8151 -1.2129 -2.4743
 4497SOL    HW214391   0.983   0.358   1.063 -1.1479 -0.2936  0.7518
 4498SOL     OW14392   0.442   1.862   3.662  0.0663  0.4301 -0.4203
 4498SOL    HW114393   0.460   1.938   3.723 -0.2870  0.8004 -0.7720
 4498SOL    HW214394   0.482   1.880   3.572  1.1474 -0.3990 -0.1185
 4499SOL     OW14395   5.661   4.525   0.632  0.1160  0.7018  0.8222
 4499SOL    HW114396   5.642   4.623   0.642  1.9162  0.9984  1.7069
 4499SOL    HW214397   5.710   4.492   0.713 -1.8046 -1.3189  1.2524
 4500SOL     OW14398   4.623   4.943   1.692  0.0155 -0.1371 -0.3005
 4500SOL    HW114399   4.555   4.881   1.653 -0.1203 -0.2325  0.0830
 4500SOL    HW214400   4.658   5.003   1.620 -1.2608  0.6408 -0.2918
 4501SOL     OW14401   5.070   1.159   6.746 -0.3534 -0.3893  0.7298
 4501SOL    HW114402   5.030   1.170   6.656  2.3148  0.2135 -0.4968
 4501SOL    HW214403   5.133   1.236   6.764  1.3395 -1.9384  1.8443
 4502SOL     OW14404   1.927   6.948   0.412 -0.1566 -0.0384 -0.0046
 4502SOL    HW114405   2.015   6.929   0.367 -0.3111 -0.8676  0.0163
 4502SOL    HW214406   1.934   6.927   0.509 -0.7444 -1.4246 -0.2367
 4503SOL     OW14407   2.938   3.721   5.610 -0.2539  0.6627  0.3130
 4503SOL    HW114408   2.868   3.784   5.577 -1.5108 -1.0880 -0.5116
 4503SOL    HW214409   2.927   3.706   5.708  0.1750  1.8241  0.5551
 4504SOL     OW14410   4.462   4.670   0.277 -0.0451  0.6183 -0.4867
 4504SOL    HW114411   4.407   4.721   0.211 -1.1300  0.5862  0.3614
 4504SOL    HW214412   4.409   4.592   0.311 -0.0354  1.3792  1.3989
 4505SOL     OW14413   1.800   5.232   3.011  0.5547  0.2187  0.3209
 4505SOL    HW114414   1.878   5.272   2.962  0.8933  0.2984  0.9244
 4505SOL    HW214415   1.729   5.301   3.022  0.3525  0.1191 -0.3173
 4506SOL     OW14416   0.144   6.462   4.380 -0.5667  0.0744 -0.2772
 4506SOL    HW114417   0.189   6.509   4.456  0.0299 -0.6805 -0.1489
 4506SOL    HW214418   0.164   6.364   4.386 -0.0456  0.0749 -1.7325
 4507SOL     OW14419   6.401   2.572   0.771 -0.0792  0.2677 -0.0884
 4507SOL    HW114420   6.344   2.648   0.740 -1.9033 -0.2115  1.8304
 4507SOL    HW214421   6.407   2.574   0.871  2.3440 -0.4247 -0.1624
 4508SOL     OW14422   5.029   0.273   5.905  0.4331 -0.4729 -1.0349
 4508SOL    HW114423   4.941   0.260   5.952  1.9062 -0.8131  1.8201
 4508SOL    HW214424   5.052   0.370   5.904  1.2750 -0.6351  0.7196
 4509SOL     OW14425   1.597   6.216   4.873  0.4561 -0.2421  0.4440
 4509SOL    HW114426   1.605   6.118   4.857  0.9482 -0.3449  1.2695
 4509SOL    HW214427   1.509   6.236   4.917  0.2413 -0.2801  0.0318
 4510SOL     OW14428   0.813   6.711   4.920 -0.0695 -0.2835  1.0695
 4510SOL    HW114429   0.843   6.786   4.861 -2.1641  1.1631  1.7177
 4510SOL    HW214430   0.863   6.628   4.897  1.2302  0.9255 -0.7370
 4511SOL     OW14431   5.645   6.794   3.805  0.2612  0.4049  0.2120
 4511SOL    HW114432   5.700   6.877   3.814 -1.2910  1.5699 -0.5210
 4511SOL    HW214433   5.626   6.777   3.708 -1.0998  0.3710  0.4581
 4512SOL     OW14434   4.049   0.795   4.775 -0.2847  0.0335  0.6703
 4512SOL    HW114435   4.089   0.839   4.695 -0.2692 -0.2960  0.4923
 4512SOL    HW214436   4.052   0.695   4.763  1.1187 -0.0944  1.7258
 4513SOL     OW14437   2.609   0.674   5.529  0.0212  0.3790  0.1756
 4513SOL    HW114438   2.576   0.626   5.610 -2.7730  0.1972 -0.9429
 4513SOL    HW214439   2.600   0.614   5.449 -1.8527  2.0292 -0.9698
 4514SOL     OW14440   4.357   4.981   5.998 -0.1595 -0.0742 -0.0321
 4514SOL    HW114441   4.329   4.885   6.003 -0.4897  0.0755  3.7393
 4514SOL    HW214442   4.415   5.003   6.077 -0.3940  2.9326 -0.5899
 4515SOL     OW14443   6.897   6.742   4.777  0.1821 -0.3274 -1.2058
 4515SOL    HW114444   6.965   6.669   4.770 -0.1390 -0.7539 -0.0805
 4515SOL    HW214445   6.921   6.804   4.851 -0.3524 -0.1633 -1.1606
 4516SOL     OW14446   2.553   0.316   5.841  0.5295 -0.0378 -0.1185
 4516SOL    HW114447   2.499   0.399   5.833  0.0206 -0.3517  0.0176
 4516SOL    HW214448   2.541   0.260   5.759 -0.4245 -0.7365  0.4843
 4517SOL     OW14449   2.421   6.850   2.335 -0.4501  0.4675  0.3162
 4517SOL    HW114450   2.441   6.947   2.348  1.2331 -0.0019  1.6279
 4517SOL    HW214451   2.356   6.820   2.406 -0.9031  0.6116 -0.0358
 4518SOL     OW14452   3.544   0.287   0.135 -0.0643 -0.0042  0.7003
 4518SOL    HW114453   3.509   0.195   0.152 -0.8811 -0.3175 -2.2758
 4518SOL    HW214454   3.615   0.284   0.064 -0.6813  1.7402 -0.0461
 4519SOL     OW14455   6.407   6.864   5.164 -0.0417  0.1650 -0.2229
 4519SOL    HW114456   6.446   6.867   5.072 -1.1922 -1.4667 -0.8208
 4519SOL    HW214457   6.342   6.939   5.175 -0.1366  0.1847 -0.8649
 4520SOL     OW14458   6.997   0.158   1.569  0.2683  0.2093 -0.2889
 4520SOL    HW114459   6.996   0.061   1.590 -0.2608  0.0302 -1.0708
 4520SOL    HW214460   7.076   0.179   1.511  0.5204  0.2943  0.0840
 4521SOL     OW14461   6.531   0.630   2.591 -0.0973 -0.5812  0.1217
 4521SOL    HW114462   6.548   0.726   2.613  1.2567 -0.4464 -1.3618
 4521SOL    HW214463   6.449   0.622   2.534  0.5763 -0.1402 -0.9273
 4522SOL     OW14464   5.569   0.812   2.249 -1.2155  0.3886  0.0773
 4522SOL    HW114465   5.646   0.820   2.312  0.0669  2.4130 -1.6463
 4522SOL    HW214466   5.503   0.746   2.286  0.6121 -0.3159  2.3050
 4523SOL     OW14467   2.925   5.549   3.838  0.2359 -0.2986  0.1172
 4523SOL    HW114468   2.916   5.637   3.792 -1.4223  0.4744  1.8067
 4523SOL    HW214469   2.988   5.556   3.915 -1.2415 -0.0583  1.3519
 4524SOL     OW14470   5.632   3.077   1.624 -0.2584 -0.8834  0.6373
 4524SOL    HW114471   5.689   3.159   1.618  0.5233 -1.4274  0.4576
 4524SOL    HW214472   5.658   3.013   1.552 -2.0221 -0.5967 -0.3282
 4525SOL     OW14473   4.612   5.923   1.486  0.5787 -0.3267 -0.3828
 4525SOL    HW114474   4.695   5.896   1.437  0.1127 -0.8914 -0.8737
 4525SOL    HW214475   4.546   5.962   1.421 -0.2416 -1.5426 -0.3078
 4526SOL     OW14476   0.683   3.885   4.585 -0.2674 -0.1705 -0.0219
 4526SOL    HW114477   0.697   3.838   4.672  0.9356  0.8058  0.3385
 4526SOL    HW214478   0.730   3.974   4.586  0.0093 -0.2467 -1.7526
 4527SOL     OW14479   5.216   2.808   1.944 -0.1812 -0.0861 -0.3571
 4527SOL    HW114480   5.165   2.888   1.910 -0.1368 -0.1528 -0.5845
 4527SOL    HW214481   5.234   2.819   2.041 -0.7986 -0.1484 -0.2275
 4528SOL     OW14482   5.541   1.717   4.138 -0.2222 -0.1172 -0.4788
 4528SOL    HW114483   5.640   1.725   4.154 -0.2933  0.0523 -0.1113
 4528SOL    HW214484   5.524   1.706   4.040  0.1772 -0.4153 -0.5191
 4529SOL     OW14485   3.777   0.928   5.480 -0.5550 -0.1434  0.2921
 4529SOL    HW114486   3.780   0.857   5.410  1.1824  0.6824 -0.5368
 4529SOL    HW214487   3.869   0.965   5.495 -1.5283  2.8301 -0.2888
 4530SOL     OW14488   0.027   2.167   5.949 -0.3669 -0.5815 -0.5493
 4530SOL    HW114489   0.078   2.222   6.015 -1.2625 -0.1004 -0.2384
 4530SOL    HW214490   0.012   2.075   5.986 -1.5051 -0.0909  0.2533
 4531SOL     OW14491   0.005   2.037   1.850 -0.5408  0.3234  0.6259
 4531SOL    HW114492  -0.077   1.988   1.880 -0.5407  0.1510  0.3437
 4531SOL    HW214493   0.087   1.989   1.880 -0.5369  0.9513  1.6595
 4532SOL     OW14494   0.173   3.608   4.113 -0.4620 -0.2827 -0.2191
 4532SOL    HW114495   0.172   3.518   4.156 -0.4338 -0.1698  0.0184
 4532SOL    HW214496   0.261   3.653   4.130 -0.5937 -0.0795 -0.0659
 4533SOL     OW14497   4.829   5.447   5.592  0.6659 -0.1571 -0.2819
 4533SOL    HW114498   4.738   5.439   5.633  0.8877  0.7676  0.4084
 4533SOL    HW214499   4.821   5.479   5.498  0.3834  2.7069  0.6425
 4534SOL     OW14500   4.813   2.422   2.360  0.5293  0.0897  0.7516
 4534SOL    HW114501   4.855   2.351   2.304  3.2779  2.5167 -0.5170
 4534SOL    HW214502   4.864   2.432   2.445  1.0653  1.4033  0.3071
 4535SOL     OW14503   6.389   5.365   6.658 -0.3993  0.5748 -0.3913
 4535SOL    HW114504   6.311   5.406   6.704 -0.0809  0.8188 -0.0577
 4535SOL    HW214505   6.472   5.383   6.711  0.0396  1.2279 -1.2705
 4536SOL     OW14506   4.872   3.097   2.565 -0.2521  0.0618  0.1895
 4536SOL    HW114507   4.832   3.026   2.507  0.2968  0.3571 -0.5799
 4536SOL    HW214508   4.846   3.082   2.660 -1.7240 -0.0741 -0.2037
 4537SOL     OW14509   6.153   4.252   4.687 -0.0625  0.8733 -0.1647
 4537SOL    HW114510   6.182   4.175   4.630  2.8189  0.3709  1.7135
 4537SOL    HW214511   6.072   4.226   4.739 -0.7467  0.1313 -1.5616
 4538SOL     OW14512   4.199   6.724   6.673  0.1432  0.0435 -0.1920
 4538SOL    HW114513   4.179   6.644   6.730  0.1884  0.0064 -0.2272
 4538SOL    HW214514   4.291   6.714   6.634 -0.1700 -0.2798 -0.8584
 4539SOL     OW14515   3.236   1.145   2.558  0.2712  0.4148  0.4309
 4539SOL    HW114516   3.206   1.064   2.508  1.0796  0.1635  0.3511
 4539SOL    HW214517   3.163   1.175   2.620 -0.1015 -0.2544  0.3159
 4540SOL     OW14518   3.308   3.421   0.566  0.6644  0.0233 -0.0143
 4540SOL    HW114519   3.274   3.509   0.532  1.2188  0.5134  0.6381
 4540SOL    HW214520   3.406   3.415   0.549  0.7681 -0.1379  0.6133
 4541SOL     OW14521   3.117   2.476   6.377  0.3474 -0.0031  0.6049
 4541SOL    HW114522   3.158   2.494   6.288 -1.7197  1.0151 -0.2241
 4541SOL    HW214523   3.123   2.378   6.397  0.1534 -0.3923 -1.0458
 4542SOL     OW14524   5.134   6.105   0.617  1.2980 -0.4922 -0.5409
 4542SOL    HW114525   5.176   6.138   0.702  0.2908 -0.9156  0.1427
 4542SOL    HW214526   5.124   6.180   0.553  1.3623 -0.0086  0.0099
 4543SOL     OW14527   2.945   0.267   1.961  0.2172 -0.2763  0.4743
 4543SOL    HW114528   2.847   0.268   1.984  0.4241  0.3024  1.3663
 4543SOL    HW214529   2.991   0.197   2.015  0.0720 -1.5939 -1.0226
 4544SOL     OW14530   0.344   3.685   1.255  0.3740 -0.0694  0.0844
 4544SOL    HW114531   0.420   3.620   1.252 -0.3101 -0.9008  0.4483
 4544SOL    HW214532   0.370   3.767   1.205  1.6244 -0.2137  0.4353
 4545SOL     OW14533   2.259   2.409   6.601  0.1380 -0.3596 -0.2693
 4545SOL    HW114534   2.319   2.360   6.664 -0.1184  0.5406  0.7052
 4545SOL    HW214535   2.180   2.445   6.651 -0.1400  0.2618 -1.1293
 4546SOL     OW14536   0.826   0.767   0.775  0.5503  0.4758 -0.5277
 4546SOL    HW114537   0.737   0.730   0.747  0.1497  0.0969  1.1274
 4546SOL    HW214538   0.888   0.766   0.697 -0.8073  0.4826 -1.6467
 4547SOL     OW14539   2.579   1.221   2.545  0.3050 -0.1741 -0.3396
 4547SOL    HW114540   2.628   1.231   2.632  1.7536  1.8553 -1.2960
 4547SOL    HW214541   2.625   1.153   2.488  0.7826  0.2097 -0.4200
 4548SOL     OW14542   1.477   2.521   0.118  0.1600 -0.0861  0.3105
 4548SOL    HW114543   1.507   2.426   0.109  2.2645  0.6373 -1.0796
 4548SOL    HW214544   1.409   2.542   0.048 -0.4861 -0.6043  0.7711
 4549SOL     OW14545   4.887   3.459   6.430 -0.4813  0.1269 -0.3054
 4549SOL    HW114546   4.862   3.463   6.334  0.2531 -0.1824 -0.5151
 4549SOL    HW214547   4.971   3.406   6.441 -0.2566  0.6095  0.4400
 4550SOL     OW14548   3.568   2.067   3.085 -0.0821  0.1083  0.3258
 4550SOL    HW114549   3.499   2.126   3.128  1.7163  0.8326  2.4530
 4550SOL    HW214550   3.557   1.973   3.117 -1.8766 -0.4332 -1.7086
 4551SOL     OW14551   1.547   1.827   4.613  0.1200 -0.0625  0.0224
 4551SOL    HW114552   1.447   1.826   4.616 -0.0089  0.6961 -2.0885
 4551SOL    HW214553   1.584   1.799   4.702 -1.9516 -1.0982  0.6208
 4552SOL     OW14554   0.100   6.156   0.241 -0.1326  0.3059  0.2015
 4552SOL    HW114555   0.183   6.203   0.209  1.0047 -1.0375  1.0449
 4552SOL    HW214556   0.053   6.115   0.162  0.6858  0.0440 -0.1656
 4553SOL     OW14557   4.520   6.482   4.597 -0.3454  0.1748  0.0151
 4553SOL    HW114558   4.489   6.416   4.529 -2.1346 -0.9688  1.8128
 4553SOL    HW214559   4.476   6.571   4.580 -0.0631  0.1519 -0.8375
 4554SOL     OW14560   2.110   1.938   1.942 -0.5363 -0.0021 -0.2646
 4554SOL    HW114561   2.054   1.867   1.982  0.2186 -0.8307 -0.6397
 4554SOL    HW214562   2.199   1.900   1.917 -0.4695  0.8358 -1.3732
 4555SOL     OW14563   3.742   3.392   3.879 -0.1179 -0.4606  0.1238
 4555SOL    HW114564   3.742   3.390   3.779  0.5883 -0.0059  0.1041
 4555SOL    HW214565   3.669   3.452   3.912  0.5210  0.5210 -0.1741
 4556SOL     OW14566   3.375   6.969   6.414 -0.5129 -0.6301  0.3491
 4556SOL    HW114567   3.353   6.966   6.511 -1.0796 -0.7067  0.2231
 4556SOL    HW214568   3.390   6.876   6.380  1.3633 -0.5131  0.7190
 4557SOL     OW14569   3.344   4.360   0.661  0.2677 -0.0784 -0.1427
 4557SOL    HW114570   3.255   4.372   0.705  0.0839 -0.9841 -0.2427
 4557SOL    HW214571   3.345   4.274   0.610  1.0248  0.1766 -0.5846
 4558SOL     OW14572   2.086   1.515   2.977  0.3956  0.0342 -0.4383
 4558SOL    HW114573   2.040   1.539   2.891  2.3508 -1.0561 -1.9005
 4558SOL    HW214574   2.149   1.589   3.003  1.8026 -0.7367 -1.4992
 4559SOL     OW14575   5.874   3.445   3.203 -0.1801  0.0438 -0.3073
 4559SOL    HW114576   5.812   3.388   3.256 -1.3551  1.7072  0.1872
 4559SOL    HW214577   5.825   3.484   3.125 -0.3438  2.6781  0.9762
 4560SOL     OW14578   5.037   6.303   5.159  0.1561  0.6382  0.4215
 4560SOL    HW114579   5.059   6.306   5.062 -0.8374 -0.1143  0.1650
 4560SOL    HW214580   5.017   6.396   5.191  0.4276  0.8806 -0.0974
 4561SOL     OW14581   4.435   0.005   0.830 -0.7400  0.3392  0.2199
 4561SOL    HW114582   4.367   0.000   0.904 -1.8287 -0.5425 -0.8055
 4561SOL    HW214583   4.388   0.008   0.742  0.4933  2.9597 -0.4351
 4562SOL     OW14584   4.580   1.214   1.756 -0.7084 -0.1755 -0.1345
 4562SOL    HW114585   4.602   1.251   1.846 -1.1863  0.4432 -0.2654
 4562SOL    HW214586   4.573   1.289   1.690 -1.0665 -0.5570 -0.5345
 4563SOL     OW14587   5.860   0.547   4.229 -0.7536  0.3648  0.2793
 4563SOL    HW114588   5.833   0.608   4.303  2.2952 -0.0464  1.8747
 4563SOL    HW214589   5.892   0.602   4.151 -1.1903  0.7864  0.3918
 4564SOL     OW14590   6.696   2.350   2.805  0.1468 -0.5708 -0.4891
 4564SOL    HW114591   6.632   2.273   2.810  0.1402 -0.4986  1.0771
 4564SOL    HW214592   6.788   2.315   2.786  0.2862 -1.0960  0.9731
 4565SOL     OW14593   4.794   2.860   4.739  0.2407  0.3604  0.3383
 4565SOL    HW114594   4.797   2.910   4.653 -0.7818  1.8325  1.1122
 4565SOL    HW214595   4.849   2.907   4.808  1.2312 -0.9225  0.4537
 4566SOL     OW14596   4.409   1.613   5.253  0.4322  0.0120 -0.0791
 4566SOL    HW114597   4.415   1.700   5.205 -0.7238  0.5018  0.6154
 4566SOL    HW214598   4.337   1.618   5.323  0.7345 -1.3109  0.3643
 4567SOL     OW14599   0.172   2.721   3.443  0.1169 -0.3245 -0.2551
 4567SOL    HW114600   0.095   2.659   3.429  0.0782 -0.4381  0.4514
 4567SOL    HW214601   0.141   2.816   3.434  0.1010 -0.3910 -0.9616
 4568SOL     OW14602   4.608   0.300   6.913 -0.4044 -0.3856  0.1208
 4568SOL    HW114603   4.536   0.363   6.884 -0.2233 -0.6513 -0.9322
 4568SOL    HW214604   4.697   0.339   6.893 -0.2451 -0.1901  1.1492
 4569SOL     OW14605   3.746   1.371   0.457 -0.0000  0.4165  0.4871
 4569SOL    HW114606   3.843   1.393   0.464 -0.3549  1.8586  1.4649
 4569SOL    HW214607   3.720   1.312   0.534  0.0745  0.1558  0.3115
 4570SOL     OW14608   0.587   2.624   0.093  1.2747  0.4416 -0.3460
 4570SOL    HW114609   0.637   2.543   0.123  0.7817  0.1319 -0.3638
 4570SOL    HW214610   0.653   2.695   0.065  1.6996 -0.0650 -0.6462
 4571SOL     OW14611   2.411   1.731   4.906 -0.1954 -0.5325 -0.1849
 4571SOL    HW114612   2.315   1.729   4.935 -0.4265 -0.5059 -0.9251
 4571SOL    HW214613   2.442   1.638   4.886  0.2920 -0.6803  1.1599
 4572SOL     OW14614   3.191   2.069   5.448  0.0231 -0.0855 -0.7908
 4572SOL    HW114615   3.180   2.004   5.523  0.8821 -1.9781 -2.2220
 4572SOL    HW214616   3.271   2.126   5.464  0.4610 -0.7828 -0.4645
 4573SOL     OW14617   4.960   4.838   1.949  0.0807 -0.1115  0.8248
 4573SOL    HW114618   5.050   4.839   1.993  0.4712 -0.1046  0.0282
 4573SOL    HW214619   4.956   4.909   1.879 -1.3737  1.5408  2.4723
 4574SOL     OW14620   1.986   4.759   6.974  0.4416 -0.5765 -0.0217
 4574SOL    HW114621   2.022   4.775   6.882 -0.3280  0.0159 -0.2285
 4574SOL    HW214622   2.059   4.772   7.041  0.4292  1.6611 -0.3444
 4575SOL     OW14623   2.013   4.734   4.273  0.5867  0.2531 -0.7506
 4575SOL    HW114624   1.976   4.704   4.185  0.2527  0.9425 -0.8544
 4575SOL    HW214625   2.113   4.731   4.269  0.6864  2.5827 -2.0513
 4576SOL     OW14626   1.043   4.298   6.269 -0.4945  0.5125  0.4645
 4576SOL    HW114627   1.110   4.225   6.283 -0.9350  0.2743  1.4267
 4576SOL    HW214628   1.042   4.324   6.173  0.7860  0.3421  0.3877
 4577SOL     OW14629   2.591   6.607   6.612  0.1365 -0.0675 -0.3570
 4577SOL    HW114630   2.675   6.628   6.662 -0.6846 -0.3363  1.2199
 4577SOL    HW214631   2.514   6.609   6.676 -0.9997 -0.2325 -1.6911
 4578SOL     OW14632   1.501   1.839   6.376 -0.0750  0.7563 -0.3136
 4578SOL    HW114633   1.575   1.778   6.350 -0.6614 -0.5289  0.8838
 4578SOL    HW214634   1.537   1.931   6.390  0.9932  0.5082 -1.2682
 4579SOL     OW14635   6.885   0.833   5.346 -0.1292  0.6813 -0.4238
 4579SOL    HW114636   6.879   0.784   5.259  1.4812 -1.1465  0.4247
 4579SOL    HW214637   6.968   0.889   5.347 -0.3123  0.9548 -0.1697
 4580SOL     OW14638   6.434   5.251   4.402  0.4597  0.3859 -0.3952
 4580SOL    HW114639   6.455   5.163   4.360  2.2290  1.2038 -1.3748
 4580SOL    HW214640   6.353   5.243   4.460  0.7129 -1.9122 -0.2838
 4581SOL     OW14641   0.116   0.269   3.363  0.0720  0.3509 -0.1478
 4581SOL    HW114642   0.066   0.332   3.424  0.0380  1.7205 -1.5178
 4581SOL    HW214643   0.067   0.182   3.357 -0.7773  0.7705  0.5196
 4582SOL     OW14644   6.361   2.694   5.761  0.2732  0.5791  0.6573
 4582SOL    HW114645   6.306   2.621   5.803  1.9630 -0.8162  0.5576
 4582SOL    HW214646   6.304   2.745   5.697 -0.9048 -0.8354  0.5211
 4583SOL     OW14647   5.450   4.094   4.236 -0.1556  0.1181 -0.2500
 4583SOL    HW114648   5.520   4.037   4.192  0.9718  1.1226  0.1859
 4583SOL    HW214649   5.371   4.101   4.175  0.2354 -0.8059 -0.8921
 4584SOL     OW14650   1.937   0.583   3.289  0.5867 -0.2246 -0.5703
 4584SOL    HW114651   1.856   0.640   3.300 -0.5048 -1.3828 -2.1237
 4584SOL    HW214652   1.995   0.592   3.370 -1.1490  0.5464  0.6699
 4585SOL     OW14653   6.106   4.442   4.322  0.6250 -0.2151 -0.3694
 4585SOL    HW114654   6.086   4.460   4.418  0.9754  0.3395 -0.3945
 4585SOL    HW214655   6.059   4.510   4.265  1.6657  0.4284 -0.4924
 4586SOL     OW14656   5.911   5.546   6.581  0.4367  0.0827  0.1990
 4586SOL    HW114657   5.893   5.488   6.501  2.2591  0.0610 -0.2389
 4586SOL    HW214658   5.891   5.496   6.665  1.7719 -1.1473 -0.1800
 4587SOL     OW14659   6.882   3.918   0.855 -0.2910  0.2078  0.3511
 4587SOL    HW114660   6.881   4.018   0.852  0.0801  0.2575  1.4851
 4587SOL    HW214661   6.788   3.883   0.860 -0.4100  0.5062  0.1848
 4588SOL     OW14662   1.850   3.164   1.587 -0.4698  0.3521  0.1360
 4588SOL    HW114663   1.821   3.177   1.682 -1.6312  0.5448 -0.2304
 4588SOL    HW214664   1.836   3.249   1.536  0.5501  0.3819 -0.1248
 4589SOL     OW14665   3.427   6.273   0.508  0.1488 -0.1663  0.1141
 4589SOL    HW114666   3.360   6.316   0.448  0.6190 -0.8629 -0.9413
 4589SOL    HW214667   3.516   6.273   0.463  1.1310  1.6307  1.8812
 4590SOL     OW14668   0.556   3.151   1.382 -0.6553  0.1655  0.5663
 4590SOL    HW114669   0.474   3.193   1.345  0.5844  1.2060 -1.1539
 4590SOL    HW214670   0.632   3.216   1.378  0.5259 -1.1189  1.0903
 4591SOL     OW14671   2.637   0.298   2.540  0.3260  0.0558 -0.0566
 4591SOL    HW114672   2.663   0.387   2.502  1.4068 -0.3003 -0.1723
 4591SOL    HW214673   2.714   0.258   2.589 -0.7850  0.1276  1.8505
 4592SOL     OW14674   4.905   0.995   1.926 -0.2456 -0.0177  0.3011
 4592SOL    HW114675   4.895   1.024   2.022 -0.1577  1.8880 -0.2127
 4592SOL    HW214676   5.001   0.994   1.901 -0.2924 -0.1078  0.1254
 4593SOL     OW14677   1.362   6.228   0.158 -0.2820  0.0334 -0.0090
 4593SOL    HW114678   1.414   6.181   0.086 -1.0270 -1.1713  0.2103
 4593SOL    HW214679   1.373   6.178   0.244  0.0113  1.0549  0.5587
 4594SOL     OW14680   1.511   3.309   6.841  0.0246 -0.0319 -0.6451
 4594SOL    HW114681   1.555   3.230   6.884  0.0941 -1.2300 -2.7908
 4594SOL    HW214682   1.561   3.392   6.866  2.0583 -1.0671 -1.0196
 4595SOL     OW14683   3.917   5.135   5.437 -0.3128  0.2563  0.3050
 4595SOL    HW114684   3.895   5.228   5.466  1.0046  0.6716  0.0497
 4595SOL    HW214685   3.843   5.073   5.463 -0.6032  1.1470  1.6670
 4596SOL     OW14686   1.875   3.882   4.876  0.0523  0.3844 -0.0246
 4596SOL    HW114687   1.877   3.933   4.962 -0.2621 -0.6657  0.6279
 4596SOL    HW214688   1.968   3.852   4.853 -0.0419 -0.5168  0.7009
 4597SOL     OW14689   2.028   4.109   5.809  0.2020  0.4007 -0.4589
 4597SOL    HW114690   2.117   4.101   5.853  0.0419 -2.0003 -0.4231
 4597SOL    HW214691   1.956   4.090   5.876 -0.3242  1.6585 -0.6412
 4598SOL     OW14692   1.305   6.520   2.335 -0.3816 -0.1238  0.1742
 4598SOL    HW114693   1.222   6.502   2.389 -1.6775  1.5488 -1.1616
 4598SOL    HW214694   1.287   6.592   2.269  2.2242  0.3908 -0.0744
 4599SOL     OW14695   1.265   6.291   1.630 -0.4042  0.0616  0.2070
 4599SOL    HW114696   1.344   6.286   1.569  0.1520  1.3260  0.7763
 4599SOL    HW214697   1.290   6.260   1.721 -1.0587 -1.2114 -0.0334
 4600SOL     OW14698   1.185   4.170   4.130  0.0968  0.7674  0.1339
 4600SOL    HW114699   1.170   4.241   4.198  1.8789 -0.7130  2.1831
 4600SOL    HW214700   1.153   4.082   4.165  1.2165 -0.0657 -0.8485
 4601SOL     OW14701   3.337   6.264   1.909  0.0599 -0.5609 -0.7020
 4601SOL    HW114702   3.297   6.209   1.836 -0.9499 -1.1023  0.2241
 4601SOL    HW214703   3.263   6.303   1.965  0.7831  0.8415 -0.6811
 4602SOL     OW14704   3.673   2.159   1.552 -0.1889 -0.2266 -0.6310
 4602SOL    HW114705   3.760   2.179   1.506 -0.0556 -1.3049 -0.8661
 4602SOL    HW214706   3.674   2.199   1.644  2.0672 -3.2364  0.8054
 4603SOL     OW14707   4.364   4.399   1.444 -0.3335  0.2108  0.3262
 4603SOL    HW114708   4.341   4.303   1.426  2.2795 -0.2006 -1.2721
 4603SOL    HW214709   4.389   4.409   1.540 -0.8945 -0.6280  0.5763
 4604SOL     OW14710   1.067   2.743   3.211 -0.0365 -0.5997  0.2290
 4604SOL    HW114711   1.068   2.646   3.186  3.7001 -0.1839 -1.9734
 4604SOL    HW214712   1.036   2.796   3.132  0.6608  0.1336  0.4374
 4605SOL     OW14713   3.477   6.212   2.780  0.5190  0.3289 -0.0769
 4605SOL    HW114714   3.490   6.182   2.685  1.5468  1.7296 -0.4056
 4605SOL    HW214715   3.535   6.158   2.840 -1.4966 -1.8566  0.0543
 4606SOL     OW14716   2.425   0.894   1.809 -0.7134  0.4716  0.0843
 4606SOL    HW114717   2.470   0.980   1.831  2.4291 -1.0234 -0.0106
 4606SOL    HW214718   2.467   0.853   1.728 -0.8218 -1.9985  1.1757
 4607SOL     OW14719   4.818   4.403   0.872  0.3897 -0.4922  0.1631
 4607SOL    HW114720   4.752   4.373   0.803  0.6093 -0.1929 -0.1816
 4607SOL    HW214721   4.812   4.343   0.951 -0.2117 -0.5450  0.0888
 4608SOL     OW14722   1.722   6.563   3.234 -0.2920  0.4979 -0.2920
 4608SOL    HW114723   1.804   6.559   3.291 -1.0883  1.1382  0.9359
 4608SOL    HW214724   1.730   6.638   3.169  0.1351  0.4914 -0.2466
 4609SOL     OW14725   6.195   4.833   0.936 -0.1849 -0.6709 -0.2116
 4609SOL    HW114726   6.175   4.900   1.008 -1.3009  0.2824 -1.3614
 4609SOL    HW214727   6.271   4.866   0.880  0.0445 -0.9552 -0.0746
 4610SOL     OW14728   6.848   4.042   1.877  0.2350  0.0340  0.1900
 4610SOL    HW114729   6.855   4.019   1.974 -0.3997 -1.2610 -0.0570
 4610SOL    HW214730   6.869   3.962   1.821 -0.0077  0.5961 -0.7377
 4611SOL     OW14731   4.948   5.489   2.199 -0.6280 -0.3777  0.1412
 4611SOL    HW114732   4.940   5.433   2.117 -2.3232 -0.3386  0.2510
 4611SOL    HW214733   4.936   5.432   2.280 -0.7860 -0.1203  0.3010
 4612SOL     OW14734   1.703   5.131   4.451  0.0113  0.1501 -0.0511
 4612SOL    HW114735   1.731   5.058   4.388 -1.5052  0.0779 -0.6628
 4612SOL    HW214736   1.693   5.217   4.401 -1.6088  0.0017 -0.0206
 4613SOL     OW14737   5.130   3.603   1.888 -0.1617 -0.4868  0.3251
 4613SOL    HW114738   5.053   3.624   1.950 -0.1300  2.9047 -0.5517
 4613SOL    HW214739   5.216   3.630   1.932  0.2236 -1.3968  0.1375
 4614SOL     OW14740   0.273   6.592   5.295  0.9738  0.1779  0.4322
 4614SOL    HW114741   0.205   6.521   5.276  0.4058  0.5159  1.1193
 4614SOL    HW214742   0.354   6.551   5.336  0.6891 -0.0952  0.7317
 4615SOL     OW14743   3.790   0.590   3.495  0.0053  0.5892  0.1835
 4615SOL    HW114744   3.720   0.546   3.437  0.1090 -0.9977  1.1935
 4615SOL    HW214745   3.869   0.614   3.439 -1.1512  2.0396 -0.9037
 4616SOL     OW14746   4.545   3.401   0.860 -0.0657  0.0229  0.3476
 4616SOL    HW114747   4.610   3.327   0.840 -0.2078 -0.1860  0.6440
 4616SOL    HW214748   4.485   3.414   0.781  0.8776  0.7969 -0.2632
 4617SOL     OW14749   3.980   1.831   6.435 -0.0625  0.0353 -0.7284
 4617SOL    HW114750   3.984   1.807   6.338 -1.1031 -0.7553 -0.5957
 4617SOL    HW214751   3.937   1.757   6.486  0.2441  0.5505  0.3081
 4618SOL     OW14752   6.107   3.031   1.972  0.0936  0.0066  0.0077
 4618SOL    HW114753   6.026   2.987   2.011 -1.4359  1.8567 -0.8575
 4618SOL    HW214754   6.184   2.969   1.975 -1.4092 -1.9274  0.7001
 4619SOL     OW14755   6.158   3.240   1.256  0.0755 -0.3319 -0.4847
 4619SOL    HW114756   6.231   3.301   1.287  1.9719 -1.3164 -2.6928
 4619SOL    HW214757   6.168   3.151   1.301 -0.4746 -0.1454  0.0247
 4620SOL     OW14758   2.134   1.195   5.768 -0.4117 -0.4722 -0.0917
 4620SOL    HW114759   2.219   1.184   5.717 -0.4676 -1.7409  0.0528
 4620SOL    HW214760   2.078   1.112   5.758 -1.8698  0.5368 -0.6140
 4621SOL     OW14761   3.769   0.664   3.937  0.5533  0.1557  0.3888
 4621SOL    HW114762   3.842   0.599   3.959  2.6291  2.5167  0.9341
 4621SOL    HW214763   3.786   0.704   3.847  0.7656  1.7638  1.1101
 4622SOL     OW14764   5.197   1.319   0.786 -0.1591  0.4042 -0.1817
 4622SOL    HW114765   5.261   1.393   0.768  0.7737 -0.9565 -3.1242
 4622SOL    HW214766   5.137   1.307   0.707 -1.5380 -0.8278  0.9820
 4623SOL     OW14767   4.610   4.771   3.772  0.6591  0.5118  0.0623
 4623SOL    HW114768   4.634   4.822   3.690 -0.1198  0.7743 -0.0098
 4623SOL    HW214769   4.535   4.707   3.751  1.5023 -0.5440  0.1904
 4624SOL     OW14770   5.592   6.753   4.991 -0.4775 -0.8308 -0.0214
 4624SOL    HW114771   5.568   6.776   5.086  0.8970  1.4278 -0.1305
 4624SOL    HW214772   5.524   6.792   4.930  0.6922  1.2583 -0.0908
 4625SOL     OW14773   2.386   4.811   2.705 -0.5217  0.0768  0.0390
 4625SOL    HW114774   2.434   4.724   2.713  0.2215  0.6275  2.1817
 4625SOL    HW214775   2.304   4.810   2.762 -1.2417  0.3396 -0.9618
 4626SOL     OW14776   2.447   6.548   2.607 -0.1924 -0.0696  0.1038
 4626SOL    HW114777   2.435   6.475   2.540 -0.8133  0.0833  0.0388
 4626SOL    HW214778   2.401   6.630   2.574 -0.5819 -0.0224  0.7583
 4627SOL     OW14779   4.926   1.805   1.749 -0.0114  0.0564 -0.3669
 4627SOL    HW114780   4.940   1.848   1.659 -0.1685  2.3969  0.6591
 4627SOL    HW214781   5.008   1.755   1.775  0.4457  0.2685 -1.3263
 4628SOL     OW14782   0.008   5.840   5.953 -0.8074  0.5331  0.0059
 4628SOL    HW114783   0.107   5.828   5.959 -0.7681  1.1624  0.9966
 4628SOL    HW214784  -0.015   5.899   5.876 -0.4268  0.2602 -0.3160
 4629SOL     OW14785   3.790   1.698   0.769  0.0178  0.2949  0.3186
 4629SOL    HW114786   3.708   1.660   0.726  0.6080  0.4698 -0.9975
 4629SOL    HW214787   3.855   1.727   0.699  0.0367  2.8031  1.2611
 4630SOL     OW14788   3.698   4.925   2.229  0.0363  0.4129  0.1952
 4630SOL    HW114789   3.687   4.864   2.150 -1.8347  1.2743 -0.2765
 4630SOL    HW214790   3.794   4.929   2.255  0.8532  0.7674 -2.5957
 4631SOL     OW14791   1.033   6.782   5.742 -0.2227 -0.1520 -0.0482
 4631SOL    HW114792   1.051   6.709   5.677 -0.5508  0.4375 -0.8146
 4631SOL    HW214793   1.039   6.870   5.696 -2.8839  0.1905  0.1123
 4632SOL     OW14794   0.023   2.498   3.563 -0.2262  0.4090 -0.0683
 4632SOL    HW114795  -0.055   2.544   3.519  1.2593  1.8896 -1.2779
 4632SOL    HW214796   0.019   2.513   3.661 -2.2284 -0.7926  0.1063
 4633SOL     OW14797   2.397   6.963   5.152  0.0095  0.0287  0.1820
 4633SOL    HW114798   2.407   7.043   5.210  0.7693 -0.6475  1.0130
 4633SOL    HW214799   2.396   6.991   5.056 -1.3099  1.1626  0.4948
 4634SOL     OW14800   5.649   6.329   0.657 -0.2900  0.1265 -0.1610
 4634SOL    HW114801   5.552   6.337   0.634 -0.1734 -0.3842 -0.8756
 4634SOL    HW214802   5.690   6.420   0.661 -1.3001  0.5759  2.5466
 4635SOL     OW14803   2.020   3.851   2.047  0.0817  0.0371  0.7292
 4635SOL    HW114804   2.081   3.773   2.029 -2.3442 -2.1120  1.2220
 4635SOL    HW214805   2.025   3.916   1.971 -1.2527 -2.9785 -2.1655
 4636SOL     OW14806   1.482   0.609   0.328 -0.4964  0.3465 -0.2033
 4636SOL    HW114807   1.403   0.633   0.385 -1.2963  0.8135 -1.4750
 4636SOL    HW214808   1.520   0.521   0.360 -1.0316  0.4959  0.9088
 4637SOL     OW14809   0.422   6.603   1.859  0.2714  0.1403  0.4516
 4637SOL    HW114810   0.363   6.669   1.813  0.1225  0.2631  0.8119
 4637SOL    HW214811   0.380   6.576   1.946  0.4572 -0.2316  0.4271
 4638SOL     OW14812   1.729   0.761   6.887 -0.5814 -0.9078 -0.0484
 4638SOL    HW114813   1.702   0.847   6.843  0.9160 -0.3213  0.1339
 4638SOL    HW214814   1.686   0.755   6.977 -0.4564 -0.2119  0.0590
 4639SOL     OW14815   1.304   0.646   3.390 -0.6550  0.1451  0.6043
 4639SOL    HW114816   1.265   0.732   3.421 -1.8461 -0.4263  0.7340
 4639SOL    HW214817   1.236   0.594   3.340  0.3568 -0.2885 -0.3650
 4640SOL     OW14818   3.867   5.623   5.295  0.0502 -0.1492  0.4641
 4640SOL    HW114819   3.917   5.710   5.291 -0.6026  0.2094 -2.2132
 4640SOL    HW214820   3.857   5.594   5.390  2.2530  1.5373  1.2961
 4641SOL     OW14821   2.134   5.819   4.958  0.1135  0.0250  0.1927
 4641SOL    HW114822   2.090   5.824   5.048 -1.0992  0.0734 -0.3873
 4641SOL    HW214823   2.221   5.868   4.961 -0.7073  1.4978  0.8780
 4642SOL     OW14824   4.652   4.472   6.338 -0.2997 -0.2261  0.3311
 4642SOL    HW114825   4.621   4.481   6.433  0.4139  2.0930  0.4214
 4642SOL    HW214826   4.678   4.378   6.319 -1.4049 -0.9334  2.1264
 4643SOL     OW14827   0.880   0.146   5.967 -0.1351 -0.0390 -0.3195
 4643SOL    HW114828   0.926   0.204   5.899  0.7616  0.1834  0.4761
 4643SOL    HW214829   0.936   0.066   5.987 -0.0642  0.2589  0.6925
 4644SOL     OW14830   5.326   2.391   0.449  0.4845 -0.2935  0.3047
 4644SOL    HW114831   5.330   2.427   0.543 -0.6783 -1.2189  0.7435
 4644SOL    HW214832   5.412   2.409   0.403  0.2317  2.3917  0.7158
 4645SOL     OW14833   3.433   4.641   5.613  0.5636 -0.5172 -0.0098
 4645SOL    HW114834   3.402   4.643   5.518  0.7708 -0.5462 -0.0774
 4645SOL    HW214835   3.531   4.659   5.617  0.2478  1.3726  0.3263
 4646SOL     OW14836   5.640   2.656   6.355 -0.4564  0.1903  0.2525
 4646SOL    HW114837   5.583   2.580   6.385 -0.1289 -0.5591 -0.9492
 4646SOL    HW214838   5.736   2.638   6.380 -0.0002 -0.9843 -2.1061
 4647SOL     OW14839   3.566   0.395   6.443  0.1242 -0.0842  0.8265
 4647SOL    HW114840   3.556   0.475   6.384  1.0558 -0.4141  0.1965
 4647SOL    HW214841   3.640   0.337   6.409  0.0206 -0.7953  1.7555
 4648SOL     OW14842   2.276   6.753   4.401  0.6849  0.1261  0.5542
 4648SOL    HW114843   2.285   6.666   4.351  1.6135  0.1022  0.7498
 4648SOL    HW214844   2.325   6.825   4.351 -1.7589  1.0310 -0.7009
 4649SOL     OW14845   6.918   0.337   4.899  0.8916  0.0810  0.8959
 4649SOL    HW114846   6.926   0.354   4.800  0.9386  0.5086  0.9717
 4649SOL    HW214847   7.007   0.309   4.935  0.5995 -1.3157  0.5920
 4650SOL     OW14848   5.687   1.432   6.766 -0.2769 -0.5418 -0.3545
 4650SOL    HW114849   5.685   1.524   6.805 -0.0256 -0.3895 -0.7019
 4650SOL    HW214850   5.781   1.399   6.762 -0.4391 -1.1588  0.5628
 4651SOL     OW14851   6.647   0.925   2.163  0.0499  0.2536  0.4850
 4651SOL    HW114852   6.744   0.950   2.159  0.6236 -1.6849  1.1242
 4651SOL    HW214853   6.631   0.845   2.105 -1.1717  0.5637  0.3802
 4652SOL     OW14854   4.675   6.486   4.114  0.4995  0.1162  0.4125
 4652SOL    HW114855   4.619   6.475   4.031 -0.7282  2.4550  0.8758
 4652SOL    HW214856   4.694   6.395   4.152 -1.8530 -0.8446 -0.4935
 4653SOL     OW14857   3.155   5.620   4.010 -0.0078  0.1153  0.1943
 4653SOL    HW114858   3.203   5.542   3.971 -3.1492 -2.4437  1.0744
 4653SOL    HW214859   3.157   5.614   4.110 -1.9131  0.0135  0.2582
 4654SOL     OW14860   4.591   0.958   0.156  0.0653 -0.0073  0.0063
 4654SOL    HW114861   4.592   1.003   0.067  1.7015 -1.0739 -0.5602
 4654SOL    HW214862   4.680   0.916   0.174 -0.9302 -1.8106  1.1074
 4655SOL     OW14863   6.289   0.881   5.935  0.2154 -0.7157  0.3989
 4655SOL    HW114864   6.209   0.842   5.890  0.8534 -3.1419  1.2011
 4655SOL    HW214865   6.262   0.960   5.990 -1.0989  0.2889 -1.6032
 4656SOL     OW14866   2.243   6.736   1.296  0.0812 -0.2579 -0.3198
 4656SOL    HW114867   2.170   6.711   1.231 -0.8511  0.6480  0.3453
 4656SOL    HW214868   2.208   6.726   1.389  1.0210 -0.3779  0.0265
 4657SOL     OW14869   5.956   0.062   1.828  0.4140 -0.2481  0.8488
 4657SOL    HW114870   5.909  -0.024   1.851  0.3072  0.1328  2.1384
 4657SOL    HW214871   5.896   0.139   1.852 -1.2584  0.2804 -3.9504
 4658SOL     OW14872   3.024   1.077   0.925 -0.1979  0.1026 -0.0743
 4658SOL    HW114873   2.942   1.088   0.869 -1.5814 -1.1499  1.5816
 4658SOL    HW214874   2.998   1.040   1.015  2.0683  0.7216  0.9089
 4659SOL     OW14875   6.589   2.558   0.091 -0.1497 -0.4233 -0.3356
 4659SOL    HW114876   6.550   2.633   0.037 -0.5303 -0.3783  0.0010
 4659SOL    HW214877   6.590   2.582   0.187  2.8467  0.5480 -0.4951
 4660SOL     OW14878   0.520   0.133   3.492  0.2588  0.2953  0.1105
 4660SOL    HW114879   0.484   0.172   3.407  3.7167 -1.1896 -2.2675
 4660SOL    HW214880   0.470   0.049   3.513 -0.5378  0.5941 -0.5038
 4661SOL     OW14881   2.180   3.814   4.068  1.0171 -0.1295  0.5914
 4661SOL    HW114882   2.122   3.895   4.075  0.9419 -0.0144 -1.0392
 4661SOL    HW214883   2.274   3.843   4.049  0.6566 -0.4067 -1.9805
 4662SOL     OW14884   3.813   1.948   4.704  0.2253  0.0603  0.7347
 4662SOL    HW114885   3.879   2.017   4.672 -1.4758  2.4508  2.0491
 4662SOL    HW214886   3.837   1.921   4.797 -0.2224  0.3723  0.9414
 4663SOL     OW14887   2.924   2.084   6.675  0.3295 -0.3379  0.0202
 4663SOL    HW114888   2.982   2.004   6.660 -0.6129 -1.2562  1.0639
 4663SOL    HW214889   2.937   2.149   6.600  3.2527 -0.1238  0.5798
 4664SOL     OW14890   0.862   3.934   2.634 -0.5908  0.2479  0.6878
 4664SOL    HW114891   0.920   3.853   2.631  1.1673  1.4828 -1.0698
 4664SOL    HW214892   0.789   3.926   2.567  0.4138  0.6735 -0.4815
 4665SOL     OW14893   2.886   3.336   6.187  0.3300  0.0525  0.3807
 4665SOL    HW114894   2.833   3.416   6.216 -0.0350 -0.7757  2.1415
 4665SOL    HW214895   2.853   3.255   6.235  1.9677 -0.8131  0.1149
 4666SOL     OW14896   6.528   2.413   2.297 -0.4673 -0.8097 -0.3217
 4666SOL    HW114897   6.540   2.364   2.211  0.3037 -0.7386 -0.2686
 4666SOL    HW214898   6.489   2.351   2.365  1.5068 -1.7330  0.0589
 4667SOL     OW14899   6.548   0.738   0.511 -0.8932 -0.0241 -0.4203
 4667SOL    HW114900   6.642   0.707   0.496 -0.3284  0.8705  1.0405
 4667SOL    HW214901   6.485   0.665   0.486  0.0413  0.0087 -3.3103
 4668SOL     OW14902   3.293   1.200   6.244 -0.1313  0.1424  0.1804
 4668SOL    HW114903   3.194   1.185   6.239 -0.1528 -0.0276  1.0045
 4668SOL    HW214904   3.315   1.247   6.329  0.2255  2.4944 -1.1389
 4669SOL     OW14905   0.671   6.597   2.146 -0.3626  0.0467 -0.8087
 4669SOL    HW114906   0.591   6.543   2.123 -1.3904  1.3091 -0.3163
 4669SOL    HW214907   0.646   6.670   2.210  1.4780 -0.4283  0.5396
 4670SOL     OW14908   2.803   2.640   0.854  0.1734 -0.8157 -0.4411
 4670SOL    HW114909   2.852   2.723   0.879  0.3278 -0.8511 -0.6253
 4670SOL    HW214910   2.801   2.631   0.755 -1.4916 -0.0336 -0.5173
 4671SOL     OW14911   3.403   6.719   6.265 -0.8141 -0.4320 -0.8381
 4671SOL    HW114912   3.331   6.751   6.203 -1.0046 -2.0347 -1.4719
 4671SOL    HW214913   3.464   6.656   6.217  0.0580 -0.3794  0.1463
 4672SOL     OW14914   0.518   4.562   6.739 -0.5126 -0.2777  0.3595
 4672SOL    HW114915   0.521   4.661   6.741  0.0943 -0.3011  0.6438
 4672SOL    HW214916   0.446   4.529   6.801 -1.2823  0.0017 -0.3615
 4673SOL     OW14917   3.360   3.107   6.167  0.0340  0.0818  0.3490
 4673SOL    HW114918   3.293   3.165   6.214 -0.0177 -0.2056  0.6332
 4673SOL    HW214919   3.318   3.065   6.087 -0.2593 -0.4553  0.7817
 4674SOL     OW14920   6.173   5.369   6.837  0.1810 -0.0719 -0.1263
 4674SOL    HW114921   6.107   5.312   6.885 -2.6397  1.1492 -2.2260
 4674SOL    HW214922   6.181   5.457   6.884  0.4576 -0.2892  0.2345
 4675SOL     OW14923   2.569   4.928   2.178  0.3021  0.2999  0.1641
 4675SOL    HW114924   2.566   4.973   2.267  1.5682 -0.0487  0.4131
 4675SOL    HW214925   2.639   4.856   2.179 -1.4028 -1.4590 -0.3360
 4676SOL     OW14926   0.456   1.376   6.439 -0.5316 -0.7227 -0.4302
 4676SOL    HW114927   0.488   1.456   6.388  1.5088 -1.0106  0.3103
 4676SOL    HW214928   0.504   1.371   6.527  1.2363 -4.0468 -1.4260
 4677SOL     OW14929   0.322   1.670   4.929  0.3470  0.5201 -0.3523
 4677SOL    HW114930   0.373   1.647   4.846 -0.9239  1.2419 -1.3781
 4677SOL    HW214931   0.367   1.747   4.975  2.3911 -1.3445  0.9701
 4678SOL     OW14932   1.627   2.917   4.611 -0.3671 -0.1042  0.9270
 4678SOL    HW114933   1.539   2.962   4.627  0.2418  1.6823 -0.3647
 4678SOL    HW214934   1.688   2.980   4.562  0.8077 -2.1281 -0.3644
 4679SOL     OW14935   3.365   5.260   1.859  0.6729  0.1448 -0.5156
 4679SOL    HW114936   3.450   5.294   1.898  1.1639  0.2607 -1.6334
 4679SOL    HW214937   3.302   5.235   1.932  0.9671  1.7833  0.3478
 4680SOL     OW14938   0.444   3.108   6.474 -0.2940  0.2340 -0.1689
 4680SOL    HW114939   0.479   3.147   6.559  0.1607 -1.2849  0.3538
 4680SOL    HW214940   0.354   3.068   6.490  0.7484 -2.1284  0.2264
 4681SOL     OW14941   5.064   0.095   3.324  0.3811  0.2370 -0.5884
 4681SOL    HW114942   5.118   0.026   3.373  0.1953 -0.7748 -1.7567
 4681SOL    HW214943   5.005   0.049   3.257 -1.0288  1.4001 -0.2100
 4682SOL     OW14944   0.996   0.896   6.177 -0.2830  0.2021 -0.2069
 4682SOL    HW114945   1.028   0.818   6.231 -0.8111 -0.0290 -0.2187
 4682SOL    HW214946   0.942   0.957   6.235 -1.5680 -0.4810 -0.6509
 4683SOL     OW14947   6.601   5.461   1.043 -0.3017 -0.1898 -0.5334
 4683SOL    HW114948   6.599   5.419   1.134 -0.3306 -0.2872 -0.5782
 4683SOL    HW214949   6.678   5.523   1.037 -0.2106 -0.2973 -0.4912
 4684SOL     OW14950   1.676   0.240   2.005 -0.1803 -0.0831  0.6616
 4684SOL    HW114951   1.728   0.172   1.954  0.9798  0.0832  1.5550
 4684SOL    HW214952   1.677   0.327   1.956 -2.2423 -0.8348 -0.8166
 4685SOL     OW14953   2.132   4.521   2.524 -0.4274 -0.2029  0.4443
 4685SOL    HW114954   2.065   4.450   2.543 -1.1407  0.7722  1.8091
 4685SOL    HW214955   2.213   4.480   2.483 -1.6935 -1.4560 -0.9267
 4686SOL     OW14956   3.096   5.977   3.679  0.4049  0.4329 -0.0074
 4686SOL    HW114957   3.182   5.989   3.728  0.3107  0.0355  0.2613
 4686SOL    HW214958   3.054   6.066   3.664  1.1993  0.6982 -0.7589
 4687SOL     OW14959   1.660   1.369   0.296  0.4873 -0.3136 -0.4189
 4687SOL    HW114960   1.712   1.285   0.279  0.0966 -0.3783 -1.3324
 4687SOL    HW214961   1.564   1.354   0.273  0.4912  0.5160 -1.0059
 4688SOL     OW14962   6.383   4.109   2.406  0.2075  0.6191 -0.0444
 4688SOL    HW114963   6.380   4.207   2.428 -4.2145  1.6464 -3.6447
 4688SOL    HW214964   6.295   4.067   2.428  1.5694 -2.3321  0.2593
 4689SOL     OW14965   6.534   6.980   4.510  0.1497 -0.0825 -0.0546
 4689SOL    HW114966   6.554   7.061   4.566  2.4590 -1.1087  0.7406
 4689SOL    HW214967   6.470   6.921   4.559  0.8483 -0.1727  0.7676
 4690SOL     OW14968   0.708   2.962   4.386  0.2544 -0.5486 -0.5004
 4690SOL    HW114969   0.748   3.005   4.467  1.0755  1.1735 -1.7606
 4690SOL    HW214970   0.772   2.970   4.309 -1.2395 -0.5106 -1.7859
 4691SOL     OW14971   1.501   3.376   3.524  0.0304 -0.1096 -0.2939
 4691SOL    HW114972   1.483   3.319   3.443 -2.1426 -0.5047  0.3969
 4691SOL    HW214973   1.538   3.320   3.597 -1.3490 -0.5221  0.1183
 4692SOL     OW14974   3.322   3.185   5.709 -0.5705  0.5428  0.3518
 4692SOL    HW114975   3.395   3.119   5.691 -0.5931  0.5966  0.0654
 4692SOL    HW214976   3.322   3.255   5.638 -1.8873 -0.3005 -0.5186
 4693SOL     OW14977   4.524   6.853   2.623 -0.6830 -0.5379  0.1876
 4693SOL    HW114978   4.511   6.932   2.564 -0.3627  0.2946  1.1942
 4693SOL    HW214979   4.436   6.824   2.660 -0.5029  1.5847  2.5734
 4694SOL     OW14980   0.279   0.552   6.063 -0.1302 -0.2622  0.1462
 4694SOL    HW114981   0.343   0.559   5.986  0.5662  0.4707  0.7589
 4694SOL    HW214982   0.230   0.465   6.059  0.0196 -0.3064 -1.0194
 4695SOL     OW14983   2.880   5.674   0.125 -0.2136 -0.4745 -0.0686
 4695SOL    HW114984   2.972   5.651   0.092  0.0052  0.7165 -0.3437
 4695SOL    HW214985   2.841   5.746   0.067 -0.4540  0.5578  1.3173
 4696SOL     OW14986   0.872   1.987   6.496  0.2441 -0.0657  0.7549
 4696SOL    HW114987   0.826   1.900   6.512 -2.5047  1.4453  1.7672
 4696SOL    HW214988   0.895   2.030   6.583 -0.1422  1.0234  0.3409
 4697SOL     OW14989   2.124   6.544   5.919  0.6997 -0.3841  0.6037
 4697SOL    HW114990   2.064   6.611   5.877 -0.0457 -1.2997  0.1652
 4697SOL    HW214991   2.179   6.499   5.848  0.3553 -1.0394  0.7400
 4698SOL     OW14992   3.852   3.834   1.128  0.1446 -0.1468  0.3462
 4698SOL    HW114993   3.778   3.803   1.188 -1.0353  1.0335 -0.4331
 4698SOL    HW214994   3.939   3.824   1.175 -0.4425 -2.0064  1.1275
 4699SOL     OW14995   4.283   5.300   0.048 -0.1948  0.0539  0.2185
 4699SOL    HW114996   4.376   5.320   0.078 -0.2577 -0.4834  0.7806
 4699SOL    HW214997   4.223   5.292   0.128 -0.7903  0.6927 -0.1502
 4700SOL     OW14998   6.048   4.060   6.467  0.0095 -0.5498  0.0161
 4700SOL    HW114999   5.992   4.113   6.531  0.0538 -1.2186  0.6187
 4700SOL    HW215000   6.132   4.110   6.447 -0.2299 -0.1113  0.0918
 4701SOL     OW15001   0.066   0.135   3.973 -0.6113  0.0945 -0.3494
 4701SOL    HW115002   0.001   0.152   3.899 -1.1106 -0.8297 -0.1456
 4701SOL    HW215003   0.020   0.086   4.047  0.0473  0.4158  0.2849
 4702SOL     OW15004   5.137   4.240   0.744  0.1744 -0.1989 -0.6399
 4702SOL    HW115005   5.092   4.205   0.826 -0.6873  0.2106 -0.9237
 4702SOL    HW215006   5.098   4.329   0.720 -0.5690 -0.9095 -2.2621
 4703SOL     OW15007   5.542   4.025   6.317 -0.1527 -0.4115  0.3854
 4703SOL    HW115008   5.609   3.979   6.258  0.1860 -1.9612  1.8853
 4703SOL    HW215009   5.455   4.033   6.269  0.6403  0.1875 -1.0180
 4704SOL     OW15010   6.388   2.054   1.019 -0.5030  0.1811 -0.3023
 4704SOL    HW115011   6.373   2.136   1.075 -0.0564 -0.5335  0.8823
 4704SOL    HW215012   6.387   1.973   1.077 -2.2169 -0.8059 -1.6301
 4705SOL     OW15013   6.217   6.953   6.607  0.1666  0.3086 -0.0856
 4705SOL    HW115014   6.308   6.958   6.647 -0.8544  2.2397  2.2211
 4705SOL    HW215015   6.155   6.906   6.671 -0.9056  0.8629 -0.6841
 4706SOL     OW15016   5.229   6.671   2.804  0.2829 -0.3715  0.5675
 4706SOL    HW115017   5.250   6.758   2.847  1.9922 -0.7757  0.6304
 4706SOL    HW215018   5.136   6.673   2.766  0.4478  1.6113  0.1866
 4707SOL     OW15019   2.071   0.572   4.212  0.0263  0.3606 -0.2100
 4707SOL    HW115020   2.076   0.490   4.270  3.8939  1.3384  1.1675
 4707SOL    HW215021   2.027   0.549   4.125  1.4906 -3.3677 -0.1420
 4708SOL     OW15022   4.396   1.096   0.318  0.2843 -0.1925  0.3320
 4708SOL    HW115023   4.424   1.101   0.414  0.6689 -1.4185  0.3022
 4708SOL    HW215024   4.468   1.052   0.264  0.2962  0.9593 -0.6250
 4709SOL     OW15025   6.092   0.733   6.165 -0.0040  0.3742  0.1087
 4709SOL    HW115026   6.089   0.824   6.124  1.0699 -0.9948 -3.3448
 4709SOL    HW215027   6.185   0.696   6.158 -0.8795 -1.8264 -0.6420
 4710SOL     OW15028   2.704   0.809   3.116 -0.3368  0.2038  0.1506
 4710SOL    HW115029   2.766   0.884   3.093  1.4074 -1.3210 -0.2752
 4710SOL    HW215030   2.616   0.848   3.147 -0.4306  2.3788 -2.4835
 4711SOL     OW15031   0.234   2.997   0.067  0.5241  0.3851 -0.7064
 4711SOL    HW115032   0.182   3.068   0.115 -0.8673 -1.5492  0.8108
 4711SOL    HW215033   0.189   2.977  -0.020 -0.4933 -0.2651 -0.0546
 4712SOL     OW15034   1.629   5.534   3.794 -0.1014  0.3532 -0.0041
 4712SOL    HW115035   1.539   5.558   3.828  1.1870  1.6957  2.7778
 4712SOL    HW215036   1.680   5.618   3.772  0.0228 -0.3974 -3.0988
 4713SOL     OW15037   0.397   0.180   6.778 -0.5776  0.2630  0.3279
 4713SOL    HW115038   0.320   0.237   6.752 -0.1598  0.9121  0.4822
 4713SOL    HW215039   0.470   0.237   6.816  0.7241 -0.0854 -1.4950
 4714SOL     OW15040   5.551   5.550   4.173 -0.0567 -0.1760  0.0567
 4714SOL    HW115041   5.630   5.572   4.117  0.7198 -0.8556  0.8603
 4714SOL    HW215042   5.474   5.524   4.115  0.5257 -0.2139 -0.6978
 4715SOL     OW15043   2.328   2.799   5.510 -0.1580 -0.7725 -0.8467
 4715SOL    HW115044   2.380   2.877   5.546  1.7609 -2.7427  0.9738
 4715SOL    HW215045   2.238   2.795   5.552  0.6117 -0.8088  0.8716
 4716SOL     OW15046   0.135   5.462   4.596 -0.0510 -0.3467  0.4122
 4716SOL    HW115047   0.061   5.400   4.618  0.3400 -0.9389  0.1017
 4716SOL    HW215048   0.200   5.416   4.534 -0.8261  1.0305 -1.5416
 4717SOL     OW15049   2.774   0.732   3.370 -0.4420 -0.7954 -0.4517
 4717SOL    HW115050   2.680   0.729   3.403 -0.7166  0.4507 -1.0678
 4717SOL    HW215051   2.775   0.731   3.270  0.1592 -0.0547 -0.4612
 4718SOL     OW15052   6.689   1.797   3.771 -0.2913 -0.1266  0.0814
 4718SOL    HW115053   6.606   1.744   3.790 -1.0538  1.4652  1.4428
 4718SOL    HW215054   6.665   1.880   3.720  0.7533 -0.5782 -1.1965
 4719SOL     OW15055   3.561   1.483   0.259  0.2208  0.3163 -0.1744
 4719SOL    HW115056   3.489   1.414   0.264  1.3655 -0.8406  0.9418
 4719SOL    HW215057   3.533   1.564   0.312  0.2449 -0.6356  1.3657
 4720SOL     OW15058   1.931   6.801   6.895  0.1115 -0.0972 -0.7300
 4720SOL    HW115059   1.860   6.749   6.944  1.3980  0.0320  1.4291
 4720SOL    HW215060   1.901   6.895   6.882 -0.2887 -0.1518 -0.2359
 4721SOL     OW15061   1.527   3.692   5.464 -0.1566 -0.3824 -0.1764
 4721SOL    HW115062   1.447   3.691   5.405 -0.1173  0.6021 -0.2676
 4721SOL    HW215063   1.603   3.645   5.419 -0.6884 -1.3413 -0.0754
 4722SOL     OW15064   1.967   3.842   6.255  0.6044 -0.3105 -0.2670
 4722SOL    HW115065   1.999   3.749   6.275  0.0163 -0.2384  1.0781
 4722SOL    HW215066   2.045   3.901   6.237  0.9813 -1.0883 -1.3272
 4723SOL     OW15067   2.415   0.317   1.309 -0.3121  0.0132 -0.5038
 4723SOL    HW115068   2.473   0.242   1.343  1.0280  0.8178 -0.9193
 4723SOL    HW215069   2.416   0.392   1.375 -1.3511 -0.1679 -0.2633
 4724SOL     OW15070   4.490   4.905   0.069 -0.6458 -0.1808  0.4782
 4724SOL    HW115071   4.457   4.957  -0.010  0.9120  1.5143  0.8489
 4724SOL    HW215072   4.464   4.954   0.153  0.1903 -0.4145  0.8773
 4725SOL     OW15073   2.325   4.117   6.635 -0.1019  0.0684 -0.6581
 4725SOL    HW115074   2.376   4.106   6.720 -0.2716  1.3355 -0.3753
 4725SOL    HW215075   2.277   4.032   6.614  0.0455 -0.3035  0.4346
 4726SOL     OW15076   4.508   0.403   4.009 -0.0601 -0.2548 -0.2950
 4726SOL    HW115077   4.446   0.417   4.086  0.4600 -0.5204  0.1882
 4726SOL    HW215078   4.517   0.488   3.957 -0.8365 -0.2242 -0.3835
 4727SOL     OW15079   4.885   0.838   3.638  0.3328 -0.4665 -0.4723
 4727SOL    HW115080   4.838   0.756   3.673 -3.9515  1.6794 -0.5952
 4727SOL    HW215081   4.905   0.900   3.714  2.5643 -1.0172 -0.5260
 4728SOL     OW15082   1.760   2.123   6.095  0.4199  0.2209 -0.7539
 4728SOL    HW115083   1.840   2.162   6.051  0.0968  2.2105  0.2930
 4728SOL    HW215084   1.680   2.179   6.074  0.1256  0.8378  1.6759
 4729SOL     OW15085   3.239   3.295   5.187  0.0099 -0.0378 -0.0369
 4729SOL    HW115086   3.179   3.232   5.236  0.5768  0.9004  1.9606
 4729SOL    HW215087   3.241   3.271   5.090 -1.1471 -1.9758  0.3805
 4730SOL     OW15088   5.128   4.453   5.380  0.0541 -0.7741  0.3970
 4730SOL    HW115089   5.149   4.507   5.299 -0.3087 -0.9927  0.1523
 4730SOL    HW215090   5.029   4.451   5.394  0.1908  0.9605  2.0186
 4731SOL     OW15091   5.499   4.188   0.741  0.2664 -0.2281 -0.3102
 4731SOL    HW115092   5.433   4.114   0.728 -0.1204  0.0856 -0.1705
 4731SOL    HW215093   5.498   4.249   0.662  2.1677 -1.5576 -1.4391
 4732SOL     OW15094   1.299   3.543   5.743  0.1544  0.0153  0.5324
 4732SOL    HW115095   1.231   3.503   5.681  1.1758 -1.6475  0.4119
 4732SOL    HW215096   1.354   3.610   5.693 -1.0302  0.9875  0.4946
 4733SOL     OW15097   2.420   0.654   3.428 -0.6402 -0.0922 -0.0216
 4733SOL    HW115098   2.386   0.648   3.334 -1.3861  1.7744  0.0849
 4733SOL    HW215099   2.390   0.574   3.479  0.1494 -1.3654 -1.4490
 4734SOL     OW15100   4.981   5.575   1.587 -0.6726  0.0491  0.0933
 4734SOL    HW115101   5.017   5.636   1.517 -1.1806 -0.4715 -0.6461
 4734SOL    HW215102   4.943   5.628   1.663 -1.4166  0.6675 -0.6900
 4735SOL     OW15103   0.290   2.077   3.328  0.0754  0.3514 -0.5569
 4735SOL    HW115104   0.293   2.109   3.423 -1.3727  1.8468 -0.9697
 4735SOL    HW215105   0.197   2.046   3.306  0.5625 -0.6257 -1.2993
 4736SOL     OW15106   6.086   2.809   5.664  0.1860  0.3606 -0.0086
 4736SOL    HW115107   6.115   2.808   5.568  3.3321  1.9790  0.8014
 4736SOL    HW215108   6.031   2.890   5.681  2.8202  2.1817  0.2813
 4737SOL     OW15109   3.834   4.316   0.048 -0.2516  0.6599  0.4148
 4737SOL    HW115110   3.777   4.292  -0.030  0.9715  1.9771 -0.9616
 4737SOL    HW215111   3.814   4.410   0.076 -2.0170 -0.3771  2.9842
 4738SOL     OW15112   4.409   6.050   0.130 -1.5395 -0.1615 -0.5436
 4738SOL    HW115113   4.434   6.120   0.197 -0.3554 -1.6406  0.6307
 4738SOL    HW215114   4.448   6.073   0.041 -0.8191  0.4789 -0.0734
 4739SOL     OW15115   6.161   5.439   3.671 -0.5074  0.4715 -0.2879
 4739SOL    HW115116   6.129   5.511   3.733  0.1708  0.4173  0.1342
 4739SOL    HW215117   6.193   5.361   3.724  1.4551  0.9862 -0.6158
 4740SOL     OW15118   4.037   0.650   0.782 -0.2470  0.5669 -0.0877
 4740SOL    HW115119   3.970   0.699   0.726  1.2913  0.3171 -2.2592
 4740SOL    HW215120   4.129   0.676   0.754  0.6020 -1.5158  0.6029
 4741SOL     OW15121   4.497   3.510   0.305  0.0413 -0.2133 -0.5654
 4741SOL    HW115122   4.479   3.603   0.337 -0.4709 -0.2895 -0.6113
 4741SOL    HW215123   4.510   3.511   0.206  2.2622  0.1106 -0.3021
 4742SOL     OW15124   4.682   1.102   1.161  0.0773  0.7382  0.3767
 4742SOL    HW115125   4.723   1.038   1.226  0.7897 -1.0328 -1.6726
 4742SOL    HW215126   4.587   1.119   1.186  0.2882 -0.0159  1.7630
 4743SOL     OW15127   4.405   2.716   1.002  0.8111  0.6953 -0.0762
 4743SOL    HW115128   4.443   2.657   1.074  2.2033  2.0894  0.3872
 4743SOL    HW215129   4.479   2.745   0.941 -0.1747  0.4371 -1.4342
 4744SOL     OW15130   6.151   4.054   0.785 -0.4020  0.3103 -0.0618
 4744SOL    HW115131   6.166   4.034   0.882  1.2108 -0.8665 -0.5159
 4744SOL    HW215132   6.096   3.981   0.744  1.1025 -0.5779 -0.5728
 4745SOL     OW15133   4.245   3.284   5.298  0.0423 -0.1027  0.1979
 4745SOL    HW115134   4.235   3.332   5.211 -0.6446  0.3274  0.5019
 4745SOL    HW215135   4.251   3.352   5.372 -1.0547 -0.4743  0.6468
 4746SOL     OW15136   1.105   5.438   1.270 -0.7627  0.3786 -0.5478
 4746SOL    HW115137   1.160   5.355   1.278 -1.3588  0.1274  1.2609
 4746SOL    HW215138   1.125   5.483   1.183  1.2997 -0.4120 -0.5264
 4747SOL     OW15139   6.606   0.344   1.550  0.1484  0.0755  0.5240
 4747SOL    HW115140   6.573   0.262   1.503 -2.1645  0.6906  0.9682
 4747SOL    HW215141   6.611   0.420   1.484 -2.0817  0.6706  0.9672
 4748SOL     OW15142   5.652   3.630   0.710 -0.2512  0.0903  0.0380
 4748SOL    HW115143   5.746   3.620   0.743 -0.0391 -0.3474 -0.6880
 4748SOL    HW215144   5.623   3.547   0.663 -0.9121  0.3193  0.0241
 4749SOL     OW15145   5.320   4.126   7.005 -0.1620  0.4851 -0.2073
 4749SOL    HW115146   5.345   4.115   6.909 -0.5432 -0.8898 -0.1703
 4749SOL    HW215147   5.275   4.214   7.019 -0.2516  0.6162 -1.3085
 4750SOL     OW15148   1.971   1.795   4.934 -0.3176 -0.0076 -0.0979
 4750SOL    HW115149   1.965   1.725   4.863  2.7358  0.0472 -0.5276
 4750SOL    HW215150   1.891   1.856   4.927 -1.9737 -2.1386 -1.0437
 4751SOL     OW15151   6.259   0.640   6.952 -0.5886 -0.1580  0.3075
 4751SOL    HW115152   6.166   0.670   6.931  0.1790  1.9624 -0.3619
 4751SOL    HW215153   6.295   0.694   7.028  0.8707  0.7551 -0.9604
 4752SOL     OW15154   0.989   5.108   6.163 -0.3101  0.1208 -0.3918
 4752SOL    HW115155   1.052   5.124   6.239  0.9548 -1.8654 -0.9382
 4752SOL    HW215156   0.945   5.194   6.138 -0.9070  0.8389  2.6425
 4753SOL     OW15157   0.934   6.824   6.513 -0.1725  0.4846 -0.4412
 4753SOL    HW115158   0.981   6.901   6.556 -1.2932  1.7196 -1.3415
 4753SOL    HW215159   0.845   6.811   6.556 -0.6472  0.7303 -1.3105
 4754SOL     OW15160   4.109   4.113   1.281  0.5241  0.3148  0.1291
 4754SOL    HW115161   4.097   4.209   1.256  0.1142  0.5099  1.0300
 4754SOL    HW215162   4.075   4.055   1.207  0.7401  0.8593 -0.4061
 4755SOL     OW15163   4.836   1.188   2.719  0.6701 -0.3809  0.1053
 4755SOL    HW115164   4.768   1.243   2.767 -0.0185 -0.9327 -0.2177
 4755SOL    HW215165   4.879   1.124   2.783  2.8434  1.7358  0.9329
 4756SOL     OW15166   5.055   1.449   3.461 -0.0160 -0.6994  0.3376
 4756SOL    HW115167   5.054   1.350   3.450  0.8421 -0.6133 -0.6360
 4756SOL    HW215168   4.963   1.482   3.481 -0.2595 -1.7161  0.9235
 4757SOL     OW15169   5.121   3.063   6.559  0.2047  0.1576 -0.1749
 4757SOL    HW115170   5.036   3.057   6.612  1.1286  0.1733  1.3517
 4757SOL    HW215171   5.150   2.971   6.532  1.4695 -0.2510  2.2725
 4758SOL     OW15172   5.946   2.163   0.588 -0.2732  0.0104 -0.3517
 4758SOL    HW115173   5.925   2.081   0.535 -2.2989  0.0834  0.2724
 4758SOL    HW215174   5.923   2.148   0.684  2.8846  0.0460  0.5189
 4759SOL     OW15175   0.025   4.416   3.147 -0.1547  0.1050  0.6209
 4759SOL    HW115176  -0.002   4.512   3.138  2.0965  0.8109  0.6094
 4759SOL    HW215177   0.038   4.376   3.057 -1.0383 -0.2083  0.6264
 4760SOL     OW15178   0.830   4.785   5.495  0.4118  0.4332  0.3539
 4760SOL    HW115179   0.926   4.786   5.468  0.0509 -1.1138 -1.1492
 4760SOL    HW215180   0.812   4.704   5.550 -0.1385  0.4398  0.1867
 4761SOL     OW15181   1.265   5.878   3.599  0.0994 -0.7926  0.9143
 4761SOL    HW115182   1.293   5.938   3.524 -0.6242 -1.3611  0.1664
 4761SOL    HW215183   1.267   5.928   3.685 -1.9614  0.7864  0.1264
 4762SOL     OW15184   2.329   1.459   3.290  0.0600 -0.7188  0.4754
 4762SOL    HW115185   2.392   1.465   3.212  1.4134  0.2860  1.5740
 4762SOL    HW215186   2.301   1.552   3.316 -0.9378 -1.0911  0.7389
 4763SOL     OW15187   2.818   3.923   6.739  0.1473 -0.0143 -0.4731
 4763SOL    HW115188   2.787   3.954   6.830  0.5276  0.3199 -0.4583
 4763SOL    HW215189   2.884   3.849   6.750  0.0841 -0.0734 -0.4849
 4764SOL     OW15190   6.180   4.524   3.955  0.1533 -0.2839 -0.2433
 4764SOL    HW115191   6.199   4.466   4.034 -1.3174 -1.7516 -0.9110
 4764SOL    HW215192   6.103   4.486   3.903  0.2539  1.3424 -1.6793
 4765SOL     OW15193   1.796   4.964   4.266 -0.4518  0.1636 -0.4777
 4765SOL    HW115194   1.874   4.909   4.237  0.1629  2.0418 -2.6696
 4765SOL    HW215195   1.722   4.954   4.200 -2.0509 -1.3295  1.4006
 4766SOL     OW15196   6.404   3.716   0.608 -0.1895 -0.3639 -0.5081
 4766SOL    HW115197   6.364   3.640   0.557 -0.3020  0.2275 -1.3202
 4766SOL    HW215198   6.352   3.730   0.693 -2.0832  0.6731 -1.7429
 4767SOL     OW15199   4.279   1.131   1.140  0.2026 -0.1841  0.5028
 4767SOL    HW115200   4.285   1.199   1.213  2.9338  2.2926 -1.7712
 4767SOL    HW215201   4.302   1.041   1.177 -2.9293 -0.0023  3.4855
 4768SOL     OW15202   3.417   6.972   3.652 -0.4527 -0.5829  0.2078
 4768SOL    HW115203   3.477   7.033   3.601  0.5308 -1.9425 -0.3066
 4768SOL    HW215204   3.446   6.968   3.748  0.9589 -2.0260 -0.2515
 4769SOL     OW15205   1.064   6.597   5.351  0.2976  0.4043  0.0483
 4769SOL    HW115206   1.120   6.676   5.376 -1.3914  1.3321  1.0989
 4769SOL    HW215207   0.994   6.625   5.285 -0.5141 -0.1265  0.6674
 4770SOL     OW15208   1.871   4.966   1.402  0.1837  0.2814 -0.3032
 4770SOL    HW115209   1.927   4.886   1.379 -0.0394  0.0419 -0.0066
 4770SOL    HW215210   1.775   4.940   1.402  0.0204  0.8163 -1.3423
 4771SOL     OW15211   3.300   0.075   6.941  0.4281 -0.0113  0.0027
 4771SOL    HW115212   3.244   0.148   6.979 -0.3877 -0.9044  0.5890
 4771SOL    HW215213   3.389   0.075   6.984  0.0076 -0.1116  0.8906
 4772SOL     OW15214   4.168   3.777   0.320  0.2157 -0.5995 -0.4487
 4772SOL    HW115215   4.111   3.706   0.278 -0.2915 -0.7417  0.4471
 4772SOL    HW215216   4.173   3.856   0.258 -3.2308  0.5502  0.4833
 4773SOL     OW15217   0.502   2.424   1.549 -0.1240 -0.0332 -0.4345
 4773SOL    HW115218   0.579   2.488   1.555  0.2748 -0.6424  1.6434
 4773SOL    HW215219   0.507   2.374   1.463  0.5565  1.4648 -1.3046
 4774SOL     OW15220   6.863   4.358   5.262 -0.1041  0.1952  0.2825
 4774SOL    HW115221   6.933   4.306   5.212 -1.3452 -0.8767 -0.4160
 4774SOL    HW215222   6.845   4.443   5.213  0.4969  0.3331  0.2974
 4775SOL     OW15223   1.710   3.219   2.955 -0.4337 -0.6160  0.2744
 4775SOL    HW115224   1.643   3.272   3.007  0.6185 -0.5511  1.6180
 4775SOL    HW215225   1.667   3.182   2.873 -1.7855  0.4143  0.4878
 4776SOL     OW15226   1.849   5.626   2.855  0.1317 -0.0501 -0.7534
 4776SOL    HW115227   1.878   5.711   2.811  0.8397 -0.2606 -0.7032
 4776SOL    HW215228   1.909   5.605   2.932 -0.7495  0.0137 -0.0246
 4777SOL     OW15229   0.003   2.897   6.345 -0.1370 -0.2091  0.2077
 4777SOL    HW115230  -0.094   2.907   6.369 -0.7527 -0.4571 -1.9224
 4777SOL    HW215231   0.022   2.801   6.323  0.8384 -0.3256  1.4434
 4778SOL     OW15232   4.704   0.055   0.855 -0.5313  0.3827 -0.0129
 4778SOL    HW115233   4.754  -0.032   0.856 -0.5751  0.3246  2.4641
 4778SOL    HW215234   4.610   0.039   0.823  0.3451  0.1426 -2.7025
 4779SOL     OW15235   0.061   3.184   6.700  0.0110  0.6484 -0.3518
 4779SOL    HW115236   0.117   3.253   6.653  0.4169  1.5596  1.3825
 4779SOL    HW215237  -0.015   3.229   6.747 -0.0782 -0.1442  0.2955
 4780SOL     OW15238   3.232   5.883   2.715 -0.0885  0.0194 -0.7304
 4780SOL    HW115239   3.332   5.876   2.709 -0.0761  1.1540 -2.5164
 4780SOL    HW215240   3.203   5.975   2.688 -1.5803 -0.0008  0.6655
 4781SOL     OW15241   1.979   2.578   2.190  0.5497  0.3605  0.3296
 4781SOL    HW115242   1.973   2.540   2.282  0.8069 -1.7329 -0.4571
 4781SOL    HW215243   1.995   2.677   2.195 -0.7930  0.5267  2.4889
 4782SOL     OW15244   3.382   2.943   1.079 -0.5207  0.6142 -0.0672
 4782SOL    HW115245   3.381   2.855   1.032 -2.0681 -0.0575  1.1278
 4782SOL    HW215246   3.353   2.931   1.174  0.9281  2.1739  0.6266
 4783SOL     OW15247   4.095   1.776   6.865 -0.5174  0.0754  0.4901
 4783SOL    HW115248   4.118   1.692   6.816 -2.2504 -1.6784  2.4795
 4783SOL    HW215249   4.176   1.809   6.915  0.6765  0.7047 -1.7432
 4784SOL     OW15250   3.863   0.573   3.110 -0.0328 -0.0636 -0.0875
 4784SOL    HW115251   3.912   0.559   3.024  0.4916 -0.8502  0.3256
 4784SOL    HW215252   3.805   0.655   3.103 -0.8116 -0.6976 -1.5521
 4785SOL     OW15253   1.505   3.594   4.626 -0.1153 -0.2351 -0.0049
 4785SOL    HW115254   1.579   3.528   4.615  0.3785 -0.1194  2.0565
 4785SOL    HW215255   1.529   3.680   4.581  0.8444 -0.3346  0.3031
 4786SOL     OW15256   2.252   2.871   0.280 -0.1532 -0.0266 -0.0152
 4786SOL    HW115257   2.256   2.771   0.280  0.2110 -0.0203  1.0372
 4786SOL    HW215258   2.341   2.908   0.306 -0.1708  0.5942 -0.7920
 4787SOL     OW15259   3.177   4.948   2.664  0.0826 -0.4896  0.1469
 4787SOL    HW115260   3.197   4.935   2.567  0.4030 -2.8047  0.4662
 4787SOL    HW215261   3.257   4.988   2.710 -0.3206  1.2882 -0.6180
 4788SOL     OW15262   1.054   6.237   0.329 -0.6350  0.2430 -0.2698
 4788SOL    HW115263   0.956   6.252   0.338 -0.5580  1.2792 -0.9550
 4788SOL    HW215264   1.095   6.229   0.419 -1.4241 -0.7510  0.0122
 4789SOL     OW15265   2.889   5.833   0.863  0.2299 -0.4575  0.0901
 4789SOL    HW115266   2.804   5.806   0.818  0.6610 -1.8621  0.0722
 4789SOL    HW215267   2.962   5.842   0.795  0.4279 -0.6987  0.2648
 4790SOL     OW15268   1.219   0.436   6.440  0.4615  0.4767 -0.1158
 4790SOL    HW115269   1.124   0.414   6.465  0.1376 -1.8994 -2.8518
 4790SOL    HW215270   1.281   0.375   6.488  0.2994 -0.1726 -0.7068
 4791SOL     OW15271   2.430   0.619   4.162  0.0914 -0.6301  0.0593
 4791SOL    HW115272   2.504   0.555   4.142  0.1928  0.0162 -1.7732
 4791SOL    HW215273   2.346   0.587   4.118  0.1184  0.4085 -0.7779
 4792SOL     OW15274   6.794   2.799   2.101 -0.0724 -0.2407  0.4401
 4792SOL    HW115275   6.838   2.726   2.049 -2.3473 -2.1855  1.1044
 4792SOL    HW215276   6.856   2.831   2.172  1.6053 -0.2581 -0.9469
 4793SOL     OW15277   5.893   5.353   5.516 -0.4768 -0.8630  0.0296
 4793SOL    HW115278   5.916   5.320   5.424  1.1066 -1.3502  0.5705
 4793SOL    HW215279   5.938   5.296   5.584  0.7466  1.1837  1.0553
 4794SOL     OW15280   5.472   1.031   4.789 -0.6716 -0.6376 -0.1061
 4794SOL    HW115281   5.390   1.001   4.740 -0.6692  1.1145 -1.2851
 4794SOL    HW215282   5.535   1.074   4.724 -0.2714  0.9826  1.2761
 4795SOL     OW15283   0.548   5.363   3.309 -0.3709  0.2173  0.6151
 4795SOL    HW115284   0.534   5.266   3.290  1.5133  0.0119  0.0710
 4795SOL    HW215285   0.599   5.374   3.394  0.3281  0.6609  0.1525
 4796SOL     OW15286   5.874   6.536   6.563  0.1306  0.8871 -0.3540
 4796SOL    HW115287   5.859   6.555   6.467 -0.7474 -0.2478 -0.4527
 4796SOL    HW215288   5.940   6.461   6.573 -0.1455  0.6784 -0.0789
 4797SOL     OW15289   6.728   7.013   5.094  0.9893 -0.7121  0.0260
 4797SOL    HW115290   6.766   7.009   5.186  0.0347 -1.8721  0.3895
 4797SOL    HW215291   6.690   7.105   5.077  2.8870  0.1316  0.0387
 4798SOL     OW15292   3.654   6.458   3.491  0.7442 -0.4690  0.3541
 4798SOL    HW115293   3.739   6.511   3.493  1.6187 -1.8336  1.2801
 4798SOL    HW215294   3.661   6.387   3.420  0.2693 -0.4369  0.2707
 4799SOL     OW15295   1.297   5.714   1.030 -0.2632 -0.1907  0.0180
 4799SOL    HW115296   1.357   5.656   1.084  0.0418 -0.8835 -1.0357
 4799SOL    HW215297   1.299   5.685   0.934 -0.4995  1.2369 -0.4484
 4800SOL     OW15298   4.289   0.450   0.203 -0.9376  0.2373 -0.1972
 4800SOL    HW115299   4.289   0.365   0.150 -1.5128  0.6418 -0.8729
 4800SOL    HW215300   4.366   0.507   0.174  0.3974 -0.6997  1.3697
 4801SOL     OW15301   3.561   4.631   6.839  0.3973  0.3573 -0.5375
 4801SOL    HW115302   3.642   4.685   6.814 -0.6285  1.6065 -1.3333
 4801SOL    HW215303   3.497   4.689   6.889  1.1556 -1.3541  2.7032
 4802SOL     OW15304   4.474   3.861   5.417  0.1061  0.3996 -0.0934
 4802SOL    HW115305   4.449   3.765   5.404 -0.3797  0.2910  1.3894
 4802SOL    HW215306   4.415   3.901   5.488  2.1136  0.9944  1.3258
 4803SOL     OW15307   5.575   5.683   3.688 -0.8670  0.2946  0.3562
 4803SOL    HW115308   5.671   5.710   3.679 -0.9578  0.5005 -0.0381
 4803SOL    HW215309   5.533   5.682   3.597 -0.6249 -2.1037  0.1866
 4804SOL     OW15310   0.864   4.694   0.681  0.2807 -0.6940 -0.1054
 4804SOL    HW115311   0.791   4.697   0.749  1.2714 -0.0833  0.9622
 4804SOL    HW215312   0.839   4.630   0.609 -1.2231 -0.6355  0.3257
 4805SOL     OW15313   5.511   5.997   6.977 -0.3702  0.1109  0.2523
 4805SOL    HW115314   5.557   5.910   6.992  1.0237  0.6414 -0.7253
 4805SOL    HW215315   5.534   6.060   7.051 -0.3756  0.0341  0.3192
 4806SOL     OW15316   1.438   5.373   1.645 -0.0950 -0.3144  0.2982
 4806SOL    HW115317   1.492   5.457   1.655  1.0574 -0.7353 -1.8932
 4806SOL    HW215318   1.450   5.336   1.553  0.7026 -3.7872  1.6449
 4807SOL     OW15319   6.245   5.559   0.378 -0.3893 -0.1883  0.2442
 4807SOL    HW115320   6.179   5.570   0.303 -0.3347 -0.6228  0.1291
 4807SOL    HW215321   6.335   5.536   0.340 -0.3591 -0.4000  0.4379
 4808SOL     OW15322   1.470   5.044   0.186  0.2908 -0.5622  0.6417
 4808SOL    HW115323   1.424   4.970   0.137 -1.1602  1.3379 -1.0057
 4808SOL    HW215324   1.562   5.055   0.148  0.3155 -1.1461  0.5114
 4809SOL     OW15325   1.622   4.849   6.682  0.4601 -0.4915 -0.2886
 4809SOL    HW115326   1.681   4.879   6.608  1.1948 -0.6196  0.2394
 4809SOL    HW215327   1.614   4.921   6.751 -0.8943 -0.0471 -0.8688
 4810SOL     OW15328   4.594   5.088   4.053 -0.7295 -0.3386  0.2591
 4810SOL    HW115329   4.540   5.135   3.984 -1.9082  0.7378  1.8594
 4810SOL    HW215330   4.601   4.991   4.029 -1.7874 -0.1463 -0.9270
 4811SOL     OW15331   4.302   4.611   3.752 -0.4213 -0.0443  0.7792
 4811SOL    HW115332   4.388   4.574   3.715 -0.7497  1.0647 -1.2414
 4811SOL    HW215333   4.311   4.624   3.851  0.8830 -2.1905  1.0097
 4812SOL     OW15334   2.939   5.242   2.933 -0.2404 -0.7884  0.3184
 4812SOL    HW115335   2.960   5.340   2.932 -1.4104 -0.5119 -0.7029
 4812SOL    HW215336   2.997   5.195   2.866 -1.2579 -0.3855 -0.8939
 4813SOL     OW15337   6.296   3.452   4.980  0.1872  0.0844 -0.0259
 4813SOL    HW115338   6.250   3.378   5.030 -0.2484  0.4114  0.0693
 4813SOL    HW215339   6.391   3.459   5.009  0.7944 -1.6954 -1.4021
 4814SOL     OW15340   1.708   0.488   2.720  0.3075  1.2425  0.0783
 4814SOL    HW115341   1.696   0.479   2.621  1.2205  2.0215 -0.1189
 4814SOL    HW215342   1.658   0.415   2.766  0.8098  0.1531 -1.0152
 4815SOL     OW15343   1.285   0.852   0.187  0.0577  0.1311 -0.0067
 4815SOL    HW115344   1.336   0.779   0.233 -0.3145  0.3236  0.7334
 4815SOL    HW215345   1.286   0.836   0.088 -0.1749 -0.9945  0.1522
 4816SOL     OW15346   1.907   2.512   0.165 -0.2696 -0.1429 -0.3637
 4816SOL    HW115347   1.867   2.484   0.078 -0.9838 -1.2716  0.3015
 4816SOL    HW215348   1.869   2.457   0.239  2.9154 -1.6927  0.2871
 4817SOL     OW15349   5.949   0.571   3.476  0.4257 -0.5667  0.0248
 4817SOL    HW115350   5.887   0.532   3.407 -0.4814 -0.4268  0.7382
 4817SOL    HW215351   5.928   0.532   3.565 -1.0442  2.0213  0.9292
 4818SOL     OW15352   2.636   2.384   1.765  0.1424  0.5408 -0.0843
 4818SOL    HW115353   2.673   2.472   1.795 -0.1656  0.2331  1.3008
 4818SOL    HW215354   2.540   2.396   1.740  0.0767  0.5921  0.1838
 4819SOL     OW15355   1.977   5.024   3.742 -0.2063  0.6115  0.2992
 4819SOL    HW115356   2.000   5.083   3.819  0.5463  3.1486 -1.7066
 4819SOL    HW215357   2.060   4.997   3.694 -0.6951 -0.2642 -0.0898
 4820SOL     OW15358   6.364   5.411   3.300  0.0418  0.1291  0.0755
 4820SOL    HW115359   6.438   5.428   3.235  0.5348  0.1308  0.6264
 4820SOL    HW215360   6.345   5.313   3.305 -0.9109  0.2376 -1.0502
 4821SOL     OW15361   0.998   3.174   0.313 -0.3931  0.0018  0.0339
 4821SOL    HW115362   1.044   3.117   0.245 -0.5417 -0.0605 -0.0157
 4821SOL    HW215363   0.967   3.259   0.269 -0.1811  0.1162  0.1051
 4822SOL     OW15364   4.545   2.178   1.065 -0.4078  0.7694  0.5536
 4822SOL    HW115365   4.522   2.091   1.109 -1.2879  0.8857  0.3323
 4822SOL    HW215366   4.463   2.219   1.026  0.2895  0.8392 -0.9113
 4823SOL     OW15367   5.555   2.794   1.237  0.8479  0.1343  0.3819
 4823SOL    HW115368   5.501   2.876   1.218  1.9666  0.5041 -1.4273
 4823SOL    HW215369   5.498   2.727   1.284 -1.4884  0.1725 -2.1359
 4824SOL     OW15370   1.505   3.983   0.619 -0.1369  0.1696  0.1986
 4824SOL    HW115371   1.520   3.918   0.694 -0.4882 -0.5575 -0.3512
 4824SOL    HW215372   1.592   3.999   0.571 -0.4769 -1.8316 -1.2024
 4825SOL     OW15373   2.056   4.435   3.970 -0.0662 -0.2629 -0.4584
 4825SOL    HW115374   1.981   4.483   4.015 -0.1151  1.0913 -1.9140
 4825SOL    HW215375   2.089   4.489   3.893 -0.2458 -2.6620 -2.3332
 4826SOL     OW15376   2.539   2.213   4.762  0.3371 -0.0002 -0.0307
 4826SOL    HW115377   2.547   2.311   4.747 -0.7115  0.0436 -0.3700
 4826SOL    HW215378   2.629   2.175   4.781  1.0956  0.6798 -2.0211
 4827SOL     OW15379   3.368   2.582   6.930 -0.4680  0.2935  0.7200
 4827SOL    HW115380   3.440   2.646   6.904  0.2596 -0.8397 -0.1756
 4827SOL    HW215381   3.278   2.622   6.910  0.0109  0.5166 -1.1553
 4828SOL     OW15382   3.230   3.467   2.784  0.3989  0.3703  0.1584
 4828SOL    HW115383   3.300   3.477   2.713  3.1269  0.6835  2.7109
 4828SOL    HW215384   3.206   3.557   2.820 -2.9796  0.5066 -1.9872
 4829SOL     OW15385   4.368   1.874   3.496 -0.0755  0.6513  0.3898
 4829SOL    HW115386   4.363   1.802   3.566  1.3353  2.1785  2.1858
 4829SOL    HW215387   4.281   1.923   3.493 -0.4812 -0.0515  0.3527
 4830SOL     OW15388   0.231   5.353   2.205  0.2850  0.5410  0.3108
 4830SOL    HW115389   0.168   5.338   2.129  1.2368 -0.1121 -0.3672
 4830SOL    HW215390   0.259   5.449   2.208 -0.7453  0.8436  0.6398
 4831SOL     OW15391   1.853   2.896   6.075 -0.0794 -0.2270 -0.3460
 4831SOL    HW115392   1.917   2.969   6.050  0.2231 -0.7192 -1.0470
 4831SOL    HW215393   1.903   2.810   6.086 -0.1836 -0.0593  2.0358
 4832SOL     OW15394   4.673   3.362   5.329  0.5144  0.5023 -0.2235
 4832SOL    HW115395   4.664   3.371   5.429 -1.1403  0.2028 -0.3051
 4832SOL    HW215396   4.656   3.451   5.286 -0.2845  0.3195 -0.2981
 4833SOL     OW15397   4.027   5.443   0.100 -0.0630 -0.2585  0.0501
 4833SOL    HW115398   4.045   5.420   0.004 -0.6655  0.3666 -0.2195
 4833SOL    HW215399   3.941   5.401   0.128 -0.8074  1.0419 -0.2337
 4834SOL     OW15400   5.919   2.413   1.937  0.5805 -0.4601 -0.0324
 4834SOL    HW115401   5.865   2.480   1.989 -0.7705  0.5248 -2.4990
 4834SOL    HW215402   6.012   2.447   1.926  0.0714  0.8097 -0.7507
 4835SOL     OW15403   3.789   3.573   4.825  0.3791 -0.1689 -0.2372
 4835SOL    HW115404   3.695   3.584   4.794 -1.1125 -0.7400  3.6247
 4835SOL    HW215405   3.808   3.476   4.841  0.7528  0.1449  1.3739
 4836SOL     OW15406   1.251   2.091   1.578  0.2936 -0.3153 -0.2648
 4836SOL    HW115407   1.192   2.017   1.611 -1.3452  0.1361 -2.0439
 4836SOL    HW215408   1.217   2.179   1.611  0.1598 -0.0748 -1.0380
 4837SOL     OW15409   2.109   5.882   0.921  0.3215 -0.4553 -0.1654
 4837SOL    HW115410   2.150   5.836   0.843  1.1530  0.0085 -0.0212
 4837SOL    HW215411   2.030   5.935   0.892  1.6307  1.1292 -1.0586
 4838SOL     OW15412   3.276   3.529   3.344 -0.0429  0.2638 -0.3885
 4838SOL    HW115413   3.216   3.452   3.362  0.0313  0.5884  1.4535
 4838SOL    HW215414   3.262   3.599   3.415  1.3024  1.0708 -0.8876
 4839SOL     OW15415   4.512   2.272   5.752  0.3585  0.6188 -0.3318
 4839SOL    HW115416   4.605   2.303   5.732  0.6796 -1.3213 -2.1945
 4839SOL    HW215417   4.451   2.302   5.679 -0.1248  0.3343 -0.0511
 4840SOL     OW15418   2.290   1.188   0.403  0.0759 -0.4506  0.3470
 4840SOL    HW115419   2.309   1.193   0.305  0.3826  1.6129  0.4712
 4840SOL    HW215420   2.221   1.256   0.427 -0.1590 -1.0857  1.5499
 4841SOL     OW15421   4.238   4.707   2.582  0.2399  0.1540  0.6585
 4841SOL    HW115422   4.303   4.646   2.627  0.0807  0.1818  0.9290
 4841SOL    HW215423   4.169   4.737   2.648 -0.5195 -0.5179  0.1815
 4842SOL     OW15424   5.432   6.216   5.801  0.3496  0.2638 -0.7119
 4842SOL    HW115425   5.532   6.219   5.810  0.4116  0.6141 -1.4223
 4842SOL    HW215426   5.402   6.121   5.800  0.7767  0.1215 -1.3878
 4843SOL     OW15427   5.996   5.223   3.649 -0.6909  0.1399  0.0050
 4843SOL    HW115428   6.055   5.304   3.652  1.2591 -1.1807 -0.5787
 4843SOL    HW215429   5.909   5.246   3.606 -0.9127  2.3208  1.4990
 4844SOL     OW15430   0.213   5.349   0.326  0.4089  0.1865  0.1781
 4844SOL    HW115431   0.241   5.445   0.317  0.4302  0.0716 -1.1742
 4844SOL    HW215432   0.126   5.345   0.375  0.6348  0.8679  0.6511
 4845SOL     OW15433   6.763   2.328   1.138 -0.0888 -0.3627 -0.1260
 4845SOL    HW115434   6.747   2.379   1.053 -0.9132 -1.2494 -0.5276
 4845SOL    HW215435   6.746   2.230   1.121  0.8700 -0.7000  0.7728
 4846SOL     OW15436   1.524   3.837   4.487 -0.9342  0.1872  0.2364
 4846SOL    HW115437   1.488   3.905   4.551 -0.7648 -0.6670  1.2575
 4846SOL    HW215438   1.619   3.858   4.466 -1.6367  1.8702 -1.6865
 4847SOL     OW15439   5.339   1.194   0.054  0.1335  0.1578  0.0746
 4847SOL    HW115440   5.434   1.222   0.045  0.7964 -1.6945  0.8805
 4847SOL    HW215441   5.327   1.142   0.139 -1.6921  0.6677  0.1866
 4848SOL     OW15442   3.503   6.400   6.392 -0.2603  0.3530 -0.1703
 4848SOL    HW115443   3.455   6.424   6.308  2.2081  3.2467 -0.9204
 4848SOL    HW215444   3.581   6.341   6.370  1.8702  3.0624 -0.4764
 4849SOL     OW15445   0.718   0.501   2.590  0.1151  0.2158 -0.1800
 4849SOL    HW115446   0.628   0.461   2.571 -0.3583  0.7032  0.9614
 4849SOL    HW215447   0.711   0.600   2.596  0.3851  0.1701  1.5272
 4850SOL     OW15448   0.644   4.123   6.425  0.3875 -0.7476  0.6887
 4850SOL    HW115449   0.602   4.206   6.463 -0.3863  0.1378 -1.9038
 4850SOL    HW215450   0.572   4.061   6.394  0.9770 -1.0134 -0.1599
 4851SOL     OW15451   0.007   0.431   5.620 -0.4011 -0.3576 -1.0117
 4851SOL    HW115452  -0.089   0.402   5.611 -0.1064 -0.8788 -2.8353
 4851SOL    HW215453   0.014   0.528   5.598 -0.8580  0.3664  1.6922
 4852SOL     OW15454   2.686   6.917   0.478 -0.1297  0.3269  0.0406
 4852SOL    HW115455   2.675   7.015   0.457  0.8844  0.6013  0.7050
 4852SOL    HW215456   2.750   6.876   0.414 -0.7276  0.0260 -0.3810
 4853SOL     OW15457   1.585   0.445   4.640  0.0279 -0.1637  0.7977
 4853SOL    HW115458   1.510   0.511   4.629  0.6925  0.6640  1.1965
 4853SOL    HW215459   1.567   0.366   4.582 -0.7935  0.3536  0.3216
 4854SOL     OW15460   5.981   6.428   2.948 -0.3844 -0.0256 -0.3611
 4854SOL    HW115461   5.906   6.478   2.992 -1.4346 -0.4679 -1.5769
 4854SOL    HW215462   5.946   6.343   2.908 -0.0778  1.3675 -4.0367
 4855SOL     OW15463   5.473   2.258   2.200 -0.0353  0.2636 -0.0942
 4855SOL    HW115464   5.558   2.241   2.249  0.9101  0.6553 -1.5453
 4855SOL    HW215465   5.416   2.322   2.252  0.6224  0.1531  0.7858
 4856SOL     OW15466   2.001   1.885   6.685  0.0075  0.1116  0.1590
 4856SOL    HW115467   1.988   1.982   6.664 -0.4103  0.4764  1.8995
 4856SOL    HW215468   1.998   1.831   6.600  1.5962  1.7266 -0.9973
 4857SOL     OW15469   4.694   0.987   5.356  0.1434 -0.7724 -0.2156
 4857SOL    HW115470   4.788   0.958   5.338 -0.1592 -2.5758  0.8168
 4857SOL    HW215471   4.647   1.002   5.269  1.1195 -0.7466 -0.7611
 4858SOL     OW15472   1.208   0.668   3.908 -0.7548  0.4957  0.7816
 4858SOL    HW115473   1.138   0.723   3.863  1.1337  0.4470 -2.5407
 4858SOL    HW215474   1.267   0.727   3.963 -3.5168  0.4639  4.2091
 4859SOL     OW15475   5.357   6.163   4.924 -0.1919  0.0925  0.2925
 4859SOL    HW115476   5.451   6.177   4.954  0.5428 -2.2780 -0.6609
 4859SOL    HW215477   5.308   6.110   4.992  0.0293 -1.0984 -0.4548
 4860SOL     OW15478   4.294   4.680   4.244 -0.1640 -0.0446  0.5792
 4860SOL    HW115479   4.303   4.651   4.339 -0.4069 -2.0930  0.0132
 4860SOL    HW215480   4.301   4.780   4.239  1.0790  0.0274  2.5938
 4861SOL     OW15481   1.530   5.825   1.266  0.1021 -0.6143  0.0310
 4861SOL    HW115482   1.436   5.855   1.252 -0.8504 -1.9867  2.7223
 4861SOL    HW215483   1.570   5.874   1.344  1.1471 -0.9983 -0.2390
 4862SOL     OW15484   2.012   6.721   4.376  0.8824 -0.5164 -0.7138
 4862SOL    HW115485   1.981   6.716   4.471  2.1712  0.5653 -0.2056
 4862SOL    HW215486   2.109   6.745   4.374  0.3215  2.0107 -2.3371
 4863SOL     OW15487   3.565   6.546   6.128 -0.5851  0.3177  0.1575
 4863SOL    HW115488   3.645   6.559   6.069 -0.8646  0.8135 -0.1091
 4863SOL    HW215489   3.499   6.486   6.083 -0.7488  0.6068  0.0101
 4864SOL     OW15490   0.646   3.966   2.055  0.2343 -0.5742 -0.2161
 4864SOL    HW115491   0.624   4.043   2.114 -0.2566  1.5964 -2.9954
 4864SOL    HW215492   0.561   3.920   2.028  0.1784  0.0158 -1.1154
 4865SOL     OW15493   1.587   5.086   3.372 -0.3696 -0.1067 -0.2385
 4865SOL    HW115494   1.662   5.040   3.419  1.0009  0.7920 -1.4552
 4865SOL    HW215495   1.506   5.027   3.372 -0.1597 -0.5323  2.3433
 4866SOL     OW15496   2.504   3.541   5.530  0.2931  0.4055  0.4709
 4866SOL    HW115497   2.521   3.613   5.463  1.6369 -0.3522 -0.0347
 4866SOL    HW215498   2.586   3.526   5.585  0.4995 -1.6324 -0.3127
 4867SOL     OW15499   5.891   2.029   3.165 -0.2950 -0.0674  0.2449
 4867SOL    HW115500   5.844   2.009   3.252 -0.4185  0.0406  0.2027
 4867SOL    HW215501   5.848   1.976   3.092  1.0881 -1.7333  0.5785
 4868SOL     OW15502   0.733   2.418   5.425 -0.1238  0.0172 -0.1977
 4868SOL    HW115503   0.829   2.431   5.402 -0.5642  1.9017 -1.1901
 4868SOL    HW215504   0.693   2.350   5.363  0.4054 -0.2872 -0.2145
 4869SOL     OW15505   5.059   6.755   4.155 -0.0614  0.1420 -0.3004
 4869SOL    HW115506   5.015   6.666   4.146  0.3343  0.0819 -1.8172
 4869SOL    HW215507   5.114   6.774   4.074 -1.5536  2.5432 -0.8460
 4870SOL     OW15508   1.169   3.347   5.599  0.7720  0.1133  0.1275
 4870SOL    HW115509   1.095   3.280   5.608 -0.5036  1.3860 -0.5275
 4870SOL    HW215510   1.257   3.301   5.613 -0.1431 -1.3112  1.6217
 4871SOL     OW15511   1.286   2.268   0.271  0.0119  0.4707 -0.2686
 4871SOL    HW115512   1.199   2.220   0.276  1.1867 -2.1911 -2.5849
 4871SOL    HW215513   1.344   2.239   0.348 -1.7547  4.0367  2.6931
 4872SOL     OW15514   1.266   1.775   6.701 -0.4881  0.1824 -0.6181
 4872SOL    HW115515   1.244   1.860   6.653  0.1365  0.9674  0.4176
 4872SOL    HW215516   1.359   1.746   6.677  0.0516  0.8941  0.4802
 4873SOL     OW15517   0.972   0.825   6.875  0.0146  0.2381  0.4209
 4873SOL    HW115518   0.917   0.798   6.954 -0.0697  0.9350  0.6016
 4873SOL    HW215519   0.982   0.924   6.874  0.5216  0.1811 -0.1100
 4874SOL     OW15520   2.768   1.432   3.722 -0.0326 -0.7114  0.2013
 4874SOL    HW115521   2.737   1.410   3.815  2.1596 -1.7184  0.7657
 4874SOL    HW215522   2.692   1.469   3.669 -1.5251 -0.8153  2.1674
 4875SOL     OW15523   6.550   6.702   0.979 -0.3218  0.6016 -0.8346
 4875SOL    HW115524   6.464   6.674   1.023 -0.1013 -2.4204 -2.0857
 4875SOL    HW215525   6.529   6.755   0.896 -1.0172 -0.3791 -1.3033
 4876SOL     OW15526   3.364   0.523   4.802 -0.1207 -0.6931 -0.1430
 4876SOL    HW115527   3.448   0.519   4.856  0.0703  2.1971 -0.0264
 4876SOL    HW215528   3.319   0.611   4.818 -0.8536 -0.3066 -3.5000
 4877SOL     OW15529   2.989   3.140   3.939 -0.2039  0.0832  0.0428
 4877SOL    HW115530   3.051   3.072   3.900  2.6280  1.4625  1.8473
 4877SOL    HW215531   2.958   3.202   3.867  1.9068  0.3717 -0.6884
 4878SOL     OW15532   3.218   4.829   5.359 -0.4415  0.7994 -0.2780
 4878SOL    HW115533   3.229   4.730   5.366 -1.5024  0.6348 -0.8221
 4878SOL    HW215534   3.297   4.868   5.310 -0.0479  0.2235 -0.1094
 4879SOL     OW15535   6.931   6.872   1.897 -0.9551  0.7889 -0.8229
 4879SOL    HW115536   6.866   6.818   1.950 -2.4316  1.8761 -1.4747
 4879SOL    HW215537   6.940   6.963   1.938 -1.1780  1.2236 -1.7126
 4880SOL     OW15538   4.121   1.816   1.734 -0.1657  0.3889  1.0189
 4880SOL    HW115539   4.126   1.724   1.696  0.4638  1.0686 -0.6601
 4880SOL    HW215540   4.064   1.873   1.675 -0.7232  1.0353  2.1469
 4881SOL     OW15541   6.671   4.609   0.160  0.3326 -0.0176 -0.3502
 4881SOL    HW115542   6.580   4.649   0.174  0.5795  0.4751 -0.1662
 4881SOL    HW215543   6.664   4.509   0.165 -0.2518  0.0004 -0.6335
 4882SOL     OW15544   6.736   1.223   4.803 -0.4399  0.0322  0.0563
 4882SOL    HW115545   6.818   1.165   4.807 -0.8386 -0.5912 -0.6187
 4882SOL    HW215546   6.655   1.165   4.797 -1.0201  0.6138  1.7025
 4883SOL     OW15547   2.135   2.347   4.491 -0.4623  0.1646  0.0504
 4883SOL    HW115548   2.066   2.335   4.420  0.8670 -1.4590 -1.0374
 4883SOL    HW215549   2.130   2.271   4.556  0.8429 -0.4704 -0.5523
 4884SOL     OW15550   2.389   1.934   3.719 -0.0023 -0.2071  0.3048
 4884SOL    HW115551   2.456   1.907   3.650 -0.3685 -1.4949  0.4333
 4884SOL    HW215552   2.297   1.927   3.682 -0.2100 -1.0261  0.9419
 4885SOL     OW15553   0.678   3.926   2.419  0.4730  0.3810 -0.2967
 4885SOL    HW115554   0.729   3.936   2.334  1.1498  0.7983  0.1405
 4885SOL    HW215555   0.592   3.880   2.402  0.3069  1.0412 -1.3206
 4886SOL     OW15556   3.046   3.117   1.893  0.7812  0.2274  0.1005
 4886SOL    HW115557   3.109   3.194   1.899 -0.8373  1.6263 -0.0742
 4886SOL    HW215558   3.064   3.066   1.809  0.2246  1.9843 -1.1461
 4887SOL     OW15559   1.493   6.638   2.529 -0.0665 -0.1097 -0.2681
 4887SOL    HW115560   1.573   6.680   2.487 -0.0474 -0.9482 -1.1039
 4887SOL    HW215561   1.435   6.597   2.458 -0.9899  0.0601  0.3677
 4888SOL     OW15562   6.621   1.460   6.112  0.1245 -0.3806 -0.9632
 4888SOL    HW115563   6.682   1.430   6.185 -2.6110 -1.3070  1.1256
 4888SOL    HW215564   6.604   1.558   6.120 -0.0935 -0.4632 -0.4018
 4889SOL     OW15565   2.052   2.034   3.882 -0.2176 -0.2762 -0.2791
 4889SOL    HW115566   2.077   2.060   3.975  1.4411  0.9465 -1.0028
 4889SOL    HW215567   1.980   2.095   3.849  0.5811  0.6113 -0.4440
 4890SOL     OW15568   3.264   2.965   3.895 -0.0053  0.1111  0.2337
 4890SOL    HW115569   3.343   2.927   3.943  1.3941  0.6279 -1.5733
 4890SOL    HW215570   3.287   3.055   3.859 -0.8550 -0.4027 -1.7224
 4891SOL     OW15571   0.416   2.172   2.682 -0.4289  0.0385 -0.3479
 4891SOL    HW115572   0.344   2.109   2.708 -0.4794  0.1670 -0.1715
 4891SOL    HW215573   0.440   2.159   2.586 -1.4856  0.7753 -0.7258
 4892SOL     OW15574   6.562   5.998   3.964  0.0278 -0.2471 -0.3768
 4892SOL    HW115575   6.561   5.985   4.064 -0.3745 -0.9724 -0.4712
 4892SOL    HW215576   6.648   5.965   3.927 -0.0270 -0.4497 -0.3270
 4893SOL     OW15577   0.388   5.853   3.496 -0.3100  0.0952  0.1311
 4893SOL    HW115578   0.397   5.775   3.557  1.5144 -1.1990 -1.6542
 4893SOL    HW215579   0.296   5.853   3.456 -0.9418 -0.0244  1.5377
 4894SOL     OW15580   1.944   0.937   6.587 -0.1206  0.6712 -0.3734
 4894SOL    HW115581   2.011   0.895   6.649 -0.2894  0.9456 -0.0091
 4894SOL    HW215582   1.941   0.884   6.502 -0.1770  0.0653  0.0018
 4895SOL     OW15583   1.044   0.220   1.415 -0.7470 -0.4518  0.6637
 4895SOL    HW115584   0.967   0.156   1.412 -1.1276  0.0467 -0.7661
 4895SOL    HW215585   1.122   0.180   1.368 -1.7244  0.9957 -2.4835
 4896SOL     OW15586   0.975   2.861   4.209  0.5986  0.4914 -0.7121
 4896SOL    HW115587   0.979   2.857   4.309 -0.8667  2.4551 -0.5055
 4896SOL    HW215588   0.933   2.777   4.174 -2.4559  1.2615  0.6990
 4897SOL     OW15589   3.098   3.984   2.654  0.1932  0.2368  0.0873
 4897SOL    HW115590   3.061   3.939   2.735  1.2657 -1.0630 -0.1002
 4897SOL    HW215591   3.050   3.952   2.573 -1.2929  1.9949  0.2173
 4898SOL     OW15592   2.115   6.070   6.080 -0.4969 -0.4028 -0.3310
 4898SOL    HW115593   2.022   6.073   6.116 -0.6002 -0.0918 -0.6241
 4898SOL    HW215594   2.154   6.162   6.079 -0.6149 -0.3557 -1.3180
 4899SOL     OW15595   0.537   0.616   3.720 -0.3366 -0.3199  0.1635
 4899SOL    HW115596   0.500   0.591   3.630  0.0831  1.5976 -0.5806
 4899SOL    HW215597   0.466   0.663   3.773  0.1364  0.7931 -0.1599
 4900SOL     OW15598   6.681   2.453   5.517 -0.1452 -0.2474  0.1748
 4900SOL    HW115599   6.684   2.376   5.581  0.1589  1.0568  1.7921
 4900SOL    HW215600   6.601   2.443   5.458 -0.0553 -1.8423  0.2683
 4901SOL     OW15601   6.263   5.793   5.759  0.2636 -0.1447  0.0781
 4901SOL    HW115602   6.333   5.846   5.711  1.6327 -1.9865 -0.1036
 4901SOL    HW215603   6.297   5.768   5.850  0.3302 -1.9801 -0.4209
 4902SOL     OW15604   6.841   2.038   1.487 -0.4175  0.3532  0.4549
 4902SOL    HW115605   6.931   2.064   1.522 -1.1326  2.8324  0.6189
 4902SOL    HW215606   6.770   2.086   1.539 -1.8181 -0.7540 -0.3512
 4903SOL     OW15607   0.594   6.458   3.634  0.2723 -0.0513  0.6935
 4903SOL    HW115608   0.597   6.429   3.538  1.5173 -2.1400  1.2849
 4903SOL    HW215609   0.499   6.467   3.664 -0.1312  0.1776 -0.6034
 4904SOL     OW15610   3.718   2.286   5.308  0.4720 -0.5483  0.1715
 4904SOL    HW115611   3.637   2.306   5.253 -1.2895  0.2953  2.8573
 4904SOL    HW215612   3.800   2.309   5.256 -0.8833 -2.0919 -2.9411
 4905SOL     OW15613   2.022   3.064   5.765  0.1517  0.0942  0.0605
 4905SOL    HW115614   1.943   3.016   5.728 -0.2053 -1.1893  2.3573
 4905SOL    HW215615   2.070   3.111   5.690 -0.9146 -1.7481 -1.8873
 4906SOL     OW15616   5.829   2.580   0.840 -0.3126 -0.4116  0.5926
 4906SOL    HW115617   5.731   2.558   0.838 -0.2721 -0.5437 -0.1085
 4906SOL    HW215618   5.867   2.570   0.749  0.6833 -1.8309  1.1341
 4907SOL     OW15619   5.478   5.881   4.228 -0.0729 -0.5767 -0.3276
 4907SOL    HW115620   5.526   5.823   4.162  0.3208 -1.8924  1.0668
 4907SOL    HW215621   5.380   5.864   4.222  0.0478 -1.5115  0.1568
 4908SOL     OW15622   5.555   1.259   2.296  0.1870  0.5610 -0.5633
 4908SOL    HW115623   5.511   1.185   2.246 -1.2129  0.1448  1.2203
 4908SOL    HW215624   5.593   1.325   2.231 -0.4327 -0.6052 -2.1588
 4909SOL     OW15625   5.716   0.323   1.045  0.4425 -0.1003 -0.5851
 4909SOL    HW115626   5.811   0.300   1.024 -0.0363 -0.3408 -2.7356
 4909SOL    HW215627   5.692   0.287   1.135  2.3283 -0.1528 -0.0506
 4910SOL     OW15628   2.553   0.034   3.105  0.2863  0.2199 -0.1452
 4910SOL    HW115629   2.638   0.086   3.108  0.9283 -0.8100  2.7580
 4910SOL    HW215630   2.574  -0.064   3.108 -1.0008 -0.1158 -1.1206
 4911SOL     OW15631   6.239   3.487   0.498  0.0614 -0.1242  0.1909
 4911SOL    HW115632   6.272   3.467   0.590  1.1107  1.2548  0.1540
 4911SOL    HW215633   6.166   3.555   0.504 -0.4420 -0.6480  0.0490
 4912SOL     OW15634   0.028   1.016   0.757 -0.0287  0.3058 -0.5218
 4912SOL    HW115635  -0.014   0.925   0.750  1.5891 -0.5125 -0.1270
 4912SOL    HW215636  -0.023   1.072   0.821  0.6668 -1.3953  1.6429
 4913SOL     OW15637   3.579   3.293   5.139  0.1406 -0.8121 -0.6818
 4913SOL    HW115638   3.561   3.378   5.188 -0.4190 -1.5820  0.4969
 4913SOL    HW215639   3.597   3.313   5.043  1.9258  0.7888 -0.0553
 4914SOL     OW15640   3.333   5.148   6.850 -0.2681 -0.1083  0.0246
 4914SOL    HW115641   3.300   5.181   6.938  0.9441 -0.6168  0.6978
 4914SOL    HW215642   3.311   5.052   6.840  0.9529 -0.4601  0.4912
 4915SOL     OW15643   6.653   0.677   4.753  0.1688  0.7912  0.0874
 4915SOL    HW115644   6.644   0.666   4.654 -0.8669  1.2108  0.1187
 4915SOL    HW215645   6.745   0.708   4.775  0.2044  1.3764 -0.8160
 4916SOL     OW15646   0.599   2.360   5.699 -0.4698 -0.0674 -0.3135
 4916SOL    HW115647   0.667   2.358   5.626 -0.3838 -1.4362 -0.2141
 4916SOL    HW215648   0.610   2.444   5.752  0.0291  0.5277 -1.3312
 4917SOL     OW15649   4.183   6.690   3.433 -0.6325  0.2076  0.5860
 4917SOL    HW115650   4.178   6.764   3.500  1.6820  0.8117  0.1779
 4917SOL    HW215651   4.262   6.632   3.454 -0.3318 -0.0508 -1.1463
 4918SOL     OW15652   6.470   0.364   6.580 -0.1871 -0.0496  0.1741
 4918SOL    HW115653   6.482   0.361   6.481 -0.5348  1.5832  0.0575
 4918SOL    HW215654   6.372   0.360   6.602 -0.1503  0.2775  0.4065
 4919SOL     OW15655   1.047   1.916   4.608  0.3701  0.1494 -0.2858
 4919SOL    HW115656   0.995   1.950   4.530 -2.7464  0.7087  1.8564
 4919SOL    HW215657   1.051   1.986   4.679 -0.6822 -1.7429  1.7470
 4920SOL     OW15658   4.540   4.083   0.197  0.0212 -0.4603  0.1051
 4920SOL    HW115659   4.447   4.103   0.167  0.1422  0.9073  0.5814
 4920SOL    HW215660   4.568   3.993   0.162 -1.1491 -0.5035 -0.7674
 4921SOL     OW15661   4.833   1.698   5.068 -0.7989 -0.0514  0.5146
 4921SOL    HW115662   4.880   1.622   5.024  0.9385  0.9847  0.4347
 4921SOL    HW215663   4.833   1.684   5.167  0.9795  0.5453  0.6421
 4922SOL     OW15664   5.395   0.049   0.099 -0.1007  0.1266  0.2767
 4922SOL    HW115665   5.349  -0.037   0.122  0.6600 -0.0489  1.1783
 4922SOL    HW215666   5.492   0.042   0.121 -0.2992  1.7555  1.9229
 4923SOL     OW15667   2.424   5.981   0.777  0.0543  0.2578  0.2953
 4923SOL    HW115668   2.377   5.897   0.805 -0.3172 -0.3903 -2.0889
 4923SOL    HW215669   2.487   6.009   0.849 -1.7723 -0.5196  2.3142
 4924SOL     OW15670   3.385   2.420   0.923 -0.5081  0.2222  0.5921
 4924SOL    HW115671   3.395   2.348   0.992 -1.7799  1.3384  1.9946
 4924SOL    HW215672   3.455   2.408   0.852  0.3120 -1.4401  1.6314
 4925SOL     OW15673   5.890   1.585   1.310 -0.1777 -0.1765 -0.3836
 4925SOL    HW115674   5.901   1.679   1.276 -1.5783  0.1843  0.0797
 4925SOL    HW215675   5.919   1.581   1.406  3.6881 -1.1738 -1.4432
 4926SOL     OW15676   5.376   0.781   4.655 -0.4748  0.0445 -0.1253
 4926SOL    HW115677   5.469   0.763   4.689 -0.1130  0.8998 -0.6055
 4926SOL    HW215678   5.354   0.717   4.582 -0.4148 -0.4214  0.2661
 4927SOL     OW15679   3.211   3.583   4.622 -0.5273 -0.4286 -0.2732
 4927SOL    HW115680   3.176   3.552   4.710 -1.4642  1.0314 -0.1062
 4927SOL    HW215681   3.163   3.666   4.594 -0.1484 -0.7766 -2.0981
 4928SOL     OW15682   1.798   0.544   0.383  0.4494 -0.0353  0.8955
 4928SOL    HW115683   1.821   0.604   0.306  1.7110  0.9001  1.9488
 4928SOL    HW215684   1.739   0.470   0.352  1.9511 -0.4231 -1.2522
 4929SOL     OW15685   1.506   0.912   1.864 -0.1800  0.1832 -0.1546
 4929SOL    HW115686   1.590   0.906   1.918  1.6668  0.8595 -2.7550
 4929SOL    HW215687   1.518   0.980   1.791 -4.0720  2.5678  1.1168
 4930SOL     OW15688   0.601   2.705   3.486 -0.1603  0.0439 -0.4111
 4930SOL    HW115689   0.686   2.738   3.445  0.0442  1.1168  0.8163
 4930SOL    HW215690   0.570   2.770   3.556 -0.8962 -1.3333  0.6002
 4931SOL     OW15691   6.517   6.587   6.559 -0.4742  0.0348 -0.6098
 4931SOL    HW115692   6.511   6.538   6.472  0.4029  1.3763 -1.4543
 4931SOL    HW215693   6.430   6.632   6.578 -0.8258 -0.6694 -0.5407
 4932SOL     OW15694   2.278   1.157   4.617  0.0721 -0.0976 -0.0228
 4932SOL    HW115695   2.349   1.174   4.548 -0.3622  0.5931 -0.3044
 4932SOL    HW215696   2.313   1.091   4.684  0.4354 -0.9127 -0.9895
 4933SOL     OW15697   2.045   6.363   3.214 -0.1060 -0.1904  0.3808
 4933SOL    HW115698   2.017   6.293   3.280  0.5475 -0.4669  0.3747
 4933SOL    HW215699   1.999   6.346   3.126  0.7650 -1.1930  0.0946
 4934SOL     OW15700   0.850   6.786   1.022 -0.0760  0.3134  0.2787
 4934SOL    HW115701   0.894   6.725   1.087  0.0354  0.9921  0.8526
 4934SOL    HW215702   0.761   6.815   1.058 -0.0572  0.6166  0.0869
 4935SOL     OW15703   2.718   2.374   6.653  0.1606 -0.2795 -0.1962
 4935SOL    HW115704   2.656   2.450   6.669  0.3758 -0.3829  1.2577
 4935SOL    HW215705   2.766   2.351   6.738  1.0500 -1.2004 -0.9155
 4936SOL     OW15706   1.697   3.806   6.306 -0.6744  0.2526 -0.2614
 4936SOL    HW115707   1.632   3.874   6.273 -0.1544 -0.0550 -2.0405
 4936SOL    HW215708   1.790   3.832   6.280 -0.1175  0.3095  1.5907
 4937SOL     OW15709   5.597   5.272   2.381 -0.3498 -0.3136  0.3170
 4937SOL    HW115710   5.568   5.187   2.424 -0.0819 -0.4248  0.2785
 4937SOL    HW215711   5.655   5.252   2.302 -0.3990 -0.0989  0.2242
 4938SOL     OW15712   2.088   5.007   5.064  0.2031 -0.3934  0.1722
 4938SOL    HW115713   2.109   5.019   5.161 -1.8945 -0.8906  0.7243
 4938SOL    HW215714   1.992   4.982   5.053  0.3722 -0.2566 -2.0554
 4939SOL     OW15715   5.561   0.533   5.843  0.3447 -0.2634 -0.0782
 4939SOL    HW115716   5.544   0.493   5.932 -1.7767  1.8052  0.5682
 4939SOL    HW215717   5.511   0.482   5.773 -0.1883 -0.3152  0.3344
 4940SOL     OW15718   5.067   0.488   1.758 -0.1793 -0.5180 -0.4092
 4940SOL    HW115719   5.158   0.517   1.727 -0.6859  0.0045 -1.4741
 4940SOL    HW215720   5.017   0.568   1.791 -1.3397 -0.2137 -2.7103
 4941SOL     OW15721   6.460   0.404   1.902  0.0199 -0.1316 -0.0819
 4941SOL    HW115722   6.488   0.473   1.835 -2.9824  0.0194 -1.3329
 4941SOL    HW215723   6.427   0.449   1.985  1.8518 -0.2713  0.7805
 4942SOL     OW15724   0.800   1.328   6.390 -0.6251  0.3496  0.1765
 4942SOL    HW115725   0.866   1.403   6.395 -0.3103  0.2004 -1.2229
 4942SOL    HW215726   0.771   1.302   6.482  0.6245  0.9848  0.7690
 4943SOL     OW15727   4.098   3.552   4.390 -0.1010  0.0237 -0.3267
 4943SOL    HW115728   4.138   3.557   4.481 -1.7629  0.4508  0.4226
 4943SOL    HW215729   4.059   3.460   4.376  0.7209 -0.2537 -0.8838
 4944SOL     OW15730   0.954   1.517   0.486 -0.3650  0.1521  0.1223
 4944SOL    HW115731   1.037   1.568   0.465 -0.6189  1.0310  1.1756
 4944SOL    HW215732   0.908   1.558   0.564 -2.6533  0.7079 -1.4071
 4945SOL     OW15733   3.140   3.307   0.319  0.2791  0.0660  0.1261
 4945SOL    HW115734   3.208   3.303   0.392  1.7737 -0.0157 -1.2226
 4945SOL    HW215735   3.161   3.239   0.249 -1.3807 -0.1717 -0.1952
 4946SOL     OW15736   0.557   5.042   2.848  0.1345  0.0902  0.7149
 4946SOL    HW115737   0.495   4.992   2.786 -0.9320  2.3616 -0.1495
 4946SOL    HW215738   0.583   4.982   2.924 -0.7989 -1.8646 -0.4253
 4947SOL     OW15739   0.080   4.387   0.775 -0.0050  0.5623  0.2504
 4947SOL    HW115740  -0.007   4.339   0.762  0.2273  0.1582  0.1350
 4947SOL    HW215741   0.118   4.412   0.685  0.2548  0.2526  0.2685
 4948SOL     OW15742   4.125   5.067   3.430  0.7587  0.1115 -0.2431
 4948SOL    HW115743   4.215   5.106   3.409  1.1605 -0.3640  0.5156
 4948SOL    HW215744   4.136   4.997   3.501  0.0016 -1.0699 -1.2586
 4949SOL     OW15745   5.839   2.388   6.073 -0.2150 -0.3472  0.2523
 4949SOL    HW115746   5.897   2.397   6.154 -2.3153  0.4742  1.7544
 4949SOL    HW215747   5.759   2.332   6.095 -1.3098  0.6710 -0.9494
 4950SOL     OW15748   3.142   6.822   3.154  0.4962 -0.0284 -0.2986
 4950SOL    HW115749   3.045   6.841   3.168  0.6280  0.4746 -0.0302
 4950SOL    HW215750   3.156   6.723   3.148 -0.1869 -0.0672 -1.5407
 4951SOL     OW15751   3.911   1.205   3.419 -0.1530  0.2736 -0.5023
 4951SOL    HW115752   3.869   1.280   3.469 -1.0691 -0.3979 -0.2264
 4951SOL    HW215753   3.956   1.239   3.337  0.1949  1.2182  0.0700
 4952SOL     OW15754   2.334   1.756   1.931 -0.4125  0.8828 -0.3180
 4952SOL    HW115755   2.378   1.728   1.846 -1.8064  1.7967 -1.3921
 4952SOL    HW215756   2.354   1.689   2.002  0.6833  0.0236 -1.3829
 4953SOL     OW15757   2.031   5.215   6.095 -0.3752 -0.0946  0.3811
 4953SOL    HW115758   2.088   5.137   6.068 -0.4804 -0.1430  0.2999
 4953SOL    HW215759   1.948   5.217   6.040  1.0496  1.9410 -1.9046
 4954SOL     OW15760   1.007   0.152   0.530 -0.2416 -0.0095  0.0326
 4954SOL    HW115761   1.103   0.178   0.521 -0.7070  1.5792 -0.9346
 4954SOL    HW215762   0.986   0.130   0.625  0.8739  0.5052  0.4080
 4955SOL     OW15763   2.701   4.516   1.644  0.7575 -0.3566 -0.1122
 4955SOL    HW115764   2.612   4.486   1.678  1.0352  1.7301  2.7676
 4955SOL    HW215765   2.774   4.478   1.701  1.5215  0.2798 -0.6333
 4956SOL     OW15766   0.335   6.284   0.134 -0.0710 -0.5852  0.1846
 4956SOL    HW115767   0.306   6.356   0.071 -0.8749 -1.0484  0.0178
 4956SOL    HW215768   0.403   6.225   0.089 -1.3748 -1.5174 -0.6340
 4957SOL     OW15769   4.156   3.961   0.066 -0.7325  0.0680 -0.4249
 4957SOL    HW115770   4.165   4.043   0.123  1.2983  0.1809 -0.8435
 4957SOL    HW215771   4.138   3.988  -0.029 -0.7000  0.0022 -0.4499
 4958SOL     OW15772   4.595   2.049   4.938  0.3417  0.1511 -0.6813
 4958SOL    HW115773   4.540   2.130   4.957  0.9534  0.4823 -0.2738
 4958SOL    HW215774   4.641   2.020   5.022  1.2513  0.2387 -1.1338
 4959SOL     OW15775   5.813   6.632   1.308  0.2540 -0.0587 -0.1021
 4959SOL    HW115776   5.727   6.611   1.353 -0.1463 -0.9916 -1.2303
 4959SOL    HW215777   5.802   6.621   1.209  1.7202 -0.4171 -0.2511
 4960SOL     OW15778   0.193   5.858   1.839  0.1059  0.3052  0.0622
 4960SOL    HW115779   0.272   5.860   1.778 -0.4140 -3.3559 -0.9102
 4960SOL    HW215780   0.110   5.875   1.787 -0.3036 -2.4640 -0.3066
 4961SOL     OW15781   2.373   0.061   1.653  0.5018 -0.9677 -0.1397
 4961SOL    HW115782   2.428   0.095   1.577 -1.5057 -0.0723 -1.2633
 4961SOL    HW215783   2.430   0.057   1.736  1.5210  2.8718 -0.4511
 4962SOL     OW15784   2.125   1.736   4.553 -0.5545 -0.5914  0.1029
 4962SOL    HW115785   2.200   1.776   4.500 -1.3308 -0.6528 -1.0811
 4962SOL    HW215786   2.159   1.658   4.604  0.1232 -0.8757 -0.7455
 4963SOL     OW15787   2.825   0.678   5.350 -0.2424  0.0073  0.4019
 4963SOL    HW115788   2.768   0.612   5.302  0.4702 -0.5668  0.3201
 4963SOL    HW215789   2.896   0.630   5.402  0.8308  0.7239 -0.3472
 4964SOL     OW15790   1.843   1.223   4.773 -0.1515 -0.1727 -0.4694
 4964SOL    HW115791   1.857   1.247   4.677  3.3713 -0.7016 -0.2276
 4964SOL    HW215792   1.750   1.246   4.800 -0.8180  1.3264 -3.5877
 4965SOL     OW15793   0.048   4.995   3.119 -0.7265 -0.2695  0.9293
 4965SOL    HW115794  -0.036   4.959   3.079 -1.8106  1.0041  1.9601
 4965SOL    HW215795   0.107   4.919   3.147 -1.9435 -1.2062  1.0241
 4966SOL     OW15796   1.328   2.140   6.844 -0.4532 -0.1813 -0.1552
 4966SOL    HW115797   1.239   2.101   6.865  0.3487 -1.6825  0.6465
 4966SOL    HW215798   1.372   2.087   6.771 -0.2163  0.5481 -0.5528
 4967SOL     OW15799   0.398   2.557   4.204 -0.4670 -0.1115 -0.0832
 4967SOL    HW115800   0.451   2.631   4.247 -0.0672 -0.2391 -0.3547
 4967SOL    HW215801   0.354   2.592   4.122 -0.4074 -0.1346 -0.1248
 4968SOL     OW15802   0.226   6.886   0.314 -0.6025  0.1555 -0.1602
 4968SOL    HW115803   0.165   6.853   0.386 -1.8726 -0.2136 -1.3577
 4968SOL    HW215804   0.194   6.976   0.283 -0.4579  0.0225 -0.6959
 4969SOL     OW15805   6.925   4.945   6.213 -0.6825  0.2980  0.0132
 4969SOL    HW115806   6.977   5.012   6.266 -0.6119 -0.0953  0.4532
 4969SOL    HW215807   6.861   4.992   6.152 -2.6938  0.7538  2.3552
 4970SOL     OW15808   5.668   5.628   3.946 -0.1096 -0.6016  0.1466
 4970SOL    HW115809   5.628   5.636   3.855 -0.9343 -1.0291  0.4518
 4970SOL    HW215810   5.705   5.717   3.975 -1.8415  0.1295  0.2711
 4971SOL     OW15811   2.452   4.627   6.262 -0.3455 -0.2614  0.2864
 4971SOL    HW115812   2.512   4.583   6.195 -0.2891 -0.9144  0.7587
 4971SOL    HW215813   2.496   4.626   6.352 -1.1538 -0.9436  0.6844
 4972SOL     OW15814   4.625   0.736   6.819  0.2721 -0.2197  0.5705
 4972SOL    HW115815   4.709   0.687   6.839  1.0708  0.6693 -0.4873
 4972SOL    HW215816   4.625   0.764   6.723 -1.3383 -0.3957  0.4968
 4973SOL     OW15817   0.895   0.794   1.030 -0.1924  0.2572  0.3801
 4973SOL    HW115818   0.820   0.813   1.094 -0.4352 -0.5131  0.3373
 4973SOL    HW215819   0.860   0.794   0.937 -0.2157 -0.4507  0.3844
 4974SOL     OW15820   0.299   0.748   3.542 -0.2589  0.3711  0.3056
 4974SOL    HW115821   0.280   0.735   3.639 -0.0936 -0.7193  0.2061
 4974SOL    HW215822   0.341   0.665   3.505 -1.6573  0.2170 -1.0270
 4975SOL     OW15823   3.763   1.836   1.949  0.2965  0.4315  0.4188
 4975SOL    HW115824   3.742   1.905   2.018  1.6839 -0.3828  1.7229
 4975SOL    HW215825   3.737   1.746   1.983 -1.7342  0.2602 -1.3688
 4976SOL     OW15826   3.923   4.012   3.987  0.7008 -0.3873 -0.0824
 4976SOL    HW115827   3.955   4.051   3.901  0.4221 -1.3717 -0.6456
 4976SOL    HW215828   3.950   3.916   3.992  0.2496 -0.4805  0.6932
 4977SOL     OW15829   2.787   2.668   5.472 -0.2924 -0.1492 -0.0063
 4977SOL    HW115830   2.742   2.710   5.393  0.9095 -0.9906 -1.1862
 4977SOL    HW215831   2.743   2.700   5.556 -1.6577  0.7145 -0.9989
 4978SOL     OW15832   1.907   1.605   1.037  0.5645 -0.0493  0.4925
 4978SOL    HW115833   1.873   1.564   0.952 -0.6270  2.3819 -0.2940
 4978SOL    HW215834   1.977   1.546   1.077  0.3128 -1.8362 -1.5464
 4979SOL     OW15835   1.870   3.511   6.797 -0.3523 -0.4280  0.3191
 4979SOL    HW115836   1.918   3.424   6.785 -2.2000 -1.5192  0.5350
 4979SOL    HW215837   1.853   3.552   6.707 -0.6277 -0.9457  0.1306
 4980SOL     OW15838   5.237   1.966   1.859  0.5271  0.0654  0.0823
 4980SOL    HW115839   5.312   1.941   1.921  0.6080  0.5481  0.1816
 4980SOL    HW215840   5.191   1.883   1.828 -1.8808 -0.1943  3.7017
 4981SOL     OW15841   3.282   6.060   0.543 -0.0274  0.0882  0.1494
 4981SOL    HW115842   3.334   6.146   0.542 -0.5882  0.4499  1.0284
 4981SOL    HW215843   3.203   6.070   0.604  0.2115 -1.2482  0.6895
 4982SOL     OW15844   1.877   4.579   2.790 -0.1744 -0.7567 -0.5464
 4982SOL    HW115845   1.976   4.595   2.796 -0.4550  0.7925  0.9019
 4982SOL    HW215846   1.830   4.667   2.781 -1.4063 -1.5191 -1.9620
 4983SOL     OW15847   0.959   2.378   6.888 -0.0093  0.5312 -0.6258
 4983SOL    HW115848   0.903   2.461   6.886  1.5391  1.6490  0.4996
 4983SOL    HW215849   1.021   2.381   6.966  1.3870 -0.8165 -1.6159
 4984SOL     OW15850   6.240   4.847   5.858 -0.5992  0.1655  0.3357
 4984SOL    HW115851   6.143   4.823   5.863 -0.5994  0.4455  2.6155
 4984SOL    HW215852   6.296   4.768   5.884 -0.1819  0.0102 -0.9470
 4985SOL     OW15853   2.728   6.928   2.471 -0.1326 -0.3847 -0.3795
 4985SOL    HW115854   2.792   6.998   2.505  1.7994 -1.6102 -1.3520
 4985SOL    HW215855   2.690   6.878   2.549  0.0952  0.3594  0.2274
 4986SOL     OW15856   6.386   0.022   5.850 -0.0382 -0.9503 -0.4307
 4986SOL    HW115857   6.485   0.022   5.843 -0.0083 -2.4149 -0.2288
 4986SOL    HW215858   6.359   0.052   5.942  0.0460  2.7992 -1.4500
 4987SOL     OW15859   0.980   5.553   3.868  0.0112 -0.5199  0.5087
 4987SOL    HW115860   0.882   5.562   3.852  0.1433 -0.6253 -0.3745
 4987SOL    HW215861   0.995   5.524   3.963 -0.6590  2.3499  1.5685
 4988SOL     OW15862   1.589   3.995   1.615  0.0028 -0.2371 -0.0711
 4988SOL    HW115863   1.496   3.989   1.580 -0.3788  0.7924  0.7369
 4988SOL    HW215864   1.631   4.081   1.585 -0.1517  0.4159  1.5189
 4989SOL     OW15865   4.705   2.222   0.816  0.4192  0.5615 -0.2189
 4989SOL    HW115866   4.739   2.314   0.837  4.0459 -0.1323 -2.2511
 4989SOL    HW215867   4.690   2.172   0.902  0.2461  2.3906  0.8737
 4990SOL     OW15868   0.836   5.258   0.525  0.3381  0.0810  0.0166
 4990SOL    HW115869   0.925   5.291   0.494  1.2088 -1.1720  1.0606
 4990SOL    HW215870   0.847   5.170   0.570 -1.3072  0.3169  0.9795
 4991SOL     OW15871   1.489   6.121   1.109  0.0719 -0.3406  0.3500
 4991SOL    HW115872   1.499   6.192   1.180 -1.6974  0.3510 -0.0370
 4991SOL    HW215873   1.408   6.066   1.129  0.3368 -1.0223 -0.4150
 4992SOL     OW15874   3.792   0.959   0.869  0.5528 -0.3614  0.2035
 4992SOL    HW115875   3.721   0.995   0.928  0.5126 -0.4558  0.2132
 4992SOL    HW215876   3.834   1.034   0.817  0.0823 -0.3719 -0.2024
 4993SOL     OW15877   1.565   5.351   2.594 -0.5699  0.3792  0.2216
 4993SOL    HW115878   1.536   5.356   2.690 -1.2179 -1.9043  0.2188
 4993SOL    HW215879   1.631   5.276   2.583 -2.6320 -1.3079 -1.5353
 4994SOL     OW15880   5.268   0.839   1.339 -0.7081  0.0464  0.7319
 4994SOL    HW115881   5.254   0.921   1.394 -3.8694  0.0057  0.1941
 4994SOL    HW215882   5.188   0.779   1.347  0.5180 -1.9122 -0.6746
 4995SOL     OW15883   6.890   0.533   5.934  0.2248  0.2324  0.4363
 4995SOL    HW115884   6.947   0.612   5.912 -0.1698  0.6540  0.9162
 4995SOL    HW215885   6.800   0.545   5.893  0.3806 -0.2934 -0.0696
 4996SOL     OW15886   2.538   4.717   4.857  0.0137  0.2698  0.1020
 4996SOL    HW115887   2.633   4.700   4.884 -0.0291 -1.9208 -0.9189
 4996SOL    HW215888   2.478   4.704   4.936  0.3862 -0.4310  0.2751
 4997SOL     OW15889   1.134   0.567   5.424 -0.0154 -0.2027  0.2840
 4997SOL    HW115890   1.164   0.575   5.519 -0.3519 -0.8213  0.4501
 4997SOL    HW215891   1.038   0.539   5.422 -0.0945  0.0914 -0.2414
 4998SOL     OW15892   6.008   1.231   6.631 -0.0626 -0.6330 -0.2030
 4998SOL    HW115893   5.991   1.307   6.694 -0.8441 -1.4721  0.6413
 4998SOL    HW215894   5.927   1.173   6.627 -0.0282 -0.5933 -2.0348
 4999SOL     OW15895   0.846   4.901   2.694  0.8081  0.2820  0.6730
 4999SOL    HW115896   0.808   4.855   2.774 -0.0572  0.1429  0.1847
 4999SOL    HW215897   0.883   4.833   2.631 -2.4231 -0.0217 -1.0871
 5000SOL     OW15898   2.751   5.626   5.524 -0.1547  0.1716  0.3891
 5000SOL    HW115899   2.730   5.722   5.504  2.0059  0.6018 -0.0513
 5000SOL    HW215900   2.811   5.622   5.604  0.8018 -0.7024 -0.3507
 5001SOL     OW15901   6.742   3.357   4.323  0.0660  0.2952 -0.2949
 5001SOL    HW115902   6.768   3.266   4.292 -0.5898 -0.7949  2.1549
 5001SOL    HW215903   6.823   3.417   4.321  1.3549 -1.2854  1.1888
 5002SOL     OW15904   4.973   1.613   6.945  0.1739  0.1606 -0.4400
 5002SOL    HW115905   5.030   1.629   7.026  2.1700  1.8036 -2.0699
 5002SOL    HW215906   4.883   1.654   6.960  0.3558  0.0888  1.0738
 5003SOL     OW15907   6.895   3.569   0.111 -0.0270  0.2835  0.0729
 5003SOL    HW115908   6.831   3.642   0.089 -0.8166  0.1107  1.6751
 5003SOL    HW215909   6.968   3.567   0.042 -0.9335  1.4256 -0.9674
 5004SOL     OW15910   4.665   1.974   2.218 -0.2021  0.4727 -0.1408
 5004SOL    HW115911   4.749   2.024   2.242 -1.0761  1.0141  2.0985
 5004SOL    HW215912   4.602   2.036   2.172 -0.8132  1.1929  1.5688
 5005SOL     OW15913   4.849   3.450   0.893  0.2659 -0.1211 -0.3538
 5005SOL    HW115914   4.928   3.425   0.837  1.7937  2.0249  0.7052
 5005SOL    HW215915   4.866   3.424   0.988 -0.2547  0.4594 -0.0976
 5006SOL     OW15916   5.600   2.238   6.077 -0.2696 -0.1258 -0.4202
 5006SOL    HW115917   5.508   2.273   6.061 -0.3786 -0.0304  0.3737
 5006SOL    HW215918   5.597   2.139   6.089 -0.2345 -0.1511 -0.6112
 5007SOL     OW15919   1.256   2.197   0.882  0.3630 -0.0715  0.1905
 5007SOL    HW115920   1.289   2.272   0.824  1.0829  1.4781  2.4734
 5007SOL    HW215921   1.333   2.139   0.908 -0.0128 -0.9639 -0.6254
 5008SOL     OW15922   2.126   0.659   2.634  0.2287  0.0321 -0.1616
 5008SOL    HW115923   2.191   0.583   2.632  0.1023 -0.0676 -1.6510
 5008SOL    HW215924   2.151   0.726   2.564 -1.0339  0.1811 -0.4932
 5009SOL     OW15925   1.322   1.854   3.728  0.4692 -0.2646  0.5489
 5009SOL    HW115926   1.326   1.761   3.765 -0.1074 -0.7239 -0.4746
 5009SOL    HW215927   1.237   1.898   3.758 -1.1828 -1.4667 -1.9318
 5010SOL     OW15928   4.379   1.751   0.537  0.1193  0.0076 -0.0346
 5010SOL    HW115929   4.374   1.701   0.624 -1.3587  0.1217 -0.0316
 5010SOL    HW215930   4.381   1.849   0.555  0.2583  0.0207 -0.1202
 5011SOL     OW15931   3.418   0.919   4.538 -0.0608  0.9129  0.5953
 5011SOL    HW115932   3.325   0.897   4.567  1.1716 -0.2848  4.1892
 5011SOL    HW215933   3.448   1.003   4.583  0.1004  2.2918 -1.9066
 5012SOL     OW15934   2.026   1.906   4.274 -0.2809 -0.0836  0.1194
 5012SOL    HW115935   2.105   1.851   4.299  0.0561 -0.2322 -1.2209
 5012SOL    HW215936   2.056   1.998   4.249 -0.7318  0.4045  1.2935
 5013SOL     OW15937   3.769   6.178   4.085  0.1891 -0.2718 -0.0554
 5013SOL    HW115938   3.739   6.199   4.178 -0.8660 -0.4579 -0.3366
 5013SOL    HW215939   3.855   6.225   4.066 -0.5834  1.3497  0.3457
 5014SOL     OW15940   0.642   5.819   1.019 -0.1398 -0.6570 -0.1064
 5014SOL    HW115941   0.622   5.857   0.929  0.2089  0.9300  0.4698
 5014SOL    HW215942   0.735   5.843   1.046  0.1292 -2.0042  0.2622
 5015SOL     OW15943   2.767   1.321   5.551 -0.3577 -0.1723  0.1290
 5015SOL    HW115944   2.843   1.295   5.492 -0.9791  0.7401 -1.1242
 5015SOL    HW215945   2.797   1.324   5.646  0.4325 -2.6413  0.0206
 5016SOL     OW15946   6.870   3.480   2.981 -0.3095  0.5350 -0.1048
 5016SOL    HW115947   6.921   3.447   2.902 -1.1097 -1.1592  0.0462
 5016SOL    HW215948   6.923   3.551   3.028  0.1756  1.5584 -2.1158
 5017SOL     OW15949   3.774   1.701   3.892  0.3463  0.3117 -0.3293
 5017SOL    HW115950   3.847   1.770   3.899 -0.7440  1.2715  3.3740
 5017SOL    HW215951   3.698   1.738   3.839 -0.3963  2.2689  1.9510
 5018SOL     OW15952   0.267   5.629   1.960  0.4474 -0.0631  0.0630
 5018SOL    HW115953   0.354   5.678   1.950  0.8905 -0.8182  0.1723
 5018SOL    HW215954   0.192   5.691   1.938  1.1225 -0.1265 -2.8434
 5019SOL     OW15955   4.116   0.170   4.086 -0.7384 -0.2434  0.0786
 5019SOL    HW115956   4.192   0.118   4.124 -1.0936 -0.4076  0.5751
 5019SOL    HW215957   4.030   0.129   4.117 -1.0310  1.2294  1.3104
 5020SOL     OW15958   0.480   0.358   3.059  0.3499 -0.6340  0.0313
 5020SOL    HW115959   0.507   0.454   3.069  0.7588 -0.7432  0.0183
 5020SOL    HW215960   0.488   0.331   2.963  1.0163 -0.9022  0.1592
 5021SOL     OW15961   6.952   1.800   1.603 -0.0768 -0.1664 -0.0829
 5021SOL    HW115962   6.882   1.860   1.563  0.0330 -0.9457 -1.5329
 5021SOL    HW215963   7.040   1.847   1.601  0.4282 -1.0408 -3.1785
 5022SOL     OW15964   4.057   4.814   1.272 -0.3148  0.1311  0.3709
 5022SOL    HW115965   4.084   4.814   1.368 -1.3494 -2.6035  0.7695
 5022SOL    HW215966   4.105   4.740   1.224 -0.8678  0.5526 -0.8728
 5023SOL     OW15967   2.131   5.507   5.613  0.3574  0.2087 -0.0019
 5023SOL    HW115968   2.097   5.436   5.551 -0.8239 -1.1981  2.1434
 5023SOL    HW215969   2.144   5.468   5.704  0.6559  2.5248  1.0059
 5024SOL     OW15970   5.501   0.266   3.016 -0.8293  0.7414  0.1464
 5024SOL    HW115971   5.474   0.302   2.927  3.1674  1.7358 -0.8800
 5024SOL    HW215972   5.537   0.173   3.004  2.0355  1.7664  0.1327
 5025SOL     OW15973   1.298   5.010   3.208 -0.5107 -0.7860  0.0082
 5025SOL    HW115974   1.377   5.037   3.154 -1.1424 -0.0052 -0.5425
 5025SOL    HW215975   1.271   5.085   3.269 -2.6495  0.1848 -1.9701
 5026SOL     OW15976   4.033   1.329   5.671  0.1597 -0.8941  0.0039
 5026SOL    HW115977   4.013   1.309   5.575 -0.3819 -1.9594  0.3262
 5026SOL    HW215978   4.005   1.423   5.692 -2.3199 -1.5158 -0.1950
 5027SOL     OW15979   3.253   5.577   2.631  0.2385  0.1935 -0.5225
 5027SOL    HW115980   3.256   5.675   2.651 -0.1605  0.4363 -1.5842
 5027SOL    HW215981   3.161   5.542   2.649  0.3991 -0.0125 -0.0750
 5028SOL     OW15982   6.975   6.249   4.580 -0.3565 -0.7182  0.6121
 5028SOL    HW115983   6.904   6.210   4.521  0.7999 -2.5427  0.3360
 5028SOL    HW215984   7.065   6.229   4.542  0.3697  1.6324  0.8936
 5029SOL     OW15985   0.754   6.269   1.806  0.3734  0.2351 -0.1736
 5029SOL    HW115986   0.811   6.350   1.803  1.2702 -0.4150 -2.1205
 5029SOL    HW215987   0.810   6.188   1.788 -1.0964 -0.4417 -1.9932
 5030SOL     OW15988   2.271   4.683   5.919 -0.1559  0.2701  0.0137
 5030SOL    HW115989   2.335   4.735   5.975 -1.1317  1.1656  0.3178
 5030SOL    HW215990   2.321   4.611   5.870  1.1139  1.0926  0.0504
 5031SOL     OW15991   4.348   3.657   7.011 -0.1522  0.3315 -0.0517
 5031SOL    HW115992   4.282   3.616   7.074 -1.4379 -0.3599 -1.7637
 5031SOL    HW215993   4.431   3.601   7.008 -0.5390 -0.2619  0.1611
 5032SOL     OW15994   3.680   5.149   3.388  0.1313  0.3714 -0.3700
 5032SOL    HW115995   3.672   5.218   3.460 -0.1115  0.2820 -0.3093
 5032SOL    HW215996   3.758   5.170   3.329  0.9470 -0.1077  0.5166
 5033SOL     OW15997   1.785   6.808   0.867  0.3319  0.3570 -0.0324
 5033SOL    HW115998   1.704   6.806   0.807  0.6124  0.3118 -0.4149
 5033SOL    HW215999   1.812   6.714   0.889 -2.0901  0.2909  3.3710
 5034SOL     OW16000   5.339   5.448   1.055  0.1850 -0.1015 -0.3103
 5034SOL    HW116001   5.305   5.450   0.961 -2.7268 -1.1543  0.5838
 5034SOL    HW216002   5.354   5.353   1.082 -0.6178  0.0522  0.7524
 5035SOL     OW16003   6.020   6.482   0.197 -0.1108  0.6380 -0.0226
 5035SOL    HW116004   5.973   6.554   0.147 -0.8955  0.8356  0.9576
 5035SOL    HW216005   6.113   6.511   0.218  0.1125  0.6929 -1.0336
 5036SOL     OW16006   4.234   1.441   6.940 -0.4289  0.0300 -0.6885
 5036SOL    HW116007   4.151   1.429   6.887 -1.5118  2.5556  0.2684
 5036SOL    HW216008   4.237   1.373   7.014 -1.8101  0.1019 -0.5443
 5037SOL     OW16009   5.655   6.892   6.086 -0.0291  0.3371  0.0367
 5037SOL    HW116010   5.680   6.983   6.051  0.5989  0.2290  0.1820
 5037SOL    HW216011   5.711   6.823   6.040  1.1698  0.2317  1.5794
 5038SOL     OW16012   3.959   3.436   6.502  0.2248  0.0711  0.5977
 5038SOL    HW116013   3.869   3.436   6.460  0.5468  1.3809 -0.1515
 5038SOL    HW216014   3.989   3.342   6.517 -0.9990 -0.3840  0.2950
 5039SOL     OW16015   3.074   3.917   6.158  0.0955  0.3003  0.1388
 5039SOL    HW116016   3.150   3.860   6.126 -0.3298 -0.6985  0.8311
 5039SOL    HW216017   2.989   3.863   6.158 -0.5826  1.3311 -0.4218
 5040SOL     OW16018   4.693   4.418   3.962 -0.1402 -0.3274  0.8685
 5040SOL    HW116019   4.790   4.439   3.971 -0.3760  1.0128  0.4669
 5040SOL    HW216020   4.639   4.502   3.972 -1.2152 -0.9184  0.2951
 5041SOL     OW16021   6.870   6.964   5.336  0.6748  0.1636  0.9153
 5041SOL    HW116022   6.940   6.898   5.364  2.3265  1.5551  0.2474
 5041SOL    HW216023   6.881   7.049   5.388 -1.2169  0.0818  1.5354
 5042SOL     OW16024   3.652   6.485   6.847 -0.6611 -0.2820  0.3087
 5042SOL    HW116025   3.687   6.578   6.853 -0.4269 -0.4088  0.9879
 5042SOL    HW216026   3.567   6.478   6.901  0.4367 -0.9642  2.0451
 5043SOL     OW16027   2.348   3.870   1.724  0.1836 -0.7372 -0.1856
 5043SOL    HW116028   2.260   3.838   1.760  0.8512 -2.7413 -0.2269
 5043SOL    HW216029   2.411   3.793   1.716  1.9123  0.6226 -0.3247
 5044SOL     OW16030   3.403   6.171   3.611  0.1204  0.2679  0.1478
 5044SOL    HW116031   3.369   6.135   3.698  0.1601  1.3988  0.6454
 5044SOL    HW216032   3.495   6.207   3.623 -0.2093  1.2497 -0.1400
 5045SOL     OW16033   3.102   6.989   4.394 -0.3375 -0.2576 -0.3261
 5045SOL    HW116034   3.028   7.044   4.356  0.1961  1.2196  0.6665
 5045SOL    HW216035   3.156   7.045   4.458  2.3486 -0.9097 -1.8546
 5046SOL     OW16036   5.153   1.183   2.959  0.1847  0.2336 -0.0253
 5046SOL    HW116037   5.086   1.157   3.028  1.3341 -0.8579  0.7362
 5046SOL    HW216038   5.145   1.122   2.879 -1.3893  1.7271 -1.0757
 5047SOL     OW16039   0.539   5.282   5.331  0.5016  0.5665  0.1035
 5047SOL    HW116040   0.611   5.246   5.272  0.9470  1.0392  0.3450
 5047SOL    HW216041   0.464   5.217   5.337 -0.1280  1.0218 -2.0027
 5048SOL     OW16042   5.393   1.888   4.659 -0.1901 -0.7044 -0.3900
 5048SOL    HW116043   5.356   1.881   4.752  0.1475  0.3558 -0.1627
 5048SOL    HW216044   5.325   1.854   4.593 -1.3633  0.6779  0.0652
 5049SOL     OW16045   0.821   0.308   6.746 -0.0346  0.0684  0.1913
 5049SOL    HW116046   0.873   0.277   6.666 -1.6071 -0.3158 -0.7326
 5049SOL    HW216047   0.865   0.389   6.784  1.3673 -0.3868 -0.3835
 5050SOL     OW16048   4.574   0.271   0.647 -0.0538  0.7714  0.4151
 5050SOL    HW116049   4.535   0.192   0.600  0.7575  1.2147 -1.1113
 5050SOL    HW216050   4.668   0.285   0.614 -0.0050  2.0587  1.0501
 5051SOL     OW16051   0.134   0.127   5.925 -0.5236 -0.0432 -0.0787
 5051SOL    HW116052   0.188   0.052   5.887  0.3803 -0.0155  1.1045
 5051SOL    HW216053   0.138   0.206   5.864 -1.4112 -0.8904 -1.2948
 5052SOL     OW16054   4.752   0.095   4.616  0.0243  0.7272  0.0701
 5052SOL    HW116055   4.713   0.187   4.619 -0.9701  0.3055  0.4953
 5052SOL    HW216056   4.846   0.100   4.582  0.4544  2.0561  1.3465
 5053SOL     OW16057   5.156   3.151   4.181  0.0869  0.0192 -0.7775
 5053SOL    HW116058   5.157   3.051   4.177 -0.4324  0.0109 -0.7654
 5053SOL    HW216059   5.070   3.182   4.222 -1.0857  0.5739 -3.4499
 5054SOL     OW16060   5.250   0.996   3.245 -0.2904 -0.4702  0.1404
 5054SOL    HW116061   5.317   0.995   3.172  1.2018  2.0667  1.3292
 5054SOL    HW216062   5.162   1.029   3.210 -0.1621 -1.1728 -0.8661
 5055SOL     OW16063   3.933   3.672   6.971 -0.1633  0.2680 -0.0435
 5055SOL    HW116064   3.897   3.643   7.060  1.1202 -0.7336  0.1851
 5055SOL    HW216065   4.033   3.666   6.972 -0.1227  0.2155 -1.5647
 5056SOL     OW16066   3.392   0.317   0.875 -0.0407  0.1060  0.2457
 5056SOL    HW116067   3.404   0.299   0.973  0.5202 -1.3663 -0.0678
 5056SOL    HW216068   3.303   0.282   0.846 -0.4465  1.0429  0.3244
 5057SOL     OW16069   4.113   6.104   6.262  0.2962  0.4466  0.8070
 5057SOL    HW116070   4.162   6.186   6.233 -0.1321  0.2905 -0.4328
 5057SOL    HW216071   4.154   6.024   6.219  1.1966 -0.1186  2.5994
 5058SOL     OW16072   5.511   3.419   1.023 -0.1606 -0.4155  0.5344
 5058SOL    HW116073   5.417   3.446   1.002  0.2362  0.1573 -0.5674
 5058SOL    HW216074   5.574   3.491   0.995  0.7481 -1.5322 -0.4115
 5059SOL     OW16075   6.288   5.359   2.760 -0.2953  0.0604  0.1373
 5059SOL    HW116076   6.287   5.411   2.674  1.4950 -0.8868 -0.5101
 5059SOL    HW216077   6.345   5.278   2.749 -1.7357 -1.2119  1.6164
 5060SOL     OW16078   2.780   5.282   0.047  0.0116 -0.4086  0.4873
 5060SOL    HW116079   2.825   5.216   0.108 -2.7172 -2.7899  0.1169
 5060SOL    HW216080   2.742   5.235  -0.032 -1.0214  1.8337 -0.4489
 5061SOL     OW16081   4.022   3.693   1.949 -0.2096 -0.0638 -0.1955
 5061SOL    HW116082   3.961   3.766   1.918  0.9547  0.8708 -0.3389
 5061SOL    HW216083   4.027   3.693   2.049 -0.9787 -0.6139 -0.1425
 5062SOL     OW16084   6.283   2.103   0.758 -0.2869  0.3911 -0.0928
 5062SOL    HW116085   6.304   2.194   0.723 -1.2606  0.2585 -1.0904
 5062SOL    HW216086   6.338   2.085   0.840 -0.1805  1.9077  0.1973
 5063SOL     OW16087   0.990   6.781   2.099  0.5199  0.4478  0.3607
 5063SOL    HW116088   0.934   6.707   2.137  0.9665  0.5025  1.1556
 5063SOL    HW216089   1.087   6.763   2.117  0.7171  0.6797 -0.4253
 5064SOL     OW16090   1.763   4.082   4.725 -0.2456  0.4316 -0.0938
 5064SOL    HW116091   1.818   4.001   4.746 -1.3309 -0.3534 -0.2442
 5064SOL    HW216092   1.741   4.130   4.809  0.1331  0.4103  0.0223
 5065SOL     OW16093   5.646   3.357   5.831  0.1130 -0.2842 -0.2259
 5065SOL    HW116094   5.709   3.434   5.825  0.6251 -0.8037 -2.7746
 5065SOL    HW216095   5.560   3.381   5.787 -0.2583 -0.7092  0.2518
 5066SOL     OW16096   5.767   5.784   3.073 -0.1719  0.1446 -0.2844
 5066SOL    HW116097   5.742   5.880   3.084 -1.3360 -0.2261  0.5569
 5066SOL    HW216098   5.760   5.737   3.161  1.2702 -0.5268 -0.4941
 5067SOL     OW16099   1.790   0.965   4.128 -0.0657  0.3710  0.4029
 5067SOL    HW116100   1.856   0.938   4.198  0.0374  2.9840  1.4206
 5067SOL    HW216101   1.830   0.952   4.038  0.0198 -2.5013  0.7813
 5068SOL     OW16102   0.958   1.002   1.662  0.4039 -0.0851 -0.3890
 5068SOL    HW116103   0.873   0.960   1.695 -0.4200  1.1034 -0.9445
 5068SOL    HW216104   0.966   0.988   1.564  0.7196  0.0260 -0.3785
 5069SOL     OW16105   2.736   1.181   4.621  0.1444 -0.2502 -0.2959
 5069SOL    HW116106   2.787   1.262   4.647  0.3130  0.2709 -2.1126
 5069SOL    HW216107   2.747   1.110   4.691 -1.0118  1.6474  1.9538
 5070SOL     OW16108   6.103   2.018   2.922 -0.3874 -0.4890 -0.3573
 5070SOL    HW116109   6.054   1.945   2.876 -0.8202 -1.3828  1.4093
 5070SOL    HW216110   6.081   2.016   3.020  1.8701  0.1405  0.2211
 5071SOL     OW16111   6.927   3.724   4.630  0.5025 -0.4310  0.0818
 5071SOL    HW116112   6.885   3.723   4.540  1.0272 -0.1755 -0.1725
 5071SOL    HW216113   6.877   3.787   4.690  1.4533  1.1154 -0.6848
 5072SOL     OW16114   0.188   2.380   1.778  0.9527  0.4774 -0.1863
 5072SOL    HW116115   0.152   2.315   1.845 -0.7201 -0.6944 -2.1342
 5072SOL    HW216116   0.284   2.358   1.759  0.4730 -1.3467 -0.6540
 5073SOL     OW16117   5.187   0.898   5.291  0.4871 -0.0743  0.3980
 5073SOL    HW116118   5.163   0.948   5.208  0.5228 -1.1401 -0.2734
 5073SOL    HW216119   5.232   0.812   5.266 -0.2472 -0.8033  1.5026
 5074SOL     OW16120   5.765   2.749   1.772  0.0474  0.0788 -0.1650
 5074SOL    HW116121   5.849   2.794   1.741  0.9914 -1.9144 -0.6329
 5074SOL    HW216122   5.698   2.750   1.698 -0.2525  1.3967  0.1036
 5075SOL     OW16123   4.596   1.310   3.799 -0.0460  0.0236  0.2202
 5075SOL    HW116124   4.534   1.241   3.762 -0.6274  0.1556  0.9265
 5075SOL    HW216125   4.667   1.331   3.731 -1.6579  1.0080 -1.2524
 5076SOL     OW16126   3.771   3.336   4.562 -0.3066 -0.3842 -0.0191
 5076SOL    HW116127   3.781   3.429   4.527 -0.7257 -0.5431 -0.5830
 5076SOL    HW216128   3.852   3.311   4.615 -0.1336  0.2524  0.0191
 5077SOL     OW16129   2.625   4.450   5.257 -0.2914 -0.6010  0.3091
 5077SOL    HW116130   2.684   4.375   5.289  1.6431  0.1044 -1.4242
 5077SOL    HW216131   2.679   4.515   5.205 -2.9125 -0.9271 -3.1530
 5078SOL     OW16132   6.001   2.750   3.349 -0.3646  0.2776  0.2699
 5078SOL    HW116133   6.014   2.729   3.446 -2.6045 -0.8748  0.3889
 5078SOL    HW216134   6.021   2.668   3.295 -1.8842  0.0213  0.0547
 5079SOL     OW16135   1.618   3.771   1.335 -0.3672 -0.1231 -0.5626
 5079SOL    HW116136   1.690   3.740   1.274  0.0293 -3.6689  1.4203
 5079SOL    HW216137   1.553   3.697   1.351 -0.2682  0.4081  3.4355
 5080SOL     OW16138   0.109   2.338   0.049 -0.4434 -0.4052 -0.2353
 5080SOL    HW116139   0.132   2.295  -0.039  0.1765 -0.6634  0.0488
 5080SOL    HW216140   0.193   2.367   0.094 -0.6341 -1.5289  0.9121
 5081SOL     OW16141   0.089   3.145   0.308  0.0503  0.2293  0.2080
 5081SOL    HW116142   0.179   3.130   0.347  1.4492  0.4941 -2.6665
 5081SOL    HW216143   0.082   3.239   0.273 -1.8340  0.6174  1.4617
 5082SOL     OW16144   6.789   0.259   6.326 -0.6284  0.5096 -0.1986
 5082SOL    HW116145   6.845   0.259   6.242 -2.0074 -2.2464 -1.2354
 5082SOL    HW216146   6.696   0.230   6.304 -1.4288  1.1320  2.1176
 5083SOL     OW16147   1.495   4.614   6.858  0.1787  0.3738  0.2226
 5083SOL    HW116148   1.461   4.702   6.892 -1.3169  0.4949 -1.4372
 5083SOL    HW216149   1.427   4.573   6.798  1.2341 -1.5062  0.2400
 5084SOL     OW16150   5.481   5.181   1.064  0.1046 -0.1503 -0.1790
 5084SOL    HW116151   5.565   5.194   1.117  0.9322 -1.1767 -1.1943
 5084SOL    HW216152   5.496   5.211   0.970 -1.3741  1.7152  0.1194
 5085SOL     OW16153   0.750   2.248   3.301  0.4375 -0.3098 -0.1116
 5085SOL    HW116154   0.678   2.187   3.267 -0.4882 -0.2247  1.5884
 5085SOL    HW216155   0.832   2.194   3.321 -0.2663 -0.9711  1.0686
 5086SOL     OW16156   2.138   5.113   0.687  0.0278 -0.3588 -0.1894
 5086SOL    HW116157   2.206   5.186   0.678 -2.2572  1.9335  0.2835
 5086SOL    HW216158   2.139   5.057   0.605  2.0424 -0.0292 -0.4436
 5087SOL     OW16159   5.462   1.961   5.146 -0.2238 -0.0261  0.6552
 5087SOL    HW116160   5.394   1.902   5.102 -1.1578  1.7909 -0.4679
 5087SOL    HW216161   5.553   1.926   5.127 -0.6955 -0.4069 -1.1245
 5088SOL     OW16162   2.833   0.571   0.208  0.3261  0.1933  0.2147
 5088SOL    HW116163   2.786   0.659   0.209  0.3561  0.3097 -2.2393
 5088SOL    HW216164   2.782   0.507   0.150  1.0443 -0.9882  0.8315
 5089SOL     OW16165   1.516   2.079   5.725  0.0698 -0.1980  0.1970
 5089SOL    HW116166   1.565   2.154   5.768  0.8059 -1.1287  1.0412
 5089SOL    HW216167   1.422   2.075   5.760  0.3718 -0.3582  1.0054
 5090SOL     OW16168   3.243   5.052   1.055  0.1090  0.2590 -0.0944
 5090SOL    HW116169   3.167   4.990   1.035  1.0453 -0.7185 -0.7903
 5090SOL    HW216170   3.247   5.069   1.153  1.5951 -3.2960  0.6385
 5091SOL     OW16171   1.456   3.424   1.875 -0.1355 -0.2667  0.1947
 5091SOL    HW116172   1.497   3.344   1.832 -0.9746 -1.3416  1.3032
 5091SOL    HW216173   1.519   3.501   1.871  1.2905 -1.3882  0.3602
 5092SOL     OW16174   1.504   0.911   2.388  0.0701  0.4419 -0.0705
 5092SOL    HW116175   1.418   0.866   2.364  0.8296 -1.0853 -0.0470
 5092SOL    HW216176   1.540   0.958   2.307 -0.3854  0.4107 -0.2963
 5093SOL     OW16177   6.293   2.005   2.740  0.3173 -0.0761  0.1540
 5093SOL    HW116178   6.306   1.907   2.749  0.3704 -0.1222 -0.3893
 5093SOL    HW216179   6.214   2.034   2.794 -0.1632 -0.5371 -0.2898
 5094SOL     OW16180   3.934   4.276   5.640  0.4468 -0.6383  0.2281
 5094SOL    HW116181   4.009   4.341   5.632 -0.3120  0.4031  1.2041
 5094SOL    HW216182   3.908   4.243   5.549  1.2486 -0.0429 -0.2226
 5095SOL     OW16183   1.374   6.043   5.407  0.2344 -0.4613  0.5559
 5095SOL    HW116184   1.419   6.129   5.384 -0.5387 -0.1968 -0.0008
 5095SOL    HW216185   1.288   6.062   5.454 -0.3767 -0.9021 -0.3686
 5096SOL     OW16186   5.411   1.540   3.629 -0.3576  0.4611  0.0640
 5096SOL    HW116187   5.475   1.559   3.703  0.6664 -0.4573 -0.5406
 5096SOL    HW216188   5.337   1.607   3.629  0.3307  1.2368  1.1051
 5097SOL     OW16189   6.983   1.654   5.526 -0.1934  0.1835 -0.4288
 5097SOL    HW116190   7.031   1.593   5.590  1.0120 -0.3587 -1.8094
 5097SOL    HW216191   7.047   1.687   5.457 -1.1340  1.9919 -0.4936
 5098SOL     OW16192   4.541   5.043   0.592 -0.9381  0.1564  0.1364
 5098SOL    HW116193   4.530   4.944   0.601 -0.9935 -0.4047 -4.2599
 5098SOL    HW216194   4.633   5.064   0.561 -2.0478  0.9322 -3.0393
 5099SOL     OW16195   5.192   6.260   5.381  0.0651  0.3870  0.5120
 5099SOL    HW116196   5.289   6.240   5.364  0.0673  1.3921 -0.8479
 5099SOL    HW216197   5.143   6.264   5.294 -1.0459  0.6499  1.1273
 5100SOL     OW16198   6.605   4.061   3.405 -0.3758 -0.0316  0.9481
 5100SOL    HW116199   6.613   4.143   3.347 -1.7078 -0.0468  0.6995
 5100SOL    HW216200   6.508   4.043   3.423 -0.0640 -1.1624  1.5731
 5101SOL     OW16201   1.322   2.781   2.973  0.3986  0.1759  0.2604
 5101SOL    HW116202   1.372   2.812   3.054  1.4537 -0.9253  0.0613
 5101SOL    HW216203   1.349   2.687   2.952 -3.4213 -1.3987  1.5160
 5102SOL     OW16204   2.853   2.061   5.367 -0.5364  0.0198 -0.0366
 5102SOL    HW116205   2.888   2.146   5.327 -2.1757  0.7172 -0.0324
 5102SOL    HW216206   2.927   1.993   5.368  1.3934  1.9578  1.6282
 5103SOL     OW16207   3.477   4.062   6.662 -0.2785  0.7410  0.8197
 5103SOL    HW116208   3.440   4.150   6.631 -1.2368 -0.0702 -0.4296
 5103SOL    HW216209   3.512   4.011   6.584  1.4152  0.5013  1.6909
 5104SOL     OW16210   3.842   1.076   6.960 -0.3646  0.1966  0.1066
 5104SOL    HW116211   3.791   1.162   6.968  2.1575  1.8409 -0.3983
 5104SOL    HW216212   3.913   1.086   6.891  0.6083 -2.0243  0.7174
 5105SOL     OW16213   2.550   4.909   1.518  0.1178  0.2574 -0.0720
 5105SOL    HW116214   2.631   4.915   1.576  1.2336  0.1027 -1.5420
 5105SOL    HW216215   2.533   4.814   1.494 -0.2125  0.3377 -0.1580
 5106SOL     OW16216   0.140   2.886   1.661 -0.5150  0.4029 -0.0693
 5106SOL    HW116217   0.165   2.882   1.565 -2.4600 -0.4505 -0.5909
 5106SOL    HW216218   0.060   2.945   1.673 -0.6250  0.0819  0.9373
 5107SOL     OW16219   4.857   1.592   6.055 -0.3518  0.3045  0.3426
 5107SOL    HW116220   4.927   1.536   6.099 -0.2985 -0.6424 -0.9089
 5107SOL    HW216221   4.767   1.553   6.071 -0.5075  0.8892  0.9794
 5108SOL     OW16222   4.442   5.206   6.287 -0.1320 -0.2343  0.1448
 5108SOL    HW116223   4.471   5.112   6.304  3.5161  1.0426  1.8077
 5108SOL    HW216224   4.486   5.240   6.204 -1.0357  0.2238 -0.1684
 5109SOL     OW16225   5.122   0.714   0.034  0.8490  0.1001 -0.1126
 5109SOL    HW116226   5.040   0.767   0.012 -0.3147 -1.5377  0.1040
 5109SOL    HW216227   5.120   0.627  -0.015 -0.8503 -2.8473  4.5454
 5110SOL     OW16228   6.258   6.048   6.504 -0.1426  0.3060  0.2491
 5110SOL    HW116229   6.328   5.998   6.555  0.3766  0.3253 -0.4410
 5110SOL    HW216230   6.268   6.146   6.521  0.2336  0.3367 -0.1376
 5111SOL     OW16231   0.263   1.003   1.085 -0.0982 -0.3113  0.5233
 5111SOL    HW116232   0.262   1.035   0.990 -3.0906  0.1454  0.6118
 5111SOL    HW216233   0.336   0.936   1.096 -0.8207 -1.8343 -2.6615
 5112SOL     OW16234   5.956   1.871   1.711  0.8427 -0.4249 -0.4354
 5112SOL    HW116235   6.020   1.931   1.757  2.1143 -0.6748 -1.8038
 5112SOL    HW216236   5.892   1.925   1.656  1.0258 -0.2465 -0.4723
 5113SOL     OW16237   5.816   5.383   2.238 -0.2353  0.2009 -0.5688
 5113SOL    HW116238   5.896   5.328   2.262 -0.5633 -0.9343 -1.9092
 5113SOL    HW216239   5.763   5.402   2.320 -0.0401 -1.4218 -0.0211
 5114SOL     OW16240   2.256   0.048   2.971 -0.1645 -0.0643  0.2567
 5114SOL    HW116241   2.349   0.028   3.001 -0.3379 -0.4843  0.5297
 5114SOL    HW216242   2.199   0.072   3.050 -0.2139  0.5071  0.0528
 5115SOL     OW16243   1.790   2.804   4.936 -0.5403  0.1656  0.4928
 5115SOL    HW116244   1.768   2.840   4.846 -1.0238  0.2080  0.6237
 5115SOL    HW216245   1.882   2.766   4.936 -1.5037 -2.4193 -0.8129
 5116SOL     OW16246   4.796   2.769   6.355 -0.3984  0.1845  0.2998
 5116SOL    HW116247   4.882   2.806   6.320 -0.6117  0.1220 -0.2881
 5116SOL    HW216248   4.733   2.751   6.280 -1.7275  2.1696  0.8580
 5117SOL     OW16249   5.044   6.204   2.928 -0.6190  0.1721 -0.1785
 5117SOL    HW116250   5.063   6.163   2.839 -1.6497  0.8651 -0.7459
 5117SOL    HW216251   4.948   6.234   2.931  0.0742  2.5529  0.1594
 5118SOL     OW16252   1.224   2.219   6.381 -0.1154  0.4219  0.6436
 5118SOL    HW116253   1.192   2.124   6.371  1.6283 -0.1331  0.0664
 5118SOL    HW216254   1.171   2.278   6.319 -0.0095 -0.4748 -0.3302
 5119SOL     OW16255   0.671   5.258   6.282 -0.6686 -0.5403  0.2225
 5119SOL    HW116256   0.685   5.304   6.195  1.1951  1.8940  1.6876
 5119SOL    HW216257   0.617   5.316   6.343  1.9389  0.0046  2.2115
 5120SOL     OW16258   3.377   1.641   3.225 -0.0934  0.0968 -0.0625
 5120SOL    HW116259   3.303   1.682   3.172 -0.7431  0.4177  1.0610
 5120SOL    HW216260   3.365   1.541   3.226  0.8964 -0.0994 -1.9101
 5121SOL     OW16261   6.964   0.096   2.030  0.1773  0.0610 -0.4975
 5121SOL    HW116262   7.038   0.108   1.963  0.7961  0.5927  0.2683
 5121SOL    HW216263   6.904   0.176   2.028 -0.6014 -0.5237 -1.3674
 5122SOL     OW16264   2.603   5.846   1.772  0.0892 -0.0830 -0.4353
 5122SOL    HW116265   2.518   5.857   1.825  1.7885  1.3443  2.1920
 5122SOL    HW216266   2.594   5.896   1.686 -2.8897 -2.7283 -1.8801
 5123SOL     OW16267   4.892   0.084   2.716 -0.3446  0.3103  0.2112
 5123SOL    HW116268   4.926   0.104   2.624  0.7939  1.0721  0.7798
 5123SOL    HW216269   4.819   0.148   2.740 -0.6500  0.1051 -0.1443
 5124SOL     OW16270   6.528   1.307   1.617  0.2257  0.3322  0.0810
 5124SOL    HW116271   6.530   1.405   1.638  0.3584  0.3704 -0.1062
 5124SOL    HW216272   6.622   1.275   1.604  0.2627 -0.0301  1.1039
 5125SOL     OW16273   0.842   0.293   0.312  0.1875 -0.0855 -0.5286
 5125SOL    HW116274   0.823   0.249   0.224 -2.9864  0.1876 -0.1121
 5125SOL    HW216275   0.874   0.224   0.377  1.4966 -0.4973 -1.5682
 5126SOL     OW16276   4.111   4.753   1.546 -0.4571 -0.1046  0.3305
 5126SOL    HW116277   4.074   4.664   1.571 -1.2828  0.6706  2.1030
 5126SOL    HW216278   4.209   4.756   1.566 -0.6030 -0.3390  1.1206
 5127SOL     OW16279   1.363   1.318   1.450 -0.1995  0.0842 -0.7280
 5127SOL    HW116280   1.426   1.318   1.527  1.0055 -1.0436 -1.6761
 5127SOL    HW216281   1.391   1.387   1.382  1.0303 -1.5218 -1.9099
 5128SOL     OW16282   3.254   6.595   1.563 -0.1848 -0.1274  0.8059
 5128SOL    HW116283   3.347   6.588   1.598  0.3414 -0.7188 -0.6092
 5128SOL    HW216284   3.202   6.659   1.619  0.4609 -1.3088  2.8568
 5129SOL     OW16285   4.346   4.465   6.691  0.0446  0.5605  0.1361
 5129SOL    HW116286   4.326   4.558   6.660 -1.8281 -1.2864 -5.2257
 5129SOL    HW216287   4.421   4.427   6.636 -0.9741 -1.9017  0.3396
 5130SOL     OW16288   1.665   3.505   6.002 -0.1078 -0.2113  0.5285
 5130SOL    HW116289   1.673   3.581   6.067 -1.1923  0.0573  0.3821
 5130SOL    HW216290   1.569   3.479   5.994  0.1796 -1.1733  0.0747
 5131SOL     OW16291   5.764   1.555   3.299 -0.5890  0.5226  0.5595
 5131SOL    HW116292   5.714   1.487   3.246 -0.9575  0.1201  1.4029
 5131SOL    HW216293   5.824   1.608   3.238  0.8055 -1.4914  0.0895
 5132SOL     OW16294   1.737   1.771   0.706 -0.0560 -0.2826 -0.1380
 5132SOL    HW116295   1.777   1.681   0.724 -0.4318 -0.4297 -0.0257
 5132SOL    HW216296   1.734   1.823   0.792 -1.2907 -0.7576  0.1258
 5133SOL     OW16297   2.323   3.104   5.637  0.1051  0.2740  0.0235
 5133SOL    HW116298   2.414   3.104   5.678  0.1360  0.3068 -0.0474
 5133SOL    HW216299   2.307   3.190   5.590 -0.2372  0.5676  0.6554
 5134SOL     OW16300   6.220   0.496   1.412  0.0405 -0.1456 -0.0174
 5134SOL    HW116301   6.233   0.461   1.505 -0.7406  0.9311  0.5124
 5134SOL    HW216302   6.198   0.420   1.351 -0.4851 -0.7346  0.8818
 5135SOL     OW16303   2.195   1.235   4.292 -1.0818  0.4568 -0.2488
 5135SOL    HW116304   2.124   1.186   4.344 -1.3853 -0.6356 -1.6322
 5135SOL    HW216305   2.281   1.185   4.300 -1.2547 -0.0116 -1.1986
 5136SOL     OW16306   0.725   5.707   1.717  0.3650 -0.1085  0.5011
 5136SOL    HW116307   0.651   5.669   1.662  0.7215 -0.8398  0.5129
 5136SOL    HW216308   0.780   5.769   1.661 -0.2085  0.3789  0.4733
 5137SOL     OW16309   1.259   1.342   6.180 -0.3770 -0.2702 -0.2328
 5137SOL    HW116310   1.235   1.439   6.193 -0.8997 -0.2012 -1.5499
 5137SOL    HW216311   1.210   1.286   6.247 -0.0178  0.3719  0.5875
 5138SOL     OW16312   3.723   2.840   5.866  0.2954 -0.6681 -0.8113
 5138SOL    HW116313   3.642   2.818   5.921  0.5735 -2.2671 -0.9886
 5138SOL    HW216314   3.705   2.820   5.770  1.3736 -2.5456 -0.6603
 5139SOL     OW16315   6.766   0.955   3.465  0.2215  0.2336 -0.4996
 5139SOL    HW116316   6.733   0.891   3.396 -0.0709  0.4958 -0.6031
 5139SOL    HW216317   6.742   0.921   3.556 -0.2841  0.3889 -0.5713
 5140SOL     OW16318   4.247   1.946   5.673 -0.4108  0.3581  0.1171
 5140SOL    HW116319   4.267   2.000   5.755  2.5629 -0.2805 -0.1002
 5140SOL    HW216320   4.259   2.002   5.592 -1.5565  0.4880  0.0215
 5141SOL     OW16321   3.123   2.665   6.858 -0.0025  0.0438 -0.0538
 5141SOL    HW116322   3.093   2.663   6.953  1.1808 -2.9748  0.3735
 5141SOL    HW216323   3.054   2.621   6.800 -0.0274  0.4860 -0.3671
 5142SOL     OW16324   6.511   1.587   1.646  0.0598  0.1913 -0.1726
 5142SOL    HW116325   6.559   1.592   1.734 -0.3138  0.1902  0.0312
 5142SOL    HW216326   6.554   1.650   1.581 -0.5965  1.2986  0.4498
 5143SOL     OW16327   6.952   5.251   4.394  0.3964  0.3719 -0.5708
 5143SOL    HW116328   6.984   5.219   4.483  1.7500 -1.5930 -1.6662
 5143SOL    HW216329   6.889   5.184   4.355  1.7880 -0.1000 -2.1224
 5144SOL     OW16330   4.112   4.528   5.354  0.2756  0.5340  0.1828
 5144SOL    HW116331   4.152   4.484   5.274 -1.1411 -1.2018  0.3600
 5144SOL    HW216332   4.116   4.627   5.343 -0.6416  0.3699 -2.4652
 5145SOL     OW16333   1.868   1.449   6.472  0.4413  0.6728  0.0409
 5145SOL    HW116334   1.873   1.436   6.571  0.2701  0.8036  0.0681
 5145SOL    HW216335   1.845   1.362   6.428 -2.3492  1.1564  0.3608
 5146SOL     OW16336   4.532   1.643   2.016 -0.3162 -0.3536 -0.8524
 5146SOL    HW116337   4.554   1.665   2.111 -0.9619 -1.2485 -0.4910
 5146SOL    HW216338   4.586   1.703   1.955 -0.4737  0.7679  0.0692
 5147SOL     OW16339   1.774   6.111   4.380 -0.0560  0.4675  0.3935
 5147SOL    HW116340   1.714   6.160   4.442 -0.7381  0.5445 -0.3124
 5147SOL    HW216341   1.814   6.175   4.314 -0.1436  0.2376  0.1138
 5148SOL     OW16342   0.434   4.360   0.626  0.2276  0.1362  0.1858
 5148SOL    HW116343   0.531   4.365   0.602  0.6214  0.4209  1.7492
 5148SOL    HW216344   0.416   4.420   0.704 -0.9942 -0.7474  0.6043
 5149SOL     OW16345   1.923   6.715   3.379 -0.2804 -0.2157  0.5003
 5149SOL    HW116346   2.011   6.761   3.371 -0.3885  0.0497  0.8183
 5149SOL    HW216347   1.853   6.770   3.334 -0.6050  0.4892  1.8121
 5150SOL     OW16348   2.326   4.593   6.796 -0.1881  0.0165  0.2893
 5150SOL    HW116349   2.289   4.527   6.861  1.4277 -0.1162  1.1150
 5150SOL    HW216350   2.425   4.601   6.808 -0.4311  3.5465  1.0919
 5151SOL     OW16351   4.862   6.036   0.766 -0.1743 -0.0429 -0.1420
 5151SOL    HW116352   4.872   5.970   0.840 -1.2314  0.8943  0.8786
 5151SOL    HW216353   4.937   6.025   0.700  1.1941 -0.4337  1.4235
 5152SOL     OW16354   1.358   1.267   0.748 -0.1394 -0.1731 -0.8979
 5152SOL    HW116355   1.348   1.364   0.768 -0.8329 -0.0914 -1.5866
 5152SOL    HW216356   1.375   1.217   0.833 -1.9390  0.2847 -0.2088
 5153SOL     OW16357   2.256   5.904   6.307  0.2369  0.0296 -0.0269
 5153SOL    HW116358   2.262   5.810   6.275 -2.0380  0.0806 -0.8093
 5153SOL    HW216359   2.237   5.964   6.230 -1.2197  0.7192  0.8178
 5154SOL     OW16360   4.519   6.125   6.900 -0.4090  0.3228  0.1889
 5154SOL    HW116361   4.549   6.147   6.807 -0.6679 -0.3201 -0.0459
 5154SOL    HW216362   4.549   6.033   6.924 -0.6298  0.3632  0.6195
 5155SOL     OW16363   0.187   3.297   0.637 -0.0156  0.0538 -0.2029
 5155SOL    HW116364   0.118   3.230   0.609  1.8894 -1.5835 -1.2732
 5155SOL    HW216365   0.192   3.298   0.737 -1.0224 -0.4007 -0.1315
 5156SOL     OW16366   6.268   3.039   3.928  0.0876 -0.4465  0.1878
 5156SOL    HW116367   6.186   3.078   3.970 -0.5620 -1.2414 -0.2958
 5156SOL    HW216368   6.346   3.098   3.947 -0.3659 -0.2517  1.6293
 5157SOL     OW16369   2.668   0.230   2.014 -0.3604  0.0192  0.2627
 5157SOL    HW116370   2.600   0.302   2.002 -0.6370 -0.0468  1.3930
 5157SOL    HW216371   2.625   0.141   2.005 -0.4577 -0.0240  1.1286
 5158SOL     OW16372   5.007   5.425   0.095  0.2421  0.1743 -0.3149
 5158SOL    HW116373   5.076   5.486   0.133  1.4304 -0.2282 -1.7177
 5158SOL    HW216374   4.932   5.415   0.160  1.5356  0.5493  1.3184
 5159SOL     OW16375   5.557   4.149   2.378  0.1182 -0.0977 -0.0519
 5159SOL    HW116376   5.465   4.187   2.379  0.2812  0.2889  0.3102
 5159SOL    HW216377   5.568   4.085   2.454 -0.3651 -1.3850 -1.0402
 5160SOL     OW16378   1.642   4.414   5.436 -0.2468 -0.4533  0.0428
 5160SOL    HW116379   1.608   4.433   5.344 -1.4421  0.2454  0.5956
 5160SOL    HW216380   1.646   4.315   5.450  1.1021 -0.6022 -1.1432
 5161SOL     OW16381   4.200   6.682   1.316  0.5333  0.5101 -0.3520
 5161SOL    HW116382   4.152   6.754   1.266  1.9881  0.6602 -1.6088
 5161SOL    HW216383   4.253   6.723   1.390 -1.8204  0.2640  1.5931
 5162SOL     OW16384   3.464   4.880   6.928 -0.1060 -0.3098  0.2529
 5162SOL    HW116385   3.474   4.862   7.026  1.6792 -0.9744 -0.0174
 5162SOL    HW216386   3.505   4.968   6.905 -0.3577 -0.2390  0.0579
 5163SOL     OW16387   0.237   4.972   1.055  1.0578  0.5357  0.1970
 5163SOL    HW116388   0.243   4.979   0.955  0.1194 -0.0170  0.0939
 5163SOL    HW216389   0.152   5.013   1.086  0.5771 -0.7311  0.6086
 5164SOL     OW16390   0.396   6.031   3.208 -0.1139  0.1885 -0.3064
 5164SOL    HW116391   0.427   5.937   3.193  0.3644  0.6035 -2.2724
 5164SOL    HW216392   0.476   6.091   3.217 -0.3932  0.2201  2.7137
 5165SOL     OW16393   4.806   5.697   1.770  0.8283 -0.2118 -0.1067
 5165SOL    HW116394   4.872   5.734   1.835 -0.1871  0.2149  0.7147
 5165SOL    HW216395   4.741   5.769   1.745  2.1087  0.1383 -2.8752
 5166SOL     OW16396   0.687   1.577   0.741  0.1141  0.6158  0.2755
 5166SOL    HW116397   0.603   1.622   0.710  0.4298  0.4054 -0.9514
 5166SOL    HW216398   0.742   1.643   0.792 -0.6276  0.8560  0.7805
 5167SOL     OW16399   0.801   5.180   1.875  0.3251  0.2834  0.4606
 5167SOL    HW116400   0.719   5.123   1.870  0.6299 -0.1247 -0.0462
 5167SOL    HW216401   0.775   5.275   1.892 -0.3215  0.3235 -0.6399
 5168SOL     OW16402   1.163   3.161   0.879  0.2275  0.0883  0.3485
 5168SOL    HW116403   1.253   3.122   0.857 -0.3243 -0.6226 -0.7311
 5168SOL    HW216404   1.103   3.088   0.912 -1.1155 -0.2673 -2.5815
 5169SOL     OW16405   5.851   0.367   3.108  0.2573  0.2567  0.3783
 5169SOL    HW116406   5.845   0.295   3.176  0.6323  0.2171  0.3722
 5169SOL    HW216407   5.798   0.341   3.027  1.8876 -0.8746 -0.3794
 5170SOL     OW16408   0.073   3.840   4.004  0.1632 -0.6180  0.4448
 5170SOL    HW116409   0.109   3.749   4.021  0.9621 -0.2393  0.8339
 5170SOL    HW216410  -0.027   3.839   4.012  0.1112 -1.5879 -0.2216
 5171SOL     OW16411   1.565   1.179   2.439  0.1544 -0.1279 -0.0657
 5171SOL    HW116412   1.618   1.146   2.360  1.1710 -1.1141  0.9958
 5171SOL    HW216413   1.511   1.103   2.476 -2.4785  0.9544 -1.4134
 5172SOL     OW16414   6.657   1.591   6.568 -0.0614  0.3914  0.1843
 5172SOL    HW116415   6.675   1.535   6.488  0.6387  0.9835 -0.0845
 5172SOL    HW216416   6.675   1.538   6.651  0.2861  0.1180 -0.0652
 5173SOL     OW16417   0.669   2.107   6.697  0.0808  0.2862 -0.2043
 5173SOL    HW116418   0.672   2.039   6.770  0.5285 -2.0178 -2.2404
 5173SOL    HW216419   0.588   2.093   6.641 -0.7516  2.6066  0.2865
 5174SOL     OW16420   3.562   3.420   4.200 -0.3102  0.4225  0.2868
 5174SOL    HW116421   3.649   3.463   4.175 -0.7865  0.8656 -0.6624
 5174SOL    HW216422   3.504   3.486   4.248 -0.0929  0.0920  1.0267
 5175SOL     OW16423   0.350   5.009   0.112  0.2122 -0.5664 -0.5479
 5175SOL    HW116424   0.269   5.062   0.136  1.3848  0.5350  1.2498
 5175SOL    HW216425   0.395   5.051   0.033  0.8178  0.8749  0.5081
 5176SOL     OW16426   4.324   1.533   4.393  0.4676  0.4367  0.3388
 5176SOL    HW116427   4.233   1.563   4.420 -0.7560 -2.0940 -0.6892
 5176SOL    HW216428   4.365   1.481   4.468  1.2448  1.8068  0.9059
 5177SOL     OW16429   4.257   6.187   1.966 -0.0697 -0.4896 -0.0330
 5177SOL    HW116430   4.166   6.222   1.941 -0.5874 -1.7978 -0.1241
 5177SOL    HW216431   4.260   6.089   1.945  1.9267 -0.1501 -1.5406
 5178SOL     OW16432   2.034   5.742   3.948 -0.1995  0.1727 -0.1818
 5178SOL    HW116433   1.977   5.823   3.955  0.9303  0.9323  0.5650
 5178SOL    HW216434   2.059   5.710   4.040  0.4857 -0.1975 -0.4816
 5179SOL     OW16435   3.271   2.104   4.341 -0.0255 -0.2419 -0.4550
 5179SOL    HW116436   3.345   2.128   4.278 -0.2584 -2.7582 -1.8589
 5179SOL    HW216437   3.309   2.082   4.430  1.0656 -1.9217 -1.2701
 5180SOL     OW16438   0.901   0.208   6.494 -0.1997  0.9102  0.4146
 5180SOL    HW116439   0.961   0.131   6.517 -0.1622  1.3630  1.9635
 5180SOL    HW216440   0.859   0.193   6.405 -0.5242 -1.1177  0.8711
 5181SOL     OW16441   5.977   3.646   6.729  0.9113  0.3571 -0.1521
 5181SOL    HW116442   5.897   3.612   6.680  0.7564 -0.4610  0.6480
 5181SOL    HW216443   5.953   3.731   6.776  0.4232 -0.0405  0.3251
 5182SOL     OW16444   0.638   2.452   3.696  0.3877 -0.4059  1.0733
 5182SOL    HW116445   0.626   2.515   3.619  1.2483 -0.1058  1.1728
 5182SOL    HW216446   0.662   2.504   3.778  1.1039 -0.8640  1.1579
 5183SOL     OW16447   3.217   6.760   5.602  0.7585  0.6371  0.5695
 5183SOL    HW116448   3.247   6.769   5.507  0.3541 -1.2198  0.2309
 5183SOL    HW216449   3.275   6.694   5.649 -1.1466 -1.0877  0.6094
 5184SOL     OW16450   6.753   1.367   6.348 -0.6722  0.1337  0.3742
 5184SOL    HW116451   6.734   1.299   6.418 -1.8892 -1.1070 -1.0914
 5184SOL    HW216452   6.848   1.398   6.356  0.0637 -2.0682  0.8252
 5185SOL     OW16453   0.366   6.821   1.041  0.1996 -0.2889  0.6764
 5185SOL    HW116454   0.292   6.765   1.078  1.6882 -3.2276 -0.4894
 5185SOL    HW216455   0.447   6.812   1.099  0.6623  0.1991  0.1193
 5186SOL     OW16456   2.687   0.483   6.766  0.2291  0.5550  0.0309
 5186SOL    HW116457   2.710   0.548   6.694 -1.4141 -0.4827 -1.4904
 5186SOL    HW216458   2.615   0.521   6.824 -1.0319 -0.0025 -1.1124
 5187SOL     OW16459   2.079   5.614   1.080  0.3977  0.2073  0.4740
 5187SOL    HW116460   2.120   5.687   1.024 -0.2741 -0.8542 -1.4985
 5187SOL    HW216461   1.980   5.612   1.064  0.2423 -0.3299  1.4746
 5188SOL     OW16462   5.163   5.088   2.479  0.0170 -0.2407 -0.0680
 5188SOL    HW116463   5.156   5.178   2.523  2.2096 -0.3562  0.6271
 5188SOL    HW216464   5.108   5.022   2.530 -1.6916  0.6694 -0.6341
 5189SOL     OW16465   2.842   3.640   0.920  0.3186  0.2043 -0.1402
 5189SOL    HW116466   2.754   3.676   0.888 -0.1117  0.8125  1.6028
 5189SOL    HW216467   2.889   3.594   0.845 -1.1360  0.5519 -1.3028
 5190SOL     OW16468   0.986   6.604   4.295 -0.0361 -0.8184  0.0624
 5190SOL    HW116469   0.979   6.538   4.370  0.4755 -0.2167  0.6504
 5190SOL    HW216470   0.931   6.572   4.217 -2.4781 -0.3002  1.4839
 5191SOL     OW16471   3.620   3.659   5.377  0.2029 -0.2187 -0.9647
 5191SOL    HW116472   3.531   3.637   5.338  0.1128  3.8056 -3.6115
 5191SOL    HW216473   3.692   3.621   5.319  0.1172  0.5412 -1.5851
 5192SOL     OW16474   6.658   1.716   4.923  0.1404  0.3012 -0.2809
 5192SOL    HW116475   6.639   1.802   4.970  1.3770 -0.2385  1.2604
 5192SOL    HW216476   6.755   1.711   4.899  0.0872 -0.6683 -0.3358
 5193SOL     OW16477   5.279   4.738   3.766 -0.4656 -0.6546 -0.2628
 5193SOL    HW116478   5.259   4.658   3.711  0.9163 -1.1434 -0.0970
 5193SOL    HW216479   5.256   4.821   3.715 -0.4565 -1.1237 -1.0370
 5194SOL     OW16480   6.668   2.254   2.102 -0.3865 -0.3967 -0.1431
 5194SOL    HW116481   6.689   2.245   2.005 -0.3330  1.6003 -0.3567
 5194SOL    HW216482   6.743   2.218   2.156  0.6371  0.5813 -0.8715
 5195SOL     OW16483   5.402   6.955   4.108 -0.1463  0.6429  0.3410
 5195SOL    HW116484   5.500   6.960   4.125  0.1261  0.8467 -1.1092
 5195SOL    HW216485   5.352   6.986   4.189  1.0707  4.1272 -0.0614
 5196SOL     OW16486   2.337   3.037   1.608 -0.0371 -0.1034 -0.5399
 5196SOL    HW116487   2.264   3.038   1.676  2.3743  1.2736  2.2092
 5196SOL    HW216488   2.386   3.124   1.610  2.6855 -1.5196 -1.1566
 5197SOL     OW16489   4.883   4.602   6.201 -0.2823 -0.3397  0.5060
 5197SOL    HW116490   4.807   4.551   6.240 -0.1299 -2.0322 -1.2896
 5197SOL    HW216491   4.849   4.686   6.158 -1.1767 -1.0959 -0.2991
 5198SOL     OW16492   6.190   6.528   3.229 -0.7683 -0.0710 -0.0568
 5198SOL    HW116493   6.140   6.587   3.166  0.3841  0.1149 -0.8237
 5198SOL    HW216494   6.159   6.434   3.218  0.6754 -0.3747 -2.3084
 5199SOL     OW16495   4.449   4.791   0.679  0.1293 -0.4145 -0.3050
 5199SOL    HW116496   4.394   4.857   0.731  0.8885  1.0681 -1.3079
 5199SOL    HW216497   4.400   4.704   0.672  0.2098 -0.8693  3.2626
 5200SOL     OW16498   5.217   5.767   3.949 -0.3468 -0.0482  0.5078
 5200SOL    HW116499   5.136   5.772   3.891 -0.4278  0.9578  0.6887
 5200SOL    HW216500   5.195   5.801   4.041 -0.2693 -1.7890  1.2013
 5201SOL     OW16501   1.895   5.122   1.616 -0.2477 -0.0919 -0.4393
 5201SOL    HW116502   1.959   5.196   1.595  0.6811 -0.7727 -0.0970
 5201SOL    HW216503   1.882   5.065   1.534 -1.1855  0.5980 -0.7845
 5202SOL     OW16504   5.725   1.967   5.799 -0.0575  0.1264 -0.8517
 5202SOL    HW116505   5.699   1.943   5.892  0.7371  3.3360  0.3453
 5202SOL    HW216506   5.649   1.948   5.736 -0.8171 -1.5473  0.5088
 5203SOL     OW16507   3.824   0.322   6.055 -0.0492 -0.1186  0.9089
 5203SOL    HW116508   3.839   0.340   5.958 -0.2227  0.4782  0.9899
 5203SOL    HW216509   3.909   0.288   6.096  0.1892  0.1767  0.6678
 5204SOL     OW16510   0.651   0.668   5.572 -0.1389 -0.1269  0.3568
 5204SOL    HW116511   0.719   0.667   5.645 -1.2469  0.3688  1.4390
 5204SOL    HW216512   0.685   0.720   5.494  0.3556  0.9278  1.2605
 5205SOL     OW16513   2.820   3.261   0.583 -0.1191 -0.7548 -0.4597
 5205SOL    HW116514   2.888   3.211   0.529  1.8358  3.1103 -1.9499
 5205SOL    HW216515   2.733   3.263   0.534  0.3587 -1.0078 -1.3411
 5206SOL     OW16516   0.682   5.783   4.605 -0.5539  0.8090 -0.0300
 5206SOL    HW116517   0.658   5.835   4.687 -0.0302  0.9535  0.0371
 5206SOL    HW216518   0.757   5.720   4.627 -0.9802  0.2353 -0.1860
 5207SOL     OW16519   1.104   4.367   4.293 -0.5962  0.1540  0.4422
 5207SOL    HW116520   1.062   4.429   4.227  0.8097  0.3998 -0.2460
 5207SOL    HW216521   1.140   4.420   4.370 -0.2376  0.0930  0.3157
 5208SOL     OW16522   0.422   6.631   3.128 -0.1140 -0.4167  0.2749
 5208SOL    HW116523   0.398   6.701   3.195  0.7292 -0.5809  0.7690
 5208SOL    HW216524   0.508   6.655   3.084 -0.4434 -0.5313 -0.4425
 5209SOL     OW16525   1.566   4.246   0.272 -0.1859  0.1089 -0.0206
 5209SOL    HW116526   1.571   4.336   0.230  0.7934 -0.1539 -0.4922
 5209SOL    HW216527   1.607   4.249   0.364 -0.2609  0.1661  0.0110
 5210SOL     OW16528   0.529   6.733   1.570 -0.7570  0.2038 -0.6635
 5210SOL    HW116529   0.570   6.645   1.592  1.4291  1.3765  0.3420
 5210SOL    HW216530   0.439   6.720   1.529 -0.5414 -2.4528 -0.4072
 5211SOL     OW16531   0.342   3.423   6.858 -0.4695  0.0196 -0.5216
 5211SOL    HW116532   0.412   3.480   6.900 -0.2225 -1.4943  1.2464
 5211SOL    HW216533   0.371   3.396   6.766  1.2912 -0.5422  0.1525
 5212SOL     OW16534   2.436   6.084   5.627 -0.1170  0.1238  0.8225
 5212SOL    HW116535   2.414   6.158   5.563  0.2657 -0.9198 -0.5474
 5212SOL    HW216536   2.440   6.121   5.720 -3.6671  1.1704  0.7173
 5213SOL     OW16537   6.676   1.251   1.923 -0.3539  0.2243 -0.6087
 5213SOL    HW116538   6.725   1.170   1.891 -2.0560  0.0839 -3.1605
 5213SOL    HW216539   6.577   1.235   1.916 -0.7905  1.5027  1.6912
 5214SOL     OW16540   3.946   6.469   6.195 -0.0743 -0.7522 -0.0098
 5214SOL    HW116541   3.959   6.488   6.098  1.0591 -2.8951 -0.3498
 5214SOL    HW216542   4.030   6.492   6.245 -0.6732  0.3954  0.4939
 5215SOL     OW16543   1.584   0.648   5.694  0.2121 -0.0599  0.3884
 5215SOL    HW116544   1.602   0.607   5.605  1.4047 -0.2621  0.7084
 5215SOL    HW216545   1.585   0.748   5.686 -1.8000 -0.0325 -0.2119
 5216SOL     OW16546   3.220   5.654   5.038 -0.3794  0.3517  0.1665
 5216SOL    HW116547   3.257   5.665   5.131  0.2190  0.7299 -0.1104
 5216SOL    HW216548   3.123   5.678   5.039 -0.1243  1.4837  0.4829
 5217SOL     OW16549   2.901   3.677   4.073  0.0368 -0.0688 -0.4443
 5217SOL    HW116550   2.921   3.606   4.005  0.5588 -1.6080  1.2382
 5217SOL    HW216551   2.926   3.766   4.035 -3.3064 -0.2957 -3.7338
 5218SOL     OW16552   2.939   0.727   4.600  0.9477  0.1949  0.2763
 5218SOL    HW116553   2.855   0.682   4.570  0.6443  1.8315 -1.5214
 5218SOL    HW216554   2.922   0.825   4.613  2.4731  0.4858  0.3096
 5219SOL     OW16555   4.803   3.942   2.772  0.4608 -0.5631 -0.6792
 5219SOL    HW116556   4.819   4.016   2.706  2.9878  0.5811  1.0487
 5219SOL    HW216557   4.738   3.877   2.734  0.5182  0.9060 -3.5681
 5220SOL     OW16558   1.460   4.112   6.629  1.1170 -0.0421  0.0277
 5220SOL    HW116559   1.483   4.182   6.561  0.9669  0.2639  0.2911
 5220SOL    HW216560   1.458   4.022   6.584 -0.5959  0.3369 -0.7451
 5221SOL     OW16561   5.089   0.815   2.990  0.3830  0.3231  0.2302
 5221SOL    HW116562   5.065   0.745   3.057  1.3672 -0.5315 -0.2866
 5221SOL    HW216563   5.149   0.776   2.921 -1.6835  0.7868 -1.9849
 5222SOL     OW16564   4.071   6.815   2.748 -0.7096 -0.1490 -0.5931
 5222SOL    HW116565   4.139   6.751   2.782  0.0069  0.9062  0.0325
 5222SOL    HW216566   3.979   6.784   2.773 -0.4686 -1.5327 -1.3554
 5223SOL     OW16567   4.147   1.584   6.660 -0.0292 -0.0531  0.0900
 5223SOL    HW116568   4.073   1.641   6.625  0.4900  0.4264 -0.2499
 5223SOL    HW216569   4.116   1.489   6.667 -1.2570  0.4213  1.6730
 5224SOL     OW16570   3.723   2.797   0.510  0.0473 -0.2501  0.3745
 5224SOL    HW116571   3.779   2.714   0.508 -0.7251 -0.7919  0.3529
 5224SOL    HW216572   3.747   2.852   0.590  1.0069 -0.1775  0.0434
 5225SOL     OW16573   4.381   0.798   5.522  0.3338  0.2160 -0.0605
 5225SOL    HW116574   4.471   0.807   5.564  0.5478  1.6055 -0.7321
 5225SOL    HW216575   4.338   0.888   5.517 -0.5599 -0.2398 -0.8847
 5226SOL     OW16576   6.409   5.817   1.142  0.4128 -0.1544  0.0808
 5226SOL    HW116577   6.430   5.735   1.196  1.5320 -0.1386 -0.3217
 5226SOL    HW216578   6.333   5.797   1.080  0.3512 -0.7293  0.3311
 5227SOL     OW16579   0.191   6.629   0.098  0.3643 -0.2188 -0.0953
 5227SOL    HW116580   0.270   6.679   0.133  0.5435 -0.6041  0.0650
 5227SOL    HW216581   0.138   6.687   0.037  0.5042  0.1989  0.1808
 5228SOL     OW16582   7.005   6.965   6.788  0.0544  0.0704  0.6192
 5228SOL    HW116583   6.914   6.994   6.817 -0.0730 -0.0131  0.3024
 5228SOL    HW216584   7.011   6.967   6.688  0.9295  1.7203  0.6551
 5229SOL     OW16585   3.216   6.381   2.299  0.1249  0.2906  0.4405
 5229SOL    HW116586   3.130   6.380   2.350 -0.5474  0.3567 -0.6733
 5229SOL    HW216587   3.200   6.410   2.205  0.5390 -3.9646 -1.2012
 5230SOL     OW16588   2.181   4.566   1.143  0.4692  0.5474 -0.8170
 5230SOL    HW116589   2.223   4.581   1.232 -0.2543  1.5219 -0.6222
 5230SOL    HW216590   2.245   4.592   1.071  1.3055 -0.8773 -0.6262
 5231SOL     OW16591   4.563   0.959   4.553  0.1564  0.0498  0.3969
 5231SOL    HW116592   4.585   0.975   4.457 -1.5850  0.3253  0.0090
 5231SOL    HW216593   4.523   0.868   4.564 -1.2181  0.6452  0.5474
 5232SOL     OW16594   3.112   5.207   6.594 -0.3301 -0.0188 -0.0274
 5232SOL    HW116595   3.153   5.129   6.546  0.9681  0.5233  0.1820
 5232SOL    HW216596   3.167   5.230   6.674 -2.1964 -0.5992  1.4975
 5233SOL     OW16597   3.142   1.897   4.809  0.0748 -0.5388  0.2964
 5233SOL    HW116598   3.058   1.918   4.759  1.5591 -1.2007 -2.6874
 5233SOL    HW216599   3.128   1.814   4.863 -0.4405 -2.4309 -2.5279
 5234SOL     OW16600   5.892   1.924   0.502  0.1694 -0.4012 -0.1248
 5234SOL    HW116601   5.800   1.930   0.465  0.4520  0.1723 -0.7658
 5234SOL    HW216602   5.938   1.842   0.466 -0.5559 -1.4913  1.3256
 5235SOL     OW16603   3.367   6.460   4.797 -0.3834 -0.4805 -0.1281
 5235SOL    HW116604   3.400   6.432   4.887  1.9648 -0.9214 -1.0559
 5235SOL    HW216605   3.428   6.530   4.759 -0.2918 -1.5424 -2.0736
 5236SOL     OW16606   1.965   5.998   1.431  0.1662  0.6548 -0.0137
 5236SOL    HW116607   2.014   5.963   1.351  0.4152  1.9075 -0.4252
 5236SOL    HW216608   1.928   5.921   1.483 -1.9742 -0.1723 -2.5488
 5237SOL     OW16609   5.499   4.331   0.485 -0.4502 -0.2727 -0.1522
 5237SOL    HW116610   5.563   4.407   0.494 -0.5918  0.1288 -2.0727
 5237SOL    HW216611   5.413   4.365   0.448  0.1834 -1.5873 -3.1197
 5238SOL     OW16612   6.006   6.282   6.648  0.3092 -0.1652 -0.6770
 5238SOL    HW116613   6.017   6.312   6.743 -1.0976  0.7300 -0.7696
 5238SOL    HW216614   6.095   6.283   6.602  0.8077  0.6533  0.2674
 5239SOL     OW16615   6.088   3.242   6.599 -0.2073  0.2673  0.7871
 5239SOL    HW116616   6.140   3.323   6.627 -0.8591  1.2261 -0.6329
 5239SOL    HW216617   6.129   3.204   6.516 -0.5537 -0.1948  0.8285
 5240SOL     OW16618   6.464   6.857   0.771 -0.1420 -0.2313 -0.0560
 5240SOL    HW116619   6.376   6.859   0.722  0.5153 -1.4483 -1.3440
 5240SOL    HW216620   6.538   6.872   0.706  0.6243  0.8241  1.0352
 5241SOL     OW16621   0.061   6.919   1.652 -0.1355  0.3828 -0.3374
 5241SOL    HW116622   0.154   6.954   1.651 -0.2174  0.6739  1.0327
 5241SOL    HW216623   0.037   6.890   1.745 -1.1143 -0.4898 -0.8425
 5242SOL     OW16624   0.679   4.573   5.621 -0.0266  0.2667 -0.4689
 5242SOL    HW116625   0.607   4.623   5.669  1.4383  1.4940  0.5321
 5242SOL    HW216626   0.739   4.528   5.687  0.5370 -0.1650 -1.2544
 5243SOL     OW16627   2.676   6.717   6.064 -0.7157 -0.4133 -0.0767
 5243SOL    HW116628   2.698   6.698   6.160  1.1750  0.8143 -0.2176
 5243SOL    HW216629   2.617   6.644   6.029 -0.3908 -1.5719  1.6439
 5244SOL     OW16630   2.663   3.185   6.909  0.1244 -0.6420 -0.6378
 5244SOL    HW116631   2.759   3.182   6.879  0.1905 -0.3262 -0.4658
 5244SOL    HW216632   2.651   3.261   6.973 -0.4481 -0.0845 -1.3854
 5245SOL     OW16633   6.716   2.009   4.788 -0.3861 -0.1910 -0.2218
 5245SOL    HW116634   6.723   2.109   4.797  1.3664 -0.4422  2.0390
 5245SOL    HW216635   6.749   1.982   4.698 -1.0467  1.2552 -0.9397
 5246SOL     OW16636   5.586   5.088   6.675  0.0404 -0.3444 -0.7795
 5246SOL    HW116637   5.592   5.079   6.775  0.9683 -1.5167 -0.9141
 5246SOL    HW216638   5.495   5.122   6.650  0.1965  1.1527  0.5150
 5247SOL     OW16639   0.193   4.096   4.098 -0.2646  0.2691  0.2046
 5247SOL    HW116640   0.135   4.015   4.109  0.7102 -0.4759  0.0165
 5247SOL    HW216641   0.258   4.101   4.173  0.8288 -0.1194 -0.6777
 5248SOL     OW16642   5.752   3.240   1.094 -0.3647  0.0408  0.4037
 5248SOL    HW116643   5.824   3.309   1.100 -0.4883  0.2646 -0.4195
 5248SOL    HW216644   5.675   3.278   1.042 -1.7480  0.3538  2.5926
 5249SOL     OW16645   5.050   4.711   4.142  0.0684  0.4719  0.0957
 5249SOL    HW116646   5.042   4.693   4.240 -0.3190 -0.5694 -0.1123
 5249SOL    HW216647   5.133   4.668   4.106 -0.8231 -0.9196 -0.3932
 5250SOL     OW16648   1.747   1.334   5.415  0.8234 -0.3821  0.5553
 5250SOL    HW116649   1.675   1.275   5.448 -0.1573 -0.4078 -1.4803
 5250SOL    HW216650   1.786   1.386   5.492 -1.2246 -0.4787  1.7239
 5251SOL     OW16651   4.511   1.831   6.669  0.1791  0.6256  0.2925
 5251SOL    HW116652   4.510   1.738   6.706  1.0482  0.2422 -0.6044
 5251SOL    HW216653   4.578   1.886   6.721 -0.4081  0.7881  0.8883
 5252SOL     OW16654   3.491   1.108   2.451 -0.0525  0.2271  0.0404
 5252SOL    HW116655   3.531   1.169   2.382  0.3908 -0.9346 -0.7615
 5252SOL    HW216656   3.399   1.080   2.420  0.5261 -1.0730 -0.6105
 5253SOL     OW16657   6.462   5.967   5.667 -0.3588  0.2425  0.5023
 5253SOL    HW116658   6.547   6.008   5.635  0.3570 -0.8371  0.9486
 5253SOL    HW216659   6.431   6.012   5.751  0.0098  0.3509  0.5774
 5254SOL     OW16660   1.894   1.471   4.228  0.1464  0.1465  0.2324
 5254SOL    HW116661   1.935   1.480   4.319 -0.9058  1.4811  0.6145
 5254SOL    HW216662   1.913   1.380   4.191 -0.5414 -0.9316  2.3662
 5255SOL     OW16663   3.195   4.685   0.830  0.5488  0.0868 -0.5751
 5255SOL    HW116664   3.295   4.689   0.826  0.4948  0.3324 -3.3231
 5255SOL    HW216665   3.165   4.590   0.819  0.4435  0.0834 -0.2846
 5256SOL     OW16666   1.033   4.919   0.499 -0.2242  0.4725  0.2679
 5256SOL    HW116667   1.077   4.934   0.587  0.1175  1.8099 -0.1119
 5256SOL    HW216668   0.957   4.855   0.510 -0.3441  0.8216  1.5686
 5257SOL     OW16669   5.768   5.053   6.234  0.4855 -0.1245  0.5751
 5257SOL    HW116670   5.811   5.050   6.324 -0.4427 -1.4747  0.9918
 5257SOL    HW216671   5.789   5.141   6.190  2.5252 -0.1903  1.3038
 5258SOL     OW16672   2.050   2.901   0.446  0.0089  0.3198  0.3387
 5258SOL    HW116673   2.132   2.902   0.388  0.0721  0.4000  0.4276
 5258SOL    HW216674   1.971   2.929   0.392 -0.0808 -0.4225  0.0796
 5259SOL     OW16675   5.701   3.226   5.115 -0.2609 -0.2508  0.3810
 5259SOL    HW116676   5.657   3.277   5.041 -0.4727 -0.7827  0.1393
 5259SOL    HW216677   5.635   3.166   5.159  0.0280 -0.4386  0.5638
 5260SOL     OW16678   4.764   2.942   5.621 -0.5556  0.0838  0.1229
 5260SOL    HW116679   4.691   2.912   5.559 -0.9590 -0.3675  0.8000
 5260SOL    HW216680   4.733   2.934   5.715 -0.0502  1.0501  0.3794
 5261SOL     OW16681   1.815   0.272   5.656 -0.2834 -0.2242  0.5171
 5261SOL    HW116682   1.800   0.282   5.558 -3.3400  4.0203  1.1464
 5261SOL    HW216683   1.894   0.328   5.684 -0.0689 -0.5703  0.6067
 5262SOL     OW16684   1.341   6.679   1.396  0.0062  0.8019 -0.0327
 5262SOL    HW116685   1.321   6.773   1.368  1.4357  1.3363  0.6576
 5262SOL    HW216686   1.341   6.619   1.316  1.6248  1.8639 -0.8846
 5263SOL     OW16687   3.794   2.531   6.887  0.2163  0.7501  0.3247
 5263SOL    HW116688   3.724   2.602   6.874 -0.5419 -0.0833 -0.2462
 5263SOL    HW216689   3.884   2.573   6.882  0.0352  1.1160 -4.9166
 5264SOL     OW16690   6.777   3.683   6.808 -0.0643 -0.0921  0.5937
 5264SOL    HW116691   6.832   3.602   6.832  0.1336  0.2408  1.2836
 5264SOL    HW216692   6.744   3.727   6.891  0.5514  1.0361  0.2600
 5265SOL     OW16693   5.012   3.696   6.471 -0.2231 -0.0366 -0.4600
 5265SOL    HW116694   4.953   3.777   6.474  0.4313  0.6955 -3.5684
 5265SOL    HW216695   4.958   3.617   6.441 -0.1717  0.0485 -0.7836
 5266SOL     OW16696   5.824   4.633   0.424  0.3269 -0.4214  0.5117
 5266SOL    HW116697   5.885   4.580   0.365 -0.0002 -0.3148  0.0725
 5266SOL    HW216698   5.784   4.573   0.492  1.8702 -0.2680  1.6084
 5267SOL     OW16699   2.635   3.067   6.522  0.0026 -0.7068 -0.2827
 5267SOL    HW116700   2.629   3.153   6.573  0.3003 -1.0753  0.3807
 5267SOL    HW216701   2.711   3.072   6.457  0.1204 -0.5327 -0.1313
 5268SOL     OW16702   1.085   5.506   2.718 -0.3882  0.1284  0.3070
 5268SOL    HW116703   1.067   5.407   2.718  1.3178 -0.2173 -0.5423
 5268SOL    HW216704   1.029   5.550   2.648 -1.4769 -0.1467  0.9789
 5269SOL     OW16705   6.953   1.972   4.308  0.1624 -0.2820  0.3617
 5269SOL    HW116706   6.913   2.062   4.290  0.7663  0.2891  1.7264
 5269SOL    HW216707   7.039   1.963   4.257  0.7744  0.4680  1.2157
 5270SOL     OW16708   5.409   2.855   3.690  0.0570  0.2098 -0.3693
 5270SOL    HW116709   5.445   2.773   3.734 -1.7585  0.3675  1.5181
 5270SOL    HW216710   5.449   2.936   3.732  1.1886  0.3496 -1.6466
 5271SOL     OW16711   2.683   4.785   3.344  0.0411 -0.2139 -0.2054
 5271SOL    HW116712   2.639   4.793   3.255  1.7356 -0.3888 -1.0941
 5271SOL    HW216713   2.769   4.836   3.344 -1.4239  2.6191  2.4121
 5272SOL     OW16714   2.038   4.555   0.839 -0.5163 -0.2771  0.4777
 5272SOL    HW116715   2.127   4.598   0.856  0.7271 -2.0281 -1.0782
 5272SOL    HW216716   2.019   4.489   0.912 -0.5629  0.1356  0.8411
 5273SOL     OW16717   6.247   4.734   6.560 -0.0757 -0.5564  0.0076
 5273SOL    HW116718   6.173   4.781   6.608  1.8933  1.2093  1.5115
 5273SOL    HW216719   6.332   4.786   6.570  1.7695 -3.2831 -0.2952
 5274SOL     OW16720   6.453   1.662   3.799  0.0218  0.3502  0.1314
 5274SOL    HW116721   6.435   1.604   3.878 -0.6587 -1.3946 -1.2415
 5274SOL    HW216722   6.374   1.722   3.784 -0.5818 -0.5080 -0.2004
 5275SOL     OW16723   0.558   5.681   0.359 -0.3904  0.6053  0.4769
 5275SOL    HW116724   0.498   5.749   0.399  1.0266  0.6655  2.7067
 5275SOL    HW216725   0.624   5.650   0.429  0.6335 -1.1595 -1.1798
 5276SOL     OW16726   1.715   0.700   3.451 -0.2045  0.1186  0.1495
 5276SOL    HW116727   1.770   0.670   3.528  1.2662 -0.4257 -1.0542
 5276SOL    HW216728   1.649   0.769   3.481  1.0493  0.6989  1.6903
 5277SOL     OW16729   0.927   0.610   3.832 -0.1213 -0.6372 -0.1933
 5277SOL    HW116730   0.885   0.633   3.744 -1.4094 -0.6177  0.3949
 5277SOL    HW216731   0.920   0.511   3.847 -0.4323 -0.5677  0.1356
 5278SOL     OW16732   4.443   1.045   4.931  0.2006  0.0887 -0.6857
 5278SOL    HW116733   4.508   1.079   4.863 -0.3925  0.9861 -0.8284
 5278SOL    HW216734   4.365   1.108   4.937 -0.2615 -0.5315  0.0707
 5279SOL     OW16735   0.957   0.056   3.029  0.4503 -0.6553 -0.0007
 5279SOL    HW116736   0.904   0.089   2.951  2.4480  2.4597 -0.2091
 5279SOL    HW216737   0.895   0.031   3.104 -1.4122 -1.7860 -1.8279
 5280SOL     OW16738   2.325   0.974   0.568 -0.8152  0.0251  0.4987
 5280SOL    HW116739   2.307   1.045   0.500 -1.4824  0.7402  1.4138
 5280SOL    HW216740   2.311   0.884   0.526  1.9764  0.2687 -1.2941
 5281SOL     OW16741   0.407   4.695   0.915  0.0907  0.0882  0.2231
 5281SOL    HW116742   0.362   4.695   0.826 -0.6964  0.7276  0.6122
 5281SOL    HW216743   0.347   4.655   0.983  0.0034  1.1566  0.7931
 5282SOL     OW16744   1.754   6.893   3.767 -0.2913 -0.5052  0.5348
 5282SOL    HW116745   1.754   6.810   3.822  2.0013 -1.2254 -0.4164
 5282SOL    HW216746   1.687   6.884   3.693 -0.6019 -1.1674  0.8919
 5283SOL     OW16747   0.029   3.503   3.528  0.3099 -0.0957 -0.1590
 5283SOL    HW116748   0.065   3.412   3.549  2.0127  0.6625  0.4182
 5283SOL    HW216749  -0.006   3.505   3.435 -2.4035 -2.0888  0.7002
 5284SOL     OW16750   5.280   6.062   5.158  0.5082  0.1793 -0.2692
 5284SOL    HW116751   5.187   6.042   5.128  0.0714  0.5446  0.7652
 5284SOL    HW216752   5.288   6.043   5.256  1.1200  1.4778 -0.0408
 5285SOL     OW16753   0.439   4.873   3.849 -0.2052  0.1754 -0.0797
 5285SOL    HW116754   0.385   4.952   3.819 -1.1311  0.1395  1.4019
 5285SOL    HW216755   0.395   4.789   3.819 -0.2007  0.1847 -0.1123
 5286SOL     OW16756   2.432   4.405   4.435 -0.0312  0.2437 -0.0407
 5286SOL    HW116757   2.394   4.329   4.383  0.8694 -0.1692 -0.1081
 5286SOL    HW216758   2.408   4.394   4.532 -0.7337  0.4108 -0.1842
 5287SOL     OW16759   6.343   3.827   6.810 -0.3702  0.1176  0.1680
 5287SOL    HW116760   6.407   3.755   6.784  0.9972  1.6222 -0.8142
 5287SOL    HW216761   6.269   3.832   6.743  0.2525  0.4986 -0.4914
 5288SOL     OW16762   6.049   3.665   0.531 -0.3268  0.9044 -0.2000
 5288SOL    HW116763   6.034   3.738   0.598  2.9670  2.2141 -0.6766
 5288SOL    HW216764   6.015   3.695   0.442 -0.4816  1.1767 -0.0509
 5289SOL     OW16765   1.334   0.566   1.657 -0.1287 -0.0520  1.0950
 5289SOL    HW116766   1.359   0.662   1.669  1.4226 -0.3574  0.6350
 5289SOL    HW216767   1.282   0.555   1.572  2.3274  0.0238 -0.5252
 5290SOL     OW16768   0.816   1.604   6.824 -0.3001  0.2191 -0.2471
 5290SOL    HW116769   0.784   1.611   6.918  1.1674 -4.1444  0.8228
 5290SOL    HW216770   0.902   1.655   6.814 -1.5927  2.5899  0.0072
 5291SOL     OW16771   5.412   4.448   6.197  0.7510 -0.0298  0.2845
 5291SOL    HW116772   5.373   4.395   6.123 -1.8424  0.0076  1.5210
 5291SOL    HW216773   5.505   4.417   6.215  0.1276 -2.5449 -0.5448
 5292SOL     OW16774   6.509   1.812   4.126 -0.3411 -0.3072  0.0739
 5292SOL    HW116775   6.430   1.780   4.074  0.7645 -1.8715 -0.7330
 5292SOL    HW216776   6.564   1.874   4.069  0.2624 -1.1171 -0.2449
 5293SOL     OW16777   3.488   6.114   4.550 -0.2703 -0.4692  0.0207
 5293SOL    HW116778   3.441   6.034   4.512 -2.0609  0.0005  1.0945
 5293SOL    HW216779   3.543   6.086   4.629  0.9488 -0.9576 -0.9739
 5294SOL     OW16780   4.833   4.467   2.220  0.3724  0.4186 -0.2871
 5294SOL    HW116781   4.821   4.465   2.121 -0.6054 -0.2796 -0.1602
 5294SOL    HW216782   4.745   4.454   2.265  1.0728 -1.2726  0.6810
 5295SOL     OW16783   5.251   6.575   3.753  0.1925  0.6756  0.0207
 5295SOL    HW116784   5.290   6.654   3.800 -0.1533  0.3587  0.8660
 5295SOL    HW216785   5.278   6.576   3.657 -0.9826  2.6131 -0.3387
 5296SOL     OW16786   2.504   0.727   3.738 -0.0065  0.3211 -0.5041
 5296SOL    HW116787   2.502   0.632   3.707 -1.4833 -0.2599  1.1748
 5296SOL    HW216788   2.589   0.743   3.789 -0.7185 -0.8079  1.1282
 5297SOL     OW16789   4.793   5.556   3.217  0.1927  0.1885 -0.7358
 5297SOL    HW116790   4.809   5.654   3.203  1.3893  0.0471 -0.4872
 5297SOL    HW216791   4.731   5.543   3.294  2.8568  0.7097  1.6542
 5298SOL     OW16792   2.556   5.070   3.366  0.2616  0.2921 -0.4338
 5298SOL    HW116793   2.654   5.053   3.355  0.3295 -0.2373  0.7817
 5298SOL    HW216794   2.514   5.082   3.276  0.6614 -3.9369 -1.3891
 5299SOL     OW16795   4.344   3.350   6.602  0.3728 -0.2736  0.0651
 5299SOL    HW116796   4.256   3.330   6.558  1.0270  0.1574 -1.4862
 5299SOL    HW216797   4.328   3.407   6.683 -1.0540 -2.9257  1.7642
 5300SOL     OW16798   6.979   6.544   1.183 -0.2324 -0.0567 -0.8578
 5300SOL    HW116799   6.911   6.532   1.111 -0.8248 -3.5460  0.1134
 5300SOL    HW216800   6.934   6.574   1.267 -0.2349 -0.1670 -0.8191
 5301SOL     OW16801   4.183   4.957   2.838 -0.0822  0.0803  0.0513
 5301SOL    HW116802   4.226   4.869   2.863 -0.0076 -0.1128 -0.7319
 5301SOL    HW216803   4.138   4.996   2.919 -0.2989 -0.7817  0.3616
 5302SOL     OW16804   4.269   1.108   6.886  0.0220  0.7568 -0.3575
 5302SOL    HW116805   4.261   1.033   6.951 -0.0252  1.0349 -0.0396
 5302SOL    HW216806   4.197   1.099   6.816  0.9058 -0.2999 -1.1664
 5303SOL     OW16807   0.459   0.523   1.230 -0.1703 -0.3220 -0.2218
 5303SOL    HW116808   0.545   0.472   1.231  0.3170  0.4822  0.4906
 5303SOL    HW216809   0.411   0.510   1.317  0.1431  0.7154  0.1221
 5304SOL     OW16810   1.570   2.791   1.840  0.0734 -0.7751  0.6275
 5304SOL    HW116811   1.490   2.731   1.845 -0.8978  0.2900 -1.3011
 5304SOL    HW216812   1.645   2.743   1.794 -0.6243 -0.6427 -0.7025
 5305SOL     OW16813   3.860   2.171   5.693  0.2218 -0.3863 -0.7914
 5305SOL    HW116814   3.861   2.097   5.626 -2.0405 -1.6677  0.4665
 5305SOL    HW216815   3.939   2.163   5.753  1.5674  0.0090 -2.4432
 5306SOL     OW16816   6.025   6.310   0.925 -0.2949 -1.0230  0.4566
 5306SOL    HW116817   6.071   6.232   0.884  1.5059 -1.2619  2.6797
 5306SOL    HW216818   5.968   6.279   1.001 -1.5103 -0.3739 -0.1643
 5307SOL     OW16819   2.320   5.376   1.320  0.4021 -0.3586  0.3887
 5307SOL    HW116820   2.342   5.318   1.241 -0.0388  0.9814 -0.7471
 5307SOL    HW216821   2.310   5.318   1.401  3.3488 -1.5588  0.0485
 5308SOL     OW16822   5.592   2.622   0.127  0.1922  0.6488 -0.2588
 5308SOL    HW116823   5.499   2.655   0.142 -0.0740 -0.9574  2.1503
 5308SOL    HW216824   5.612   2.548   0.191  3.3396  1.3116 -0.3093
 5309SOL     OW16825   1.428   0.084   2.718  0.9860 -0.0149 -0.0742
 5309SOL    HW116826   1.383   0.012   2.666  0.5406  1.9624 -2.6305
 5309SOL    HW216827   1.372   0.107   2.798 -1.0487  0.3269 -1.5210
 5310SOL     OW16828   6.594   6.808   5.369  0.5106  0.3298 -0.3493
 5310SOL    HW116829   6.668   6.875   5.378  1.0250 -0.2498 -0.1486
 5310SOL    HW216830   6.531   6.837   5.297 -0.2746  1.9374  0.9231
 5311SOL     OW16831   2.911   0.460   3.655  0.0205 -0.0198 -0.3353
 5311SOL    HW116832   2.812   0.460   3.669 -0.0312 -1.2450 -0.5542
 5311SOL    HW216833   2.943   0.553   3.643 -1.0784  0.4121 -0.0451
 5312SOL     OW16834   3.442   5.299   0.890 -0.0838 -0.0118  0.2220
 5312SOL    HW116835   3.350   5.291   0.927 -0.1806  0.5136  0.1025
 5312SOL    HW216836   3.509   5.300   0.964 -0.2688  0.9461  0.3770
 5313SOL     OW16837   3.362   5.517   5.483 -0.1205 -0.6021 -0.1820
 5313SOL    HW116838   3.383   5.543   5.577  0.7018 -0.2695 -0.4504
 5313SOL    HW216839   3.399   5.427   5.463  1.4378  0.1361 -0.7658
 5314SOL     OW16840   4.916   6.665   0.671 -0.4164  0.0606 -0.2022
 5314SOL    HW116841   4.840   6.614   0.631  0.6672 -1.4604 -0.4193
 5314SOL    HW216842   4.941   6.625   0.759 -0.0745  0.7611  0.0326
 5315SOL     OW16843   5.522   1.672   3.386  0.1912  0.0207 -0.4014
 5315SOL    HW116844   5.591   1.604   3.363 -0.4091 -0.9525  0.5430
 5315SOL    HW216845   5.490   1.657   3.480 -0.1580  1.4456 -0.2618
 5316SOL     OW16846   6.736   3.654   4.190  0.5634 -0.0789  0.2414
 5316SOL    HW116847   6.678   3.644   4.271  0.6768 -0.2220  0.3036
 5316SOL    HW216848   6.802   3.728   4.205  0.0474  0.4510 -0.0346
 5317SOL     OW16849   3.926   0.306   2.587 -0.5722 -0.4692  0.1564
 5317SOL    HW116850   3.872   0.366   2.647 -1.7191 -0.8000 -0.5111
 5317SOL    HW216851   3.959   0.228   2.640 -0.0005  0.1844  0.7761
 5318SOL     OW16852   5.219   2.310   5.156 -0.4169 -0.2624 -0.1568
 5318SOL    HW116853   5.279   2.292   5.234 -2.0233  1.2174  1.5274
 5318SOL    HW216854   5.274   2.318   5.073  1.4055 -1.4556  0.8690
 5319SOL     OW16855   5.922   5.074   0.281 -0.2593  0.0195 -0.2042
 5319SOL    HW116856   5.869   4.989   0.276  0.6845 -0.6914  1.1295
 5319SOL    HW216857   5.913   5.113   0.373 -0.8731  1.5168 -0.8675
 5320SOL     OW16858   3.245   0.857   0.533 -0.1419 -0.0458 -0.2625
 5320SOL    HW116859   3.226   0.955   0.526 -0.4244 -0.1417 -0.8425
 5320SOL    HW216860   3.342   0.841   0.518  0.1674  0.2792  1.1825
 5321SOL     OW16861   5.408   0.566   6.737  0.4753  0.0426 -0.5600
 5321SOL    HW116862   5.483   0.556   6.672  1.0106  2.2273 -0.3609
 5321SOL    HW216863   5.426   0.643   6.798 -0.9437 -0.7187  0.9125
 5322SOL     OW16864   6.881   0.976   3.989  0.3472  0.1150  0.4037
 5322SOL    HW116865   6.857   1.070   3.966  0.1557  0.2044  0.9519
 5322SOL    HW216866   6.811   0.937   4.049  0.6801 -0.2016  0.5935
 5323SOL     OW16867   5.360   1.198   1.012 -0.5295 -0.5415  0.1397
 5323SOL    HW116868   5.454   1.204   0.976 -0.1100 -0.0382  1.2687
 5323SOL    HW216869   5.298   1.243   0.948  0.5188  2.5111  1.0565
 5324SOL     OW16870   3.069   5.511   6.264 -0.5070  1.0963  0.0585
 5324SOL    HW116871   2.970   5.503   6.278 -0.3743  0.3530  0.6216
 5324SOL    HW216872   3.116   5.508   6.352  0.2318 -1.9068 -0.3180
 5325SOL     OW16873   4.786   3.828   1.839  0.1591 -0.3009 -0.7459
 5325SOL    HW116874   4.720   3.817   1.765  1.2332  0.5822 -1.8817
 5325SOL    HW216875   4.770   3.915   1.885 -0.6270 -0.9336  0.2161
 5326SOL     OW16876   1.290   4.585   6.676 -0.0085  0.1033  0.6197
 5326SOL    HW116877   1.219   4.546   6.733  1.0412 -2.1280  0.5088
 5326SOL    HW216878   1.269   4.568   6.580 -0.1384  0.9169  0.4987
 5327SOL     OW16879   3.240   0.021   5.410 -0.3300 -0.9215  0.1807
 5327SOL    HW116880   3.195   0.099   5.454 -1.6528 -0.8342 -1.2293
 5327SOL    HW216881   3.177  -0.056   5.405  0.6683 -1.8059  0.7477
 5328SOL     OW16882   0.302   3.217   6.250  0.6025 -0.7508  0.4214
 5328SOL    HW116883   0.317   3.316   6.242 -1.2302 -0.5088 -0.4119
 5328SOL    HW216884   0.359   3.181   6.324  0.6016  1.0915  1.3737
 5329SOL     OW16885   4.896   3.344   2.402 -0.8133  0.3952  0.3189
 5329SOL    HW116886   4.947   3.300   2.328  1.9349  1.0129  1.7256
 5329SOL    HW216887   4.848   3.275   2.455  0.5005 -0.5404  0.3423
 5330SOL     OW16888   0.561   5.201   4.498 -0.3886 -0.3623 -0.1807
 5330SOL    HW116889   0.639   5.190   4.560 -0.5187  1.8415  0.4571
 5330SOL    HW216890   0.593   5.235   4.410 -0.4179 -1.7609 -0.7723
 5331SOL     OW16891   3.306   4.062   2.137  0.1359  0.5223 -0.5577
 5331SOL    HW116892   3.400   4.095   2.126 -0.0267  0.9895 -0.5647
 5331SOL    HW216893   3.246   4.114   2.077 -0.1120  0.1390 -0.6464
 5332SOL     OW16894   3.586   3.218   6.479 -0.2085 -0.2103  0.5607
 5332SOL    HW116895   3.488   3.239   6.481  0.0265  0.9198  1.1770
 5332SOL    HW216896   3.606   3.148   6.548 -0.8233 -1.6860 -0.7038
 5333SOL     OW16897   4.987   2.356   1.418 -0.0596 -0.2069  0.1912
 5333SOL    HW116898   5.006   2.455   1.421  1.5564 -0.4332 -1.3776
 5333SOL    HW216899   4.915   2.338   1.351  1.3535 -0.2880 -1.3572
 5334SOL     OW16900   0.509   4.349   5.863  0.2432  0.1009  0.5671
 5334SOL    HW116901   0.582   4.291   5.900  2.1269  1.9961 -0.0046
 5334SOL    HW216902   0.478   4.312   5.776 -1.2658 -2.0688  1.9434
 5335SOL     OW16903   0.575   2.551   4.696  1.1417 -0.0268  0.3628
 5335SOL    HW116904   0.625   2.632   4.727 -0.9850  0.7888  1.9209
 5335SOL    HW216905   0.482   2.577   4.670  1.1622 -1.6224 -1.5677
 5336SOL     OW16906   5.795   2.377   4.634 -0.1703 -0.3114  0.1431
 5336SOL    HW116907   5.880   2.399   4.586 -0.8669  0.1790 -0.9020
 5336SOL    HW216908   5.719   2.424   4.590 -0.9524 -0.5130  1.2445
 5337SOL     OW16909   0.097   1.506   5.686  0.1632  0.3417  0.1371
 5337SOL    HW116910   0.180   1.516   5.742  0.9235 -0.0805 -0.8743
 5337SOL    HW216911   0.020   1.479   5.744  1.1832 -1.2313  0.8177
 5338SOL     OW16912   5.977   6.860   6.143 -0.3192 -0.2438 -0.5317
 5338SOL    HW116913   5.980   6.958   6.164 -0.7032  0.1243 -2.0705
 5338SOL    HW216914   5.991   6.847   6.045 -1.0115 -1.6809 -0.4613
 5339SOL     OW16915   0.273   1.079   3.866 -0.5979  0.3522  0.0526
 5339SOL    HW116916   0.189   1.041   3.829 -1.2390  1.3561  0.4363
 5339SOL    HW216917   0.279   1.177   3.844  1.2415 -0.0038 -1.3337
 5340SOL     OW16918   1.068   6.966   0.315  0.3529  0.1344  0.3026
 5340SOL    HW116919   1.007   6.997   0.387 -1.3397  0.0830 -1.0363
 5340SOL    HW216920   1.030   6.992   0.226  3.1631  1.6224 -0.5731
 5341SOL     OW16921   4.678   0.820   0.810 -0.0978 -0.3944  0.4741
 5341SOL    HW116922   4.596   0.777   0.774  0.8954 -1.0657 -1.0909
 5341SOL    HW216923   4.709   0.769   0.891 -0.2892 -1.1631  0.0767
 5342SOL     OW16924   3.142   4.022   0.415  0.3288  0.3299 -0.4780
 5342SOL    HW116925   3.086   4.086   0.363 -0.0033 -0.0957 -0.6465
 5342SOL    HW216926   3.096   3.999   0.501  0.3351  0.1321 -0.5275
 5343SOL     OW16927   6.976   2.888   0.345 -0.1933  0.0038 -0.3008
 5343SOL    HW116928   7.062   2.840   0.364 -0.7709 -1.0578 -0.3228
 5343SOL    HW216929   6.997   2.979   0.309  0.9500 -0.6455 -1.3823
 5344SOL     OW16930   5.037   6.714   0.157 -0.0946  0.4769 -0.1980
 5344SOL    HW116931   4.981   6.754   0.229 -0.3378 -0.9066  0.3996
 5344SOL    HW216932   5.056   6.784   0.087 -0.5177  1.6144  0.7910
 5345SOL     OW16933   4.112   1.878   2.483  0.1636 -0.1534  0.4062
 5345SOL    HW116934   4.124   1.976   2.465  0.3082 -0.2082  0.1955
 5345SOL    HW216935   4.169   1.852   2.562  0.6360 -0.1979  0.0575
 5346SOL     OW16936   0.295   5.542   5.358 -0.1616  0.4297 -0.0191
 5346SOL    HW116937   0.281   5.636   5.325  0.0000 -0.6676 -3.5313
 5346SOL    HW216938   0.381   5.538   5.408  1.1534  1.7218 -2.0202
 5347SOL     OW16939   6.868   4.183   0.923  0.0447 -0.3431 -0.6594
 5347SOL    HW116940   6.959   4.223   0.913  0.2076 -0.7117 -0.6838
 5347SOL    HW216941   6.803   4.254   0.949  1.0721 -0.6749  3.6779
 5348SOL     OW16942   4.014   5.881   5.231 -0.3123  0.2017 -0.0200
 5348SOL    HW116943   3.967   5.923   5.309  2.2763 -0.2431  1.8957
 5348SOL    HW216944   4.083   5.944   5.196  1.1946 -1.0200  0.6140
 5349SOL     OW16945   4.066   5.452   4.076  0.2646  0.2959  0.2564
 5349SOL    HW116946   4.012   5.473   4.158  0.0924  0.8228  0.0099
 5349SOL    HW216947   4.075   5.353   4.067  2.7394  0.2187  2.4902
 5350SOL     OW16948   0.422   5.911   1.675 -0.3942 -0.3628 -0.4869
 5350SOL    HW116949   0.486   5.838   1.654 -0.0007 -0.1640  0.0195
 5350SOL    HW216950   0.453   5.962   1.755 -1.3638 -0.4823 -0.0218
 5351SOL     OW16951   0.349   3.988   5.678  0.0022 -0.2715 -0.3227
 5351SOL    HW116952   0.363   4.079   5.639 -1.7302 -0.5695 -1.7761
 5351SOL    HW216953   0.394   3.920   5.621  0.8435 -0.4024  0.4707
 5352SOL     OW16954   6.181   6.548   1.631  0.1186 -0.1679  0.6132
 5352SOL    HW116955   6.111   6.520   1.566  0.8790  1.1888 -0.8861
 5352SOL    HW216956   6.144   6.617   1.693 -0.1065 -0.1187  0.4242
 5353SOL     OW16957   1.021   5.613   1.451 -0.2834 -0.2156 -0.1494
 5353SOL    HW116958   0.995   5.557   1.530 -0.9188 -1.1965 -1.0404
 5353SOL    HW216959   1.060   5.555   1.380 -1.0207  0.4567 -1.1328
 5354SOL     OW16960   7.008   2.444   5.920 -0.0328 -0.3072 -0.8384
 5354SOL    HW116961   7.027   2.346   5.933 -0.0766 -0.0030  2.0505
 5354SOL    HW216962   6.913   2.463   5.944  0.5611  0.7660  0.7663
 5355SOL     OW16963   1.021   5.233   3.733 -0.5778 -0.2366 -0.1280
 5355SOL    HW116964   1.024   5.323   3.690  1.1853  0.9488  2.2449
 5355SOL    HW216965   0.990   5.242   3.828  0.5500 -1.9742  0.4659
 5356SOL     OW16966   3.818   2.082   3.541 -0.0437 -0.2686 -0.0993
 5356SOL    HW116967   3.732   2.073   3.591 -1.0563 -1.3491 -1.9254
 5356SOL    HW216968   3.890   2.112   3.604 -1.2999 -1.2379  1.9250
 5357SOL     OW16969   3.526   3.174   3.941 -0.0437 -0.1992  0.3854
 5357SOL    HW116970   3.439   3.215   3.917 -0.1477 -0.2900  0.6043
 5357SOL    HW216971   3.594   3.246   3.958 -0.0542 -0.1310  0.1316
 5358SOL     OW16972   4.116   4.862   4.666  0.1228 -0.4715 -0.3213
 5358SOL    HW116973   4.163   4.839   4.751 -1.2382  0.5555  0.7666
 5358SOL    HW216974   4.025   4.898   4.687  0.0460  0.5600 -2.1736
 5359SOL     OW16975   3.729   1.999   2.190  0.2528  0.0404  0.6131
 5359SOL    HW116976   3.763   2.087   2.156 -0.4621  0.4529  0.9410
 5359SOL    HW216977   3.649   2.014   2.247 -0.6632 -0.9183 -0.3635
 5360SOL     OW16978   3.683   4.184   5.224  0.4453 -0.7060  0.1841
 5360SOL    HW116979   3.758   4.237   5.264 -0.0752 -0.6406  1.0940
 5360SOL    HW216980   3.687   4.090   5.258 -1.0836 -0.2050  1.9135
 5361SOL     OW16981   6.037   2.008   4.618 -0.4434 -0.1890  0.6422
 5361SOL    HW116982   6.031   1.934   4.685 -0.7988  0.3744  1.2434
 5361SOL    HW216983   6.127   2.006   4.574 -0.3293 -0.7689  0.8936
 5362SOL     OW16984   5.217   3.597   2.994 -0.4715 -0.2850 -0.1761
 5362SOL    HW116985   5.144   3.612   3.060  1.7020  0.0902  2.3201
 5362SOL    HW216986   5.215   3.669   2.925 -0.0513  2.2115  2.2286
 5363SOL     OW16987   4.686   1.314   0.985 -0.0795  1.2255 -0.0346
 5363SOL    HW116988   4.680   1.236   1.047 -1.9910  0.9852 -0.4385
 5363SOL    HW216989   4.728   1.285   0.899  0.2570  0.9293  0.2263
 5364SOL     OW16990   6.926   0.479   1.291 -0.3933 -0.0199  0.5383
 5364SOL    HW116991   6.993   0.546   1.321 -1.4196  0.1872  2.5540
 5364SOL    HW216992   6.893   0.428   1.370 -0.2862 -2.3364 -0.8257
 5365SOL     OW16993   6.604   0.939   4.567 -0.0702 -0.1006  0.1271
 5365SOL    HW116994   6.559   0.910   4.652  0.2547  0.6001  0.5396
 5365SOL    HW216995   6.545   1.004   4.519  0.2057  0.2994  0.3316
 5366SOL     OW16996   1.219   3.435   1.666  0.0106  0.1881  0.1868
 5366SOL    HW116997   1.282   3.439   1.744 -0.0158 -1.1996  0.3079
 5366SOL    HW216998   1.261   3.382   1.592 -0.7896 -0.2915  0.0629
 5367SOL     OW16999   2.676   6.654   5.003  0.1150  0.2353  0.1386
 5367SOL    HW117000   2.758   6.596   5.006 -0.2234 -0.2464  0.1427
 5367SOL    HW217001   2.607   6.611   4.946 -1.0513 -0.5738  2.0546
 5368SOL     OW17002   0.973   5.769   1.169 -0.1891  0.1832  0.1286
 5368SOL    HW117003   0.976   5.736   1.263  0.2470  0.0460  0.0675
 5368SOL    HW217004   0.964   5.869   1.169  1.2266  0.3368  0.3373
 5369SOL     OW17005   1.300   1.365   3.633 -0.4298 -0.0157 -0.3404
 5369SOL    HW117006   1.210   1.350   3.591 -1.0785 -0.3830  1.1053
 5369SOL    HW217007   1.295   1.342   3.730  1.0600  0.6194 -0.0911
 5370SOL     OW17008   2.444   5.141   3.123  0.0702  0.0043 -0.0853
 5370SOL    HW117009   2.359   5.194   3.129 -0.1224 -0.0193 -2.0622
 5370SOL    HW217010   2.432   5.067   3.057  1.9064  0.5402 -1.0784
 5371SOL     OW17011   5.198   1.086   3.505  0.6983  0.1996  0.4556
 5371SOL    HW117012   5.220   1.054   3.413  1.8797 -0.2474  0.8772
 5371SOL    HW217013   5.187   1.008   3.566  3.5711  0.4898  1.4856
 5372SOL     OW17014   5.374   1.358   0.412  0.0702  0.5938 -0.0006
 5372SOL    HW117015   5.408   1.360   0.506 -3.1444 -0.8212  1.3063
 5372SOL    HW217016   5.315   1.437   0.396 -2.6943 -1.2146  0.6483
 5373SOL     OW17017   5.832   4.892   1.377  0.0210  0.0260 -0.3156
 5373SOL    HW117018   5.738   4.878   1.345 -0.8404  1.4215  1.4361
 5373SOL    HW217019   5.838   4.979   1.426  2.2969  0.0544 -0.5421
 5374SOL     OW17020   1.371   2.672   2.454  0.2654 -0.1831  0.0871
 5374SOL    HW117021   1.459   2.715   2.473  0.8719 -1.2917 -0.1259
 5374SOL    HW217022   1.386   2.582   2.413 -0.9759 -0.1391 -0.5029
 5375SOL     OW17023   0.874   1.518   3.026 -0.3829  0.2597  0.1988
 5375SOL    HW117024   0.877   1.547   3.122 -0.6897  0.9170  0.0149
 5375SOL    HW217025   0.811   1.441   3.017 -0.7218  0.5029  0.4506
 5376SOL     OW17026   4.350   2.448   1.857 -0.0524  0.2554 -0.3536
 5376SOL    HW117027   4.286   2.472   1.783 -2.3480  0.4571  1.5903
 5376SOL    HW217028   4.330   2.356   1.890 -1.8420  1.6088  2.6486
 5377SOL     OW17029   0.479   5.409   6.372 -0.4956 -0.7211 -0.8751
 5377SOL    HW117030   0.400   5.372   6.421  0.5982 -1.8589  0.1060
 5377SOL    HW217031   0.450   5.487   6.317 -1.7519  0.9476  1.9197
 5378SOL     OW17032   0.186   0.374   5.809  0.1385  0.1234 -0.1635
 5378SOL    HW117033   0.121   0.399   5.737 -0.6897  1.7892  1.0803
 5378SOL    HW217034   0.257   0.444   5.816 -0.9115  1.0786  1.8694
 5379SOL     OW17035   2.422   1.562   6.575  0.2361  0.3195 -0.1797
 5379SOL    HW117036   2.452   1.654   6.548  0.8343 -0.0134 -0.6683
 5379SOL    HW217037   2.327   1.566   6.607  0.4036  1.1831  0.2316
 5380SOL     OW17038   6.237   1.077   0.404 -0.2168 -0.5944  0.5430
 5380SOL    HW117039   6.199   0.990   0.436  0.5618 -0.8430  0.8013
 5380SOL    HW217040   6.239   1.142   0.479  1.2448 -1.0550  0.9352
 5381SOL     OW17041   1.624   0.996   6.776  0.3943 -0.2529 -0.0247
 5381SOL    HW117042   1.612   0.963   6.683 -0.2427  0.9213 -0.3784
 5381SOL    HW217043   1.543   1.047   6.804  0.8407 -0.0504  0.9434
 5382SOL     OW17044   0.375   0.083   4.369  0.2450 -0.3205  0.0043
 5382SOL    HW117045   0.344  -0.010   4.347  0.4058 -0.1682 -0.9256
 5382SOL    HW217046   0.453   0.106   4.311  0.3767  0.2932  0.4277
 5383SOL     OW17047   3.336   6.400   1.112 -0.0682  0.1716 -0.3392
 5383SOL    HW117048   3.262   6.432   1.171  0.7420  0.8782  0.3143
 5383SOL    HW217049   3.412   6.367   1.168 -0.5944 -2.3492 -0.9867
 5384SOL     OW17050   4.507   5.419   1.565 -0.0037  0.6535 -0.0646
 5384SOL    HW117051   4.510   5.504   1.512  0.4095  1.2690  0.9044
 5384SOL    HW217052   4.545   5.436   1.656 -1.3428 -0.1900  0.6793
 5385SOL     OW17053   3.036   4.245   1.707 -0.6906 -0.0299 -0.4761
 5385SOL    HW117054   2.993   4.325   1.746  0.8648  1.5068 -1.7478
 5385SOL    HW217055   3.049   4.176   1.778 -0.9801  1.3022  0.9205
 5386SOL     OW17056   1.874   0.978   2.460  0.0297 -0.0980 -0.4814
 5386SOL    HW117057   1.897   0.941   2.550 -0.6487 -2.3126 -1.1305
 5386SOL    HW217058   1.955   1.018   2.418  0.2958  1.1606  1.1832
 5387SOL     OW17059   5.721   2.946   1.049 -0.1329 -0.0467  0.2399
 5387SOL    HW117060   5.679   2.879   1.110 -0.9012 -0.0251 -0.2524
 5387SOL    HW217061   5.729   3.034   1.096  0.9481 -0.4860  0.9143
 5388SOL     OW17062   2.042   4.409   5.823 -0.5260 -0.1600  0.4498
 5388SOL    HW117063   2.006   4.488   5.773  1.1121  0.7003  0.5678
 5388SOL    HW217064   2.002   4.407   5.915  0.5062  1.4409  0.9754
 5389SOL     OW17065   2.875   0.067   6.279  0.4939  0.1299  0.2203
 5389SOL    HW117066   2.929   0.148   6.304  1.0291 -0.4682  1.0310
 5389SOL    HW217067   2.853   0.072   6.181  1.2486  0.8338  0.0655
 5390SOL     OW17068   4.622   1.186   2.171 -0.3029  0.4971  0.1298
 5390SOL    HW117069   4.598   1.099   2.128  0.0404  1.0611 -1.2745
 5390SOL    HW217070   4.571   1.260   2.127  0.4605  1.1607  0.3296
 5391SOL     OW17071   6.098   0.097   5.752  0.5221  0.3775 -0.5492
 5391SOL    HW117072   6.174   0.138   5.803  0.0054 -1.4962  1.8682
 5391SOL    HW217073   6.013   0.143   5.777  0.2698 -0.5328  0.3172
 5392SOL     OW17074   3.676   4.732   6.236  0.0670 -0.2776 -0.0807
 5392SOL    HW117075   3.675   4.801   6.308  0.0166  0.3424 -0.6636
 5392SOL    HW217076   3.646   4.644   6.274 -1.1085  0.2952  0.3925
 5393SOL     OW17077   3.466   5.750   1.707 -0.2264  0.1391  0.4880
 5393SOL    HW117078   3.515   5.837   1.712 -1.0744  0.7219 -0.7404
 5393SOL    HW217079   3.457   5.723   1.611  0.5726 -1.6359  0.8835
 5394SOL     OW17080   6.662   5.611   5.164 -0.3099 -0.1020 -0.1129
 5394SOL    HW117081   6.742   5.668   5.182 -0.2948 -0.2182  0.2008
 5394SOL    HW217082   6.672   5.566   5.076 -0.3754  0.4707 -0.4183
 5395SOL     OW17083   2.159   5.758   0.431  0.4468 -0.1314  0.3953
 5395SOL    HW117084   2.217   5.819   0.378 -0.0124  0.4073  0.4965
 5395SOL    HW217085   2.064   5.766   0.399  0.2853 -0.3411  0.8085
 5396SOL     OW17086   5.924   3.827   6.370  0.2754 -0.2198 -0.0777
 5396SOL    HW117087   5.992   3.879   6.421  0.5690 -1.4445  0.8567
 5396SOL    HW217088   5.836   3.834   6.416 -0.3126  1.5113 -1.3868
 5397SOL     OW17089   5.865   5.480   5.873 -0.1689  0.8164 -0.2257
 5397SOL    HW117090   5.823   5.506   5.786  0.5409  4.4958  0.3423
 5397SOL    HW217091   5.939   5.415   5.856  0.9226  2.5333 -2.6775
 5398SOL     OW17092   1.250   4.306   2.981 -0.1751 -0.6516 -0.5429
 5398SOL    HW117093   1.165   4.356   2.967  0.3432 -0.2610 -2.6907
 5398SOL    HW217094   1.317   4.335   2.913  1.1429 -2.1326  0.0593
 5399SOL     OW17095   3.808   4.684   1.275 -0.2406 -0.4132  0.1662
 5399SOL    HW117096   3.877   4.742   1.231 -0.1567 -0.7101 -0.0955
 5399SOL    HW217097   3.742   4.654   1.207 -0.9846  0.3682  0.5285
 5400SOL     OW17098   1.589   1.339   2.029  0.1251  0.1272 -0.0828
 5400SOL    HW117099   1.639   1.423   2.050  0.1428 -0.2649  1.6273
 5400SOL    HW217100   1.652   1.270   1.995  0.7826 -0.2803  1.8187
 5401SOL     OW17101   6.448   2.524   1.032  0.3389 -0.2449  0.0542
 5401SOL    HW117102   6.406   2.441   1.069 -0.1821  0.4449  1.0544
 5401SOL    HW217103   6.521   2.554   1.093  2.7232 -1.6855 -1.8876
 5402SOL     OW17104   5.361   5.377   5.937 -0.1637  0.3777 -0.4270
 5402SOL    HW117105   5.318   5.468   5.941  0.6534  0.7493 -0.0114
 5402SOL    HW217106   5.294   5.308   5.963 -1.1797  0.7231 -1.9839
 5403SOL     OW17107   0.207   5.186   4.211 -0.5304  0.8362 -0.3226
 5403SOL    HW117108   0.209   5.247   4.290 -0.4409  1.3569 -0.7218
 5403SOL    HW217109   0.215   5.091   4.242 -1.1613  0.9896  0.3401
 5404SOL     OW17110   5.674   1.934   2.733  0.2270 -0.3188 -0.1470
 5404SOL    HW117111   5.650   2.027   2.706 -0.2330 -0.5101 -0.4009
 5404SOL    HW217112   5.763   1.910   2.694  0.6329  0.2183  0.4045
 5405SOL     OW17113   5.632   5.275   1.875  0.0644 -0.5261  0.1277
 5405SOL    HW117114   5.574   5.262   1.794  0.5576  2.8030 -0.9446
 5405SOL    HW217115   5.574   5.279   1.956 -0.5998 -2.4280 -0.2089
 5406SOL     OW17116   1.270   4.094   6.291  0.0540  0.3746 -0.2241
 5406SOL    HW117117   1.335   4.075   6.217  1.4771  0.9478  0.8298
 5406SOL    HW217118   1.279   4.023   6.362  0.5625  1.2211  0.5802
 5407SOL     OW17119   2.138   0.905   1.762 -0.1343 -0.0741 -0.6031
 5407SOL    HW117120   2.238   0.910   1.763 -0.0537 -1.2428 -0.9552
 5407SOL    HW217121   2.110   0.809   1.759 -1.2562  0.2718 -1.6899
 5408SOL     OW17122   4.548   6.638   2.430 -0.0564 -0.0609 -0.1516
 5408SOL    HW117123   4.494   6.660   2.349  2.1809  2.5568 -1.0984
 5408SOL    HW217124   4.525   6.700   2.504 -1.2415 -1.6812  0.9182
 5409SOL     OW17125   5.416   3.499   2.056  0.1294 -0.0124 -0.0204
 5409SOL    HW117126   5.478   3.507   2.134 -0.3589 -0.7458  0.4569
 5409SOL    HW217127   5.468   3.471   1.975  0.6563  0.8548  0.0030
 5410SOL     OW17128   7.015   2.122   6.294  0.7217 -0.1166 -0.3910
 5410SOL    HW117129   6.927   2.156   6.260  0.8625  0.0335 -0.6090
 5410SOL    HW217130   7.078   2.198   6.305  0.6004 -0.1294  0.4605
 5411SOL     OW17131   4.598   4.941   1.002 -0.4142 -0.8395 -0.0480
 5411SOL    HW117132   4.501   4.932   0.977 -0.3660 -1.0233 -0.1727
 5411SOL    HW217133   4.644   4.853   0.987 -0.2371 -0.7633  0.0520
 5412SOL     OW17134   3.398   3.494   5.268 -0.0519 -0.0621  0.2077
 5412SOL    HW117135   3.342   3.573   5.243  0.1557  1.1553  3.1562
 5412SOL    HW217136   3.350   3.410   5.245 -1.7702  0.9408 -0.0398
 5413SOL     OW17137   6.292   1.746   4.694 -0.0147  0.0386 -0.0220
 5413SOL    HW117138   6.198   1.715   4.712  0.0468  0.4476  1.0629
 5413SOL    HW217139   6.338   1.678   4.636 -1.3002  0.3596 -1.4882
 5414SOL     OW17140   6.830   4.396   4.583  0.7982  0.0262 -0.2905
 5414SOL    HW117141   6.731   4.406   4.596  1.0170  0.4526  1.3407
 5414SOL    HW217142   6.858   4.305   4.613  1.2022  0.7462  1.7299
 5415SOL     OW17143   2.150   2.111   2.150  0.5959  0.4910 -0.0094
 5415SOL    HW117144   2.228   2.075   2.202  1.1831  0.7680 -0.6896
 5415SOL    HW217145   2.117   2.041   2.087  0.5834  0.5364 -0.0526
 5416SOL     OW17146   6.377   2.777   3.869 -0.4941  0.5914  0.1581
 5416SOL    HW117147   6.322   2.696   3.889  0.2477 -0.4069 -1.6539
 5416SOL    HW217148   6.334   2.857   3.911 -1.8119 -0.5636  1.1034
 5417SOL     OW17149   1.116   6.731   0.107 -0.2019  0.0462 -0.2145
 5417SOL    HW117150   1.025   6.746   0.069 -1.7280 -2.1846  2.1490
 5417SOL    HW217151   1.149   6.641   0.080 -0.2671 -0.5794  1.6339
 5418SOL     OW17152   5.540   2.156   5.698  0.6435 -0.1557  0.4012
 5418SOL    HW117153   5.592   2.157   5.783  1.7939 -2.2818 -0.2099
 5418SOL    HW217154   5.573   2.229   5.637  2.7099 -1.1891  0.1941
 5419SOL     OW17155   1.406   0.150   0.123 -0.0573 -0.1617  0.3990
 5419SOL    HW117156   1.322   0.203   0.127 -1.6298 -2.3397 -1.1702
 5419SOL    HW217157   1.404   0.078   0.193  0.8018  0.1155  0.7309
 5420SOL     OW17158   5.232   6.137   0.890 -0.4272 -0.2660 -0.5790
 5420SOL    HW117159   5.155   6.150   0.952 -0.2321  0.5787 -0.5075
 5420SOL    HW217160   5.282   6.054   0.917 -0.6696 -0.2186  0.0451
 5421SOL     OW17161   4.367   6.431   2.429 -0.0227 -0.5079  0.0322
 5421SOL    HW117162   4.375   6.409   2.332 -0.7899  1.1336 -0.4269
 5421SOL    HW217163   4.425   6.509   2.451  0.1049 -0.8346  0.8923
 5422SOL     OW17164   6.760   6.576   3.784  0.3426 -0.3258 -0.4962
 5422SOL    HW117165   6.713   6.498   3.824 -1.0856  0.4510 -0.5892
 5422SOL    HW217166   6.825   6.614   3.850  1.0174 -1.5382 -0.4402
 5423SOL     OW17167   5.548   5.913   5.175  0.0230 -0.4724  0.2204
 5423SOL    HW117168   5.511   5.864   5.254 -0.0778  2.4123  2.0845
 5423SOL    HW217169   5.477   5.969   5.133  0.2451 -1.4463 -1.6054
 5424SOL     OW17170   0.230   5.992   2.090  0.3553  0.2556  0.6230
 5424SOL    HW117171   0.203   5.962   1.999 -1.1242 -0.4394  1.2506
 5424SOL    HW217172   0.241   5.911   2.149  0.7298  0.7238  1.2057
 5425SOL     OW17173   0.693   5.469   2.736 -0.0860  0.4454 -0.2632
 5425SOL    HW117174   0.693   5.474   2.636  0.2297 -1.2828 -0.3769
 5425SOL    HW217175   0.606   5.504   2.771 -2.0965 -2.8436 -1.4619
 5426SOL     OW17176   4.742   4.906   2.094 -0.0227 -0.1664  0.0445
 5426SOL    HW117177   4.823   4.876   2.042 -0.1529  0.0160 -0.2688
 5426SOL    HW217178   4.694   4.976   2.042 -0.6127 -0.5695  0.0335
 5427SOL     OW17179   6.843   2.700   5.528  0.1764 -0.1212  0.2285
 5427SOL    HW117180   6.784   2.621   5.511 -0.0935 -0.0233  0.6734
 5427SOL    HW217181   6.786   2.781   5.543  0.4620  0.5885 -2.1151
 5428SOL     OW17182   4.672   6.892   3.352  0.0043  0.2397  0.3990
 5428SOL    HW117183   4.729   6.896   3.434  0.5303  0.8946  0.0149
 5428SOL    HW217184   4.670   6.983   3.309 -0.4063 -0.0556 -0.2160
 5429SOL     OW17185   2.800   1.027   2.495  0.7377 -0.7991  0.0120
 5429SOL    HW117186   2.845   1.054   2.409  0.3295  0.3746  0.1476
 5429SOL    HW217187   2.866   1.033   2.570  0.4803  0.6657  0.1668
 5430SOL     OW17188   3.095   2.009   6.944  0.6705 -0.2594 -0.3398
 5430SOL    HW117189   3.051   2.046   7.027  3.3603 -0.8189  1.4641
 5430SOL    HW217190   3.085   1.909   6.943  0.5267 -0.2426 -0.7934
 5431SOL     OW17191   0.040   4.303   0.018 -0.9105 -0.9948 -0.1312
 5431SOL    HW117192   0.123   4.278   0.067  0.3871 -1.2688 -2.3810
 5431SOL    HW217193  -0.038   4.254   0.058  0.0479 -1.1411  1.6634
 5432SOL     OW17194   4.829   4.720   5.227  0.1425 -0.3016 -0.0226
 5432SOL    HW117195   4.856   4.812   5.196  1.0964 -0.7160 -0.4635
 5432SOL    HW217196   4.812   4.723   5.325  0.9910  0.1865  0.1281
 5433SOL     OW17197   3.363   4.886   2.011  0.0949  0.3836  0.1632
 5433SOL    HW117198   3.373   4.930   1.922  0.8316  1.3360  0.6936
 5433SOL    HW217199   3.451   4.847   2.038  0.0955  0.8511  0.8482
 5434SOL     OW17200   4.046   2.752   6.482 -0.0988  0.1747 -0.2785
 5434SOL    HW117201   3.986   2.718   6.409  0.6621  0.1429 -0.9009
 5434SOL    HW217202   4.025   2.848   6.500  0.0174  0.3142 -0.8652
 5435SOL     OW17203   1.016   4.149   3.303  0.4299  0.1139 -0.7773
 5435SOL    HW117204   0.921   4.119   3.305  0.6804 -0.6959 -0.3141
 5435SOL    HW217205   1.020   4.248   3.291 -0.4121 -0.0806 -3.1404
 5436SOL     OW17206   4.961   5.520   0.714 -0.0869  0.7172 -0.7099
 5436SOL    HW117207   4.967   5.476   0.804 -1.5872  1.9034  0.0065
 5436SOL    HW217208   4.956   5.450   0.643 -2.7797 -0.3689  0.4195
 5437SOL     OW17209   4.833   5.256   4.073 -0.5599 -0.2013  0.9614
 5437SOL    HW117210   4.763   5.185   4.059  0.4377 -0.8145 -1.6771
 5437SOL    HW217211   4.884   5.268   3.988  1.4792  1.3881  2.3230
 5438SOL     OW17212   1.107   6.413   6.108 -0.5202 -0.0216  0.2383
 5438SOL    HW117213   1.047   6.487   6.137 -1.0474 -0.1102 -0.5837
 5438SOL    HW217214   1.133   6.427   6.012  0.8735  0.0779  0.6161
 5439SOL     OW17215   4.561   5.021   2.454 -0.5834  0.2049  0.1771
 5439SOL    HW117216   4.495   4.986   2.388  0.2207 -0.3654 -0.3423
 5439SOL    HW217217   4.532   4.998   2.547  0.0848 -2.1546 -0.1542
 5440SOL     OW17218   6.931   2.032   5.014  0.1693 -0.4050 -0.0960
 5440SOL    HW117219   6.831   2.030   5.016  0.1874 -0.9623  1.7951
 5440SOL    HW217220   6.965   1.952   4.965 -0.3080 -0.2711 -0.6543
 5441SOL     OW17221   1.266   6.741   2.181 -0.3365 -0.4922  0.0142
 5441SOL    HW117222   1.349   6.735   2.125 -0.1033 -1.0415  0.4092
 5441SOL    HW217223   1.248   6.836   2.204 -0.3733 -0.2732 -0.9001
 5442SOL     OW17224   0.520   4.925   5.760 -0.4920 -0.4053 -0.0072
 5442SOL    HW117225   0.525   4.831   5.795  0.2813  0.2035  1.6306
 5442SOL    HW217226   0.493   4.987   5.834 -1.9393  0.5712 -1.2971
 5443SOL     OW17227   1.120   6.830   5.461  0.3492 -0.3385 -0.2648
 5443SOL    HW117228   1.218   6.817   5.476  0.4723 -0.5792 -1.2067
 5443SOL    HW217229   1.105   6.919   5.418  0.2839 -0.8281 -1.2799
 5444SOL     OW17230   4.403   4.414   1.713  0.5539 -0.7962  0.2316
 5444SOL    HW117231   4.304   4.422   1.717  0.5195 -1.3312  0.4902
 5444SOL    HW217232   4.433   4.334   1.765  1.2306  0.0788  1.2475
 5445SOL     OW17233   2.375   6.685   4.038  0.2641  0.1062 -0.3157
 5445SOL    HW117234   2.459   6.636   4.061  1.7706  1.6876 -2.1612
 5445SOL    HW217235   2.356   6.753   4.108 -1.2056 -2.1786  1.6589
 5446SOL     OW17236   0.210   3.455   4.718 -0.5016 -0.1642 -0.4476
 5446SOL    HW117237   0.239   3.424   4.808  0.7535  3.2211  0.4512
 5446SOL    HW217238   0.240   3.389   4.649  0.4595 -1.7336  1.3816
 5447SOL     OW17239   6.044   1.387   0.969  0.4436 -0.0863  0.8423
 5447SOL    HW117240   6.129   1.348   1.005  0.1148 -2.3523 -0.5981
 5447SOL    HW217241   6.063   1.439   0.886  0.4852 -0.4019  0.6488
 5448SOL     OW17242   1.164   0.575   2.575  0.5275 -0.5177 -0.8656
 5448SOL    HW117243   1.108   0.624   2.641  0.1738 -2.3927  0.2962
 5448SOL    HW217244   1.260   0.585   2.599  0.5713  0.7228 -1.4680
 5449SOL     OW17245   1.891   3.879   6.934  0.7729 -0.0405 -0.0683
 5449SOL    HW117246   1.933   3.792   6.959  1.7324  0.3155 -0.3858
 5449SOL    HW217247   1.862   3.928   7.016 -0.7308 -1.0959  0.0779
 5450SOL     OW17248   1.729   0.062   4.161  0.2132  0.1773  0.5082
 5450SOL    HW117249   1.680   0.007   4.094  0.9444  0.9260 -0.6888
 5450SOL    HW217250   1.824   0.032   4.166  0.2176  0.2726  1.0571
 5451SOL     OW17251   1.527   1.103   1.685  0.0437 -0.1221  0.0979
 5451SOL    HW117252   1.557   1.198   1.696 -1.2734  0.3095  0.2479
 5451SOL    HW217253   1.427   1.101   1.679  0.0359 -1.5396  0.4207
 5452SOL     OW17254   1.596   2.820   2.432  0.1185 -0.2876 -0.3069
 5452SOL    HW117255   1.604   2.730   2.389  2.8449  0.1249 -0.8460
 5452SOL    HW217256   1.686   2.864   2.435 -0.5221  1.0993  2.9148
 5453SOL     OW17257   3.275   2.765   0.530 -0.6138 -0.2403 -0.0079
 5453SOL    HW117258   3.200   2.710   0.493  0.2697 -1.6862  0.2356
 5453SOL    HW217259   3.262   2.776   0.629  0.8009 -2.8464  0.5620
 5454SOL     OW17260   4.912   1.967   4.523  0.3589 -0.3700 -0.1382
 5454SOL    HW117261   4.955   1.889   4.569  0.4359  0.0675  0.5499
 5454SOL    HW217262   4.834   1.999   4.578  1.5229  1.2742  0.6451
 5455SOL     OW17263   5.146   3.669   0.488 -0.4483  0.0951  0.2522
 5455SOL    HW117264   5.225   3.609   0.476 -1.3954 -0.9431 -1.0216
 5455SOL    HW217265   5.158   3.751   0.431  1.8678  2.3636  3.5762
 5456SOL     OW17266   3.775   3.338   0.822 -0.4192 -0.0284 -0.2698
 5456SOL    HW117267   3.873   3.321   0.819 -0.2136  0.9054  0.4833
 5456SOL    HW217268   3.748   3.361   0.916 -1.3415 -0.1836 -0.4860
 5457SOL     OW17269   6.742   6.041   6.297  0.3364 -0.2794  0.2863
 5457SOL    HW117270   6.691   5.955   6.288  0.4373 -0.1742 -1.6066
 5457SOL    HW217271   6.712   6.089   6.380 -1.3741 -1.0335  0.1432
 5458SOL     OW17272   0.401   1.631   0.711 -0.0301  0.3456 -1.2191
 5458SOL    HW117273   0.383   1.620   0.809 -2.0038  0.4439 -1.5334
 5458SOL    HW217274   0.315   1.625   0.660  1.2634 -3.2112 -3.3384
 5459SOL     OW17275   3.725   1.350   3.635  0.2437 -0.3174 -0.1086
 5459SOL    HW117276   3.681   1.377   3.721  0.0573 -0.1124 -0.2663
 5459SOL    HW217277   3.723   1.427   3.571  2.5378  0.3366  0.5392
 5460SOL     OW17278   5.102   1.986   4.106 -0.6098 -0.2359  0.3348
 5460SOL    HW117279   5.081   1.974   4.203  0.7699  1.4265  0.8926
 5460SOL    HW217280   5.197   1.959   4.089 -1.0858 -1.3486 -0.7734
 5461SOL     OW17281   6.004   3.611   3.528  0.1821  0.3210  0.0206
 5461SOL    HW117282   6.047   3.631   3.441 -2.6461  1.9304 -1.1578
 5461SOL    HW217283   6.015   3.689   3.590  1.7285 -0.6056  0.9713
 5462SOL     OW17284   5.640   2.575   3.850  0.1044  0.3547 -0.3501
 5462SOL    HW117285   5.680   2.645   3.791 -0.0452 -0.3237 -1.2844
 5462SOL    HW217286   5.610   2.497   3.794  0.2075 -0.4293  0.6479
 5463SOL     OW17287   6.509   5.231   6.442 -0.7683  0.8323  0.0281
 5463SOL    HW117288   6.458   5.241   6.527 -3.0782 -0.3403 -1.1262
 5463SOL    HW217289   6.457   5.175   6.378  1.3855  0.7547 -1.7971
 5464SOL     OW17290   5.895   5.604   2.076  0.0974 -0.5009  0.1200
 5464SOL    HW117291   5.830   5.560   2.139  0.4519 -0.7457  0.3213
 5464SOL    HW217292   5.859   5.693   2.048 -0.2454 -0.5570  0.3669
 5465SOL     OW17293   3.878   3.105   3.316 -0.6867  0.5311  1.1213
 5465SOL    HW117294   3.842   3.079   3.406 -2.2689 -1.8049 -0.0722
 5465SOL    HW217295   3.804   3.101   3.249  0.7374  0.8927 -0.5372
 5466SOL     OW17296   0.483   4.125   1.450  0.3210 -0.2319  0.6060
 5466SOL    HW117297   0.392   4.165   1.446  0.0304 -0.9735 -0.5090
 5466SOL    HW217298   0.542   4.167   1.380  0.4704 -0.6213  0.4934
 5467SOL     OW17299   3.444   2.394   1.727  0.7573  0.4877 -0.1104
 5467SOL    HW117300   3.473   2.393   1.631 -0.5759  0.8714 -0.5516
 5467SOL    HW217301   3.523   2.404   1.786  1.4844  1.7314 -1.2490
 5468SOL     OW17302   2.363   5.740   1.045  0.4918  0.3551  0.1252
 5468SOL    HW117303   2.360   5.640   1.038  0.0655  0.3814 -0.0661
 5468SOL    HW217304   2.444   5.767   1.097  2.5975  0.0504 -2.7255
 5469SOL     OW17305   3.389   4.538   0.479 -0.5481 -0.2502 -0.1915
 5469SOL    HW117306   3.379   4.472   0.553  1.7964  0.6414  1.0458
 5469SOL    HW217307   3.302   4.587   0.466 -1.2262 -0.9134  1.4973
 5470SOL     OW17308   5.353   4.614   0.497  1.0827  0.1847  0.0502
 5470SOL    HW117309   5.305   4.528   0.512 -1.4188  1.4592 -0.0421
 5470SOL    HW217310   5.395   4.615   0.407 -1.1628 -0.0115 -1.0705
 5471SOL     OW17311   5.847   0.133   3.253 -0.1289 -0.2294  0.1195
 5471SOL    HW117312   5.871   0.182   3.337  0.2152  0.8371 -0.5813
 5471SOL    HW217313   5.831   0.037   3.274  0.8591 -0.1666  1.2528
 5472SOL     OW17314   4.862   1.720   5.791  0.7059 -0.0842  0.4473
 5472SOL    HW117315   4.787   1.786   5.798  2.0466  1.5532  0.0645
 5472SOL    HW217316   4.895   1.697   5.882  2.0443  2.0101  0.5584
 5473SOL     OW17317   4.338   2.291   2.781 -0.1891  0.6328 -0.2242
 5473SOL    HW117318   4.306   2.259   2.691  0.5006 -0.0405 -0.2323
 5473SOL    HW217319   4.391   2.375   2.769  1.3623 -0.3634 -0.6708
 5474SOL     OW17320   4.001   1.416   0.533 -0.2310  0.1205  0.4666
 5474SOL    HW117321   4.026   1.336   0.587  0.9255 -0.5916 -1.0474
 5474SOL    HW217322   4.016   1.499   0.587  1.5899 -0.5215  1.0287
 5475SOL     OW17323   1.924   3.301   3.251  0.3936 -0.2842  0.0751
 5475SOL    HW117324   1.923   3.369   3.324  1.0481 -0.7193  0.4994
 5475SOL    HW217325   2.016   3.262   3.242 -0.1268 -1.6543  0.3490
 5476SOL     OW17326   5.084   1.375   4.528  0.4947  0.7122 -0.6208
 5476SOL    HW117327   5.053   1.281   4.523 -0.3815  0.8615  1.2673
 5476SOL    HW217328   5.016   1.436   4.487 -0.4516  0.7784  0.9782
 5477SOL     OW17329   2.904   4.103   5.670  0.4854  0.1084 -0.2209
 5477SOL    HW117330   2.895   4.200   5.645 -1.3409  0.5673  1.8723
 5477SOL    HW217331   2.996   4.072   5.649  0.9526  2.1208 -1.4732
 5478SOL     OW17332   6.583   5.172   5.733 -0.3728  0.1980 -0.0040
 5478SOL    HW117333   6.525   5.184   5.813  1.9150  1.3936  1.5942
 5478SOL    HW217334   6.592   5.259   5.685 -0.9724 -0.2998 -1.0642
 5479SOL     OW17335   6.057   5.922   4.462  0.2565 -0.6576 -0.0209
 5479SOL    HW117336   6.154   5.941   4.478  0.2685 -0.7002 -0.0414
 5479SOL    HW217337   6.001   5.975   4.526  0.1916  1.1707 -1.4652
 5480SOL     OW17338   2.190   4.577   6.176  0.2639  0.7333 -0.2941
 5480SOL    HW117339   2.182   4.618   6.085  1.8560  0.1212 -0.7473
 5480SOL    HW217340   2.284   4.587   6.209 -0.3217  1.0766  1.3656
 5481SOL     OW17341   0.381   4.019   2.304  0.2766 -0.5425 -0.1338
 5481SOL    HW117342   0.363   3.923   2.328  0.2242  0.2540  3.8020
 5481SOL    HW217343   0.301   4.074   2.327 -0.1359  0.4083 -3.4468
 5482SOL     OW17344   5.187   7.002   6.895  0.3014  0.3920  0.5648
 5482SOL    HW117345   5.222   7.045   6.811 -0.2956  2.4097  1.3014
 5482SOL    HW217346   5.242   7.031   6.973  0.3110 -0.7803  1.0216
 5483SOL     OW17347   1.476   0.108   1.680  0.2891 -0.4602 -0.0985
 5483SOL    HW117348   1.571   0.078   1.696  1.1590  2.2358  0.2105
 5483SOL    HW217349   1.471   0.158   1.594 -0.3287  1.3483  0.9346
 5484SOL     OW17350   0.903   3.471   2.434  0.0846 -0.0076  0.1534
 5484SOL    HW117351   0.930   3.527   2.512  1.4243  0.2489 -0.4625
 5484SOL    HW217352   0.948   3.505   2.351 -1.3078 -0.2752 -0.7397
 5485SOL     OW17353   2.175   1.028   6.447 -0.2906 -0.6641 -0.4873
 5485SOL    HW117354   2.235   1.106   6.464  0.5835 -0.9043 -2.2345
 5485SOL    HW217355   2.098   1.032   6.510 -0.0221  1.3382 -0.1943
 5486SOL     OW17356   0.875   4.096   6.909  0.0139 -0.2925 -0.3650
 5486SOL    HW117357   0.969   4.126   6.927  0.3274 -1.1218 -0.5499
 5486SOL    HW217358   0.877   4.015   6.850 -0.8435  0.0250 -0.8455
 5487SOL     OW17359   0.688   6.769   5.872 -0.1332  0.3892 -0.0853
 5487SOL    HW117360   0.731   6.851   5.835  0.0227 -0.2108 -1.2701
 5487SOL    HW217361   0.753   6.693   5.869 -0.0730  0.3351  1.5573
 5488SOL     OW17362   5.562   1.099   4.305  0.6884 -0.0794  0.2963
 5488SOL    HW117363   5.574   1.182   4.251 -0.7798 -0.4055 -0.5795
 5488SOL    HW217364   5.545   1.022   4.244  2.6041 -1.1841  1.0521
 5489SOL     OW17365   6.859   0.492   2.962 -0.4651 -0.2953  0.6789
 5489SOL    HW117366   6.930   0.560   2.945 -1.3684  0.3081 -0.8526
 5489SOL    HW217367   6.885   0.436   3.041  0.9147  0.9568  1.1563
 5490SOL     OW17368   2.100   2.153   4.175  0.1424  0.0623 -0.4284
 5490SOL    HW117369   2.169   2.185   4.110 -1.8745  0.3785 -2.5805
 5490SOL    HW217370   2.047   2.231   4.208  0.0007 -0.3001  0.2171
 5491SOL     OW17371   1.871   0.050   1.897 -0.0845 -0.4319 -1.0004
 5491SOL    HW117372   1.928   0.049   1.979 -3.6376 -0.1394  1.6856
 5491SOL    HW217373   1.858  -0.044   1.865 -1.0156 -0.8986  0.6368
 5492SOL     OW17374   4.257   5.511   3.747  0.2603  0.4649  0.2824
 5492SOL    HW117375   4.283   5.523   3.843  0.9893  0.3180  0.1130
 5492SOL    HW217376   4.217   5.596   3.713 -1.4375  0.0502  1.1333
 5493SOL     OW17377   6.914   2.939   3.125  0.3691  0.3654 -0.3147
 5493SOL    HW117378   6.821   2.952   3.089 -0.7453 -0.9784  1.8806
 5493SOL    HW217379   6.944   3.023   3.170 -0.1690  0.5122 -0.2210
 5494SOL     OW17380   1.721   0.795   3.806  0.6235  0.4131  0.2066
 5494SOL    HW117381   1.760   0.718   3.755  0.1225 -0.0461  0.5130
 5494SOL    HW217382   1.750   0.790   3.902  0.4102  0.4807  0.2759
 5495SOL     OW17383   0.426   1.694   1.191  0.6200  0.1310 -0.2854
 5495SOL    HW117384   0.453   1.776   1.242  1.6843 -0.5578  0.2989
 5495SOL    HW217385   0.507   1.653   1.148  0.2181 -1.0065  0.0139
 5496SOL     OW17386   5.254   4.764   0.157  0.6775 -0.5197  0.2721
 5496SOL    HW117387   5.344   4.786   0.195  1.1132  0.7029 -1.3793
 5496SOL    HW217388   5.243   4.810   0.069 -1.5073 -0.7901  0.3612
 5497SOL     OW17389   0.886   2.677   5.040 -0.4607  0.1322  0.2771
 5497SOL    HW117390   0.890   2.720   5.131 -1.4156  0.8138  0.0176
 5497SOL    HW217391   0.873   2.579   5.050  1.5991 -0.1161  0.8854
 5498SOL     OW17392   0.044   5.760   4.806  0.2149 -0.4078  0.5995
 5498SOL    HW117393   0.005   5.668   4.806 -2.1863  0.5239 -1.3791
 5498SOL    HW217394  -0.026   5.827   4.830  1.1808  1.1622 -0.7706
 5499SOL     OW17395   6.052   5.899   1.659  0.1006 -0.1328  0.2893
 5499SOL    HW117396   5.994   5.877   1.580  0.4013 -0.4749  0.1598
 5499SOL    HW217397   6.052   5.821   1.722 -1.1346  0.6081  1.2509
 5500SOL     OW17398   2.808   5.553   6.397  0.4784  0.2887 -0.0058
 5500SOL    HW117399   2.881   5.527   6.459 -0.8714 -0.1603  1.4476
 5500SOL    HW217400   2.761   5.634   6.432 -1.3044 -0.8802  0.4562
 5501SOL     OW17401   2.444   3.021   6.836  0.4836 -0.4154 -0.4832
 5501SOL    HW117402   2.369   3.070   6.793  1.7691  0.4076 -1.8988
 5501SOL    HW217403   2.509   3.086   6.876  0.1920 -1.1258  1.2678
 5502SOL     OW17404   2.327   5.969   0.339 -0.4007  0.3190  0.4457
 5502SOL    HW117405   2.403   5.906   0.323 -0.2102  0.8361 -0.8404
 5502SOL    HW217406   2.319   6.031   0.261 -0.9031  1.5597  1.4629
 5503SOL     OW17407   3.562   5.037   6.097  0.2087 -0.2872  0.3703
 5503SOL    HW117408   3.502   5.086   6.033  0.5092 -0.0390  0.2730
 5503SOL    HW217409   3.559   4.939   6.078  0.3366 -0.2077 -0.0598
 5504SOL     OW17410   4.428   4.187   0.478 -0.3015  0.2895  0.8781
 5504SOL    HW117411   4.482   4.117   0.431  0.9477  1.5921  0.3235
 5504SOL    HW217412   4.395   4.150   0.565 -2.0755 -1.9480 -0.6106
 5505SOL     OW17413   3.129   0.978   2.066 -0.3996  0.0442  0.0175
 5505SOL    HW117414   3.129   1.000   2.163 -0.2332  1.9136 -0.3719
 5505SOL    HW217415   3.223   0.984   2.031 -0.6489  0.7181 -0.5384
 5506SOL     OW17416   1.543   4.426   0.817  0.3876 -0.1671 -0.0120
 5506SOL    HW117417   1.568   4.350   0.758 -1.1034 -0.8588  0.1957
 5506SOL    HW217418   1.624   4.480   0.839  1.1352 -0.4411 -1.8998
 5507SOL     OW17419   4.722   2.378   5.628 -0.0577 -0.3860  0.6578
 5507SOL    HW117420   4.776   2.434   5.691 -1.3130  1.2836  0.3074
 5507SOL    HW217421   4.779   2.353   5.550  0.4423  0.6996  0.6550
 5508SOL     OW17422   5.763   1.094   6.607  0.7580 -0.2384 -0.0489
 5508SOL    HW117423   5.717   1.081   6.520  1.2770  0.1541 -0.3890
 5508SOL    HW217424   5.769   1.007   6.656 -0.3763 -0.2855  0.0243
 5509SOL     OW17425   3.476   4.323   0.129  0.3989 -0.3989 -0.0398
 5509SOL    HW117426   3.523   4.404   0.164 -0.7072  0.4465 -0.4796
 5509SOL    HW217427   3.500   4.309   0.033  0.6313 -0.6415  0.0499
 5510SOL     OW17428   1.879   5.202   0.800 -0.6455 -0.3195  0.2385
 5510SOL    HW117429   1.971   5.175   0.771 -0.0590  2.6993 -0.9848
 5510SOL    HW217430   1.814   5.185   0.726 -0.3183  1.3111 -0.4424
 5511SOL     OW17431   0.900   1.354   3.562  0.0387 -0.3235  0.3061
 5511SOL    HW117432   0.851   1.289   3.505 -0.3311  0.0641  0.1754
 5511SOL    HW217433   0.842   1.433   3.581  0.2573 -0.3159  0.9864
 5512SOL     OW17434   3.551   0.405   2.989  0.3282  0.1251  0.3532
 5512SOL    HW117435   3.518   0.357   3.070 -2.4220  1.0252 -0.1436
 5512SOL    HW217436   3.523   0.357   2.907  1.9454 -0.0603 -0.1362
 5513SOL     OW17437   3.726   6.230   2.446  0.3977  0.5451 -0.0850
 5513SOL    HW117438   3.785   6.287   2.503  1.1443 -1.6201  1.4518
 5513SOL    HW217439   3.639   6.276   2.431  0.7056  1.7892  1.6650
 5514SOL     OW17440   0.897   0.830   3.995  0.1652  0.0296  0.4519
 5514SOL    HW117441   0.898   0.743   3.945 -1.5211 -0.2964  0.8983
 5514SOL    HW217442   0.869   0.903   3.933 -0.6940 -0.1621  0.5962
 5515SOL     OW17443   5.171   5.719   6.390  0.1024  0.0948 -0.4030
 5515SOL    HW117444   5.246   5.654   6.383 -0.1445 -0.1400 -0.9351
 5515SOL    HW217445   5.203   5.801   6.438  1.0571  0.5039 -1.6699
 5516SOL     OW17446   0.317   5.741   4.871 -0.2449 -0.4900  0.3164
 5516SOL    HW117447   0.343   5.652   4.832  0.3905  0.0378 -0.4959
 5516SOL    HW217448   0.218   5.751   4.869 -0.3946 -1.5192  1.1944
 5517SOL     OW17449   1.726   6.204   2.391  0.3893 -0.3795 -0.5894
 5517SOL    HW117450   1.661   6.262   2.440  0.1102 -1.9348  0.9993
 5517SOL    HW217451   1.676   6.146   2.326  0.8452  2.3632 -3.6580
 5518SOL     OW17452   0.717   4.180   1.601  0.1497 -0.2622 -0.0802
 5518SOL    HW117453   0.649   4.136   1.542  0.6473 -0.9520 -0.1532
 5518SOL    HW217454   0.711   4.279   1.591 -1.3323 -0.2810  0.4568
 5519SOL     OW17455   6.221   2.647   5.137 -0.3122 -0.1362  0.4483
 5519SOL    HW117456   6.169   2.612   5.215  0.9345  1.6699  2.1885
 5519SOL    HW217457   6.159   2.668   5.062 -1.6310 -1.3352  1.1572
 5520SOL     OW17458   2.284   2.212   6.115  0.8552  0.0192 -0.7033
 5520SOL    HW117459   2.373   2.224   6.073  1.4968 -0.5661  0.4406
 5520SOL    HW217460   2.283   2.127   6.168  0.5050  1.2638  1.3913
 5521SOL     OW17461   5.396   6.746   0.091 -0.2092  0.1245  0.0736
 5521SOL    HW117462   5.330   6.702   0.031 -0.3030 -0.4856  0.6180
 5521SOL    HW217463   5.483   6.697   0.086 -0.2374  0.0348  0.4853
 5522SOL     OW17464   5.639   6.038   3.696  0.0604  0.0864  0.0612
 5522SOL    HW117465   5.631   6.032   3.795  0.3015 -2.2535 -0.0045
 5522SOL    HW217466   5.567   5.984   3.653  0.3319  0.5705 -1.0481
 5523SOL     OW17467   0.281   5.728   5.648  0.2124  0.2059  0.3363
 5523SOL    HW117468   0.364   5.728   5.592  0.4119 -1.1824  0.5871
 5523SOL    HW217469   0.246   5.635   5.656 -0.4821  0.5399  1.5453
 5524SOL     OW17470   4.147   1.773   4.470 -0.4777 -0.1258 -0.1995
 5524SOL    HW117471   4.069   1.756   4.531 -1.1615  1.3612 -0.6195
 5524SOL    HW217472   4.223   1.810   4.524  0.7724 -3.4777  0.5943
 5525SOL     OW17473   1.748   3.035   6.279  0.8765 -0.1516 -0.0476
 5525SOL    HW117474   1.810   2.976   6.228  2.4754  1.5310 -0.1683
 5525SOL    HW217475   1.705   3.100   6.217 -0.5168 -0.8600  0.1452
 5526SOL     OW17476   1.045   5.348   4.236 -0.1796  0.0716 -0.3603
 5526SOL    HW117477   1.118   5.342   4.304  0.7590 -0.9825 -1.4195
 5526SOL    HW217478   0.973   5.282   4.258 -0.1527  0.1411 -0.0674
 5527SOL     OW17479   3.293   4.618   1.597  0.2847 -0.0190  0.0325
 5527SOL    HW117480   3.202   4.651   1.620  0.1369 -0.6398  0.3665
 5527SOL    HW217481   3.308   4.529   1.641  1.1755  0.2312  0.2456
 5528SOL     OW17482   0.765   1.629   4.965  0.1739  0.6360 -0.1974
 5528SOL    HW117483   0.812   1.645   4.879  0.5671 -0.1932 -0.1468
 5528SOL    HW217484   0.826   1.653   5.041  0.7744 -1.0100 -0.1198
 5529SOL     OW17485   5.945   0.183   4.838  0.0554 -0.5232 -0.3101
 5529SOL    HW117486   5.923   0.147   4.748  2.5856  0.0858 -1.2722
 5529SOL    HW217487   5.992   0.114   4.892 -0.7223 -0.6242  0.2586
 5530SOL     OW17488   2.446   1.670   0.716  0.1646  0.7217  0.0549
 5530SOL    HW117489   2.518   1.734   0.688  1.0662  0.3758  1.4438
 5530SOL    HW217490   2.434   1.675   0.815 -2.7879  1.8019 -0.2748
 5531SOL     OW17491   6.030   3.055   1.674  0.1513  0.0674  0.5433
 5531SOL    HW117492   6.033   3.086   1.769  1.4883  0.7620  0.2992
 5531SOL    HW217493   6.015   3.133   1.613  3.5540  0.3962 -0.0739
 5532SOL     OW17494   1.054   3.574   3.675  0.5392  0.1800 -0.5547
 5532SOL    HW117495   1.056   3.591   3.774 -0.8043  1.4964 -0.7166
 5532SOL    HW217496   1.096   3.485   3.656  0.1619 -0.4405  1.2712
 5533SOL     OW17497   3.446   1.241   5.323  0.5727  0.4297 -0.1064
 5533SOL    HW117498   3.378   1.278   5.386 -2.1406 -2.1413 -1.2685
 5533SOL    HW217499   3.478   1.153   5.357  0.5058 -0.0948 -1.3568
 5534SOL     OW17500   3.916   6.460   1.538 -0.4916  0.3543 -0.5545
 5534SOL    HW117501   3.982   6.430   1.470 -0.7882 -0.5611 -0.4568
 5534SOL    HW217502   3.900   6.386   1.604 -1.6518  0.5218 -0.6159
 5535SOL     OW17503   4.490   1.368   4.614 -0.1079 -0.2142 -0.2863
 5535SOL    HW117504   4.542   1.436   4.666  0.4949 -0.9123  0.0518
 5535SOL    HW217505   4.543   1.338   4.535 -0.5309 -0.0187 -0.6503
 5536SOL     OW17506   0.923   4.991   0.261  0.1072 -0.1634  0.1232
 5536SOL    HW117507   0.951   5.012   0.355 -1.6415  0.5970  0.5237
 5536SOL    HW217508   0.851   4.921   0.263  0.1116 -0.1982 -0.6564
 5537SOL     OW17509   1.431   2.105   1.094 -0.0894  0.1774 -0.5404
 5537SOL    HW117510   1.519   2.107   1.141  0.1771  0.1752 -1.0380
 5537SOL    HW217511   1.372   2.036   1.137  0.2961 -0.1098 -0.4625
 5538SOL     OW17512   5.142   5.094   3.043 -0.4400 -0.1421 -0.2616
 5538SOL    HW117513   5.153   5.157   2.966  0.9444 -0.1618 -0.0962
 5538SOL    HW217514   5.044   5.076   3.057 -0.7687  0.6888 -1.3319
 5539SOL     OW17515   4.414   6.999   6.374  0.1222 -1.1324 -0.2653
 5539SOL    HW117516   4.468   6.946   6.440 -2.9835 -1.4638  2.2644
 5539SOL    HW217517   4.418   7.096   6.398  0.0073 -1.0978 -0.3854
 5540SOL     OW17518   6.319   5.758   2.580  0.2012  0.4806  0.0725
 5540SOL    HW117519   6.402   5.753   2.524 -1.3490 -0.4256 -2.3332
 5540SOL    HW217520   6.344   5.768   2.676  3.0612  0.4051 -0.5651
 5541SOL     OW17521   3.336   1.734   3.510 -0.2388 -0.0613  0.3340
 5541SOL    HW117522   3.345   1.663   3.580  0.4554  1.7680  2.1972
 5541SOL    HW217523   3.315   1.691   3.422  2.1384 -2.7800  0.9122
 5542SOL     OW17524   4.564   5.300   6.046  0.1739  0.5537 -0.3029
 5542SOL    HW117525   4.503   5.361   5.995  0.9183  0.8684 -0.8302
 5542SOL    HW217526   4.613   5.241   5.982 -0.7518 -0.8272  0.2205
 5543SOL     OW17527   1.844   0.438   4.579  0.6237 -0.0051  0.2179
 5543SOL    HW117528   1.752   0.441   4.618  0.6535 -1.2505  0.4375
 5543SOL    HW217529   1.842   0.385   4.494  1.2004 -0.4043  0.4457
 5544SOL     OW17530   1.314   4.760   5.302  0.7515 -0.4518 -0.8127
 5544SOL    HW117531   1.301   4.700   5.223  1.1123 -1.0880 -0.3986
 5544SOL    HW217532   1.409   4.753   5.334  0.4911 -0.5469 -0.0438
 5545SOL     OW17533   4.348   3.394   5.648 -0.1529 -0.0501  0.3659
 5545SOL    HW117534   4.266   3.434   5.608  0.6287  0.7198 -0.5011
 5545SOL    HW217535   4.343   3.400   5.748 -0.8754  0.5239  0.3010
 5546SOL     OW17536   0.726   1.153   2.337  0.3058  0.5785 -0.1929
 5546SOL    HW117537   0.708   1.218   2.410  0.9411  1.4243 -0.7731
 5546SOL    HW217538   0.639   1.113   2.307  0.0358  0.2477  0.9797
 5547SOL     OW17539   6.689   6.440   1.702 -0.8880  0.5918  0.4884
 5547SOL    HW117540   6.713   6.536   1.689 -0.8228  0.2584 -2.3117
 5547SOL    HW217541   6.607   6.419   1.649  0.6257 -1.4864 -1.1916
 5548SOL     OW17542   2.269   6.780   2.544  0.0300  0.0719  0.3996
 5548SOL    HW117543   2.259   6.852   2.613 -0.6946  0.2023  0.1786
 5548SOL    HW217544   2.218   6.699   2.573 -0.6209  0.2670 -0.1491
 5549SOL     OW17545   6.878   0.054   4.757  0.1332  0.6396  0.6779
 5549SOL    HW117546   6.845   0.046   4.663  1.5761  0.6575  0.1464
 5549SOL    HW217547   6.859   0.147   4.791 -0.1522  0.7162  0.3123
 5550SOL     OW17548   2.799   2.490   0.372 -0.3698 -0.2660 -0.3606
 5550SOL    HW117549   2.723   2.509   0.310 -0.6475 -0.9728 -0.2515
 5550SOL    HW217550   2.844   2.405   0.345  0.6034  0.3200 -0.6227
 5551SOL     OW17551   2.442   4.737   5.401  0.3093 -0.3857  0.1404
 5551SOL    HW117552   2.362   4.679   5.422  2.0994 -3.5871 -1.1159
 5551SOL    HW217553   2.499   4.745   5.483  0.5271 -1.2519  0.0806
 5552SOL     OW17554   0.120   3.548   5.091  0.4629 -0.1724 -0.0205
 5552SOL    HW117555   0.054   3.600   5.037 -0.1956 -1.0070 -0.0481
 5552SOL    HW217556   0.079   3.521   5.178 -0.0351 -2.4967 -0.8940
 5553SOL     OW17557   1.544   0.389   1.728  0.1146 -0.2678 -0.3418
 5553SOL    HW117558   1.472   0.458   1.736  0.2822 -0.0874 -0.3811
 5553SOL    HW217559   1.505   0.304   1.693 -0.3087 -0.5538  0.7785
 5554SOL     OW17560   3.378   6.446   2.687 -0.1193  0.0527 -0.1552
 5554SOL    HW117561   3.460   6.503   2.681  1.0864 -1.4532  1.0340
 5554SOL    HW217562   3.405   6.351   2.702 -2.0527 -0.8861 -2.0235
 5555SOL     OW17563   4.145   5.152   3.996 -0.3211  0.0467  0.0151
 5555SOL    HW117564   4.127   5.054   4.003  1.6733 -0.3079  0.7785
 5555SOL    HW217565   4.173   5.174   3.902  2.3116 -0.7434  0.5479
 5556SOL     OW17566   3.225   5.389   6.079  0.3821 -0.8292  0.3975
 5556SOL    HW117567   3.151   5.411   6.142 -1.4884 -4.3601 -0.2783
 5556SOL    HW217568   3.212   5.439   5.993 -0.5552 -0.5452  0.6935
 5557SOL     OW17569   6.902   0.655   0.186  0.4315 -0.2118 -0.3638
 5557SOL    HW117570   6.964   0.585   0.152  0.1982 -1.1226  1.0071
 5557SOL    HW217571   6.906   0.657   0.286 -0.7442  0.6476 -0.3187
 5558SOL     OW17572   5.241   0.531   3.323  0.1410 -0.2642  0.0299
 5558SOL    HW117573   5.340   0.519   3.316  0.1555  0.7418 -2.1193
 5558SOL    HW217574   5.195   0.456   3.276  0.0143  1.2976 -2.4974
 5559SOL     OW17575   0.260   0.435   4.835 -0.2484 -0.2823  0.0752
 5559SOL    HW117576   0.281   0.483   4.920 -0.1718 -0.6086  0.2423
 5559SOL    HW217577   0.343   0.423   4.782 -0.5452  1.4131 -0.8451
 5560SOL     OW17578   4.350   6.622   2.700  0.1684 -0.0821  0.6024
 5560SOL    HW117579   4.332   6.556   2.627 -0.3973  0.9732 -0.2579
 5560SOL    HW217580   4.309   6.591   2.785  0.1836 -0.9796  0.2890
 5561SOL     OW17581   2.095   5.078   4.602 -0.3040  0.8137 -0.1697
 5561SOL    HW117582   2.133   5.021   4.675 -1.5699  0.7910  0.4896
 5561SOL    HW217583   2.112   5.174   4.623  0.5067  0.7599 -0.5316
 5562SOL     OW17584   5.021   4.738   6.684 -0.0148 -0.2733 -0.1660
 5562SOL    HW117585   5.094   4.684   6.726  1.2324  1.6067  0.2340
 5562SOL    HW217586   4.982   4.800   6.752  1.3751  2.1362 -1.4006
 5563SOL     OW17587   5.569   2.511   4.523  0.0160  0.6326  0.2037
 5563SOL    HW117588   5.481   2.469   4.502  0.3307  0.7186 -1.4375
 5563SOL    HW217589   5.567   2.608   4.498  1.2551  0.1368 -2.1329
 5564SOL     OW17590   0.367   4.217   4.598  0.2007 -0.0887 -0.3096
 5564SOL    HW117591   0.417   4.302   4.616 -0.4389 -0.2759  2.7832
 5564SOL    HW217592   0.288   4.238   4.540  1.1480  1.0156 -1.2851
 5565SOL     OW17593   5.220   0.246   0.114  0.2119 -0.4659  0.2683
 5565SOL    HW117594   5.304   0.192   0.114  0.7717  0.3862 -0.4787
 5565SOL    HW217595   5.141   0.184   0.116  0.7994 -1.4032 -2.1829
 5566SOL     OW17596   1.308   0.704   6.548 -0.2067 -0.0273  0.5261
 5566SOL    HW117597   1.360   0.724   6.631 -0.2699 -0.8835  0.7787
 5566SOL    HW217598   1.328   0.611   6.517  0.7928  0.7064 -1.1513
 5567SOL     OW17599   6.252   2.978   1.319 -0.0730 -0.0656  0.0527
 5567SOL    HW117600   6.210   2.912   1.257 -0.0396  0.0060 -0.0464
 5567SOL    HW217601   6.287   2.930   1.400 -2.8286  0.1909  1.5096
 5568SOL     OW17602   3.036   4.217   6.178 -0.3036  0.4352  0.1362
 5568SOL    HW117603   3.089   4.264   6.107 -2.9026  0.6789 -1.7949
 5568SOL    HW217604   3.056   4.119   6.175  0.5342  0.6092 -0.0776
 5569SOL     OW17605   0.560   4.764   3.354 -0.1312 -0.1386 -0.7419
 5569SOL    HW117606   0.472   4.719   3.365 -0.8573  1.1696 -1.0236
 5569SOL    HW217607   0.559   4.852   3.402  1.3434 -0.5105  0.0275
 5570SOL     OW17608   3.427   6.623   6.528  0.2085 -0.8431 -0.1733
 5570SOL    HW117609   3.487   6.550   6.495  1.7764  0.9537 -1.5864
 5570SOL    HW217610   3.395   6.677   6.450 -0.1002  0.5327  0.8635
 5571SOL     OW17611   2.636   0.899   2.773  0.3003  0.2046 -0.1853
 5571SOL    HW117612   2.547   0.926   2.810 -0.2558  0.4945 -1.6768
 5571SOL    HW217613   2.691   0.981   2.755  0.2385  0.1259 -0.7636
 5572SOL     OW17614   4.693   3.991   6.822 -0.5073  0.2780 -0.3654
 5572SOL    HW117615   4.754   4.041   6.884  0.0224  0.4391 -1.0077
 5572SOL    HW217616   4.598   4.012   6.845 -0.3191  0.2826  0.4331
 5573SOL     OW17617   0.388   6.576   5.738 -0.2027 -0.2589 -0.9069
 5573SOL    HW117618   0.424   6.568   5.831  2.4014 -0.9544 -1.9034
 5573SOL    HW217619   0.398   6.670   5.705  0.6092 -0.4256 -1.1392
 5574SOL     OW17620   3.289   2.934   1.335 -0.1329 -0.5882  0.5959
 5574SOL    HW117621   3.217   2.989   1.377  1.7704  0.9334  1.9849
 5574SOL    HW217622   3.300   2.849   1.386 -0.5155 -0.5429  0.7549
 5575SOL     OW17623   6.585   6.547   5.183 -0.1567  0.2240  0.2102
 5575SOL    HW117624   6.637   6.547   5.098  1.0910 -2.0290  0.8909
 5575SOL    HW217625   6.612   6.625   5.240  0.1252  0.8653 -0.7921
 5576SOL     OW17626   2.877   5.308   1.792  0.2360  0.0412 -0.1137
 5576SOL    HW117627   2.949   5.372   1.764  0.5147 -0.9627 -1.7653
 5576SOL    HW217628   2.803   5.308   1.724 -0.1391 -0.8164  0.2729
 5577SOL     OW17629   4.109   1.158   3.608 -0.3479 -0.0261 -0.1846
 5577SOL    HW117630   4.030   1.172   3.549 -0.5963  0.5364  0.2723
 5577SOL    HW217631   4.084   1.176   3.703  0.8832  2.5488 -0.2582
 5578SOL     OW17632   2.517   1.932   2.734  0.3762 -0.0675 -0.1196
 5578SOL    HW117633   2.449   1.858   2.742  1.6459 -1.2119  0.4995
 5578SOL    HW217634   2.592   1.901   2.676 -0.1730  1.6554 -1.8615
 5579SOL     OW17635   0.686   0.791   1.184  0.0278  0.0731 -0.1038
 5579SOL    HW117636   0.629   0.710   1.194  0.3719 -0.0035  1.4726
 5579SOL    HW217637   0.628   0.872   1.183 -0.2832 -0.1453 -1.2321
 5580SOL     OW17638   1.434   4.690   3.042 -0.0529  0.0054  0.2430
 5580SOL    HW117639   1.391   4.760   2.984 -1.2769  0.0425  1.1478
 5580SOL    HW217640   1.432   4.720   3.137  1.9454 -0.0486  0.3395
 5581SOL     OW17641   2.680   1.963   5.947 -0.7106  0.0814 -0.2080
 5581SOL    HW117642   2.756   1.900   5.960  0.3064  1.4288  0.5532
 5581SOL    HW217643   2.608   1.918   5.894  0.2414 -1.4962 -0.2003
 5582SOL     OW17644   2.507   3.885   6.987 -0.4867 -0.6968 -0.5059
 5582SOL    HW117645   2.456   3.827   6.923  0.7698 -0.3930 -1.8556
 5582SOL    HW217646   2.598   3.903   6.949  0.2451 -0.3631  1.3289
 5583SOL     OW17647   5.576   1.259   1.710  0.1735  0.0269  0.0249
 5583SOL    HW117648   5.593   1.286   1.616  1.1159 -1.0087 -0.1255
 5583SOL    HW217649   5.508   1.320   1.751  1.5436  2.0495 -0.5366
 5584SOL     OW17650   4.739   4.330   4.660  0.1051 -0.2818  0.1337
 5584SOL    HW117651   4.808   4.378   4.715  1.2607 -0.5129 -1.0761
 5584SOL    HW217652   4.648   4.363   4.685  0.8229  2.2370 -0.3337
 5585SOL     OW17653   4.591   3.382   1.135  0.6127  0.0477 -0.6475
 5585SOL    HW117654   4.618   3.473   1.164  0.0563  0.8096 -2.3419
 5585SOL    HW217655   4.543   3.388   1.047 -0.2462 -1.7879 -0.3677
 5586SOL     OW17656   6.057   6.845   5.859 -0.0739  0.5881  0.2307
 5586SOL    HW117657   6.141   6.811   5.900 -0.1252 -0.4432 -0.4852
 5586SOL    HW217658   6.077   6.925   5.801  0.4296  0.2839 -0.0205
 5587SOL     OW17659   0.102   6.167   4.080 -0.1044  0.3661  0.1444
 5587SOL    HW117660   0.013   6.179   4.035 -0.9581 -0.2229  1.6266
 5587SOL    HW217661   0.123   6.070   4.086  0.4486  0.4876  0.1838
 5588SOL     OW17662   3.304   1.122   2.873 -0.2443 -0.4854 -0.0344
 5588SOL    HW117663   3.381   1.138   2.811 -0.7048 -0.1231 -0.5230
 5588SOL    HW217664   3.220   1.110   2.820 -0.5210 -0.9131  0.4933
 5589SOL     OW17665   5.673   4.428   2.128 -0.0550  0.1777 -0.0317
 5589SOL    HW117666   5.668   4.331   2.152 -0.3529  0.3128  0.4629
 5589SOL    HW217667   5.650   4.440   2.032  0.5393 -0.3040 -0.2388
 5590SOL     OW17668   4.007   6.359   2.982  0.4729 -0.3134  0.0281
 5590SOL    HW117669   3.937   6.350   2.912 -1.0196  2.0018  1.1032
 5590SOL    HW217670   4.031   6.268   3.017  0.4419 -1.4108 -2.6260
 5591SOL     OW17671   1.521   2.490   4.488  0.6573  0.3872 -0.7320
 5591SOL    HW117672   1.508   2.504   4.390 -0.6282 -1.3182 -0.8546
 5591SOL    HW217673   1.511   2.393   4.509  0.2468  0.8102  1.1852
 5592SOL     OW17674   0.787   4.288   2.678  0.0097 -0.0046 -0.4832
 5592SOL    HW117675   0.770   4.261   2.773  0.8437 -1.6049 -0.7537
 5592SOL    HW217676   0.716   4.249   2.619 -0.6481  1.1917 -0.5139
 5593SOL     OW17677   1.311   0.545   4.732 -0.1443  0.2315 -0.3819
 5593SOL    HW117678   1.378   0.529   4.804  0.0300  1.5862 -0.2129
 5593SOL    HW217679   1.285   0.642   4.732 -1.9802 -0.2294 -0.5509
 5594SOL     OW17680   4.677   4.383   5.677 -0.2346  0.0620 -0.5068
 5594SOL    HW117681   4.596   4.325   5.681  0.4483 -1.0637 -2.1093
 5594SOL    HW217682   4.714   4.395   5.769 -2.3670  0.8712  0.3048
 5595SOL     OW17683   4.676   2.496   1.662 -0.4012  0.5062 -0.4058
 5595SOL    HW117684   4.611   2.546   1.719  0.3102  1.8136 -0.7012
 5595SOL    HW217685   4.769   2.525   1.684  0.0403 -0.7329 -0.5689
 5596SOL     OW17686   5.398   0.572   0.050 -0.0618  0.7282  0.0326
 5596SOL    HW117687   5.445   0.651   0.010  0.3270  0.6106  0.2445
 5596SOL    HW217688   5.444   0.488   0.022 -0.2520  0.5985  0.1065
 5597SOL     OW17689   5.199   0.916   6.151 -0.2414 -0.3571 -0.2887
 5597SOL    HW117690   5.117   0.970   6.173  0.5147  0.8959 -0.4356
 5597SOL    HW217691   5.184   0.867   6.065 -0.8967 -0.2805 -0.2248
 5598SOL     OW17692   6.709   2.047   4.092 -1.2733  0.1525  0.1261
 5598SOL    HW117693   6.642   2.078   4.023  0.0721  1.2743 -0.7322
 5598SOL    HW217694   6.781   1.995   4.047 -0.7619  0.2719  0.7997
 5599SOL     OW17695   6.307   0.245   0.992 -0.2377 -0.7221  0.4105
 5599SOL    HW117696   6.363   0.166   0.967 -0.1537 -0.5800  0.1461
 5599SOL    HW217697   6.252   0.272   0.913  1.5836  1.0670 -0.3347
 5600SOL     OW17698   5.388   6.556   6.610 -0.7669  0.9098 -0.2644
 5600SOL    HW117699   5.392   6.651   6.577 -0.5914  0.5424 -1.3256
 5600SOL    HW217700   5.340   6.554   6.698 -0.4665  2.0262 -0.0570
 5601SOL     OW17701   6.191   2.504   5.863  0.2554  0.1702 -0.4874
 5601SOL    HW117702   6.195   2.472   5.958  0.7784  1.0178 -0.2184
 5601SOL    HW217703   6.098   2.533   5.842  0.2608  0.4913 -0.0677
 5602SOL     OW17704   3.458   6.753   0.575 -0.3684  0.5752 -0.4640
 5602SOL    HW117705   3.440   6.777   0.479 -2.4153 -0.1212 -0.2883
 5602SOL    HW217706   3.418   6.664   0.595  0.3010  0.5739  0.9862
 5603SOL     OW17707   5.174   2.632   3.635  0.0030  0.4719 -0.7965
 5603SOL    HW117708   5.125   2.662   3.554  0.0990 -1.8350 -1.7739
 5603SOL    HW217709   5.109   2.597   3.703 -0.0118  1.6686 -0.1638
 5604SOL     OW17710   1.211   4.633   3.629  0.3593 -0.2723 -0.0929
 5604SOL    HW117711   1.167   4.722   3.618  0.7091  0.0058  0.6298
 5604SOL    HW217712   1.305   4.647   3.659  0.2396 -0.8911  0.5903
 5605SOL     OW17713   4.361   5.022   5.050  0.6400 -0.1116  0.4762
 5605SOL    HW117714   4.297   5.046   5.123 -0.2362 -1.3565  0.1517
 5605SOL    HW217715   4.438   4.971   5.090  0.4801 -0.2449  0.6203
 5606SOL     OW17716   4.820   6.483   2.084 -0.2913 -0.5444  0.0218
 5606SOL    HW117717   4.843   6.392   2.047 -0.6548 -0.8548  0.5468
 5606SOL    HW217718   4.743   6.521   2.032  0.6666  0.0270 -1.0288
 5607SOL     OW17719   4.163   3.517   0.127 -0.3161 -0.1364  0.2477
 5607SOL    HW117720   4.145   3.482   0.219  1.6518 -0.9480  0.3659
 5607SOL    HW217721   4.137   3.448   0.059  0.6576 -0.6193  0.3428
 5608SOL     OW17722   3.339   5.528   2.317  0.1552 -0.1929  0.5413
 5608SOL    HW117723   3.355   5.512   2.414 -0.6689 -0.3620  0.6534
 5608SOL    HW217724   3.402   5.598   2.284  1.4037 -1.1348  0.8639
 5609SOL     OW17725   1.428   6.565   0.434  0.2357  0.7810 -0.2310
 5609SOL    HW117726   1.469   6.611   0.513 -0.6264  0.6627  0.2970
 5609SOL    HW217727   1.355   6.503   0.465  0.1028  0.4858 -1.0926
 5610SOL     OW17728   1.804   4.245   2.020  0.0072 -0.1664 -0.5556
 5610SOL    HW117729   1.881   4.305   2.040 -0.7042  0.5976 -0.0577
 5610SOL    HW217730   1.737   4.294   1.965 -1.5880  0.2723  1.6389
 5611SOL     OW17731   5.071   2.077   6.088 -0.6187 -0.4710 -0.1650
 5611SOL    HW117732   5.007   2.001   6.101 -1.1419 -0.1191 -0.5892
 5611SOL    HW217733   5.110   2.072   5.996 -0.3107 -0.4826 -0.0328
 5612SOL     OW17734   0.601   2.979   0.701  0.0806 -0.7468  0.1514
 5612SOL    HW117735   0.567   2.924   0.625 -0.1959 -1.5946  0.8807
 5612SOL    HW217736   0.660   3.052   0.665 -0.3333 -0.9153 -0.8979
 5613SOL     OW17737   2.317   0.140   7.005  0.6494  0.1809  0.4025
 5613SOL    HW117738   2.396   0.104   7.053  1.4850  1.1385 -0.2069
 5613SOL    HW217739   2.340   0.157   6.909 -0.7989 -1.0947 -0.2129
 5614SOL     OW17740   5.271   1.548   2.121  0.0733  0.0845  0.7117
 5614SOL    HW117741   5.243   1.454   2.102  2.6345 -0.7683  0.8056
 5614SOL    HW217742   5.207   1.612   2.077 -2.2107 -1.6329  1.3552
 5615SOL     OW17743   0.560   3.493   4.103  0.4104 -0.1126 -0.4318
 5615SOL    HW117744   0.594   3.578   4.063 -0.0974  0.3114  0.0276
 5615SOL    HW217745   0.477   3.464   4.054  1.3503 -1.0981 -1.4942
 5616SOL     OW17746   1.535   5.684   6.546 -0.5349 -0.0851 -0.6545
 5616SOL    HW117747   1.597   5.615   6.509 -1.0912 -0.8243 -0.2282
 5616SOL    HW217748   1.587   5.768   6.565  0.3948 -0.7729 -0.0600
 5617SOL     OW17749   6.597   4.494   6.004  0.5824  0.5481 -0.2606
 5617SOL    HW117750   6.620   4.479   5.908 -1.2056  1.1140 -0.8268
 5617SOL    HW217751   6.640   4.424   6.061  2.7945  1.0178 -1.2895
 5618SOL     OW17752   2.747   6.675   3.325 -0.1808 -0.1437 -0.6994
 5618SOL    HW117753   2.806   6.724   3.261 -0.8870  1.2072 -0.3745
 5618SOL    HW217754   2.794   6.594   3.359  0.3641 -0.6745 -2.5921
 5619SOL     OW17755   2.244   4.522   6.500 -0.2682  0.1475  0.1794
 5619SOL    HW117756   2.280   4.558   6.585  2.3598 -2.4391  0.3152
 5619SOL    HW217757   2.158   4.568   6.478  1.7609  5.0163  1.1635
 5620SOL     OW17758   2.928   5.535   0.732 -0.7451  0.1599  0.1431
 5620SOL    HW117759   2.885   5.572   0.649 -1.2972  0.5523  0.5944
 5620SOL    HW217760   2.863   5.541   0.808 -0.3096 -0.3759  0.5603
 5621SOL     OW17761   1.019   4.535   0.808  0.0219  0.7622 -0.3602
 5621SOL    HW117762   1.115   4.528   0.779 -0.1670 -0.2514 -0.7452
 5621SOL    HW217763   0.972   4.602   0.749 -0.3179 -1.1371 -2.3823
 5622SOL     OW17764   0.077   5.698   2.943  0.9436  0.0624  0.0196
 5622SOL    HW117765   0.087   5.629   3.015 -0.4577 -0.9724 -0.7079
 5622SOL    HW217766   0.015   5.663   2.873 -0.8235  2.5179  0.2073
 5623SOL     OW17767   6.415   4.692   0.258 -0.1097 -0.0872  0.0115
 5623SOL    HW117768   6.339   4.742   0.218 -0.3542 -0.4132  0.0643
 5623SOL    HW217769   6.380   4.617   0.315  0.1866  1.1453  1.9108
 5624SOL     OW17770   2.640   4.810   4.410 -0.0112  0.0247 -0.1018
 5624SOL    HW117771   2.671   4.884   4.351  0.7395  0.2546  0.5606
 5624SOL    HW217772   2.608   4.733   4.354  1.2197  0.0061 -0.8188
 5625SOL     OW17773   1.994   2.559   5.422  0.2314  0.0776 -0.4638
 5625SOL    HW117774   1.942   2.474   5.424 -0.2149  0.3280 -1.0036
 5625SOL    HW217775   2.031   2.574   5.330 -0.5379  0.9600 -0.6434
 5626SOL     OW17776   4.447   0.469   5.655  0.0493 -0.4750 -0.0937
 5626SOL    HW117777   4.351   0.493   5.640 -0.0350 -0.7201  0.0496
 5626SOL    HW217778   4.473   0.394   5.594  0.9627  1.4698 -2.2357
 5627SOL     OW17779   1.568   5.346   0.630  0.3070 -0.5417  0.4742
 5627SOL    HW117780   1.493   5.310   0.686 -0.8375 -1.4995 -1.5806
 5627SOL    HW217781   1.539   5.432   0.587  1.0669  0.0172  1.0397
 5628SOL     OW17782   2.631   2.768   5.707 -0.6761 -0.4672  0.6513
 5628SOL    HW117783   2.614   2.862   5.677  0.0904 -0.7209 -0.6309
 5628SOL    HW217784   2.602   2.758   5.802 -2.6074  0.5285  0.2151
 5629SOL     OW17785   0.260   5.421   6.505 -0.6491  0.1803  0.3999
 5629SOL    HW117786   0.165   5.406   6.478 -0.1391  0.0591 -1.4870
 5629SOL    HW217787   0.281   5.519   6.502 -0.7904  0.2421  1.1643
 5630SOL     OW17788   5.431   3.945   3.153  0.1316  0.6627 -0.0892
 5630SOL    HW117789   5.428   3.912   3.247 -1.1316  0.7681 -0.0635
 5630SOL    HW217790   5.338   3.940   3.114  0.4370  1.6217 -0.9734
 5631SOL     OW17791   0.892   6.415   6.614 -0.3478 -0.2816 -0.2724
 5631SOL    HW117792   0.951   6.394   6.691  0.1670  0.5089 -0.4365
 5631SOL    HW217793   0.820   6.478   6.644  0.9153  1.4784 -0.8055
 5632SOL     OW17794   5.836   2.838   4.175 -0.4544 -0.4570 -0.4748
 5632SOL    HW117795   5.910   2.876   4.230  0.8895 -1.4912 -1.5205
 5632SOL    HW217796   5.770   2.911   4.155 -0.5576  0.1315  1.7483
 5633SOL     OW17797   4.354   6.700   4.627  0.5191  0.2287  0.0267
 5633SOL    HW117798   4.371   6.687   4.725  2.2083  2.3182  0.0763
 5633SOL    HW217799   4.333   6.797   4.610 -1.5495 -0.4177 -1.4859
 5634SOL     OW17800   3.976   2.605   1.492 -0.3808  0.1079  0.1200
 5634SOL    HW117801   3.920   2.565   1.565  1.1778 -0.8517  0.8486
 5634SOL    HW217802   3.956   2.560   1.405 -1.7290  0.7580  0.0599
 5635SOL     OW17803   6.807   3.083   4.260 -0.3001  0.6640  0.3488
 5635SOL    HW117804   6.852   3.092   4.349  2.5906  1.1488 -1.0459
 5635SOL    HW217805   6.836   2.998   4.216 -3.5551 -0.8018  0.7331
 5636SOL     OW17806   6.121   1.851   0.255 -0.1504  0.1023  0.4916
 5636SOL    HW117807   6.172   1.899   0.326  0.6472  0.0405 -0.0310
 5636SOL    HW217808   6.086   1.765   0.292  2.5368 -1.2588  0.1279
 5637SOL     OW17809   6.980   2.399   5.422  0.4159  0.1920  0.3360
 5637SOL    HW117810   6.881   2.398   5.427  0.4137  1.5482  0.9286
 5637SOL    HW217811   7.019   2.384   5.513  0.7220  1.2150  0.3823
 5638SOL     OW17812   4.935   5.424   5.885 -0.0904  0.1680  0.4950
 5638SOL    HW117813   4.841   5.434   5.854  0.4099  0.3655 -1.0494
 5638SOL    HW217814   4.947   5.335   5.927 -1.3057  0.7016  2.0764
 5639SOL     OW17815   6.662   5.062   2.474  0.3760 -0.4070  0.2563
 5639SOL    HW117816   6.751   5.042   2.516  0.7980  0.5043 -0.1838
 5639SOL    HW217817   6.596   5.086   2.545  0.6341 -0.4984  0.5309
 5640SOL     OW17818   4.739   5.125   0.083 -0.4786  0.1984 -0.3648
 5640SOL    HW117819   4.777   5.041   0.122  0.8267  0.8432 -0.1942
 5640SOL    HW217820   4.770   5.135  -0.012 -2.6164 -0.7199 -1.2218
 5641SOL     OW17821   1.639   1.180   4.087 -0.1525 -0.1181 -0.2003
 5641SOL    HW117822   1.689   1.236   4.020 -1.2299  0.3082 -0.6641
 5641SOL    HW217823   1.692   1.098   4.107  0.9062  0.4916 -0.4033
 5642SOL     OW17824   5.450   4.502   0.228 -1.0544 -0.2392  0.2970
 5642SOL    HW117825   5.507   4.425   0.197  0.2894  0.1934  1.6128
 5642SOL    HW217826   5.355   4.486   0.198 -1.0369 -2.9077  1.3557
 5643SOL     OW17827   1.577   6.079   2.644 -0.6853 -0.1647 -0.3702
 5643SOL    HW117828   1.594   6.047   2.738  1.1684 -0.5071 -0.7944
 5643SOL    HW217829   1.566   6.000   2.584 -0.3281  0.0368 -0.6992
 5644SOL     OW17830   1.828   3.778   2.371  0.0688 -0.0266  0.0611
 5644SOL    HW117831   1.912   3.728   2.391 -0.5340 -0.6665  1.0701
 5644SOL    HW217832   1.810   3.773   2.272 -0.4058 -2.5539  0.2031
 5645SOL     OW17833   5.816   5.387   0.741 -0.0238  0.5665 -0.1865
 5645SOL    HW117834   5.857   5.476   0.719 -0.5341  1.3071  1.6434
 5645SOL    HW217835   5.860   5.350   0.823  0.1296 -0.8626 -0.8805
 5646SOL     OW17836   1.897   4.180   6.556  0.5081 -0.1417 -0.0849
 5646SOL    HW117837   1.995   4.202   6.558  1.0747 -2.3779 -0.0017
 5646SOL    HW217838   1.876   4.115   6.629 -0.7288 -0.8454 -1.0209
 5647SOL     OW17839   0.789   3.514   4.914  0.3239  0.5403 -0.3538
 5647SOL    HW117840   0.707   3.541   4.864  0.3372 -0.0826 -0.7251
 5647SOL    HW217841   0.799   3.415   4.911 -0.3197  0.3588  1.9273
 5648SOL     OW17842   1.603   0.286   2.895 -0.1431  0.0185  0.2272
 5648SOL    HW117843   1.594   0.198   2.848  1.1612 -0.0907  0.1652
 5648SOL    HW217844   1.662   0.275   2.975 -1.3219  0.4804  1.1913
 5649SOL     OW17845   0.272   0.857   2.164 -0.0854 -0.3777 -0.1446
 5649SOL    HW117846   0.245   0.941   2.117 -1.1111 -1.1242 -0.9361
 5649SOL    HW217847   0.338   0.807   2.107  0.9146  0.1009  0.5481
 5650SOL     OW17848   0.596   6.904   3.760  0.2450 -0.2919 -0.0396
 5650SOL    HW117849   0.566   6.953   3.841  1.8155 -1.6009  1.4139
 5650SOL    HW217850   0.673   6.952   3.718  0.4585 -0.4321  0.1877
 5651SOL     OW17851   4.658   0.422   4.643  0.2377 -0.1612 -0.5933
 5651SOL    HW117852   4.565   0.459   4.647  0.1887 -0.2157 -1.1313
 5651SOL    HW217853   4.701   0.448   4.556  0.7861  0.0042 -0.2769
 5652SOL     OW17854   2.242   6.497   6.673  0.0487 -0.1008  0.4222
 5652SOL    HW117855   2.235   6.529   6.579 -2.4494 -0.3780  0.4468
 5652SOL    HW217856   2.292   6.565   6.727  0.3017  0.7250 -0.8054
 5653SOL     OW17857   0.954   5.626   5.218  0.1985  0.3204 -0.3683
 5653SOL    HW117858   0.992   5.653   5.130  1.6794 -0.2180  0.0834
 5653SOL    HW217859   0.924   5.530   5.214 -2.4685  1.0851 -1.1228
 5654SOL     OW17860   6.513   5.093   4.146  0.1501  0.1612 -0.4360
 5654SOL    HW117861   6.418   5.063   4.150 -0.2594  0.9788 -2.4987
 5654SOL    HW217862   6.560   5.043   4.074  0.5912  1.4529 -1.0776
 5655SOL     OW17863   3.915   1.233   3.813  0.5481 -0.2609 -0.0358
 5655SOL    HW117864   3.846   1.268   3.749  2.3856  2.3776 -0.7470
 5655SOL    HW217865   3.927   1.299   3.888  1.6927 -1.0834  0.5278
 5656SOL     OW17866   2.051   3.139   3.674  0.1687  0.7419 -0.4091
 5656SOL    HW117867   2.017   3.045   3.663  1.0157  0.1789  1.4653
 5656SOL    HW217868   2.024   3.174   3.763 -0.8093  2.6308 -1.3734
 5657SOL     OW17869   3.227   5.133   2.067 -0.2145 -0.1984 -0.1698
 5657SOL    HW117870   3.130   5.111   2.068 -0.1929 -0.2784  1.0386
 5657SOL    HW217871   3.280   5.050   2.084  0.0701 -0.1353 -0.7178
 5658SOL     OW17872   3.141   0.979   3.873  0.1830 -0.4646  0.3801
 5658SOL    HW117873   3.123   0.888   3.836  0.9035 -0.3101 -0.3998
 5658SOL    HW217874   3.239   0.990   3.889  0.1664  0.3255  0.0171
 5659SOL     OW17875   6.647   5.450   3.438  0.1277  0.6637 -0.2219
 5659SOL    HW117876   6.580   5.379   3.462 -0.0667  1.2410  1.0619
 5659SOL    HW217877   6.637   5.474   3.342  0.0586 -0.8901 -0.6350
 5660SOL     OW17878   2.763   4.310   6.003 -0.6122  0.2805 -0.1117
 5660SOL    HW117879   2.829   4.371   5.959 -0.3204  0.3928  0.4635
 5660SOL    HW217880   2.774   4.217   5.968  2.0139 -0.4041  2.1234
 5661SOL     OW17881   6.547   3.361   3.764  0.2575 -0.1243 -0.4471
 5661SOL    HW117882   6.603   3.362   3.847  0.0267  0.4824 -0.2920
 5661SOL    HW217883   6.586   3.297   3.699  0.7558 -0.2037 -0.0793
 5662SOL     OW17884   5.770   2.427   3.204 -0.4140  0.2765  0.5577
 5662SOL    HW117885   5.692   2.387   3.252 -1.1067  1.3328  0.3425
 5662SOL    HW217886   5.748   2.437   3.107  0.6974 -1.1408  0.1215
 5663SOL     OW17887   5.817   3.974   2.539  0.1580 -0.1129  0.4066
 5663SOL    HW117888   5.832   3.940   2.447  1.0551 -1.0500  0.8777
 5663SOL    HW217889   5.723   3.954   2.567 -0.6401  1.6088 -0.8595
 5664SOL     OW17890   0.418   5.604   4.263  0.7356  0.4366 -0.1298
 5664SOL    HW117891   0.318   5.608   4.255  0.5894 -2.2957 -0.7056
 5664SOL    HW217892   0.446   5.634   4.354 -0.7026  0.3780  0.3585
 5665SOL     OW17893   3.205   1.269   3.330  0.2971  0.6696 -0.1516
 5665SOL    HW117894   3.282   1.283   3.269  0.7985 -0.9339  0.0657
 5665SOL    HW217895   3.230   1.203   3.401 -1.1371  0.4295  0.1670
 5666SOL     OW17896   6.919   0.936   5.889  0.3013  0.2861 -0.5241
 5666SOL    HW117897   6.985   0.866   5.917  0.3893  0.7784  0.5451
 5666SOL    HW217898   6.841   0.893   5.844  0.2440 -0.5183  0.3250
 5667SOL     OW17899   1.720   1.915   2.689 -0.0408 -0.7377  0.0140
 5667SOL    HW117900   1.712   1.999   2.634 -0.6306 -0.5783  0.3419
 5667SOL    HW217901   1.799   1.924   2.750  1.0861 -1.2225 -1.3124
 5668SOL     OW17902   4.329   6.883   1.472  0.2749 -0.1632 -0.0782
 5668SOL    HW117903   4.333   6.962   1.411  1.9274  1.0010  1.4282
 5668SOL    HW217904   4.254   6.895   1.537 -0.7796 -0.8707 -1.1238
 5669SOL     OW17905   6.386   5.407   0.050 -0.7277 -0.1459  0.5422
 5669SOL    HW117906   6.422   5.369   0.135 -0.1533 -0.5877  0.1102
 5669SOL    HW217907   6.442   5.377  -0.027 -0.4750  1.2796  0.1324
 5670SOL     OW17908   1.683   2.283   2.332 -0.4161 -0.1205 -0.3718
 5670SOL    HW117909   1.692   2.240   2.422 -0.2095  0.2924 -0.1893
 5670SOL    HW217910   1.751   2.246   2.269  0.4625  0.6835  0.0813
 5671SOL     OW17911   0.744   5.952   1.421 -0.0939 -0.4790 -0.0861
 5671SOL    HW117912   0.818   5.922   1.481  0.2439 -1.1230 -0.8097
 5671SOL    HW217913   0.712   6.043   1.450  2.4206  0.8006 -1.0058
 5672SOL     OW17914   1.930   2.857   3.253  0.2420 -0.3251 -0.0828
 5672SOL    HW117915   2.003   2.888   3.314 -1.4778  0.5271  1.6230
 5672SOL    HW217916   1.912   2.927   3.184 -0.3472  0.4061  0.7871
 5673SOL     OW17917   0.691   0.277   6.214  0.2791  0.0737 -0.2692
 5673SOL    HW117918   0.756   0.345   6.180  0.4000 -0.1426 -0.4809
 5673SOL    HW217919   0.740   0.206   6.264  0.1062  0.3565  0.3057
 5674SOL     OW17920   4.402   6.079   3.247  0.3399 -0.1439 -0.4081
 5674SOL    HW117921   4.408   6.024   3.164 -0.6344 -0.2620 -0.4074
 5674SOL    HW217922   4.306   6.092   3.272  0.6320 -0.5443  0.9963
 5675SOL     OW17923   0.364   3.389   3.871  0.3714 -0.0789 -0.6560
 5675SOL    HW117924   0.307   3.445   3.810  0.2936  0.5679 -0.0066
 5675SOL    HW217925   0.445   3.358   3.821  1.2795  2.0326 -0.5812
 5676SOL     OW17926   3.076   0.053   2.964 -0.5096  0.5574  0.6886
 5676SOL    HW117927   3.006   0.058   2.893 -0.8030  1.7288  1.0343
 5676SOL    HW217928   3.087  -0.042   2.994 -1.9900  0.3600  0.6650
 5677SOL     OW17929   4.018   1.712   2.780 -0.2052 -0.4750 -0.0595
 5677SOL    HW117930   3.963   1.796   2.782  1.0781  0.3972  1.5438
 5677SOL    HW217931   4.105   1.731   2.733  0.2863 -0.7661  0.7178
 5678SOL     OW17932   4.242   0.017   1.018 -0.3496  0.8491 -0.2299
 5678SOL    HW117933   4.185   0.099   1.008 -1.7463  0.2770  2.0370
 5678SOL    HW217934   4.187  -0.055   1.061  1.3855 -0.6423 -0.4362
 5679SOL     OW17935   4.054   0.207   0.981 -0.1213 -0.3112 -0.2900
 5679SOL    HW117936   4.017   0.272   0.914  0.9015  1.4507  0.7825
 5679SOL    HW217937   3.979   0.172   1.037 -0.5591  0.9489 -0.0525
 5680SOL     OW17938   1.209   2.521   1.477 -0.5667  0.2573 -0.2299
 5680SOL    HW117939   1.133   2.507   1.413 -0.4906 -1.7305  0.0419
 5680SOL    HW217940   1.292   2.481   1.440  0.1374  1.5293 -0.0721
 5681SOL     OW17941   0.236   5.292   3.092 -0.2320 -0.5862 -0.1125
 5681SOL    HW117942   0.162   5.353   3.119  1.4382  1.2196  0.5830
 5681SOL    HW217943   0.267   5.240   3.171  0.9251  0.5709  0.2225
 5682SOL     OW17944   3.280   6.169   0.974  0.5159  0.2849  0.1601
 5682SOL    HW117945   3.341   6.113   1.029  0.3460  1.0433  1.1501
 5682SOL    HW217946   3.299   6.266   0.991  0.1242  0.5337 -0.7493
 5683SOL     OW17947   0.242   0.324   2.636  0.0630  0.2521  0.3317
 5683SOL    HW117948   0.211   0.258   2.568 -0.4844  1.0241 -0.1788
 5683SOL    HW217949   0.163   0.363   2.684  0.4798 -1.8757  3.0116
 5684SOL     OW17950   4.942   6.509   4.134  0.4485  0.3447 -0.3116
 5684SOL    HW117951   4.843   6.522   4.131  0.3658 -0.2149 -0.0658
 5684SOL    HW217952   4.968   6.443   4.064  0.2748 -1.7705  1.5162
 5685SOL     OW17953   1.724   4.362   1.291 -0.5536 -0.2313  0.9670
 5685SOL    HW117954   1.681   4.332   1.375 -2.1572 -2.3165 -0.4976
 5685SOL    HW217955   1.780   4.288   1.253 -2.2475 -0.4773 -1.2533
 5686SOL     OW17956   1.746   5.400   5.298  0.5324  0.1159 -0.8173
 5686SOL    HW117957   1.701   5.312   5.313  0.3494  0.4358  0.6339
 5686SOL    HW217958   1.713   5.467   5.365  2.4900  0.6134 -0.2843
 5687SOL     OW17959   1.997   0.882   3.060  0.3724  0.2891  0.5331
 5687SOL    HW117960   1.904   0.874   3.097 -0.5322  0.7575 -1.4757
 5687SOL    HW217961   2.052   0.940   3.120 -0.9226  0.7640  1.3033
 5688SOL     OW17962   5.984   6.581   0.884 -0.0529 -0.2279  0.4709
 5688SOL    HW117963   6.005   6.486   0.909 -1.2702 -0.3105  1.2567
 5688SOL    HW217964   5.926   6.581   0.802  0.0647 -0.1500  0.3875
 5689SOL     OW17965   2.280   0.695   4.552 -0.3727  0.3017 -0.2898
 5689SOL    HW117966   2.325   0.615   4.513 -1.7139  0.4628 -2.2967
 5689SOL    HW217967   2.181   0.687   4.540 -0.7079  1.2686  1.4628
 5690SOL     OW17968   5.722   3.988   4.629 -0.1307  0.2333  0.2721
 5690SOL    HW117969   5.685   4.071   4.587 -0.3421 -0.0510 -0.1003
 5690SOL    HW217970   5.667   3.909   4.603  0.9792 -0.2700 -0.6542
 5691SOL     OW17971   0.163   5.859   6.533 -1.1817 -0.3400  0.1096
 5691SOL    HW117972   0.216   5.921   6.475  1.0647 -2.7440 -0.5665
 5691SOL    HW217973   0.077   5.904   6.559 -0.0953  2.6639 -1.0340
 5692SOL     OW17974   4.783   3.057   2.806 -0.1155 -0.3002  0.1841
 5692SOL    HW117975   4.769   2.973   2.857  1.0404 -0.9662 -0.5609
 5692SOL    HW217976   4.840   3.119   2.860 -0.4287 -0.2451  0.4584
 5693SOL     OW17977   4.764   2.347   2.013  0.0845 -0.0773  0.2781
 5693SOL    HW117978   4.704   2.425   1.995  1.1641  0.8221  0.5169
 5693SOL    HW217979   4.768   2.289   1.932 -0.0938  0.5516 -0.1867
 5694SOL     OW17980   0.865   6.054   1.167  0.4593  0.2952  0.0308
 5694SOL    HW117981   0.792   6.102   1.120  0.6562  0.0541 -0.5241
 5694SOL    HW217982   0.848   6.056   1.266  0.4675  1.4820  0.0166
 5695SOL     OW17983   2.154   3.354   4.066 -0.4771 -0.1498 -0.0442
 5695SOL    HW117984   2.148   3.254   4.065  1.1156 -0.2818  0.8359
 5695SOL    HW217985   2.134   3.388   4.158  1.3987  0.1207  0.3059
 5696SOL     OW17986   6.176   3.090   6.380 -0.7981  0.2877 -0.0632
 5696SOL    HW117987   6.229   3.112   6.298 -0.2134 -0.2680  0.1553
 5696SOL    HW217988   6.079   3.083   6.357 -0.7752  1.2448 -0.4827
 5697SOL     OW17989   5.332   2.036   5.358  0.5801 -0.0850 -0.0328
 5697SOL    HW117990   5.354   2.123   5.401 -0.1105  0.5874 -1.0019
 5697SOL    HW217991   5.393   2.020   5.281  0.7612 -0.5036  0.1959
 5698SOL     OW17992   0.317   4.068   3.028 -0.4497  0.0183 -0.5420
 5698SOL    HW117993   0.360   4.155   3.051 -0.6692  0.1958 -0.7945
 5698SOL    HW217994   0.232   4.085   2.978 -1.0004 -0.3138  0.2586
 5699SOL     OW17995   0.135   2.964   6.839  0.4670  0.7992 -0.1984
 5699SOL    HW117996   0.128   2.871   6.803  2.5846  0.8735 -0.9450
 5699SOL    HW217997   0.113   3.029   6.767 -2.6032  0.9499  0.7384
 5700SOL     OW17998   4.897   5.676   6.132  0.2705 -0.3956 -0.3992
 5700SOL    HW117999   4.901   5.751   6.066 -0.7895  0.4476  0.4584
 5700SOL    HW218000   4.883   5.713   6.224 -2.8291 -1.6896 -0.2233
 5701SOL     OW18001   5.908   5.645   4.537  0.0190  0.1323  0.1263
 5701SOL    HW118002   5.899   5.620   4.440  0.6007  1.3330 -0.2543
 5701SOL    HW218003   5.992   5.697   4.550  0.6795 -1.2319  1.5489
 5702SOL     OW18004   3.158   6.250   5.427 -0.1488 -0.1205 -0.3164
 5702SOL    HW118005   3.061   6.242   5.403  0.1494  1.7845 -2.6399
 5702SOL    HW218006   3.214   6.222   5.348  1.1027  0.9867  0.1255
 5703SOL     OW18007   0.945   4.126   1.374  0.1506  0.1184  0.3835
 5703SOL    HW118008   0.910   4.197   1.435 -0.9194 -0.1965  0.1430
 5703SOL    HW218009   1.038   4.151   1.345  0.5531  0.4437  1.8475
 5704SOL     OW18010   5.583   6.991   0.640 -0.2754  0.3416 -0.2270
 5704SOL    HW118011   5.507   7.023   0.582  0.2546 -0.2707 -1.2971
 5704SOL    HW218012   5.562   6.900   0.675 -0.5316  0.6521  0.4390
 5705SOL     OW18013   0.853   6.207   4.246 -0.0735  0.3999 -0.1333
 5705SOL    HW118014   0.860   6.147   4.167  0.7444  1.5798 -0.9837
 5705SOL    HW218015   0.760   6.201   4.284  0.2455 -2.0825  0.4045
 5706SOL     OW18016   4.188   2.595   0.876  0.1805  0.4126  0.4951
 5706SOL    HW118017   4.185   2.624   0.780 -0.4790  0.6557  0.5832
 5706SOL    HW218018   4.253   2.652   0.926  1.3354 -0.4037 -0.0189
 5707SOL     OW18019   4.659   6.458   5.768 -0.1550  0.0336  0.3772
 5707SOL    HW118020   4.703   6.419   5.687  1.9333 -0.8928  1.8597
 5707SOL    HW218021   4.651   6.557   5.758 -0.0142 -0.0713 -0.9649
 5708SOL     OW18022   1.361   3.937   5.156 -0.5772 -0.0845 -0.5310
 5708SOL    HW118023   1.443   3.883   5.136 -0.7335 -0.2731 -0.6561
 5708SOL    HW218024   1.297   3.931   5.080 -0.8302 -0.1673 -0.3120
 5709SOL     OW18025   1.542   5.840   3.143  0.3264  0.1334  0.4683
 5709SOL    HW118026   1.551   5.802   3.051 -0.0760 -1.8493  1.1934
 5709SOL    HW218027   1.447   5.835   3.173  0.8239 -1.9195  1.9932
 5710SOL     OW18028   3.042   6.526   5.413  0.5099 -0.1335 -0.1368
 5710SOL    HW118029   3.129   6.502   5.369  1.7226  1.1563  1.4587
 5710SOL    HW218030   3.027   6.624   5.406 -0.1144 -0.1482  0.8482
 5711SOL     OW18031   4.563   5.750   6.030  0.0398 -0.0596  0.8932
 5711SOL    HW118032   4.613   5.704   5.957 -0.8010 -0.7147  0.7125
 5711SOL    HW218033   4.627   5.782   6.100  1.0644  2.1357 -0.9225
 5712SOL     OW18034   4.310   4.032   0.711  0.2265  0.0702 -0.4249
 5712SOL    HW118035   4.265   4.073   0.790  1.4520  0.4885  0.0829
 5712SOL    HW218036   4.274   3.940   0.696 -0.3535  0.1655  0.3253
 5713SOL     OW18037   2.760   4.755   1.286 -0.6887 -1.1201  0.2619
 5713SOL    HW118038   2.830   4.769   1.355  1.3820  0.9555 -2.0963
 5713SOL    HW218039   2.792   4.688   1.219 -0.7108  0.1833 -1.0863
 5714SOL     OW18040   5.179   4.972   5.716  0.1065  0.1105 -0.0864
 5714SOL    HW118041   5.245   5.004   5.785 -0.3158  1.4769 -0.2866
 5714SOL    HW218042   5.147   5.050   5.662 -0.4207 -0.7788 -1.1009
 5715SOL     OW18043   0.330   0.529   2.261 -0.1353 -0.3409  0.0463
 5715SOL    HW118044   0.338   0.613   2.207 -3.9200  1.8864  2.4801
 5715SOL    HW218045   0.266   0.466   2.216 -0.3455 -0.1416  0.0603
 5716SOL     OW18046   2.975   6.271   4.498  0.6057 -0.1834  0.2803
 5716SOL    HW118047   3.066   6.241   4.526  1.4932  0.7096 -1.4634
 5716SOL    HW218048   2.982   6.358   4.449 -0.9521 -0.8660 -1.2944
 5717SOL     OW18049   0.357   1.060   5.977  0.0551  0.2663 -0.4680
 5717SOL    HW118050   0.334   1.157   5.969 -1.9325 -0.2910 -2.8963
 5717SOL    HW218051   0.339   1.015   5.889 -0.0289 -2.5098  0.8841
 5718SOL     OW18052   1.242   4.841   1.265 -0.2594  0.3073 -0.3860
 5718SOL    HW118053   1.190   4.852   1.350  0.2342 -1.6098  0.2276
 5718SOL    HW218054   1.333   4.805   1.287  0.7005  1.9241 -1.5774
 5719SOL     OW18055   2.879   6.245   4.244 -0.4468 -0.4416 -0.4426
 5719SOL    HW118056   2.961   6.207   4.202  0.2132  0.3402  0.1111
 5719SOL    HW218057   2.888   6.242   4.343 -1.0312 -0.2360 -0.3787
 5720SOL     OW18058   1.853   5.467   2.581 -0.2658 -0.3402  0.5527
 5720SOL    HW118059   1.776   5.502   2.527 -0.6158  0.7783  1.7189
 5720SOL    HW218060   1.847   5.503   2.674  1.7746 -0.0820  0.6284
 5721SOL     OW18061   5.829   1.988   1.980 -0.2704  0.4696  0.7392
 5721SOL    HW118062   5.878   2.024   1.901  0.5505  2.0331  1.8819
 5721SOL    HW218063   5.734   2.020   1.978 -0.7095 -0.8096 -0.3859
 5722SOL     OW18064   3.461   4.849   0.480  0.5512  0.2425  0.0472
 5722SOL    HW118065   3.379   4.882   0.526  1.3569 -0.6976  2.2561
 5722SOL    HW218066   3.450   4.753   0.456  1.1940 -0.0531  0.8835
 5723SOL     OW18067   2.993   3.937   4.838 -0.4382  0.3768 -0.3587
 5723SOL    HW118068   2.947   3.911   4.753  0.5038 -1.0970 -0.4592
 5723SOL    HW218069   3.083   3.975   4.817  0.3253 -1.1375 -0.0326
 5724SOL     OW18070   0.659   1.030   0.288  0.0546  0.2117  0.1475
 5724SOL    HW118071   0.617   1.120   0.302  0.7976  0.4323  1.0992
 5724SOL    HW218072   0.687   0.992   0.376 -1.0500 -1.3815 -0.1422
 5725SOL     OW18073   6.967   6.959   3.700 -0.5483 -0.4916 -0.8350
 5725SOL    HW118074   7.060   6.985   3.674 -0.3954 -0.2417 -0.0410
 5725SOL    HW218075   6.922   7.035   3.746 -0.2806 -1.4019  1.0334
 5726SOL     OW18076   2.987   2.862   1.472 -0.1423  0.3832  0.4087
 5726SOL    HW118077   2.888   2.873   1.469 -0.2938 -0.7916  0.5436
 5726SOL    HW218078   3.011   2.803   1.549  0.5860 -0.0429 -0.1321
 5727SOL     OW18079   5.900   6.686   0.046 -0.4502  0.1559  0.1365
 5727SOL    HW118080   5.821   6.662  -0.010  0.1645  0.7605 -1.0369
 5727SOL    HW218081   5.947   6.764   0.005  0.8987 -0.3432  0.6682
 5728SOL     OW18082   6.479   3.998   1.695  0.3932 -0.3518 -0.4009
 5728SOL    HW118083   6.506   4.085   1.736  0.9891 -0.6355 -0.1820
 5728SOL    HW218084   6.390   3.970   1.733  0.7175 -0.3804  0.3589
 5729SOL     OW18085   4.830   4.144   2.584 -0.6366  0.4709  0.8521
 5729SOL    HW118086   4.870   4.221   2.632 -1.1397  0.4955  1.2393
 5729SOL    HW218087   4.738   4.168   2.553 -1.1632 -0.2687  1.7764
 5730SOL     OW18088   4.075   6.051   3.065  0.8170 -0.2617  0.0280
 5730SOL    HW118089   4.094   6.050   3.163  1.2942  0.6206 -0.0412
 5730SOL    HW218090   4.161   6.061   3.015  0.4729  0.4819 -0.4292
 5731SOL     OW18091   4.959   5.740   2.033 -0.6459 -0.8151  0.7503
 5731SOL    HW118092   4.975   5.838   2.050  0.0666 -0.6323 -0.8172
 5731SOL    HW218093   5.045   5.690   2.041 -0.5961 -0.9675 -0.4955
 5732SOL     OW18094   2.775   2.353   3.341  0.1522  0.7042  0.4003
 5732SOL    HW118095   2.762   2.385   3.435 -0.3338 -0.2080  0.6579
 5732SOL    HW218096   2.692   2.370   3.288 -1.1683 -2.3628  1.2339
 5733SOL     OW18097   3.982   1.718   3.516 -0.0732  0.3114  0.0551
 5733SOL    HW118098   3.904   1.747   3.461 -0.4152 -0.2068  0.2554
 5733SOL    HW218099   4.011   1.793   3.575  0.1892  0.8126 -0.7131
 5734SOL     OW18100   1.911   6.555   2.946 -0.1333  0.0803 -0.2255
 5734SOL    HW118101   1.906   6.457   2.966 -3.6265  0.0322 -0.7451
 5734SOL    HW218102   1.861   6.574   2.862  1.7480  2.1855 -0.9687
 5735SOL     OW18103   1.079   6.171   3.440  0.4226 -0.6110  0.3492
 5735SOL    HW118104   1.113   6.140   3.351  0.7814  0.4674  0.0997
 5735SOL    HW218105   1.054   6.268   3.435 -1.0526 -0.9221  1.0048
 5736SOL     OW18106   1.922   0.986   5.753  0.4511 -0.6445 -0.2544
 5736SOL    HW118107   1.869   0.969   5.670 -0.9402  1.9210 -0.0177
 5736SOL    HW218108   1.920   0.905   5.812 -1.5573 -1.3102 -1.1648
 5737SOL     OW18109   2.310   0.126   6.242 -0.2480 -0.0979  0.0195
 5737SOL    HW118110   2.229   0.150   6.187  0.7710  0.8289 -1.1351
 5737SOL    HW218111   2.392   0.156   6.194  0.7745 -0.6968  1.3518
 5738SOL     OW18112   1.883   3.789   5.335 -0.2442 -0.5858  0.1934
 5738SOL    HW118113   1.933   3.779   5.250 -0.8332  1.3667 -0.4384
 5738SOL    HW218114   1.863   3.699   5.373  0.3725 -1.4809 -1.5195
 5739SOL     OW18115   5.954   0.990   1.665 -0.2836  0.2137  0.1459
 5739SOL    HW118116   5.885   0.917   1.664  0.9816 -1.0639 -2.2799
 5739SOL    HW218117   6.022   0.969   1.735 -0.7734 -0.0828  0.5452
 5740SOL     OW18118   3.887   3.314   5.425  0.1576 -0.2557 -0.5071
 5740SOL    HW118119   3.890   3.242   5.356  2.0012 -0.8106  0.1020
 5740SOL    HW218120   3.829   3.286   5.501  0.7342 -1.0414 -0.3515
 5741SOL     OW18121   3.690   3.034   1.714  0.2213  0.3868 -0.1011
 5741SOL    HW118122   3.699   3.133   1.707  0.9569  0.4571  1.4318
 5741SOL    HW218123   3.745   2.990   1.643 -0.1536  1.0530 -0.8246
 5742SOL     OW18124   5.644   0.177   4.838 -0.3292  0.1917 -0.2068
 5742SOL    HW118125   5.727   0.193   4.892  0.1257  0.2420 -0.9043
 5742SOL    HW218126   5.619   0.261   4.790 -0.3417 -0.0312 -0.5985
 5743SOL     OW18127   1.112   3.882   2.366  0.0384  0.7644  0.6532
 5743SOL    HW118128   1.012   3.873   2.367  0.1660 -1.5329 -0.2955
 5743SOL    HW218129   1.137   3.978   2.378 -2.3419  1.6755 -0.9075
 5744SOL     OW18130   5.236   5.897   2.110  0.0717 -0.3728 -0.5258
 5744SOL    HW118131   5.225   5.798   2.123  0.2548 -0.1848  1.3635
 5744SOL    HW218132   5.154   5.944   2.143  0.5053  0.1785 -0.2286
 5745SOL     OW18133   0.481   6.950   5.121  0.0537 -0.1374  0.0105
 5745SOL    HW118134   0.560   6.912   5.073 -0.2068  0.8768 -1.2756
 5745SOL    HW218135   0.470   7.046   5.096 -0.8368  0.0783  1.1678
 5746SOL     OW18136   4.534   6.511   1.219  0.0442 -0.1742 -0.0172
 5746SOL    HW118137   4.480   6.464   1.149  0.4933 -1.2176  0.3214
 5746SOL    HW218138   4.519   6.610   1.211 -0.1341 -0.2854 -1.3904
 5747SOL     OW18139   1.072   5.273   6.387 -0.1926 -0.2186 -0.3210
 5747SOL    HW118140   1.002   5.319   6.443  0.6188  0.4643  0.1502
 5747SOL    HW218141   1.073   5.312   6.296 -1.6254 -1.4359 -0.9207
 5748SOL     OW18142   6.391   0.504   2.843 -0.8121  0.5157 -0.2159
 5748SOL    HW118143   6.419   0.567   2.770 -2.0377 -0.4073 -1.5355
 5748SOL    HW218144   6.466   0.439   2.861 -0.4153  0.8921 -0.4917
 5749SOL     OW18145   6.681   4.780   4.624  0.1432  0.2060 -0.4171
 5749SOL    HW118146   6.715   4.741   4.539 -0.3839 -0.3752 -0.3621
 5749SOL    HW218147   6.748   4.764   4.697  0.5730  0.6655 -0.7067
 5750SOL     OW18148   5.031   1.206   6.450 -0.1207  0.1511 -0.3983
 5750SOL    HW118149   5.119   1.224   6.407  0.5046  3.8210  1.9474
 5750SOL    HW218150   4.964   1.273   6.419 -0.6323  0.6120  1.5318
 5751SOL     OW18151   2.210   4.065   5.339  0.1728  0.1054  0.2313
 5751SOL    HW118152   2.261   4.123   5.403  0.5887 -0.2504  0.2273
 5751SOL    HW218153   2.262   4.056   5.254  0.8831 -1.5775  0.8157
 5752SOL     OW18154   2.381   6.958   5.567 -0.1924 -0.2291  0.8147
 5752SOL    HW118155   2.371   7.047   5.612  0.7446  0.5424 -0.4298
 5752SOL    HW218156   2.322   6.955   5.486  0.5947 -0.2850  0.2245
 5753SOL     OW18157   2.160   6.662   3.723 -0.5370 -0.1266  0.3989
 5753SOL    HW118158   2.207   6.741   3.762  1.6315 -1.8363  1.4817
 5753SOL    HW218159   2.112   6.613   3.796 -0.0714 -0.9724  0.1491
 5754SOL     OW18160   5.782   4.294   6.856 -0.6445  0.1246  0.0418
 5754SOL    HW118161   5.783   4.349   6.940 -1.0618 -0.8976  0.7355
 5754SOL    HW218162   5.690   4.260   6.840 -0.7012  0.7948 -1.1782
 5755SOL     OW18163   0.174   6.295   6.520 -0.1571  0.1694  0.0557
 5755SOL    HW118164   0.200   6.391   6.531 -0.1834 -0.0700  3.7933
 5755SOL    HW218165   0.076   6.289   6.500  0.0537  0.9138 -1.2729
 5756SOL     OW18166   0.714   1.970   6.126 -0.0393 -0.3740 -0.3198
 5756SOL    HW118167   0.725   2.059   6.171 -1.6935  0.2340 -1.0171
 5756SOL    HW218168   0.701   1.985   6.028 -0.4813 -1.3754 -0.4239
 5757SOL     OW18169   4.823   0.438   0.287 -0.0411  0.2699 -0.2685
 5757SOL    HW118170   4.730   0.406   0.268 -0.5189  0.2247  1.8643
 5757SOL    HW218171   4.836   0.529   0.249 -1.1311  0.4635 -0.2031
 5758SOL     OW18172   5.727   2.301   1.757  0.0974 -0.5766 -0.3284
 5758SOL    HW118173   5.798   2.344   1.813  0.6483 -0.5018 -1.0676
 5758SOL    HW218174   5.680   2.371   1.704 -2.1891 -0.2741  1.8959
 5759SOL     OW18175   3.927   2.444   5.491  0.3368  0.5522 -0.1080
 5759SOL    HW118176   3.840   2.403   5.518  0.4172  1.0129  0.9184
 5759SOL    HW218177   3.936   2.534   5.534 -0.5317  2.4419 -3.5084
 5760SOL     OW18178   4.395   3.125   1.178  0.2731 -0.6322 -0.1985
 5760SOL    HW118179   4.383   3.153   1.273  0.2406 -0.6539 -0.1961
 5760SOL    HW218180   4.360   3.197   1.118 -0.4215 -0.9510 -0.1841
 5761SOL     OW18181   1.637   1.592   4.945 -0.0938 -0.1188  0.5120
 5761SOL    HW118182   1.611   1.687   4.928 -1.8311 -0.7754 -0.8190
 5761SOL    HW218183   1.653   1.579   5.043 -1.0258  1.2723  0.8765
 5762SOL     OW18184   1.016   4.304   4.788  0.2686  0.2830 -0.6842
 5762SOL    HW118185   0.931   4.315   4.840 -0.1158  1.0105 -1.4534
 5762SOL    HW218186   1.093   4.293   4.852 -0.3012  0.3304  0.0241
 5763SOL     OW18187   5.153   4.166   1.526  0.1414  0.1921  0.1316
 5763SOL    HW118188   5.244   4.179   1.486  0.0810 -2.0599 -0.8776
 5763SOL    HW218189   5.084   4.197   1.460  0.1319  0.0079  0.0548
 5764SOL     OW18190   5.264   4.371   4.250 -0.2257 -0.1908 -0.2326
 5764SOL    HW118191   5.270   4.375   4.350  0.6696 -1.2356 -0.2270
 5764SOL    HW218192   5.175   4.333   4.224 -0.4323  0.0080  0.1656
 5765SOL     OW18193   0.936   1.023   0.344  0.3261  0.3277  0.0172
 5765SOL    HW118194   0.871   0.981   0.408  0.6484 -0.0927  0.0749
 5765SOL    HW218195   0.934   1.122   0.355 -0.8481  0.3795 -0.5070
 5766SOL     OW18196   3.520   4.963   2.422  0.2460 -0.7435 -0.0163
 5766SOL    HW118197   3.424   4.939   2.408 -0.4957  2.3619 -1.0733
 5766SOL    HW218198   3.571   4.946   2.337  0.2477 -0.8224  0.0008
 5767SOL     OW18199   1.842   3.565   5.500 -0.5340  0.2351  0.8050
 5767SOL    HW118200   1.816   3.568   5.596 -1.2865  0.5438  0.6030
 5767SOL    HW218201   1.920   3.505   5.488 -1.1494 -0.7245  1.4447
 5768SOL     OW18202   3.040   0.813   0.187  0.3597  0.4861  0.1376
 5768SOL    HW118203   2.976   0.745   0.222 -0.2355  0.6178 -0.6788
 5768SOL    HW218204   3.109   0.769   0.130  0.9552  0.3564  0.9440
 5769SOL     OW18205   3.313   6.969   1.407 -0.1744 -0.4675  0.7072
 5769SOL    HW118206   3.350   6.902   1.471 -0.3758 -0.8712  0.4059
 5769SOL    HW218207   3.365   7.054   1.414  0.3773 -0.8054  0.7684
 5770SOL     OW18208   5.608   5.761   5.968 -0.5562  0.3055  0.4154
 5770SOL    HW118209   5.640   5.757   5.873 -0.7555 -0.4257  0.3716
 5770SOL    HW218210   5.525   5.816   5.973 -0.1199  0.9868  0.2946
 5771SOL     OW18211   2.990   5.042   0.020 -0.4330 -0.3431 -0.8338
 5771SOL    HW118212   2.914   5.051  -0.044  0.0957 -0.4170 -1.4944
 5771SOL    HW218213   3.010   4.945   0.034 -0.5898 -0.3282 -0.4981
 5772SOL     OW18214   5.407   3.010   1.193  0.2260  0.0831  0.3522
 5772SOL    HW118215   5.433   3.054   1.107  2.8214 -1.0001  0.4758
 5772SOL    HW218216   5.384   3.079   1.261  1.9077  1.1775 -0.1319
 5773SOL     OW18217   5.312   4.540   5.860 -0.0794 -0.2473 -0.4635
 5773SOL    HW118218   5.310   4.630   5.904 -0.2441 -0.8175  0.7233
 5773SOL    HW218219   5.278   4.549   5.766 -0.2928  0.8968 -0.2942
 5774SOL     OW18220   3.114   0.715   4.236 -0.0249 -0.0085 -0.6496
 5774SOL    HW118221   3.180   0.711   4.311  1.1315  1.9724 -1.4846
 5774SOL    HW218222   3.137   0.647   4.167  1.6907  1.1956 -1.3120
 5775SOL     OW18223   2.207   1.876   6.896  0.1206  0.5033 -0.6360
 5775SOL    HW118224   2.290   1.928   6.874 -0.6218  1.8826 -0.3230
 5775SOL    HW218225   2.139   1.890   6.824  0.5285 -1.5623 -1.4849
 5776SOL     OW18226   5.602   1.335   1.467  0.3174 -0.5989  0.3368
 5776SOL    HW118227   5.510   1.329   1.428  0.4323  0.0015 -0.0281
 5776SOL    HW218228   5.662   1.270   1.419  1.0336  1.7329 -2.1641
 5777SOL     OW18229   3.055   1.735   5.925 -0.2184 -0.2864 -0.0114
 5777SOL    HW118230   2.975   1.695   5.970  0.4219 -0.8575  0.6416
 5777SOL    HW218231   3.045   1.835   5.921 -2.0998 -0.4878 -2.1860
 5778SOL     OW18232   4.266   1.467   3.003 -0.6731 -0.7073 -0.2481
 5778SOL    HW118233   4.190   1.509   3.053 -0.9199 -0.2315 -1.0037
 5778SOL    HW218234   4.339   1.444   3.068 -1.3326 -0.9063  0.4451
 5779SOL     OW18235   4.475   3.720   5.941  0.5377 -0.5538  0.1268
 5779SOL    HW118236   4.484   3.751   5.846  0.2382 -1.0519 -0.0693
 5779SOL    HW218237   4.438   3.627   5.942 -1.8139  0.3398  0.8028
 5780SOL     OW18238   3.713   1.396   5.603  0.1111 -0.7593 -0.4744
 5780SOL    HW118239   3.651   1.343   5.660  0.3999  0.2143  0.7789
 5780SOL    HW218240   3.748   1.339   5.529 -2.9701 -1.1047 -1.8058
 5781SOL     OW18241   2.500   1.210   4.417 -0.4906 -0.0377 -0.2876
 5781SOL    HW118242   2.540   1.203   4.326  0.7634 -1.6965  0.3315
 5781SOL    HW218243   2.573   1.224   4.485 -0.7905 -3.3759  0.8993
 5782SOL     OW18244   3.922   5.368   3.469 -0.0618 -0.3798 -0.0337
 5782SOL    HW118245   3.863   5.446   3.489  1.2396  0.1668  2.0108
 5782SOL    HW218246   3.911   5.298   3.539  2.6343  0.3495  1.2536
 5783SOL     OW18247   0.067   5.419   1.955  0.1046  0.3654  0.0703
 5783SOL    HW118248  -0.019   5.468   1.965  0.3297  0.7825 -0.0171
 5783SOL    HW218249   0.143   5.482   1.965  0.3921  0.2631 -1.2096
 5784SOL     OW18250   2.968   5.770   6.258 -0.1128  0.9804 -0.1741
 5784SOL    HW118251   3.015   5.682   6.250 -2.0639  0.0464 -2.6698
 5784SOL    HW218252   2.912   5.771   6.340 -1.0502 -0.6678 -0.7498
 5785SOL     OW18253   0.821   6.728   0.408  0.1809 -0.0104 -0.0517
 5785SOL    HW118254   0.915   6.701   0.385 -0.3891 -1.7842 -0.4377
 5785SOL    HW218255   0.790   6.676   0.487 -0.3263  0.9429  0.3992
 5786SOL     OW18256   3.543   6.780   2.944  0.2114 -0.3504 -0.3290
 5786SOL    HW118257   3.532   6.858   3.006 -0.8027 -1.5870  1.0880
 5786SOL    HW218258   3.638   6.748   2.949  0.8308  1.1729 -1.4463
 5787SOL     OW18259   5.101   4.950   6.169  0.1400 -0.0588 -0.1971
 5787SOL    HW118260   5.067   4.889   6.097  1.2195 -1.0490  0.1048
 5787SOL    HW218261   5.133   4.896   6.247  2.6436  0.7524 -0.5613
 5788SOL     OW18262   0.304   1.421   1.252 -0.3392  0.0448 -0.0728
 5788SOL    HW118263   0.355   1.343   1.216 -1.0025 -0.5512  0.2541
 5788SOL    HW218264   0.368   1.489   1.288  0.2250 -0.7880  0.5378
 5789SOL     OW18265   4.306   4.656   4.532  0.0338  0.0010 -0.0602
 5789SOL    HW118266   4.364   4.737   4.535  0.3261 -0.1283 -1.4108
 5789SOL    HW218267   4.241   4.658   4.608  0.1973  1.3621  0.0638
 5790SOL     OW18268   1.838   6.260   0.591 -0.1217 -0.8022  0.0741
 5790SOL    HW118269   1.802   6.174   0.555  0.7210 -1.5281  0.9191
 5790SOL    HW218270   1.937   6.255   0.598  0.0349  0.5615 -0.6430
 5791SOL     OW18271   1.945   5.534   4.466 -0.3366  0.3077  0.0525
 5791SOL    HW118272   1.888   5.455   4.446  1.5529 -0.9127 -0.7739
 5791SOL    HW218273   1.887   5.611   4.495 -2.1696 -1.5594  1.6368
 5792SOL     OW18274   0.827   0.447   5.924  0.3409  0.1311 -0.5468
 5792SOL    HW118275   0.737   0.490   5.922 -0.0281 -0.6167 -0.5138
 5792SOL    HW218276   0.865   0.454   6.016 -0.6406 -1.4277  0.0240
 5793SOL     OW18277   5.430   1.088   0.306  0.5598 -0.2309 -0.1350
 5793SOL    HW118278   5.425   1.183   0.339  0.6145 -0.5902  0.9363
 5793SOL    HW218279   5.526   1.060   0.301  0.6637  0.3152 -2.1208
 5794SOL     OW18280   4.297   5.574   4.021  0.1872 -0.1256  0.3388
 5794SOL    HW118281   4.363   5.594   4.094 -0.3544  0.6425  0.6292
 5794SOL    HW218282   4.217   5.528   4.060 -0.0316  0.1408  0.2095
 5795SOL     OW18283   5.773   5.750   6.201  0.1989 -0.4268 -0.1186
 5795SOL    HW118284   5.752   5.793   6.289 -0.0512  0.8135 -0.7623
 5795SOL    HW218285   5.698   5.765   6.137  0.7982 -0.4619 -0.8543
 5796SOL     OW18286   3.849   4.058   0.736 -0.3519  0.7289 -0.1467
 5796SOL    HW118287   3.811   3.995   0.804 -1.1142  0.2311 -1.0161
 5796SOL    HW218288   3.803   4.045   0.649 -0.3680  2.3562 -0.4093
 5797SOL     OW18289   5.598   6.170   5.085  0.5968 -0.0976 -0.1899
 5797SOL    HW118290   5.615   6.262   5.121 -0.5513  0.2047 -0.3887
 5797SOL    HW218291   5.605   6.104   5.159  3.7967 -0.1939 -0.4441
 5798SOL     OW18292   2.437   0.948   4.156  0.3884  0.1769 -0.0343
 5798SOL    HW118293   2.386   0.975   4.238 -0.5333 -0.7763 -0.2690
 5798SOL    HW218294   2.440   0.848   4.150 -0.8947  0.1824 -1.9245
 5799SOL     OW18295   1.989   6.158   2.507 -0.1641 -0.0408 -0.3092
 5799SOL    HW118296   2.049   6.179   2.430 -1.4427  1.8419 -0.8458
 5799SOL    HW218297   1.894   6.162   2.479 -0.6314 -2.3319  0.6983
 5800SOL     OW18298   1.250   1.106   4.317  0.6829  0.0453 -0.0112
 5800SOL    HW118299   1.310   1.138   4.244  1.3861 -1.2730 -0.0377
 5800SOL    HW218300   1.216   1.014   4.294 -0.0825  0.1350  0.7383
 5801SOL     OW18301   0.323   2.350   3.259  0.3760  0.0275  0.2998
 5801SOL    HW118302   0.318   2.267   3.314 -0.4936  0.2074  0.5038
 5801SOL    HW218303   0.369   2.422   3.311 -0.0808  0.0744  0.6415
 5802SOL     OW18304   4.230   6.431   5.100  0.0869 -0.4489  0.1195
 5802SOL    HW118305   4.182   6.519   5.100 -0.1821 -0.5870  0.9519
 5802SOL    HW218306   4.248   6.404   5.006 -2.2127 -0.7765 -0.2961
 5803SOL     OW18307   0.758   1.265   0.013 -0.2048  0.0433  0.1875
 5803SOL    HW118308   0.820   1.215  -0.048 -0.9239 -1.9050  0.9690
 5803SOL    HW218309   0.811   1.328   0.070  0.8911 -0.5584 -0.1408
 5804SOL     OW18310   5.574   5.273   0.819 -0.3644  0.4231 -0.3345
 5804SOL    HW118311   5.513   5.343   0.783  0.5400  0.3295 -2.1474
 5804SOL    HW218312   5.668   5.292   0.789 -0.0379 -1.3093 -0.5120
 5805SOL     OW18313   2.215   2.991   4.532 -0.5288 -0.2749  0.7208
 5805SOL    HW118314   2.285   2.925   4.561  1.4943  1.3686 -0.1508
 5805SOL    HW218315   2.124   2.950   4.543  0.6072 -4.2068 -2.0106
 5806SOL     OW18316   6.550   0.892   7.001  0.8327  0.5620 -0.0899
 5806SOL    HW118317   6.575   0.960   6.932  2.0297  0.1779 -0.0689
 5806SOL    HW218318   6.475   0.926   7.057  0.1212  1.0596 -1.3054
 5807SOL     OW18319   0.172   3.685   4.587 -0.3163 -0.3420 -0.0722
 5807SOL    HW118320   0.180   3.603   4.643  0.4993  0.5596  1.1926
 5807SOL    HW218321   0.076   3.710   4.578 -0.6001 -1.5878 -0.7383
 5808SOL     OW18322   0.927   0.965   2.880  0.5282 -0.0348 -0.2210
 5808SOL    HW118323   0.941   1.057   2.842  0.4151 -0.0165 -0.2193
 5808SOL    HW218324   0.994   0.949   2.952 -0.4180  0.6489  0.8496
 5809SOL     OW18325   6.042   5.829   6.865  0.0256  0.5359  0.4858
 5809SOL    HW118326   6.100   5.841   6.785 -0.1480 -2.7496 -0.2794
 5809SOL    HW218327   5.960   5.886   6.856 -0.4649 -0.4523 -2.2117
 5810SOL     OW18328   0.817   0.527   6.223  0.3506  0.1658 -0.0300
 5810SOL    HW118329   0.761   0.607   6.245 -0.4542  0.0995 -1.6756
 5810SOL    HW218330   0.878   0.506   6.300 -1.9701  0.1303  1.8914
 5811SOL     OW18331   3.370   0.881   1.401 -0.5940 -0.1839  0.5679
 5811SOL    HW118332   3.337   0.955   1.342 -0.1452 -0.4919 -0.0766
 5811SOL    HW218333   3.419   0.813   1.346 -2.0408 -1.5904  0.9525
 5812SOL     OW18334   5.756   2.872   1.406  0.0981 -0.2916 -0.5447
 5812SOL    HW118335   5.776   2.962   1.367 -0.6128 -0.4445 -1.2748
 5812SOL    HW218336   5.692   2.823   1.347  0.3780 -1.2339 -0.0914
 5813SOL     OW18337   3.339   6.928   2.755 -0.6595 -0.4433  0.2986
 5813SOL    HW118338   3.309   6.849   2.808  0.4299  0.2513  2.0220
 5813SOL    HW218339   3.266   6.997   2.754 -0.4506 -0.1839  1.5185
 5814SOL     OW18340   5.937   3.909   1.017 -0.2251 -0.2879  0.0116
 5814SOL    HW118341   6.022   3.950   1.051 -1.2702  3.3044 -1.2731
 5814SOL    HW218342   5.862   3.974   1.030 -2.7477 -3.1122  0.5635
 5815SOL     OW18343   6.666   1.107   3.768 -0.1632  0.2809  0.4467
 5815SOL    HW118344   6.675   1.007   3.774  1.3933  0.1717 -2.2981
 5815SOL    HW218345   6.585   1.129   3.713 -0.5574  0.5703  1.1276
 5816SOL     OW18346   2.200   4.646   4.716 -0.1217 -0.5160 -0.1678
 5816SOL    HW118347   2.112   4.610   4.685 -0.4061 -0.3187  0.3873
 5816SOL    HW218348   2.201   4.649   4.816 -1.1359  3.3813 -0.1151
 5817SOL     OW18349   5.208   3.067   1.566 -0.1888  0.6136 -0.8036
 5817SOL    HW118350   5.218   2.982   1.513 -0.1080 -0.0935  0.3211
 5817SOL    HW218351   5.155   3.048   1.649  0.6487  1.4617 -0.0613
 5818SOL     OW18352   4.445   6.486   0.545  0.5420 -0.3676 -0.0905
 5818SOL    HW118353   4.370   6.419   0.543  0.2882 -0.1651  1.2338
 5818SOL    HW218354   4.423   6.563   0.485  0.0936 -0.7165 -0.3809
 5819SOL     OW18355   0.804   4.844   3.544  0.3789  0.2307 -0.3317
 5819SOL    HW118356   0.722   4.881   3.586 -1.2114 -4.0842  0.9431
 5819SOL    HW218357   0.779   4.783   3.470  1.7975 -4.1356  2.3733
 5820SOL     OW18358   1.279   0.945   6.315  0.3766 -0.5624  0.0112
 5820SOL    HW118359   1.244   0.860   6.355 -1.1083 -0.3710 -0.7819
 5820SOL    HW218360   1.211   1.018   6.328  1.5397  0.4766  0.5161
 5821SOL     OW18361   5.729   0.761   3.589  0.5527 -0.4793  0.8889
 5821SOL    HW118362   5.824   0.761   3.620  0.7091 -1.2396  0.4260
 5821SOL    HW218363   5.687   0.673   3.609  0.2523 -0.5047  0.1695
 5822SOL     OW18364   4.187   5.452   4.472 -0.2265 -0.1038 -0.1247
 5822SOL    HW118365   4.173   5.357   4.444  2.0914 -0.0221 -1.8978
 5822SOL    HW218366   4.257   5.494   4.413  0.9842  1.8127  2.4909
 5823SOL     OW18367   4.882   0.728   2.203  1.3323 -0.2712 -0.1743
 5823SOL    HW118368   4.896   0.819   2.162 -1.6982 -0.2250 -1.3705
 5823SOL    HW218369   4.889   0.735   2.302 -0.3216  1.6963 -0.1167
 5824SOL     OW18370   1.591   4.654   3.734 -0.2881  0.2071  0.4087
 5824SOL    HW118371   1.594   4.586   3.661  2.3310 -0.8485  1.3634
 5824SOL    HW218372   1.684   4.685   3.754 -1.1751  2.2593  1.7011
 5825SOL     OW18373   2.014   0.999   0.764 -0.3206  0.4619 -0.2496
 5825SOL    HW118374   2.014   0.914   0.712 -2.0389 -0.2268  0.7773
 5825SOL    HW218375   1.997   0.979   0.861 -0.9523  1.9748 -0.0104
 5826SOL     OW18376   1.174   0.090   6.255 -0.3580 -0.6170 -0.0966
 5826SOL    HW118377   1.244   0.020   6.267  1.1689  0.7072 -0.8830
 5826SOL    HW218378   1.200   0.152   6.181 -0.7037  1.8559  1.7064
 5827SOL     OW18379   0.305   5.903   0.838 -0.2060 -0.3103  0.3147
 5827SOL    HW118380   0.214   5.938   0.815 -0.5810 -1.2522  0.3170
 5827SOL    HW218381   0.362   5.903   0.755 -0.3837 -0.2509  0.1915
 5828SOL     OW18382   0.652   2.319   4.221  0.2393 -0.1169 -0.1583
 5828SOL    HW118383   0.619   2.269   4.300 -1.6696 -0.1294 -0.9090
 5828SOL    HW218384   0.653   2.417   4.241 -1.9456  0.0608 -0.5980
 5829SOL     OW18385   5.284   6.662   0.564  0.1015  0.2795  0.7141
 5829SOL    HW118386   5.331   6.718   0.497 -0.8770 -1.1138 -1.2379
 5829SOL    HW218387   5.218   6.718   0.614  0.1162  1.1552 -0.2146
 5830SOL     OW18388   5.603   4.377   6.591  0.6896 -0.4560  0.3324
 5830SOL    HW118389   5.630   4.422   6.676  1.7595 -0.4568  0.0119
 5830SOL    HW218390   5.543   4.437   6.538 -1.8320 -1.2992  2.0464
 5831SOL     OW18391   1.086   2.389   4.860  0.0454 -0.4242 -0.4903
 5831SOL    HW118392   1.171   2.341   4.883  0.0471 -0.9329 -1.5395
 5831SOL    HW218393   1.018   2.369   4.930  0.4502 -0.9044 -0.2232
 5832SOL     OW18394   1.759   5.031   0.236 -0.2831 -0.6510  0.5720
 5832SOL    HW118395   1.766   4.931   0.240 -1.5412 -0.7369  1.2164
 5832SOL    HW218396   1.727   5.065   0.324 -1.7462  0.1397 -0.2341
 5833SOL     OW18397   2.434   5.591   1.936  0.6724 -0.0863 -0.3867
 5833SOL    HW118398   2.501   5.608   2.008 -0.6421  1.2376  0.5837
 5833SOL    HW218399   2.422   5.674   1.882  0.4280 -0.5736 -1.0827
 5834SOL     OW18400   0.184   6.082   5.254  0.1186  0.0369 -0.4147
 5834SOL    HW118401   0.243   6.148   5.302  0.1862 -0.5446  0.3275
 5834SOL    HW218402   0.091   6.118   5.250 -0.0788 -0.2522  0.9274
 5835SOL     OW18403   5.047   2.303   5.860 -0.0538 -0.1017 -0.1662
 5835SOL    HW118404   4.983   2.238   5.819 -0.3332  0.4362 -0.5924
 5835SOL    HW218405   5.132   2.255   5.883  0.1941 -0.3980 -1.5791
 5836SOL     OW18406   3.838   6.738   2.868 -0.0647 -0.2303 -0.5677
 5836SOL    HW118407   3.811   6.826   2.905  0.1430 -0.6942  0.7308
 5836SOL    HW218408   3.858   6.674   2.943  1.0477 -0.9932 -1.4760
 5837SOL     OW18409   0.244   1.595   3.344  0.7572 -0.1778  0.1096
 5837SOL    HW118410   0.313   1.665   3.327  0.1114  0.5662  0.5091
 5837SOL    HW218411   0.235   1.580   3.442  0.5885 -0.5165  0.0434
 5838SOL     OW18412   5.796   5.438   3.577  0.1754  0.2419 -0.4387
 5838SOL    HW118413   5.793   5.536   3.597 -1.5721 -0.0980  1.2933
 5838SOL    HW218414   5.720   5.393   3.623  2.1140 -2.2639  0.5037
 5839SOL     OW18415   1.184   5.922   6.851 -0.6925  0.1819 -0.2464
 5839SOL    HW118416   1.225   5.950   6.765  1.9858  0.5925  1.0424
 5839SOL    HW218417   1.170   6.002   6.909 -2.1074 -0.1272 -0.1347
 5840SOL     OW18418   3.635   2.756   6.929  0.0392 -0.1182 -0.0364
 5840SOL    HW118419   3.684   2.821   6.871 -1.2376  1.0843  0.1660
 5840SOL    HW218420   3.613   2.799   7.017 -3.4301  0.3554 -0.9646
 5841SOL     OW18421   0.637   6.968   0.479  0.2011 -0.2917 -0.4917
 5841SOL    HW118422   0.716   6.920   0.439  1.6241  0.9822  0.6720
 5841SOL    HW218423   0.638   7.063   0.450 -0.8290 -0.2222 -0.3194
 5842SOL     OW18424   0.891   0.076   6.270 -0.3288  0.8785 -0.8939
 5842SOL    HW118425   0.876   0.077   6.172  0.5449 -2.6529 -1.1771
 5842SOL    HW218426   0.988   0.090   6.290 -0.4577  1.3036 -0.5347
 5843SOL     OW18427   3.451   1.605   4.715  0.3152  0.4128  0.4939
 5843SOL    HW118428   3.446   1.704   4.708  1.7187  0.5369  0.8983
 5843SOL    HW218429   3.366   1.570   4.755 -0.9161  1.2510 -1.2559
 5844SOL     OW18430   5.425   1.805   5.474  0.2813  0.0010  0.1685
 5844SOL    HW118431   5.401   1.895   5.438  0.0164  0.2458  0.9395
 5844SOL    HW218432   5.367   1.735   5.431  0.7422  0.1505 -0.7028
 5845SOL     OW18433   0.197   4.133   5.277 -0.3410 -0.1808  0.0169
 5845SOL    HW118434   0.296   4.145   5.273 -0.1667 -0.3806  2.3660
 5845SOL    HW218435   0.154   4.185   5.204  1.2613  3.3216  1.3354
 5846SOL     OW18436   2.362   2.746   4.560 -0.1107 -0.4998 -0.2414
 5846SOL    HW118437   2.351   2.730   4.658 -2.2196 -1.3404 -0.5505
 5846SOL    HW218438   2.444   2.698   4.528  0.8568  0.1495  1.1547
 5847SOL     OW18439   6.943   0.809   2.575 -0.0129 -0.3293  0.2365
 5847SOL    HW118440   6.880   0.844   2.644 -0.4745 -0.9806  0.1542
 5847SOL    HW218441   7.019   0.873   2.564 -1.5299  1.3523 -0.9157
 5848SOL     OW18442   6.765   5.113   0.440 -0.1433 -0.2673 -0.3066
 5848SOL    HW118443   6.793   5.199   0.397  1.1243  0.3687  1.6691
 5848SOL    HW218444   6.775   5.120   0.539  0.1101 -2.7471 -0.0856
 5849SOL     OW18445   0.920   1.680   4.675 -0.7716 -0.2599 -0.0626
 5849SOL    HW118446   0.957   1.768   4.645 -0.2548  0.1054  1.5376
 5849SOL    HW218447   0.937   1.611   4.605  0.2967  0.5594 -0.6417
 5850SOL     OW18448   4.937   6.663   2.415 -0.0363  0.3088  0.0041
 5850SOL    HW118449   4.873   6.733   2.382  1.7204  1.2578 -1.5579
 5850SOL    HW218450   4.917   6.576   2.371  1.1722  1.1595 -2.3834
 5851SOL     OW18451   5.309   6.885   1.378  0.4468 -0.2074 -0.3003
 5851SOL    HW118452   5.335   6.914   1.285  0.0486  0.5905 -0.1685
 5851SOL    HW218453   5.351   6.946   1.445 -1.2056  0.7208 -0.0543
 5852SOL     OW18454   6.350   2.802   1.546  0.2389 -0.5284  0.6595
 5852SOL    HW118455   6.302   2.854   1.617 -0.3619 -0.6539  0.3548
 5852SOL    HW218456   6.428   2.755   1.586  0.9454  0.7968  0.8992
 5853SOL     OW18457   0.304   0.207   4.118  0.1739 -0.3157 -0.4264
 5853SOL    HW118458   0.300   0.154   4.203 -0.0618 -1.2181 -0.9743
 5853SOL    HW218459   0.218   0.194   4.068 -0.7665  2.2961  0.3901
 5854SOL     OW18460   0.224   0.912   5.776  0.4147 -0.3246 -0.1227
 5854SOL    HW118461   0.145   0.932   5.718  1.7183  0.6954 -1.6466
 5854SOL    HW218462   0.298   0.875   5.719  0.3247 -3.5254  1.5959
 5855SOL     OW18463   2.905   2.649   6.065 -0.2889  0.5890 -0.6877
 5855SOL    HW118464   2.923   2.554   6.038  0.0633 -0.0569  1.5982
 5855SOL    HW218465   2.986   2.687   6.108 -0.9293  1.3998 -0.1762
 5856SOL     OW18466   6.035   7.006   4.996  0.3202 -0.2557 -0.1888
 5856SOL    HW118467   6.118   6.990   5.050  0.8835 -1.9497 -1.4647
 5856SOL    HW218468   5.979   6.923   4.995  0.2071 -0.1963 -1.9763
 5857SOL     OW18469   5.256   3.401   0.161 -0.0354  0.1863 -0.3137
 5857SOL    HW118470   5.337   3.456   0.142  0.7732 -1.4592 -1.9491
 5857SOL    HW218471   5.217   3.368   0.075 -0.1541 -2.1922  0.5754
 5858SOL     OW18472   1.284   6.415   0.658 -0.1276  0.5995 -0.0232
 5858SOL    HW118473   1.227   6.497   0.668  1.1930  1.6413 -0.6438
 5858SOL    HW218474   1.242   6.339   0.707 -0.6241  2.0394  1.9358
 5859SOL     OW18475   5.604   6.959   6.339  0.0003  0.4961  0.2196
 5859SOL    HW118476   5.620   7.058   6.330  5.3104 -0.1026 -0.5718
 5859SOL    HW218477   5.625   6.914   6.252  1.4284 -1.5241  1.5104
 5860SOL     OW18478   6.150   2.645   1.403 -0.1836 -0.3000 -0.3092
 5860SOL    HW118479   6.086   2.712   1.441 -0.1140  0.0218 -0.7416
 5860SOL    HW218480   6.242   2.666   1.435 -0.1841 -0.2735 -0.3250
 5861SOL     OW18481   6.724   2.473   6.490  0.4122  0.5431  0.0695
 5861SOL    HW118482   6.701   2.570   6.485  1.1297  0.6993 -0.2458
 5861SOL    HW218483   6.792   2.451   6.421  2.1505  0.3554  1.7780
 5862SOL     OW18484   4.907   4.498   0.138  0.1352 -0.1912  0.4008
 5862SOL    HW118485   4.863   4.570   0.191 -0.5079  0.2363 -0.6650
 5862SOL    HW218486   4.837   4.437   0.100  0.4678  0.0948 -0.7378
 5863SOL     OW18487   1.339   4.999   6.299  0.5158  0.5659  0.2036
 5863SOL    HW118488   1.365   5.071   6.363 -1.8725  1.0440  0.7371
 5863SOL    HW218489   1.291   4.927   6.348 -0.6822  0.5790 -0.9020
 5864SOL     OW18490   1.907   5.875   1.999  0.0661  0.0671 -0.0666
 5864SOL    HW118491   1.898   5.908   1.905 -1.7951 -0.8914 -0.2680
 5864SOL    HW218492   1.902   5.953   2.062 -0.0502  0.5892 -0.7028
 5865SOL     OW18493   1.183   0.931   3.809 -0.2732 -0.0509  0.0804
 5865SOL    HW118494   1.212   0.968   3.721 -1.4959 -1.2365 -0.8749
 5865SOL    HW218495   1.262   0.920   3.869  0.7995 -0.5065 -1.3635
 5866SOL     OW18496   5.707   0.980   0.344 -0.0888 -0.5715  0.2563
 5866SOL    HW118497   5.725   0.952   0.439  0.7769 -2.3508 -0.3799
 5866SOL    HW218498   5.769   0.931   0.283  0.0509  1.2926 -1.1777
 5867SOL     OW18499   1.086   4.858   3.525 -0.1833  0.1692  0.2730
 5867SOL    HW118500   0.988   4.844   3.537 -0.2765  0.5563 -0.0047
 5867SOL    HW218501   1.117   4.932   3.585  0.4966 -1.8066  2.4802
 5868SOL     OW18502   4.668   0.989   6.905  0.4088 -0.1809 -0.4054
 5868SOL    HW118503   4.638   0.896   6.884 -0.0189 -0.1316 -0.0254
 5868SOL    HW218504   4.635   1.052   6.834 -2.0267  0.1701  0.9205
 5869SOL     OW18505   5.784   5.514   1.787 -0.0023  0.3470  0.5495
 5869SOL    HW118506   5.788   5.416   1.769  0.9647 -0.0506  2.6447
 5869SOL    HW218507   5.707   5.534   1.847 -0.2462  0.8987  0.0622
 5870SOL     OW18508   6.641   4.872   3.200 -0.4587  0.5997 -0.0368
 5870SOL    HW118509   6.720   4.912   3.154  1.0695  0.9127  2.6446
 5870SOL    HW218510   6.565   4.937   3.197  0.4256  1.6670  0.0928
 5871SOL     OW18511   6.988   6.421   6.182  0.0759  0.1275 -0.1365
 5871SOL    HW118512   7.042   6.504   6.192  0.9273 -0.6363  2.4994
 5871SOL    HW218513   7.029   6.362   6.113  0.7741  0.9032 -0.3925
 5872SOL     OW18514   1.834   4.626   6.151  0.2314 -0.2552  0.1816
 5872SOL    HW118515   1.825   4.526   6.145  0.9709 -0.4252  1.5020
 5872SOL    HW218516   1.757   4.662   6.204  1.1058 -0.3952  1.5882
 5873SOL     OW18517   5.895   3.460   3.788 -0.2278  0.2589  0.5020
 5873SOL    HW118518   5.850   3.550   3.785 -0.3528  0.1787  0.0001
 5873SOL    HW218519   5.988   3.469   3.752  0.5005  0.6098  2.3212
 5874SOL     OW18520   2.487   0.207   5.307 -0.4615  0.2070 -0.2111
 5874SOL    HW118521   2.411   0.253   5.352 -0.0168  1.7531 -0.9571
 5874SOL    HW218522   2.559   0.189   5.374 -0.4790  0.9962  0.0293
 5875SOL     OW18523   0.882   5.014   6.496  0.4215 -0.4629 -0.4925
 5875SOL    HW118524   0.792   4.997   6.455  0.2538  1.1766 -0.8488
 5875SOL    HW218525   0.909   5.109   6.481  3.2180 -1.4229 -2.3481
 5876SOL     OW18526   2.512   0.548   0.433 -0.0359 -0.0594 -0.6675
 5876SOL    HW118527   2.508   0.458   0.476 -2.7605  0.6037  0.6647
 5876SOL    HW218528   2.598   0.593   0.458 -0.2111 -0.8962  1.6475
 5877SOL     OW18529   2.639   5.046   4.251 -0.2786 -0.4658 -0.0439
 5877SOL    HW118530   2.540   5.035   4.260 -0.5502  0.2894 -1.6737
 5877SOL    HW218531   2.658   5.133   4.205  1.1665 -0.5527  0.3401
 5878SOL     OW18532   4.895   3.712   1.624  0.2458  0.2415  0.9043
 5878SOL    HW118533   4.820   3.726   1.559  1.3223 -0.8083 -0.6279
 5878SOL    HW218534   4.863   3.733   1.716 -1.3597  1.7233  0.0768
 5879SOL     OW18535   3.086   5.943   5.976 -0.4377 -0.1662 -0.0764
 5879SOL    HW118536   3.122   5.919   6.066 -1.8652  3.7891  1.8106
 5879SOL    HW218537   2.996   5.902   5.964 -0.0651 -1.0506  0.0945
 5880SOL     OW18538   5.479   5.443   5.489 -0.5487 -0.3236  0.0139
 5880SOL    HW118539   5.471   5.385   5.408  2.0056 -1.5743  0.5660
 5880SOL    HW218540   5.474   5.387   5.572  0.0540  0.4866  0.6240
 5881SOL     OW18541   2.095   5.736   2.422 -0.2827 -0.6184 -0.0881
 5881SOL    HW118542   2.111   5.649   2.467 -0.9345 -0.9575 -0.4846
 5881SOL    HW218543   2.000   5.740   2.390 -0.5200  0.5901  0.6842
 5882SOL     OW18544   4.322   4.340   6.308  0.4468  0.3338  0.4943
 5882SOL    HW118545   4.421   4.335   6.295  0.6330 -1.1476  2.0952
 5882SOL    HW218546   4.275   4.319   6.222  1.5112  1.0490 -0.2745
 5883SOL     OW18547   2.374   0.265   2.824  0.2905  0.2411 -0.0103
 5883SOL    HW118548   2.351   0.175   2.862  2.4246 -0.2345  0.2776
 5883SOL    HW218549   2.460   0.296   2.864  2.4047  0.0035 -3.9249
 5884SOL     OW18550   5.499   5.399   0.027 -0.0969  0.0037 -0.0950
 5884SOL    HW118551   5.457   5.338   0.094  0.2456  1.7433  1.7738
 5884SOL    HW218552   5.597   5.406   0.044  0.2169 -0.4633 -1.5656
 5885SOL     OW18553   1.618   1.808   4.353  0.4492 -0.0749 -0.1257
 5885SOL    HW118554   1.575   1.822   4.442 -1.1896  0.0149 -0.8967
 5885SOL    HW218555   1.627   1.895   4.306  2.0412 -0.0133  0.2466
 5886SOL     OW18556   5.898   2.112   2.593  0.4291  0.0813 -0.5875
 5886SOL    HW118557   5.936   2.162   2.514 -1.9591  0.0934 -1.8222
 5886SOL    HW218558   5.904   2.014   2.576 -0.1062  0.0843 -0.8135
 5887SOL     OW18559   1.557   1.769   0.496  0.2658  0.0598 -0.1467
 5887SOL    HW118560   1.617   1.749   0.573 -0.3558 -1.2262  0.0314
 5887SOL    HW218561   1.464   1.787   0.529  0.1554  0.2543 -0.5475
 5888SOL     OW18562   2.848   5.226   5.455  0.3460  0.1499  0.3252
 5888SOL    HW118563   2.831   5.257   5.548 -0.2046  0.9612 -0.0403
 5888SOL    HW218564   2.841   5.126   5.451  1.7929 -0.0273  1.4380
 5889SOL     OW18565   2.840   6.902   2.842 -0.4418 -0.3328 -0.8247
 5889SOL    HW118566   2.929   6.863   2.818 -0.2239 -0.5324  0.2460
 5889SOL    HW218567   2.781   6.830   2.877  0.3987  0.4029  2.4084
 5890SOL     OW18568   4.430   6.256   3.631 -0.2238  0.2992  0.2202
 5890SOL    HW118569   4.416   6.296   3.541 -1.5994  1.1245  0.7781
 5890SOL    HW218570   4.504   6.189   3.626  0.9908  1.6601 -1.1041
 5891SOL     OW18571   2.562   2.268   0.680  0.0836  0.4144 -0.4685
 5891SOL    HW118572   2.524   2.308   0.763 -0.6547 -0.7974 -0.2066
 5891SOL    HW218573   2.491   2.259   0.611  0.1540 -0.7011 -0.4177
 5892SOL     OW18574   2.241   1.392   3.860 -0.1045  0.3761  0.5671
 5892SOL    HW118575   2.232   1.407   3.958  0.6608 -1.0475  0.8894
 5892SOL    HW218576   2.150   1.392   3.818 -0.5679 -0.5123  1.5263
 5893SOL     OW18577   1.038   2.044   6.022 -0.9174 -0.0508  0.2943
 5893SOL    HW118578   0.988   2.123   5.987  0.3730  0.8227  0.3571
 5893SOL    HW218579   1.032   2.043   6.122  2.3088  2.3346  0.6644
 5894SOL     OW18580   0.828   5.300   0.098 -0.0792  0.0907  0.3006
 5894SOL    HW118581   0.899   5.261   0.157  0.1733 -1.1363 -0.7716
 5894SOL    HW218582   0.740   5.255   0.117  0.0692 -0.5413 -0.4576
 5895SOL     OW18583   0.337   1.589   6.675 -0.5418 -0.1329 -0.1405
 5895SOL    HW118584   0.416   1.628   6.629 -0.3904  0.1893  0.3800
 5895SOL    HW218585   0.254   1.635   6.642 -0.2399  1.8749  1.6541
 5896SOL     OW18586   5.595   6.404   1.106 -0.3800 -0.2051 -0.4352
 5896SOL    HW118587   5.658   6.329   1.125  0.8370  1.0522  0.7094
 5896SOL    HW218588   5.647   6.487   1.085 -1.6263  0.9542  0.8471
 5897SOL     OW18589   4.535   0.627   1.552  0.1584 -0.3365 -0.5237
 5897SOL    HW118590   4.497   0.607   1.462  1.1240 -1.9826 -0.6052
 5897SOL    HW218591   4.588   0.712   1.547 -1.6035  0.7894 -0.9273
 5898SOL     OW18592   6.227   5.381   5.349  0.3062  0.0981 -0.3845
 5898SOL    HW118593   6.318   5.398   5.308  0.8183  0.7851  0.9810
 5898SOL    HW218594   6.190   5.468   5.382  0.1785 -0.5086  1.1279
 5899SOL     OW18595   2.245   4.374   6.975  0.0697 -0.1444 -0.0616
 5899SOL    HW118596   2.269   4.415   7.063  1.4575  0.5863 -0.7443
 5899SOL    HW218597   2.304   4.295   6.958  0.0966 -0.0253 -0.5291
 5900SOL     OW18598   3.436   4.139   2.843  0.1726 -0.3026 -0.4038
 5900SOL    HW118599   3.416   4.237   2.844 -2.2817 -0.7118 -1.5620
 5900SOL    HW218600   3.387   4.094   2.918 -0.9494 -0.9511 -1.4809
 5901SOL     OW18601   2.908   1.483   0.430  0.0042  0.1924 -0.0478
 5901SOL    HW118602   2.934   1.572   0.392  0.8041  0.0115  0.0487
 5901SOL    HW218603   2.822   1.492   0.480 -0.4585  0.6810 -0.9049
 5902SOL     OW18604   3.671   6.822   3.306  0.1145 -0.1986 -0.0329
 5902SOL    HW118605   3.610   6.771   3.366 -0.9779  0.0812 -0.8631
 5902SOL    HW218606   3.620   6.896   3.262  1.0244 -0.0280 -0.8423
 5903SOL     OW18607   0.599   0.111   4.224  0.1373  0.0598  0.5665
 5903SOL    HW118608   0.628   0.177   4.293 -0.8431  0.7423  0.3531
 5903SOL    HW218609   0.639   0.022   4.244  0.9457  0.5601  1.2433
 5904SOL     OW18610   5.919   5.351   1.513 -0.1691  0.6150 -0.0806
 5904SOL    HW118611   5.828   5.312   1.502  0.3092 -1.0012  1.2678
 5904SOL    HW218612   5.969   5.344   1.427 -0.4378 -0.9057 -0.1413
 5905SOL     OW18613   1.998   4.743   5.222  0.0483 -0.1982 -0.1988
 5905SOL    HW118614   2.045   4.784   5.300 -0.3861 -0.2870  0.1132
 5905SOL    HW218615   1.919   4.799   5.198  0.3968  0.0297 -0.8170
 5906SOL     OW18616   1.815   2.376   5.369 -0.1643  0.3862 -0.1883
 5906SOL    HW118617   1.730   2.327   5.390 -0.4570  0.5700 -0.9285
 5906SOL    HW218618   1.882   2.312   5.331  0.8437 -0.2363  2.4360
 5907SOL     OW18619   1.933   0.802   5.936 -0.2241  0.3482 -0.1440
 5907SOL    HW118620   1.884   0.716   5.924 -1.3296  0.8559  0.6107
 5907SOL    HW218621   1.921   0.835   6.030 -0.2813  1.6071 -0.5758
 5908SOL     OW18622   2.786   2.138   1.005  0.6250 -0.1155  0.1476
 5908SOL    HW118623   2.808   2.217   0.948 -3.6581  0.4265 -1.0934
 5908SOL    HW218624   2.826   2.055   0.966  1.0371  0.7918 -1.4356
 5909SOL     OW18625   5.513   3.852   5.933 -0.3263 -0.3374  0.0025
 5909SOL    HW118626   5.523   3.918   5.858 -0.8487  0.1986  0.3932
 5909SOL    HW218627   5.551   3.764   5.906  0.5338  0.1671 -0.4785
 5910SOL     OW18628   1.070   4.828   5.753  0.3017 -0.3396 -0.0969
 5910SOL    HW118629   1.113   4.850   5.665 -0.0265  1.7025  0.1950
 5910SOL    HW218630   0.986   4.880   5.763 -1.2622 -2.7652  0.2160
 5911SOL     OW18631   6.921   0.752   0.731  0.2212  0.0053  0.8217
 5911SOL    HW118632   6.953   0.661   0.757  1.4405  0.5751  1.3911
 5911SOL    HW218633   6.824   0.761   0.754  0.7360 -0.2238  3.3244
 5912SOL     OW18634   5.937   3.079   3.041  0.5566  0.9630  0.2766
 5912SOL    HW118635   5.847   3.049   3.070  1.0723  0.1943  1.1456
 5912SOL    HW218636   5.935   3.103   2.944  0.1514 -2.2974 -0.6556
 5913SOL     OW18637   4.305   0.362   1.000  0.3071  0.1166  0.0009
 5913SOL    HW118638   4.305   0.421   1.080 -0.1624 -1.3095  1.0898
 5913SOL    HW218639   4.233   0.293   1.009  1.9930 -1.7936 -0.3256
 5914SOL     OW18640   3.218   3.804   5.682 -0.0266 -0.3106  0.0518
 5914SOL    HW118641   3.126   3.767   5.668  0.4705 -1.6591  0.2164
 5914SOL    HW218642   3.257   3.767   5.766  0.5155  0.6016  0.2222
 5915SOL     OW18643   5.456   1.581   6.417  0.2948 -0.3715 -0.1637
 5915SOL    HW118644   5.484   1.627   6.501 -1.0757  1.9091 -0.8549
 5915SOL    HW218645   5.516   1.610   6.342 -0.9463  0.8494 -0.7237
 5916SOL     OW18646   1.702   1.177   2.709  0.4571  0.8213  0.1399
 5916SOL    HW118647   1.669   1.222   2.626 -2.4068  1.2168  1.3945
 5916SOL    HW218648   1.647   1.206   2.787 -0.5082 -3.5326  1.3534
 5917SOL     OW18649   2.362   1.252   2.377 -0.0228  0.6168  0.0233
 5917SOL    HW118650   2.444   1.257   2.435  1.1250  0.8672 -1.5569
 5917SOL    HW218651   2.287   1.300   2.422  0.0501 -1.3472  2.4495
 5918SOL     OW18652   3.448   2.266   1.449 -0.4582  0.0639 -0.2297
 5918SOL    HW118653   3.482   2.345   1.397  1.1094  1.1951  2.3448
 5918SOL    HW218654   3.518   2.196   1.452 -1.1149 -0.6414 -0.8425
 5919SOL     OW18655   5.769   1.682   1.696  0.0983 -0.8404 -0.5441
 5919SOL    HW118656   5.774   1.627   1.779  0.1765  2.3341  1.7351
 5919SOL    HW218657   5.838   1.754   1.700 -2.4963  1.8841 -1.3489
 5920SOL     OW18658   3.003   1.325   4.683  0.4458 -0.1387  0.2275
 5920SOL    HW118659   3.090   1.368   4.660  0.1243  1.8692  2.3367
 5920SOL    HW218660   3.003   1.300   4.780 -1.2724 -0.1804  0.2505
 5921SOL     OW18661   6.161   0.243   1.358  0.5322  0.2147 -0.4246
 5921SOL    HW118662   6.102   0.261   1.437  0.0289  1.8543 -1.1330
 5921SOL    HW218663   6.127   0.164   1.308  0.2856 -0.2416  0.4460
 5922SOL     OW18664   5.587   2.416   0.326  0.0831 -0.1596  0.4726
 5922SOL    HW118665   5.642   2.383   0.403 -0.4772 -2.5692 -0.0776
 5922SOL    HW218666   5.576   2.343   0.259 -0.7933  1.3914 -1.1592
 5923SOL     OW18667   6.787   2.029   6.066  0.0700  0.0322  0.0227
 5923SOL    HW118668   6.732   2.029   5.983  0.2150 -0.4854 -0.0795
 5923SOL    HW218669   6.847   1.949   6.066  0.7556  0.5434  0.1758
 5924SOL     OW18670   2.523   6.810   3.286  0.3943  0.5085 -0.5199
 5924SOL    HW118671   2.536   6.907   3.303  1.9446  0.4088 -1.0021
 5924SOL    HW218672   2.606   6.760   3.310 -0.8924 -0.9270  1.1935
 5925SOL     OW18673   0.648   6.239   2.056  0.2494  0.6078 -0.0026
 5925SOL    HW118674   0.719   6.192   2.109  0.8892  0.4531 -0.9803
 5925SOL    HW218675   0.675   6.243   1.960 -1.1306  0.4184 -0.4237
 5926SOL     OW18676   2.074   0.757   0.626 -0.2867  0.7367  0.3326
 5926SOL    HW118677   2.025   0.670   0.625 -0.0785  0.6176  0.4057
 5926SOL    HW218678   2.134   0.763   0.546 -0.5924  0.9823  0.1190
 5927SOL     OW18679   6.198   4.071   4.446  0.6322 -0.1686  1.3181
 5927SOL    HW118680   6.246   3.995   4.403 -1.0420 -0.1851 -0.6681
 5927SOL    HW218681   6.236   4.158   4.415 -0.0949 -0.1878  0.3395
 5928SOL     OW18682   1.679   0.011   4.628 -0.0715 -0.4097  0.1325
 5928SOL    HW118683   1.628   0.034   4.712  1.1730 -0.2964  0.8883
 5928SOL    HW218684   1.776   0.028   4.643 -0.0011  1.7513 -2.0624
 5929SOL     OW18685   1.991   2.408   4.274  0.0734  0.8403  0.4811
 5929SOL    HW118686   1.892   2.395   4.266  0.2407 -0.5173  0.4503
 5929SOL    HW218687   2.018   2.488   4.221 -0.7225 -0.0309 -1.3260
 5930SOL     OW18688   0.517   3.884   6.094 -0.1191 -0.8023 -0.4017
 5930SOL    HW118689   0.604   3.933   6.086 -0.0501 -1.1318 -1.8998
 5930SOL    HW218690   0.470   3.884   6.005 -0.5141 -2.7098 -0.2323
 5931SOL     OW18691   0.073   0.442   3.857  0.2608 -0.4403 -0.7848
 5931SOL    HW118692   0.166   0.454   3.822  0.1013  0.2527 -0.9705
 5931SOL    HW218693   0.074   0.449   3.956  0.3887 -0.3130 -0.7944
 5932SOL     OW18694   5.118   6.274   0.315  0.4097  0.2124  0.0233
 5932SOL    HW118695   5.132   6.373   0.320  0.2723  0.1845  1.2084
 5932SOL    HW218696   5.021   6.253   0.328  0.3501 -0.0504 -0.8002
 5933SOL     OW18697   2.347   1.422   1.032  0.5056  0.6869  0.4418
 5933SOL    HW118698   2.382   1.399   0.942  0.3526  1.0425  0.2878
 5933SOL    HW218699   2.286   1.349   1.064  0.8507  0.3894  0.4182
 5934SOL     OW18700   1.877   4.713   3.786 -0.1326  0.1613 -0.5966
 5934SOL    HW118701   1.953   4.777   3.794  0.8506 -0.8555 -1.5113
 5934SOL    HW218702   1.884   4.663   3.700 -0.4416 -1.7149  0.4105
 5935SOL     OW18703   6.276   6.185   1.436 -0.2289 -0.3935 -0.2311
 5935SOL    HW118704   6.307   6.090   1.433 -1.7126 -0.9147  0.3436
 5935SOL    HW218705   6.200   6.194   1.501  1.7739  1.7433  2.0626
 5936SOL     OW18706   4.064   3.176   2.905 -0.6112  0.7839  0.0156
 5936SOL    HW118707   4.056   3.206   3.000 -1.2928  2.6137 -0.5686
 5936SOL    HW218708   4.068   3.256   2.845 -3.0616 -0.2506 -1.7066
 5937SOL     OW18709   6.915   6.873   0.128  0.2365 -0.0563 -0.4947
 5937SOL    HW118710   6.964   6.813   0.065 -1.0271 -1.4410 -0.2054
 5937SOL    HW218711   6.967   6.883   0.212 -0.3877 -2.3769  0.2306
 5938SOL     OW18712   6.498   1.532   4.847 -0.2796  0.0297 -0.0325
 5938SOL    HW118713   6.541   1.608   4.897 -0.1304 -1.0380  1.5152
 5938SOL    HW218714   6.553   1.510   4.767  1.0426 -0.0593  0.8691
 5939SOL     OW18715   5.735   5.784   5.705  0.0135 -0.3862  0.1222
 5939SOL    HW118716   5.737   5.690   5.670  1.8944 -0.8048  1.2109
 5939SOL    HW218717   5.828   5.814   5.726 -0.7551  0.7555  2.2292
 5940SOL     OW18718   4.442   2.571   5.133 -0.2527  0.5010 -0.1237
 5940SOL    HW118719   4.465   2.640   5.064 -0.4531  1.3558  0.6357
 5940SOL    HW218720   4.342   2.563   5.140 -0.3448 -2.5051 -2.7357
 5941SOL     OW18721   2.567   1.601   4.086 -0.0070 -0.8550 -0.2426
 5941SOL    HW118722   2.476   1.595   4.046 -0.3937 -2.9831  0.7872
 5941SOL    HW218723   2.621   1.522   4.058  0.8297 -0.6495  0.7178
 5942SOL     OW18724   3.156   3.434   1.766 -0.5224  0.5906 -0.2748
 5942SOL    HW118725   3.182   3.422   1.861  3.7421 -0.7185 -1.4145
 5942SOL    HW218726   3.094   3.360   1.739  0.6195 -0.7764  0.7442
 5943SOL     OW18727   1.840   5.212   3.294 -0.4184  0.5876  0.6147
 5943SOL    HW118728   1.835   5.232   3.197 -0.9483 -0.1085  0.4895
 5943SOL    HW218729   1.753   5.174   3.325  0.2681 -0.7751  0.9816
 5944SOL     OW18730   2.025   6.927   3.766 -0.1816 -0.2900  0.0363
 5944SOL    HW118731   2.044   6.837   3.725  0.3524 -0.6603  1.0676
 5944SOL    HW218732   1.928   6.933   3.789 -0.0331 -1.0107  0.8981
 5945SOL     OW18733   4.188   0.862   2.540 -0.2371 -0.1654 -0.0542
 5945SOL    HW118734   4.196   0.962   2.543 -3.3777  0.1792 -0.5186
 5945SOL    HW218735   4.149   0.829   2.626  2.8383 -1.3771  1.0545
 5946SOL     OW18736   5.616   3.481   1.288 -0.1283  0.5801  0.2460
 5946SOL    HW118737   5.708   3.500   1.253  0.3106 -1.0601  0.4107
 5946SOL    HW218738   5.561   3.439   1.215  0.0391 -0.6477  0.7912
 5947SOL     OW18739   4.773   2.478   2.995  0.1367  0.9843  0.0411
 5947SOL    HW118740   4.755   2.380   2.985 -1.3536  1.2570 -0.2742
 5947SOL    HW218741   4.805   2.516   2.908  1.5241  0.6490  0.3794
 5948SOL     OW18742   1.465   2.212   0.066 -0.8914 -0.0452  0.0104
 5948SOL    HW118743   1.386   2.242   0.120 -0.5869  0.0714  0.3969
 5948SOL    HW218744   1.435   2.187  -0.026 -1.1796  1.3260 -0.2871
 5949SOL     OW18745   3.564   3.684   5.714  0.2326  0.2407  0.3835
 5949SOL    HW118746   3.543   3.667   5.618 -2.2083  0.2936  0.8363
 5949SOL    HW218747   3.602   3.601   5.755  1.6533  0.3271 -0.6681
 5950SOL     OW18748   2.711   1.931   1.196  0.0415 -0.5788  0.2182
 5950SOL    HW118749   2.699   1.973   1.286 -0.9377 -0.8214  0.2215
 5950SOL    HW218750   2.710   2.002   1.126  1.3097 -0.3423  0.4265
 5951SOL     OW18751   2.716   2.075   1.719  0.5159  0.2968 -0.6839
 5951SOL    HW118752   2.621   2.094   1.745  0.8889  1.5882 -0.1555
 5951SOL    HW218753   2.740   1.982   1.746 -0.0660  0.5489  0.8308
 5952SOL     OW18754   0.249   5.297   5.687  0.0625 -0.7926 -0.1867
 5952SOL    HW118755   0.188   5.229   5.729 -0.1623 -0.1260  0.5809
 5952SOL    HW218756   0.199   5.381   5.670  0.2634 -0.9013 -1.4260
 5953SOL     OW18757   2.712   5.264   5.769  0.1356  0.1222 -0.6188
 5953SOL    HW118758   2.630   5.242   5.715 -1.2926  0.7958  1.1733
 5953SOL    HW218759   2.749   5.180   5.808 -0.9980  0.0118  0.2828
 5954SOL     OW18760   1.126   6.182   1.392 -0.3031  0.3436 -0.0845
 5954SOL    HW118761   1.163   6.254   1.452 -2.2043 -0.2038  1.8980
 5954SOL    HW218762   1.160   6.093   1.422  0.0699  0.1827 -0.9499
 5955SOL     OW18763   3.336   5.179   3.473  0.1996 -0.2833 -0.6785
 5955SOL    HW118764   3.251   5.192   3.523  0.7780 -0.6086  0.4291
 5955SOL    HW218765   3.413   5.196   3.534  0.9988 -4.0994 -0.3649
 5956SOL     OW18766   4.946   1.063   6.222  0.2434 -0.0604 -0.0207
 5956SOL    HW118767   4.948   1.101   6.314 -1.0450 -0.7334  0.3103
 5956SOL    HW218768   4.888   1.121   6.164  1.1545  0.4341 -0.4604
 5957SOL     OW18769   1.958   2.920   5.174 -0.2070 -0.7894  0.2587
 5957SOL    HW118770   1.958   2.996   5.109 -1.2828 -1.8359 -1.0141
 5957SOL    HW218771   2.049   2.913   5.215  0.5757 -0.1784 -1.2527
 5958SOL     OW18772   4.777   2.015   1.529 -0.1724  0.0754 -0.2606
 5958SOL    HW118773   4.836   2.056   1.460 -1.7343  0.4577 -1.4042
 5958SOL    HW218774   4.682   2.017   1.499 -0.4943 -3.4278  0.0874
 5959SOL     OW18775   6.259   5.489   2.521 -0.6183 -0.1279  0.4450
 5959SOL    HW118776   6.286   5.582   2.546  1.2277 -0.9856  1.8777
 5959SOL    HW218777   6.300   5.464   2.433  3.5523 -1.3274  2.4586
 5960SOL     OW18778   2.711   6.645   5.746  0.4460 -0.6683 -1.0271
 5960SOL    HW118779   2.672   6.555   5.728 -1.1683 -0.3572  0.5858
 5960SOL    HW218780   2.688   6.674   5.839  0.8273  1.4620 -1.5278
 5961SOL     OW18781   1.601   6.064   1.712  0.2906  0.4648  0.3598
 5961SOL    HW118782   1.622   6.161   1.701 -0.8178  0.8137  1.1942
 5961SOL    HW218783   1.679   6.017   1.754  1.3859  0.6945 -1.3229
 5962SOL     OW18784   2.663   2.963   0.664 -0.5075 -0.6528  0.2079
 5962SOL    HW118785   2.627   2.928   0.750  0.8543 -0.3261  0.9366
 5962SOL    HW218786   2.745   2.913   0.639 -1.3396 -1.3060 -1.3692
 5963SOL     OW18787   3.823   3.851   2.901 -0.3043  0.2507  0.5892
 5963SOL    HW118788   3.792   3.937   2.943 -3.1385 -1.6002  2.6848
 5963SOL    HW218789   3.873   3.798   2.969 -1.0432 -0.9087  0.2511
 5964SOL     OW18790   6.539   0.806   1.137  0.0637  0.1513 -0.6062
 5964SOL    HW118791   6.468   0.796   1.207  0.7817 -0.8320  0.0006
 5964SOL    HW218792   6.542   0.901   1.107 -0.1753  0.6359  0.8037
 5965SOL     OW18793   6.167   3.167   5.687 -0.1657  0.3342  0.3016
 5965SOL    HW118794   6.166   3.159   5.787  0.5405 -1.4425  0.2061
 5965SOL    HW218795   6.258   3.143   5.653 -0.6788 -0.0717 -0.8301
 5966SOL     OW18796   3.492   0.721   0.265 -0.5338 -0.2687 -0.8177
 5966SOL    HW118797   3.396   0.707   0.240 -0.0539 -2.1080 -1.7954
 5966SOL    HW218798   3.526   0.802   0.218 -1.7398  0.7476 -0.0021
 5967SOL     OW18799   5.371   6.911   6.067 -0.8871 -0.1784  0.2224
 5967SOL    HW118800   5.460   6.871   6.083 -0.8308 -0.2158 -0.1777
 5967SOL    HW218801   5.380   6.990   6.006 -0.5631  2.3635  3.3286
 5968SOL     OW18802   3.103   4.416   0.270  0.0408 -0.2859  0.0436
 5968SOL    HW118803   3.154   4.490   0.227 -1.9250  0.7836 -0.5571
 5968SOL    HW218804   3.057   4.450   0.352  0.5473 -1.3231  0.7845
 5969SOL     OW18805   2.039   2.168   5.230 -0.1512 -0.4618  0.3873
 5969SOL    HW118806   2.061   2.102   5.159 -1.2577 -0.7232  0.2775
 5969SOL    HW218807   2.119   2.226   5.248 -0.0446  0.0436 -1.5197
 5970SOL     OW18808   3.446   3.973   4.494  0.0754 -0.4957 -0.0373
 5970SOL    HW118809   3.460   4.036   4.417 -0.6138 -0.6861 -0.3310
 5970SOL    HW218810   3.347   3.959   4.508  0.1104  0.9809  2.0649
 5971SOL     OW18811   3.289   2.885   0.065 -0.4562 -0.0395 -0.4880
 5971SOL    HW118812   3.349   2.820   0.111 -1.6318  1.1343  3.0680
 5971SOL    HW218813   3.342   2.964   0.034  0.1669  0.1543  0.9691
 5972SOL     OW18814   0.503   5.916   2.898  0.8144 -0.1800 -0.1773
 5972SOL    HW118815   0.580   5.884   2.842  1.3191  0.1741  0.3006
 5972SOL    HW218816   0.536   5.936   2.991 -0.0245 -0.8723  0.2902
 5973SOL     OW18817   0.922   5.574   2.946 -1.0862 -0.2480  0.3520
 5973SOL    HW118818   0.832   5.559   2.905 -0.6451 -0.3644 -0.5969
 5973SOL    HW218819   0.993   5.543   2.883 -0.3393  0.7768  0.6625
 5974SOL     OW18820   0.380   1.267   4.837  0.0818 -0.5130  0.5759
 5974SOL    HW118821   0.325   1.285   4.918  0.2877 -1.1982  0.8744
 5974SOL    HW218822   0.477   1.276   4.861  0.1257  0.1525  0.1859
 5975SOL     OW18823   0.145   3.522   5.596 -0.3780  0.5242 -0.7710
 5975SOL    HW118824   0.131   3.621   5.606 -0.3832  0.4967 -0.5066
 5975SOL    HW218825   0.095   3.473   5.667  0.5062  0.3946 -0.2123
 5976SOL     OW18826   6.552   6.565   6.999  0.2454  0.3753  0.8790
 5976SOL    HW118827   6.604   6.524   6.924  0.0430  0.7569  0.5344
 5976SOL    HW218828   6.564   6.508   7.081  1.9838  0.9614  1.0758
 5977SOL     OW18829   2.187   6.934   0.412  0.3884  0.7814  0.2501
 5977SOL    HW118830   2.205   7.022   0.368  1.0878  0.6865  0.3282
 5977SOL    HW218831   2.182   6.946   0.511 -1.4593  1.0407  0.1598
 5978SOL     OW18832   4.630   4.244   3.126  0.7058  0.0959  0.1025
 5978SOL    HW118833   4.557   4.303   3.160 -3.8286 -3.1300 -2.9669
 5978SOL    HW218834   4.685   4.296   3.060 -0.2616  2.0293  0.7197
 5979SOL     OW18835   4.702   2.124   0.031 -0.1337 -0.0694  0.5009
 5979SOL    HW118836   4.747   2.195  -0.023 -1.4940  0.0415 -0.5375
 5979SOL    HW218837   4.769   2.079   0.089  0.5979  2.8473  2.1106
 5980SOL     OW18838   2.667   5.735   0.741  0.2337 -0.0491 -0.0794
 5980SOL    HW118839   2.588   5.699   0.792  0.0989 -0.1455 -0.3527
 5980SOL    HW218840   2.678   5.682   0.657 -0.2044  0.8142 -0.6814
 5981SOL     OW18841   0.106   3.719   5.945  0.1147 -0.3298  0.1717
 5981SOL    HW118842   0.184   3.779   5.932 -0.5922  0.6474  0.3103
 5981SOL    HW218843   0.135   3.634   5.988  1.0631  0.0992  0.3869
 5982SOL     OW18844   5.540   5.662   5.341 -0.0600 -0.4921 -0.2581
 5982SOL    HW118845   5.611   5.708   5.394  0.7390 -1.2670 -0.6443
 5982SOL    HW218846   5.495   5.593   5.398 -0.1877 -0.3294 -0.1596
 5983SOL     OW18847   0.201   6.580   0.700 -0.8552 -0.2021 -0.4588
 5983SOL    HW118848   0.230   6.523   0.778 -1.4567  1.6025  1.1425
 5983SOL    HW218849   0.270   6.651   0.684 -0.7964 -0.4856 -1.5386
 5984SOL     OW18850   1.515   4.244   5.120 -0.1812 -0.0075  0.0891
 5984SOL    HW118851   1.431   4.228   5.172 -0.4537 -0.5825 -0.5067
 5984SOL    HW218852   1.537   4.341   5.121 -1.1205  0.2174 -0.1349
 5985SOL     OW18853   1.281   3.682   5.320  0.3476  0.1037  0.0784
 5985SOL    HW118854   1.206   3.617   5.334  1.0261 -0.9977 -1.1933
 5985SOL    HW218855   1.301   3.689   5.222  1.0073  1.4328  0.2870
 5986SOL     OW18856   3.563   4.222   4.800  0.5895 -0.2782  0.1279
 5986SOL    HW118857   3.552   4.227   4.899  0.2977  0.6874  0.0643
 5986SOL    HW218858   3.532   4.308   4.759  4.7805  1.2472 -0.4130
 5987SOL     OW18859   0.241   5.807   5.286 -0.3847 -0.1577  0.0621
 5987SOL    HW118860   0.323   5.797   5.229 -0.4086 -1.8837  0.2908
 5987SOL    HW218861   0.228   5.904   5.308  1.5368  0.1660 -0.0543
 5988SOL     OW18862   4.670   2.917   0.521 -0.2037 -0.1594  0.7099
 5988SOL    HW118863   4.750   2.973   0.497 -1.0465  0.3349 -1.0942
 5988SOL    HW218864   4.700   2.824   0.542  0.6450 -0.8287 -2.9050
 5989SOL     OW18865   0.314   1.880   2.398  0.5921  0.2156  0.4092
 5989SOL    HW118866   0.313   1.967   2.348  1.6862  0.0881  0.1422
 5989SOL    HW218867   0.238   1.823   2.366  0.5950  0.5913 -0.2930
 5990SOL     OW18868   5.011   6.312   4.883 -0.5642  0.1873 -0.1467
 5990SOL    HW118869   5.055   6.249   4.819  1.1985  0.9642  0.2237
 5990SOL    HW218870   4.912   6.303   4.876 -0.3817 -1.6062 -1.0888
 5991SOL     OW18871   0.608   5.033   6.376  0.2109 -0.2328 -0.0267
 5991SOL    HW118872   0.637   5.126   6.354 -1.4309  1.1704  3.0308
 5991SOL    HW218873   0.530   5.008   6.320  0.6698  0.1956 -0.8780
 5992SOL     OW18874   1.347   3.783   0.291 -0.4654 -0.0720 -0.6812
 5992SOL    HW118875   1.348   3.770   0.192 -2.3244  0.6206 -0.8243
 5992SOL    HW218876   1.256   3.812   0.320  0.1193 -0.0003  1.2091
 5993SOL     OW18877   6.637   0.263   2.560  0.3963  0.0246  0.2777
 5993SOL    HW118878   6.674   0.318   2.485 -1.0935  0.3486 -0.2363
 5993SOL    HW218879   6.682   0.173   2.560 -0.1853 -0.3117 -1.5746
 5994SOL     OW18880   2.720   0.780   1.610 -0.1177 -0.4949  0.0484
 5994SOL    HW118881   2.626   0.780   1.577  0.4991 -0.7904 -1.7997
 5994SOL    HW218882   2.776   0.722   1.551  1.5084  0.7750  0.2889
 5995SOL     OW18883   1.327   6.861   6.266  0.3660  0.6218 -0.1369
 5995SOL    HW118884   1.361   6.835   6.175  0.4059 -0.9065  0.2711
 5995SOL    HW218885   1.244   6.809   6.286  0.8363  0.2921  1.0243
 5996SOL     OW18886   3.259   0.065   4.611 -0.2976 -0.4950 -0.1124
 5996SOL    HW118887   3.266  -0.029   4.647 -2.5469 -1.0110 -0.8693
 5996SOL    HW218888   3.251   0.129   4.687  2.4440 -0.7187  0.4643
 5997SOL     OW18889   6.222   0.315   5.917  0.6807 -0.0719 -0.8611
 5997SOL    HW118890   6.142   0.369   5.942  2.0292  2.6748 -2.0584
 5997SOL    HW218891   6.259   0.271   5.999  0.2010  1.8311  0.4386
 5998SOL     OW18892   3.631   0.555   1.904 -0.1090  0.3704  0.3016
 5998SOL    HW118893   3.695   0.625   1.874  0.4795 -0.3235 -0.1137
 5998SOL    HW218894   3.652   0.528   1.998  0.7305 -0.4071 -0.0909
 5999SOL     OW18895   1.567   1.414   5.779 -0.5301  0.1602 -0.2452
 5999SOL    HW118896   1.653   1.368   5.797 -0.2682  0.8032  0.1836
 5999SOL    HW218897   1.536   1.462   5.861 -1.2139  0.0739 -0.4407
 6000SOL     OW18898   2.723   2.674   6.439  0.6204  0.5787 -0.0995
 6000SOL    HW118899   2.641   2.688   6.495  1.0852  1.9568  0.2794
 6000SOL    HW218900   2.700   2.621   6.358 -0.0993 -1.3877  1.3236
 6001SOL     OW18901   5.286   0.995   4.355 -0.0810 -0.1256  0.4383
 6001SOL    HW118902   5.288   0.898   4.377  1.2623  0.3448  2.7129
 6001SOL    HW218903   5.371   1.038   4.386 -0.2827  1.6423 -1.2742
 6002SOL     OW18904   6.714   0.796   4.158  0.2261  0.1859  0.2327
 6002SOL    HW118905   6.709   0.714   4.100  3.2791  0.6720 -0.8452
 6002SOL    HW218906   6.730   0.768   4.253  0.4390 -0.4729  0.0089
 6003SOL     OW18907   0.853   0.446   2.115  0.0140 -0.2901 -1.0021
 6003SOL    HW118908   0.935   0.500   2.094 -0.9022  0.8409 -1.7598
 6003SOL    HW218909   0.866   0.352   2.084  0.7586  0.0474 -1.7588
 6004SOL     OW18910   4.725   5.110   5.879  0.0124 -0.0563  0.2212
 6004SOL    HW118911   4.723   5.012   5.857  0.6313 -0.3932  1.5744
 6004SOL    HW218912   4.804   5.130   5.937 -0.7636  1.0315  0.9481
 6005SOL     OW18913   1.241   1.592   0.501 -0.2987  0.0589  0.0130
 6005SOL    HW118914   1.329   1.547   0.509 -0.3391 -0.6378 -2.5409
 6005SOL    HW218915   1.235   1.638   0.412 -1.8379  1.6357  0.8682
 6006SOL     OW18916   2.251   5.913   4.540  0.0660  0.4267 -0.2550
 6006SOL    HW118917   2.243   5.823   4.584 -3.0693  0.1289 -1.1997
 6006SOL    HW218918   2.251   5.901   4.441  0.6690  1.4532 -0.3930
 6007SOL     OW18919   4.696   6.426   2.333 -0.0821  0.4273  0.0129
 6007SOL    HW118920   4.743   6.447   2.247  1.0269  0.0675  0.5122
 6007SOL    HW218921   4.654   6.509   2.369  0.8953  0.9531 -0.0295
 6008SOL     OW18922   3.005   3.077   0.498  0.7522 -0.1068 -0.0880
 6008SOL    HW118923   2.960   2.991   0.519  1.0826 -0.9514 -2.5245
 6008SOL    HW218924   3.095   3.079   0.542 -0.2279  0.1235  2.0096
 6009SOL     OW18925   3.989   4.948   0.954  0.1397 -0.1536  0.6477
 6009SOL    HW118926   3.909   4.945   1.014 -1.5499 -2.8592 -1.4644
 6009SOL    HW218927   3.965   4.996   0.869 -0.6783 -3.9098 -1.5194
 6010SOL     OW18928   5.021   4.667   3.237  0.3132  0.1868  0.0874
 6010SOL    HW118929   5.073   4.596   3.188  1.0744  0.6159  0.2477
 6010SOL    HW218930   5.085   4.724   3.288 -0.3593  0.5723  0.5011
 6011SOL     OW18931   4.020   5.718   3.311  0.5903 -0.3132  0.1371
 6011SOL    HW118932   3.988   5.789   3.373  2.9433  0.6694  0.3285
 6011SOL    HW218933   3.943   5.683   3.257 -0.8209  1.5611  0.8387
 6012SOL     OW18934   5.970   1.062   2.248  0.7108  0.0859 -0.0820
 6012SOL    HW118935   5.956   1.137   2.313  0.1668  0.0805 -0.1949
 6012SOL    HW218936   5.959   0.975   2.295  3.3297 -0.0098  0.5545
 6013SOL     OW18937   6.960   6.330   0.708  0.3045 -0.3178  0.0043
 6013SOL    HW118938   6.960   6.310   0.609 -1.5284 -0.6110  0.0183
 6013SOL    HW218939   6.970   6.428   0.722 -2.0239  0.0899 -0.6612
 6014SOL     OW18940   3.690   6.110   6.946 -1.0523 -0.2653  0.2046
 6014SOL    HW118941   3.677   6.155   6.858 -1.3482  1.1446  0.9460
 6014SOL    HW218942   3.773   6.054   6.943 -1.5203 -0.9244 -1.2186
 6015SOL     OW18943   2.709   5.364   3.819  0.0648 -0.0780 -0.1455
 6015SOL    HW118944   2.696   5.346   3.722  1.4731 -1.3025 -0.1421
 6015SOL    HW218945   2.778   5.435   3.831 -2.4075  2.4499 -0.0568
 6016SOL     OW18946   5.511   1.431   5.364  0.1464 -0.1813  0.2529
 6016SOL    HW118947   5.557   1.350   5.402  0.4684 -0.6987 -1.1760
 6016SOL    HW218948   5.579   1.503   5.348  0.2852 -0.5371 -0.7999
 6017SOL     OW18949   2.000   1.344   3.203 -0.4086 -0.5024 -0.2961
 6017SOL    HW118950   2.014   1.376   3.110 -1.1096 -0.0232 -0.2428
 6017SOL    HW218951   1.935   1.405   3.250  0.0765 -0.6278  0.5579
 6018SOL     OW18952   2.761   5.900   0.344 -0.5415 -0.6709 -0.5895
 6018SOL    HW118953   2.847   5.919   0.296 -1.6736  1.0746 -2.0608
 6018SOL    HW218954   2.691   5.873   0.278 -1.5634 -0.4376  0.3702
 6019SOL     OW18955   4.227   4.797   4.915  0.3323  0.0264 -0.0122
 6019SOL    HW118956   4.277   4.867   4.966 -0.8063 -0.3946  1.7858
 6019SOL    HW218957   4.264   4.707   4.937  0.3745 -0.1157 -0.6298
 6020SOL     OW18958   1.085   0.497   5.011 -0.2935  0.4976  0.1988
 6020SOL    HW118959   1.167   0.530   5.056  0.1615  0.6127 -0.6825
 6020SOL    HW218960   1.028   0.575   4.985 -1.1048  0.3791  1.5605
 6021SOL     OW18961   1.293   1.770   3.025 -1.1509 -0.1304  0.3638
 6021SOL    HW118962   1.310   1.703   2.953 -1.1119  0.0276  0.2238
 6021SOL    HW218963   1.376   1.823   3.042 -1.7723  1.4998 -1.2180
 6022SOL     OW18964   4.544   0.981   2.603 -1.1285 -0.0715 -0.1198
 6022SOL    HW118965   4.525   1.036   2.521  1.2815  1.7667  0.4481
 6022SOL    HW218966   4.508   1.028   2.684 -1.5458 -0.7776  0.1105
 6023SOL     OW18967   5.209   2.695   5.763  0.4074  0.2512 -0.8726
 6023SOL    HW118968   5.177   2.768   5.703  0.9815  0.6421 -0.7105
 6023SOL    HW218969   5.131   2.641   5.795 -0.2426  1.8175  0.3536
 6024SOL     OW18970   1.696   1.979   1.963 -0.0403  0.0479 -0.3769
 6024SOL    HW118971   1.722   2.048   2.031 -1.7251 -0.0476  0.4253
 6024SOL    HW218972   1.744   1.997   1.877  0.7414  1.2791  0.2844
 6025SOL     OW18973   3.802   3.301   6.926  0.0482  0.5563 -0.6613
 6025SOL    HW118974   3.783   3.385   6.876  0.6130  0.1267 -1.6296
 6025SOL    HW218975   3.888   3.311   6.976 -0.9124  1.2691  0.9071
 6026SOL     OW18976   0.318   6.228   2.983  0.5169  0.3369  0.0421
 6026SOL    HW118977   0.276   6.219   2.893  0.4254  2.4544 -0.1933
 6026SOL    HW218978   0.264   6.180   3.052 -0.2470 -0.0330 -0.8130
 6027SOL     OW18979   2.179   1.135   5.082 -0.2873 -0.1643 -0.6303
 6027SOL    HW118980   2.123   1.180   5.151  1.3225 -0.0228  0.6729
 6027SOL    HW218981   2.228   1.058   5.124  0.6297 -0.1644 -1.6426
 6028SOL     OW18982   1.900   4.013   6.027 -0.3109  0.1980  0.2841
 6028SOL    HW118983   1.933   3.933   6.077 -0.2994  0.5051  0.7794
 6028SOL    HW218984   1.800   4.012   6.026 -0.3062 -0.3750 -0.6290
 6029SOL     OW18985   1.872   4.435   0.253  0.0537 -0.0221  0.4020
 6029SOL    HW118986   1.876   4.449   0.154 -0.1233 -1.8990  0.0837
 6029SOL    HW218987   1.923   4.507   0.300 -0.8848  1.5913 -0.9707
 6030SOL     OW18988   3.484   2.020   2.013 -0.7345  0.5051 -0.1770
 6030SOL    HW118989   3.556   2.089   2.018 -0.1526  0.1227 -2.2412
 6030SOL    HW218990   3.474   1.976   2.102 -0.1781  2.2774  0.8161
 6031SOL     OW18991   2.434   5.698   5.651  0.3513  0.0693 -0.6336
 6031SOL    HW118992   2.386   5.705   5.739  1.5622  0.7139 -0.0018
 6031SOL    HW218993   2.476   5.607   5.644  1.7719  0.6225  0.2894
 6032SOL     OW18994   6.175   1.371   3.108  0.2414  0.1272 -0.2985
 6032SOL    HW118995   6.144   1.318   3.030  1.8819  0.1721 -1.0170
 6032SOL    HW218996   6.274   1.361   3.119  0.2694  1.2950  0.8803
 6033SOL     OW18997   5.824   0.091   0.823  0.2258 -0.5544  0.0695
 6033SOL    HW118998   5.881   0.099   0.741  0.3469 -1.2251  0.0887
 6033SOL    HW218999   5.873   0.129   0.901 -0.0159  0.3829 -0.2209
 6034SOL     OW19000   3.492   1.725   4.195  0.4202  0.1747  0.0064
 6034SOL    HW119001   3.469   1.628   4.186  0.7009  0.2554 -2.1609
 6034SOL    HW219002   3.410   1.780   4.185  0.3775  0.1905  0.4371
 6035SOL     OW19003   0.588   2.177   4.437  0.2274 -0.2052  0.4755
 6035SOL    HW119004   0.509   2.239   4.436  1.1410  0.9964  0.7671
 6035SOL    HW219005   0.589   2.127   4.524 -0.7922 -1.0402  0.0383
 6036SOL     OW19006   1.972   1.864   1.143  0.2725  0.7505 -0.4471
 6036SOL    HW119007   1.942   1.868   1.239  0.8446  1.7805 -0.2957
 6036SOL    HW219008   1.938   1.780   1.101  1.5181 -0.6299  1.1745
 6037SOL     OW19009   6.601   1.820   2.762  0.2274  0.5212  0.4328
 6037SOL    HW119010   6.645   1.818   2.851  0.5874  1.5260  0.2991
 6037SOL    HW219011   6.588   1.915   2.734  3.0925  0.3405 -2.0097
 6038SOL     OW19012   0.835   3.515   1.075 -0.1627  0.5565 -0.0169
 6038SOL    HW119013   0.871   3.450   1.142  1.1922  1.3611  0.0884
 6038SOL    HW219014   0.746   3.485   1.043  1.0244 -2.1388 -1.0727
 6039SOL     OW19015   2.560   3.794   5.761 -0.0284  0.1265  0.2962
 6039SOL    HW119016   2.484   3.752   5.811  0.0448  1.2292  1.3749
 6039SOL    HW219017   2.647   3.758   5.797  0.0042  0.3383  0.4317
 6040SOL     OW19018   6.788   5.205   1.879 -0.2026 -0.0119  0.4209
 6040SOL    HW119019   6.855   5.277   1.860 -0.4726  0.2680  0.5220
 6040SOL    HW219020   6.713   5.243   1.932 -0.5328 -0.2851  0.1502
 6041SOL     OW19021   1.912   5.778   6.046  0.3659 -0.1381  0.3243
 6041SOL    HW119022   1.978   5.744   6.114 -2.0628 -1.0847  2.3409
 6041SOL    HW219023   1.888   5.704   5.984  0.7806  0.0636 -0.0831
 6042SOL     OW19024   2.382   2.126   2.937  0.0071  0.8979  0.0026
 6042SOL    HW119025   2.388   2.124   2.837 -0.0469  1.5223 -0.0176
 6042SOL    HW219026   2.376   2.221   2.968 -1.3441  0.6589  0.5270
 6043SOL     OW19027   6.938   4.217   0.593 -0.3138  0.3351 -0.2555
 6043SOL    HW119028   7.021   4.203   0.646 -0.4664 -1.3385 -0.4062
 6043SOL    HW219029   6.951   4.180   0.501 -1.9109 -1.9879  0.3741
 6044SOL     OW19030   4.615   1.311   2.868  0.4549 -0.0615  0.4316
 6044SOL    HW119031   4.582   1.400   2.899 -1.1290 -0.9155  1.3006
 6044SOL    HW219032   4.552   1.239   2.898  1.3139 -1.4179 -0.8473
 6045SOL     OW19033   6.408   6.322   2.594 -0.0675 -0.8431  0.3236
 6045SOL    HW119034   6.358   6.300   2.677  0.1388 -1.3941  0.3059
 6045SOL    HW219035   6.494   6.366   2.617 -1.1553  1.4278  0.3196
 6046SOL     OW19036   3.245   4.017   4.834 -0.2251 -0.6217  0.4126
 6046SOL    HW119037   3.266   4.094   4.895  0.2783 -0.6615  0.2930
 6046SOL    HW219038   3.285   3.933   4.871  0.7689 -0.5044 -0.3792
 6047SOL     OW19039   6.335   3.473   0.778 -0.0095  0.1244  0.7845
 6047SOL    HW119040   6.419   3.421   0.761  0.7349  1.1282  1.3145
 6047SOL    HW219041   6.275   3.419   0.837 -0.1430 -0.9701 -0.3067
 6048SOL     OW19042   3.904   0.482   1.455 -0.2572 -0.0781  0.5756
 6048SOL    HW119043   3.893   0.521   1.363  0.9405  0.0650  0.4802
 6048SOL    HW219044   3.941   0.390   1.447 -0.8486 -0.3534  0.9040
 6049SOL     OW19045   6.932   6.353   2.304  0.6214  0.2911  0.2105
 6049SOL    HW119046   7.007   6.323   2.244  1.2013  3.0315 -0.5843
 6049SOL    HW219047   6.969   6.385   2.391  0.2450  0.3905  0.3378
 6050SOL     OW19048   5.755   1.371   6.163  0.1809  0.0909  0.2334
 6050SOL    HW119049   5.723   1.439   6.228  0.5901 -0.9492  1.5728
 6050SOL    HW219050   5.676   1.326   6.120 -0.1175 -0.0926  0.9653
 6051SOL     OW19051   3.160   1.969   1.453  0.6579  0.1280  0.4642
 6051SOL    HW119052   3.237   1.931   1.403  0.8793  0.2854  0.6866
 6051SOL    HW219053   3.162   2.069   1.448  0.3563  0.1280  0.3016
 6052SOL     OW19054   5.950   5.373   4.648  0.8623 -0.5791  0.1511
 6052SOL    HW119055   5.917   5.461   4.614  0.6373 -0.0687  1.6449
 6052SOL    HW219056   5.920   5.300   4.586  0.7016  0.3368 -0.8769
 6053SOL     OW19057   1.787   6.813   3.139 -0.0344 -0.1685  0.3248
 6053SOL    HW119058   1.877   6.814   3.096 -0.4937 -1.1261 -0.7172
 6053SOL    HW219059   1.729   6.883   3.098 -0.3238 -0.7654 -0.2993
 6054SOL     OW19060   4.274   3.080   0.321 -0.2613  0.3058  0.2541
 6054SOL    HW119061   4.307   3.153   0.381  0.1078  0.5284 -0.2124
 6054SOL    HW219062   4.345   3.011   0.310 -0.7187 -0.2936  0.9440
 6055SOL     OW19063   5.243   2.544   0.674  0.5676  0.4575 -0.0472
 6055SOL    HW119064   5.250   2.606   0.595  1.8775 -1.1464 -1.2564
 6055SOL    HW219065   5.268   2.593   0.757 -0.9165  2.2174 -0.5730
 6056SOL     OW19066   1.289   6.251   5.995 -0.0999  0.2821  0.2714
 6056SOL    HW119067   1.210   6.203   5.956  0.0886 -0.0639  0.3122
 6056SOL    HW219068   1.258   6.326   6.053 -0.4111 -0.2953  0.8546
 6057SOL     OW19069   3.325   0.500   0.202 -0.0343 -0.3668  0.3944
 6057SOL    HW119070   3.292   0.438   0.273 -1.5657 -1.6357 -1.3370
 6057SOL    HW219071   3.391   0.451   0.144 -0.2031  0.0608 -0.1615
 6058SOL     OW19072   1.134   6.668   6.386 -0.4820  0.2279  0.0290
 6058SOL    HW119073   1.062   6.717   6.436 -0.6595 -0.9069  0.9279
 6058SOL    HW219074   1.201   6.633   6.451  1.1845  1.6723 -0.8259
 6059SOL     OW19075   6.411   3.752   6.232 -0.0038 -0.5011 -0.1169
 6059SOL    HW119076   6.411   3.827   6.166 -0.2851  0.4003  0.8692
 6059SOL    HW219077   6.423   3.666   6.184  0.4779  0.1784 -1.2703
 6060SOL     OW19078   5.854   3.310   0.396  0.2649 -0.4675 -0.1980
 6060SOL    HW119079   5.881   3.225   0.440  1.9514  0.6301  1.0112
 6060SOL    HW219080   5.936   3.359   0.367 -0.4795  1.9918  1.5727
 6061SOL     OW19081   4.310   4.928   0.863 -0.1667  0.6218 -0.4916
 6061SOL    HW119082   4.234   4.934   0.928  0.6730  0.6802  0.5121
 6061SOL    HW219083   4.330   5.020   0.829 -1.1534  0.4837 -1.5065
 6062SOL     OW19084   0.909   3.016   3.020  0.1109  0.1529  0.3864
 6062SOL    HW119085   0.826   3.055   2.980  0.6578  1.9154  0.8953
 6062SOL    HW219086   0.941   2.941   2.963  0.2474  1.8635 -1.9101
 6063SOL     OW19087   4.261   0.611   3.321  0.3190  0.4458  0.7225
 6063SOL    HW119088   4.284   0.701   3.284 -1.2880  0.9800  0.9515
 6063SOL    HW219089   4.264   0.614   3.421  2.1777 -0.3219  0.7401
 6064SOL     OW19090   6.863   6.089   1.776 -0.0762 -0.2521 -0.4228
 6064SOL    HW119091   6.891   5.997   1.748 -1.6147 -1.1160  0.7600
 6064SOL    HW219092   6.937   6.153   1.756  1.4159 -1.8830 -0.3940
 6065SOL     OW19093   0.424   5.095   0.452  0.4966  0.3387 -0.8695
 6065SOL    HW119094   0.465   5.172   0.402  2.2891 -0.9166 -1.4292
 6065SOL    HW219095   0.330   5.118   0.477  0.7872  2.4750 -1.5265
 6066SOL     OW19096   6.717   6.274   1.904 -0.3130  0.3482  0.3182
 6066SOL    HW119097   6.761   6.198   1.857  1.4727  0.4119  1.8269
 6066SOL    HW219098   6.692   6.344   1.837  1.4982  0.1109 -0.6570
 6067SOL     OW19099   2.187   5.035   1.295  0.4598  0.0955 -0.0122
 6067SOL    HW119100   2.116   5.098   1.265  0.5735 -0.9659 -2.8222
 6067SOL    HW219101   2.144   4.949   1.324  0.5327 -0.4779 -1.5295
 6068SOL     OW19102   5.827   3.607   4.718  0.4913  0.0676 -0.3258
 6068SOL    HW119103   5.838   3.636   4.813 -0.1633 -1.5211  0.2681
 6068SOL    HW219104   5.917   3.603   4.674  0.9664 -0.5459  0.6671
 6069SOL     OW19105   6.589   6.251   6.785  0.7330  0.0072 -0.1273
 6069SOL    HW119106   6.615   6.347   6.787 -1.0504  0.6627 -3.0955
 6069SOL    HW219107   6.494   6.241   6.817  0.6319 -0.6369 -0.6081
 6070SOL     OW19108   3.096   4.429   6.898  0.2881 -0.3291  0.1130
 6070SOL    HW119109   3.076   4.455   6.803 -1.1428 -2.3860 -0.2131
 6070SOL    HW219110   3.149   4.501   6.942 -0.2411  1.3121 -1.8172
 6071SOL     OW19111   0.765   2.111   4.094  0.5913 -0.1527 -0.5715
 6071SOL    HW119112   0.700   2.051   4.047 -0.0420  1.1516 -1.4188
 6071SOL    HW219113   0.722   2.199   4.112  2.4713  1.2181 -2.3082
 6072SOL     OW19114   1.995   4.045   1.877 -0.0942 -0.2289 -0.5260
 6072SOL    HW119115   1.948   4.109   1.937 -1.2010 -0.7456 -0.8269
 6072SOL    HW219116   2.046   4.097   1.808  0.3426  0.3465  0.2051
 6073SOL     OW19117   6.305   0.382   6.955 -0.0714 -0.2166  0.0236
 6073SOL    HW119118   6.375   0.387   7.026  0.3050 -0.0151 -0.3567
 6073SOL    HW219119   6.275   0.475   6.932 -0.2097 -0.2838 -0.0688
 6074SOL     OW19120   1.713   6.651   1.310 -0.0821 -0.5470 -0.1301
 6074SOL    HW119121   1.679   6.588   1.241  0.7430  0.3057 -1.3368
 6074SOL    HW219122   1.703   6.745   1.278 -1.3366 -0.0035  1.6515
 6075SOL     OW19123   3.485   5.647   1.468 -0.4618  0.1127  0.1537
 6075SOL    HW119124   3.477   5.548   1.474 -0.9857  0.2453  2.2670
 6075SOL    HW219125   3.417   5.683   1.404 -0.9809 -0.7918  0.1876
 6076SOL     OW19126   6.332   3.134   4.218 -0.3504  0.6960 -0.5605
 6076SOL    HW119127   6.235   3.114   4.203 -0.4574  0.8135 -0.0619
 6076SOL    HW219128   6.382   3.123   4.132 -0.5803 -0.6461 -0.5546
 6077SOL     OW19129   5.521   0.524   4.309 -0.3409  0.1892 -0.3462
 6077SOL    HW119130   5.456   0.542   4.234  1.3851 -0.0855 -1.9864
 6077SOL    HW219131   5.596   0.468   4.274  0.2631 -0.3907  1.7715
 6078SOL     OW19132   1.876   0.488   6.689  0.5577 -0.4770 -0.6578
 6078SOL    HW119133   1.801   0.553   6.684  2.1774  1.7106  1.2139
 6078SOL    HW219134   1.917   0.477   6.598 -1.4417 -1.0773 -1.5320
 6079SOL     OW19135   2.106   4.039   7.016  0.2966 -0.5366  0.2060
 6079SOL    HW119136   2.046   4.092   7.076  1.9216 -0.9607  2.3016
 6079SOL    HW219137   2.051   3.970   6.968 -0.7883 -1.9065  3.1457
 6080SOL     OW19138   0.189   2.153   2.374 -0.6273 -0.5282  0.0488
 6080SOL    HW119139   0.282   2.186   2.388 -0.3866 -1.3341  0.3594
 6080SOL    HW219140   0.125   2.212   2.424 -0.3190  0.2027 -0.4100
 6081SOL     OW19141   1.115   2.660   0.796  0.5374 -0.3286 -0.0840
 6081SOL    HW119142   1.205   2.638   0.759  1.6321  0.7617  1.7407
 6081SOL    HW219143   1.107   2.760   0.805 -1.3692 -0.3208 -1.3604
 6082SOL     OW19144   3.034   0.919   1.191  0.2786  0.2601  0.5894
 6082SOL    HW119145   2.972   0.856   1.143 -3.2487  3.0254  1.0307
 6082SOL    HW219146   3.051   0.884   1.283 -1.0037 -0.4412  0.5940
 6083SOL     OW19147   5.495   6.861   2.656 -0.0284  0.0662  0.2160
 6083SOL    HW119148   5.557   6.931   2.691  0.4689 -0.0837 -0.3542
 6083SOL    HW219149   5.417   6.906   2.611 -0.7435  0.2643  1.5806
 6084SOL     OW19150   2.518   0.895   6.581 -0.5699 -0.5967 -0.0563
 6084SOL    HW119151   2.438   0.891   6.641  0.3791  0.6175  1.3715
 6084SOL    HW219152   2.564   0.983   6.593  1.0859 -1.3396 -0.6972
 6085SOL     OW19153   5.613   0.987   3.690  0.2783  0.3952  0.3377
 6085SOL    HW119154   5.514   0.992   3.698 -0.0093 -0.3005 -1.9233
 6085SOL    HW219155   5.640   0.891   3.677  1.0470  0.7309 -0.6999
 6086SOL     OW19156   0.651   1.342   4.886  0.3580 -0.1121 -0.5187
 6086SOL    HW119157   0.705   1.425   4.899  0.6186 -0.4685  0.8587
 6086SOL    HW219158   0.688   1.289   4.809  0.3060  0.9364 -1.2768
 6087SOL     OW19159   4.526   1.566   6.365 -0.0237  0.2721  0.1254
 6087SOL    HW119160   4.428   1.585   6.365  0.1100  1.7475 -3.7079
 6087SOL    HW219161   4.575   1.645   6.400 -0.1095  0.0788  0.6999
 6088SOL     OW19162   4.479   5.929   2.298  0.0275 -0.3171  0.1861
 6088SOL    HW119163   4.432   5.890   2.378 -2.1768  0.7593 -0.4881
 6088SOL    HW219164   4.459   6.027   2.294  0.3550 -0.3004 -1.5142
 6089SOL     OW19165   3.744   1.570   2.010 -0.3029  0.3894 -0.1439
 6089SOL    HW119166   3.810   1.539   1.941 -0.2759  1.5247 -0.6434
 6089SOL    HW219167   3.764   1.525   2.097  1.5902  1.2271 -0.0948
 6090SOL     OW19168   6.787   1.707   2.591 -0.3235 -0.2684  0.1161
 6090SOL    HW119169   6.770   1.610   2.603  1.8080 -0.6651  0.2854
 6090SOL    HW219170   6.722   1.760   2.645 -0.1763 -1.6579  1.7029
 6091SOL     OW19171   0.815   2.083   2.552  0.4103 -0.6850  0.4355
 6091SOL    HW119172   0.810   2.059   2.649 -0.8112 -1.9857  0.0939
 6091SOL    HW219173   0.821   1.999   2.497  0.3969 -0.0035 -0.6499
 6092SOL     OW19174   0.360   0.609   2.775  0.2245  0.1074 -0.6137
 6092SOL    HW119175   0.288   0.634   2.711  0.6676 -0.8088 -1.4984
 6092SOL    HW219176   0.392   0.517   2.755  0.8580  0.0693  0.4939
 6093SOL     OW19177   3.796   1.843   6.988 -0.2702 -0.4763  0.4843
 6093SOL    HW119178   3.876   1.791   6.957  0.4047  0.4060  0.7216
 6093SOL    HW219179   3.728   1.847   6.915  0.9897  0.9528 -0.6644
 6094SOL     OW19180   6.671   4.234   2.335 -0.9324  0.1999  0.1366
 6094SOL    HW119181   6.749   4.297   2.330  0.7480 -1.7998  0.0678
 6094SOL    HW219182   6.635   4.219   2.244  0.8609 -1.4780 -0.3728
 6095SOL     OW19183   6.625   2.437   6.067  0.7860  0.4686  0.4676
 6095SOL    HW119184   6.671   2.522   6.042  1.0046  0.3836  0.5769
 6095SOL    HW219185   6.570   2.404   5.990 -0.5728  1.5454  0.9376
 6096SOL     OW19186   0.737   1.670   6.153  0.3501 -0.2605 -0.2329
 6096SOL    HW119187   0.768   1.764   6.138 -0.2979  0.3655  1.9646
 6096SOL    HW219188   0.785   1.631   6.232 -1.2898 -0.8017  0.5496
 6097SOL     OW19189   4.319   0.404   2.402 -0.4219 -0.4753 -0.4243
 6097SOL    HW119190   4.220   0.391   2.392 -0.3899  0.1582 -1.8468
 6097SOL    HW219191   4.367   0.352   2.332  0.2091 -0.1759 -0.2214
 6098SOL     OW19192   0.491   4.154   4.017  0.4446 -0.0419 -0.2496
 6098SOL    HW119193   0.482   4.055   4.002  0.0656 -0.6153  3.0538
 6098SOL    HW219194   0.583   4.174   4.052  0.5200  0.8009 -0.8996
 6099SOL     OW19195   2.670   2.560   6.200 -0.0519  0.2893 -0.5343
 6099SOL    HW119196   2.755   2.593   6.160  1.1229 -2.4796 -0.5641
 6099SOL    HW219197   2.620   2.504   6.133 -0.4289 -0.4900  0.3697
 6100SOL     OW19198   6.165   1.788   7.015 -0.7418  0.3884 -0.4890
 6100SOL    HW119199   6.257   1.828   7.005  0.6291 -2.0101  1.2971
 6100SOL    HW219200   6.128   1.812   7.105 -0.8089 -0.5314 -0.2575
 6101SOL     OW19201   1.135   5.464   1.928  0.0891 -0.4898  0.4524
 6101SOL    HW119202   1.123   5.394   1.998 -0.6889 -0.0284  0.7904
 6101SOL    HW219203   1.045   5.498   1.898  0.3680 -1.1241 -1.2282
 6102SOL     OW19204   4.173   6.588   2.901 -0.1847 -0.3100  0.0296
 6102SOL    HW119205   4.172   6.641   2.986 -1.8306  0.0220 -0.1764
 6102SOL    HW219206   4.139   6.496   2.920  4.0378 -1.9711  0.7201
 6103SOL     OW19207   2.481   5.720   3.076  0.5179 -0.8385 -0.2985
 6103SOL    HW119208   2.524   5.630   3.075  1.0979 -0.5746 -1.9173
 6103SOL    HW219209   2.551   5.790   3.088  0.1302 -0.5735  0.4480
 6104SOL     OW19210   4.921   2.485   6.710 -0.6003  0.1043  0.3854
 6104SOL    HW119211   4.917   2.497   6.611 -1.0108 -0.4732  0.3241
 6104SOL    HW219212   4.921   2.574   6.755 -1.5109  0.3624 -0.1021
 6105SOL     OW19213   5.405   2.729   4.583  0.0820  0.1814  0.0500
 6105SOL    HW119214   5.339   2.779   4.527 -1.4590 -1.5057  0.2911
 6105SOL    HW219215   5.369   2.639   4.606  2.1824 -0.5394  0.8037
 6106SOL     OW19216   2.248   1.178   1.523 -0.1425  0.9824  0.5863
 6106SOL    HW119217   2.249   1.232   1.607  1.1405  3.1031 -0.6821
 6106SOL    HW219218   2.162   1.192   1.475 -0.0356  1.5016  0.5346
 6107SOL     OW19219   1.197   6.168   3.700 -0.2274 -0.1170  0.1521
 6107SOL    HW119220   1.151   6.182   3.613 -0.8109 -0.9747  0.3118
 6107SOL    HW219221   1.131   6.178   3.775  0.4591  1.5982  0.5831
 6108SOL     OW19222   0.251   0.033   5.486 -0.1212 -0.4280  0.3261
 6108SOL    HW119223   0.306   0.112   5.460  0.3996 -0.3143  1.6844
 6108SOL    HW219224   0.295  -0.051   5.453  1.1699 -0.3764  1.8307
 6109SOL     OW19225   1.023   0.797   0.247 -0.2687  1.3686 -0.0271
 6109SOL    HW119226   0.986   0.885   0.274 -0.3782  1.4117 -0.3136
 6109SOL    HW219227   1.115   0.809   0.210 -0.0574  1.2903  0.4726
 6110SOL     OW19228   4.469   0.761   4.759  0.6959 -0.4308 -0.7778
 6110SOL    HW119229   4.477   0.857   4.788 -0.2697 -0.6993  0.5000
 6110SOL    HW219230   4.524   0.704   4.820  2.8813 -0.5480 -2.7348
 6111SOL     OW19231   5.591   3.423   0.548 -0.0083  0.1481  0.1534
 6111SOL    HW119232   5.662   3.436   0.478 -0.9186 -0.8218 -0.9737
 6111SOL    HW219233   5.583   3.326   0.570 -1.9703  0.0521 -0.8121
 6112SOL     OW19234   3.193   2.919   5.978 -0.1991  0.1291 -0.2790
 6112SOL    HW119235   3.211   2.848   5.910  1.3978  0.0133  0.2333
 6112SOL    HW219236   3.157   2.877   6.061  2.0750 -0.3064  0.5392
 6113SOL     OW19237   3.773   6.726   6.851  0.6534 -0.2174  0.7890
 6113SOL    HW119238   3.746   6.757   6.942 -0.3515  1.1593  0.0618
 6113SOL    HW219239   3.850   6.782   6.818 -0.8514  1.3130 -0.3323
 6114SOL     OW19240   6.241   1.762   6.051  0.2784 -1.1550 -0.5568
 6114SOL    HW119241   6.269   1.722   5.963  1.5952  0.5107 -0.9420
 6114SOL    HW219242   6.293   1.718   6.124  0.1257 -1.6415 -0.7303
 6115SOL     OW19243   6.220   3.701   0.831  0.0723  0.6150 -0.3472
 6115SOL    HW119244   6.273   3.717   0.913  1.7032  0.2081 -1.2837
 6115SOL    HW219245   6.238   3.609   0.797 -0.5290  0.7965 -1.1917
 6116SOL     OW19246   4.518   3.064   0.715 -0.6206  0.3899 -0.7737
 6116SOL    HW119247   4.588   3.090   0.782 -2.1885  0.7191  0.8331
 6116SOL    HW219248   4.560   3.009   0.643  1.0502 -0.5977  0.8500
 6117SOL     OW19249   4.941   0.731   0.610 -0.0879 -0.5437  0.2780
 6117SOL    HW119250   4.913   0.790   0.686 -0.7643 -0.3142 -0.1393
 6117SOL    HW219251   4.859   0.692   0.567  0.3717 -2.7425  1.2836
 6118SOL     OW19252   4.223   6.890   3.621 -0.5031  0.0955 -0.0803
 6118SOL    HW119253   4.299   6.932   3.670 -0.3615 -0.5337  0.2524
 6118SOL    HW219254   4.182   6.957   3.559 -0.2417  0.6949  0.3870
 6119SOL     OW19255   0.487   6.831   5.691 -0.0425  0.9455  0.6478
 6119SOL    HW119256   0.544   6.825   5.609  0.6514  1.1150  1.1092
 6119SOL    HW219257   0.542   6.812   5.772 -0.7620  0.5917  1.0723
 6120SOL     OW19258   3.125   1.300   4.252 -0.9293  0.0753 -0.4274
 6120SOL    HW119259   3.175   1.221   4.217  1.7256  0.4782  2.1527
 6120SOL    HW219260   3.038   1.270   4.292  0.0156 -1.5653  0.4844
 6121SOL     OW19261   3.724   0.305   3.910 -0.9682 -0.2765  0.3134
 6121SOL    HW119262   3.675   0.220   3.931  1.7020 -1.9108  0.3961
 6121SOL    HW219263   3.693   0.340   3.822 -2.2555 -1.2267  0.3472
 6122SOL     OW19264   1.929   2.890   2.763 -0.4989  0.2473 -0.1306
 6122SOL    HW119265   2.025   2.863   2.766 -0.4429  0.4010 -0.5699
 6122SOL    HW219266   1.920   2.977   2.716 -0.7314  0.8057  0.9057
 6123SOL     OW19267   4.068   6.338   4.811 -0.4717  0.6367 -0.1921
 6123SOL    HW119268   4.153   6.358   4.764  0.6061 -0.0976  1.3673
 6123SOL    HW219269   4.043   6.242   4.795 -0.3729  0.5253  0.3121
 6124SOL     OW19270   5.374   0.900   1.082  0.6441 -0.0134  0.2561
 6124SOL    HW119271   5.383   0.997   1.061  1.5032  0.0741  0.9777
 6124SOL    HW219272   5.347   0.889   1.177  1.3375 -0.4907  0.4083
 6125SOL     OW19273   2.545   3.939   1.151  0.1342  0.0070  0.3539
 6125SOL    HW119274   2.604   4.015   1.123  0.4101 -0.6409 -0.8553
 6125SOL    HW219275   2.495   3.966   1.234  1.5493  0.8384  0.9775
 6126SOL     OW19276   5.117   0.026   2.255 -0.2422 -0.2013 -0.1879
 6126SOL    HW119277   5.125  -0.060   2.305 -1.0425 -0.2483 -0.1154
 6126SOL    HW219278   5.194   0.036   2.193 -0.0359 -0.8758 -0.0495
 6127SOL     OW19279   5.339   0.536   1.388  0.3147 -0.7148 -0.3378
 6127SOL    HW119280   5.324   0.483   1.305 -0.1007 -0.8309 -0.1912
 6127SOL    HW219281   5.414   0.601   1.373 -0.1864 -0.2803 -1.0112
 6128SOL     OW19282   6.778   0.782   6.527  0.7640 -0.3613 -0.0270
 6128SOL    HW119283   6.793   0.849   6.455  1.2526  0.4914  0.8405
 6128SOL    HW219284   6.777   0.828   6.616  2.1966 -1.6323  0.6930
 6129SOL     OW19285   3.742   5.847   5.109 -0.4019 -0.0765  0.3520
 6129SOL    HW119286   3.680   5.843   5.187 -1.4318  0.6976 -0.3943
 6129SOL    HW219287   3.834   5.867   5.140 -0.9186  0.9015  1.3156
 6130SOL     OW19288   6.132   2.610   0.022  0.1640 -0.0338  0.0785
 6130SOL    HW119289   6.122   2.544   0.097  1.1243  2.0783  2.2064
 6130SOL    HW219290   6.087   2.696   0.047 -1.5070  0.0653 -2.8353
 6131SOL     OW19291   0.229   3.878   1.717  0.4310  0.4112 -0.1320
 6131SOL    HW119292   0.250   3.937   1.795  3.0755  0.1136 -0.5422
 6131SOL    HW219293   0.304   3.881   1.651 -0.6983 -1.1330 -1.5731
 6132SOL     OW19294   0.951   2.286   3.676 -0.0286 -0.1005  0.3202
 6132SOL    HW119295   0.907   2.372   3.701 -1.3473 -0.8177  0.5672
 6132SOL    HW219296   1.050   2.293   3.692 -0.3742  0.6306  2.4464
 6133SOL     OW19297   0.629   6.845   5.462 -0.5481 -0.5353  0.1408
 6133SOL    HW119298   0.543   6.880   5.425 -0.5583 -0.9754 -0.2535
 6133SOL    HW219299   0.700   6.914   5.453 -1.2552  0.5612  2.1049
 6134SOL     OW19300   3.195   5.821   1.779  0.2434 -0.0829  0.1435
 6134SOL    HW119301   3.157   5.751   1.718  0.1867  0.2264 -0.1793
 6134SOL    HW219302   3.293   5.805   1.790  0.1288 -0.5499  0.5292
 6135SOL     OW19303   4.069   5.461   1.378  0.2008  0.1535  0.0201
 6135SOL    HW119304   4.063   5.432   1.474 -1.4040  2.3715  0.6710
 6135SOL    HW219305   4.043   5.384   1.319 -1.1370 -0.6053  1.4939
 6136SOL     OW19306   6.525   2.148   2.755 -0.1643 -0.0989  0.2486
 6136SOL    HW119307   6.431   2.115   2.753  0.0955 -0.8757  0.5617
 6136SOL    HW219308   6.575   2.110   2.677 -0.4928  1.5192 -0.7874
 6137SOL     OW19309   0.054   4.572   4.770  0.3539  0.6270  0.0770
 6137SOL    HW119310   0.030   4.477   4.791  1.3571  0.4017  0.2574
 6137SOL    HW219311   0.107   4.575   4.685 -1.1174  1.2207 -0.8617
 6138SOL     OW19312   3.572   4.473   1.613  0.6930 -0.3128 -0.1014
 6138SOL    HW119313   3.580   4.525   1.698  0.4640  1.0432 -0.8735
 6138SOL    HW219314   3.483   4.427   1.610 -0.0793  1.1355 -0.3827
 6139SOL     OW19315   2.327   2.417   5.750 -0.4266  0.5297  0.1872
 6139SOL    HW119316   2.410   2.467   5.725  1.1570 -0.3734  3.1676
 6139SOL    HW219317   2.345   2.318   5.747 -1.3447  0.3161  1.0050
 6140SOL     OW19318   0.718   6.237   3.052  0.2012 -0.8750  0.1120
 6140SOL    HW119319   0.633   6.284   3.030  0.5363  0.3201  1.2298
 6140SOL    HW219320   0.794   6.302   3.050  0.7363 -1.4143  1.3231
 6141SOL     OW19321   1.058   6.358   3.131 -0.3894  0.6221 -0.3915
 6141SOL    HW119322   1.038   6.260   3.133 -0.1276  0.5794  0.4901
 6141SOL    HW219323   0.991   6.405   3.074 -2.0594  0.2547  1.1832
 6142SOL     OW19324   6.531   6.558   1.279  0.0968 -0.0428 -0.2175
 6142SOL    HW119325   6.467   6.525   1.349  0.1973 -0.7071 -0.4291
 6142SOL    HW219326   6.556   6.482   1.219  1.0244  0.2314 -0.1910
 6143SOL     OW19327   0.772   3.116   5.341 -0.1544  0.2096 -0.2380
 6143SOL    HW119328   0.753   3.196   5.398 -1.6632 -1.5477  1.9013
 6143SOL    HW219329   0.699   3.106   5.273  2.1038  2.8268 -3.3590
 6144SOL     OW19330   3.427   1.597   5.345 -0.1098  0.3584 -0.3608
 6144SOL    HW119331   3.471   1.536   5.280 -1.0671 -0.9486  0.1639
 6144SOL    HW219332   3.492   1.622   5.417  0.1011 -0.6987 -0.1649
 6145SOL     OW19333   5.652   3.713   3.183 -0.0707 -0.5758  0.2726
 6145SOL    HW119334   5.703   3.690   3.267 -0.2751 -2.0908  0.0237
 6145SOL    HW219335   5.688   3.659   3.107 -0.0319  0.6263 -0.5900
 6146SOL     OW19336   6.761   1.862   3.018 -0.4397  0.5097  0.2089
 6146SOL    HW119337   6.761   1.763   3.015 -0.2089  0.5232 -0.2332
 6146SOL    HW219338   6.756   1.893   3.113  1.2724  0.0761  0.4745
 6147SOL     OW19339   2.147   0.852   3.668 -0.4365  0.3271  0.2524
 6147SOL    HW119340   2.120   0.757   3.653  0.5961  0.2787 -1.4683
 6147SOL    HW219341   2.158   0.868   3.766  0.0700 -1.5169  0.5272
 6148SOL     OW19342   3.559   4.019   1.907  0.1527  0.3272  0.5308
 6148SOL    HW119343   3.547   4.100   1.849  0.9015  0.9602  1.2430
 6148SOL    HW219344   3.568   4.047   2.003 -1.6957 -0.7469  1.0580
 6149SOL     OW19345   4.937   3.701   0.910  0.3398 -0.2116 -0.3409
 6149SOL    HW119346   4.884   3.617   0.903  0.4882 -0.2327 -1.4754
 6149SOL    HW219347   4.959   3.734   0.818  0.3696  1.0165  0.0890
 6150SOL     OW19348   4.558   6.416   3.883 -0.1624 -0.0661  0.0041
 6150SOL    HW119349   4.479   6.391   3.827 -0.1530  1.6589 -0.8684
 6150SOL    HW219350   4.641   6.380   3.842 -0.3308 -0.3722 -0.0687
 6151SOL     OW19351   3.264   4.952   3.335 -0.3812 -0.7023  0.3396
 6151SOL    HW119352   3.269   4.967   3.236 -1.7179  0.6811  0.4515
 6151SOL    HW219353   3.273   5.039   3.383  1.3488 -1.4739  1.5258
 6152SOL     OW19354   1.064   6.061   3.189 -0.1211 -0.0335 -0.1260
 6152SOL    HW119355   1.133   5.991   3.210  1.0750  0.8433 -1.0413
 6152SOL    HW219356   1.021   6.041   3.101  0.9077  0.8834 -0.8529
 6153SOL     OW19357   3.510   0.349   4.624 -0.1066 -0.0126  0.1278
 6153SOL    HW119358   3.437   0.321   4.562 -0.5339 -1.0857  1.0912
 6153SOL    HW219359   3.476   0.418   4.687  0.0590  0.3768 -0.2059
 6154SOL     OW19360   1.168   4.068   3.076 -0.4464 -0.2136  0.5753
 6154SOL    HW119361   1.181   4.155   3.028 -2.8058 -0.0580  0.0964
 6154SOL    HW219362   1.110   4.082   3.156  0.1148 -1.1720  1.1682
 6155SOL     OW19363   2.845   0.217   4.773 -0.3578  0.1910  0.4022
 6155SOL    HW119364   2.867   0.132   4.821 -1.5157  0.0853  0.7509
 6155SOL    HW219365   2.880   0.295   4.825 -0.8529  0.0300  0.9804
 6156SOL     OW19366   0.459   3.847   1.572  0.5806  0.2163  0.0887
 6156SOL    HW119367   0.489   3.895   1.490 -0.2084  2.1158  0.8374
 6156SOL    HW219368   0.473   3.906   1.652  0.0271 -1.0204  1.1403
 6157SOL     OW19369   0.336   6.548   3.733  0.1800  0.2610  0.0447
 6157SOL    HW119370   0.308   6.614   3.664 -1.1180  1.3627  1.5478
 6157SOL    HW219371   0.360   6.596   3.818  1.5943 -1.0547  0.4256
 6158SOL     OW19372   1.497   5.513   5.735 -0.2368 -0.2543 -0.4877
 6158SOL    HW119373   1.514   5.611   5.750  1.6580 -0.3706 -1.5120
 6158SOL    HW219374   1.548   5.460   5.803  0.1947 -0.5435 -1.0252
 6159SOL     OW19375   6.931   5.211   5.837  0.0049  0.1681 -0.2992
 6159SOL    HW119376   6.856   5.197   5.901  0.6166  1.8220  0.8640
 6159SOL    HW219377   6.908   5.284   5.773  0.2940  0.1254 -0.4548
 6160SOL     OW19378   0.878   2.394   5.071  0.1806 -0.3277  0.3196
 6160SOL    HW119379   0.834   2.332   5.006 -0.1621 -1.0139  1.1905
 6160SOL    HW219380   0.866   2.359   5.164 -0.3686  1.2594  0.8793
 6161SOL     OW19381   3.748   1.704   5.267  0.4003 -0.1376 -0.2068
 6161SOL    HW119382   3.710   1.686   5.358  2.2285  1.3740  0.9095
 6161SOL    HW219383   3.818   1.636   5.247 -1.1496 -1.5165 -1.2937
 6162SOL     OW19384   1.180   2.399   2.959 -0.4482  0.0913  0.0865
 6162SOL    HW119385   1.266   2.383   3.008 -1.2142  0.5142  1.6748
 6162SOL    HW219386   1.200   2.424   2.865  1.2765  1.6429  0.7812
 6163SOL     OW19387   5.067   6.995   4.462  0.2344 -0.3543  0.2341
 6163SOL    HW119388   4.983   6.958   4.422  1.0546  0.8613 -2.9307
 6163SOL    HW219389   5.061   7.095   4.465  2.5849  0.0632 -3.0698
 6164SOL     OW19390   3.783   6.648   0.540  0.4138 -0.1627 -0.2457
 6164SOL    HW119391   3.772   6.728   0.481 -1.6979  1.1744  1.7677
 6164SOL    HW219392   3.694   6.603   0.552  1.1787 -1.5949  0.3249
 6165SOL     OW19393   0.320   5.237   6.186 -0.1239  0.3014 -0.0031
 6165SOL    HW119394   0.374   5.284   6.256 -1.6272 -0.3395  1.6766
 6165SOL    HW219395   0.254   5.301   6.147  0.4981  0.5756 -0.6261
 6166SOL     OW19396   2.872   6.595   3.870 -0.7761 -0.4375  0.2450
 6166SOL    HW119397   2.794   6.589   3.807 -1.7093  0.4189  1.2608
 6166SOL    HW219398   2.848   6.550   3.956 -0.6040  0.8576  0.9861
 6167SOL     OW19399   6.028   0.966   4.739  0.1555  0.3056  0.1587
 6167SOL    HW119400   6.056   1.022   4.817 -1.3151  1.7566 -0.3036
 6167SOL    HW219401   5.951   0.907   4.766 -0.1285  0.5562 -0.1016
 6168SOL     OW19402   1.669   2.920   3.031 -0.1929 -0.5856  0.5829
 6168SOL    HW119403   1.629   2.854   2.968 -1.0500  1.3394 -1.0182
 6168SOL    HW219404   1.764   2.936   3.008  0.4736 -2.3130  1.9429
 6169SOL     OW19405   2.925   3.199   6.842 -0.4422 -0.4634 -0.0624
 6169SOL    HW119406   2.935   3.275   6.778  2.3353  0.3630  1.2146
 6169SOL    HW219407   2.955   3.114   6.799  1.4555  0.0915  0.0876
 6170SOL     OW19408   0.383   2.338   4.378 -0.3216 -0.2063  0.0077
 6170SOL    HW119409   0.292   2.357   4.413 -1.1970 -1.0787 -1.6716
 6170SOL    HW219410   0.412   2.413   4.319  0.8738  0.9457  1.9339
 6171SOL     OW19411   4.635   0.644   4.957  0.4396 -0.1454 -0.2563
 6171SOL    HW119412   4.612   0.615   5.049 -1.3341 -2.3595 -1.3013
 6171SOL    HW219413   4.721   0.602   4.928 -0.0752 -1.1527 -0.3389
 6172SOL     OW19414   1.706   1.267   3.829  0.7132 -0.0887  0.0821
 6172SOL    HW119415   1.633   1.318   3.782  1.2882 -0.2879 -1.0464
 6172SOL    HW219416   1.743   1.197   3.768 -0.1931 -2.0478  1.6612
 6173SOL     OW19417   1.506   3.345   4.209  0.7332  0.2045 -0.3804
 6173SOL    HW119418   1.511   3.264   4.149 -0.6061 -0.7257  0.6896
 6173SOL    HW219419   1.594   3.358   4.254  1.3472  0.1130 -1.5050
 6174SOL     OW19420   4.233   1.864   2.741 -0.2889  0.1403 -0.1197
 6174SOL    HW119421   4.189   1.909   2.819  0.4287  0.8630 -0.1329
 6174SOL    HW219422   4.329   1.890   2.737 -0.4498  0.5658 -1.5920
 6175SOL     OW19423   4.962   3.721   4.248 -0.4449 -0.4771  0.2052
 6175SOL    HW119424   5.033   3.738   4.180 -0.9139 -1.3998 -0.5373
 6175SOL    HW219425   4.896   3.656   4.211 -1.4048 -0.0186  1.0696
 6176SOL     OW19426   6.862   6.921   1.315 -0.0726  0.1955  0.0059
 6176SOL    HW119427   6.961   6.930   1.305 -0.3158  2.6140 -0.7936
 6176SOL    HW219428   6.841   6.894   1.409  1.3502 -1.0529  0.0039
 6177SOL     OW19429   0.858   6.971   3.796 -0.1640  0.2622  0.5931
 6177SOL    HW119430   0.931   7.016   3.745 -0.8236  1.6792  0.8476
 6177SOL    HW219431   0.885   6.964   3.893 -0.2948  0.6374  0.6576
 6178SOL     OW19432   5.881   0.257   3.521  0.0095 -0.3319 -0.4486
 6178SOL    HW119433   5.815   0.308   3.466 -0.5395 -1.4908 -0.9116
 6178SOL    HW219434   5.878   0.289   3.615  0.6141  1.3524 -0.9690
 6179SOL     OW19435   1.389   0.266   2.097  0.1964 -0.2433 -0.3229
 6179SOL    HW119436   1.392   0.351   2.045 -0.2161 -0.7565 -1.2187
 6179SOL    HW219437   1.481   0.226   2.099 -0.0428 -1.0102 -2.0758
 6180SOL     OW19438   3.578   5.280   6.239 -0.1555 -0.0300  0.6717
 6180SOL    HW119439   3.561   5.201   6.181 -1.0731  1.6370 -1.4821
 6180SOL    HW219440   3.544   5.262   6.331  0.8371 -2.5561  0.6143
 6181SOL     OW19441   1.594   5.173   5.267  0.0267 -0.4329 -0.0561
 6181SOL    HW119442   1.640   5.165   5.178  0.7300  0.3898  0.2214
 6181SOL    HW219443   1.498   5.199   5.253  0.0159 -0.7494 -0.5868
 6182SOL     OW19444   3.445   2.675   0.188 -0.2825  0.4026 -0.6055
 6182SOL    HW119445   3.503   2.626   0.254  0.5054  1.4593 -0.4817
 6182SOL    HW219446   3.442   2.625   0.102 -0.0511 -0.2036 -0.2638
 6183SOL     OW19447   4.798   6.840   2.705 -0.4090  0.1370 -0.2994
 6183SOL    HW119448   4.707   6.824   2.667 -0.6485  0.3031  0.2011
 6183SOL    HW219449   4.818   6.938   2.703 -0.7768  0.2525  0.7820
 6184SOL     OW19450   3.559   6.390   1.263  0.1054 -0.7079  0.5377
 6184SOL    HW119451   3.616   6.468   1.289 -0.8017 -0.0097  0.4904
 6184SOL    HW219452   3.508   6.358   1.342 -1.5545  0.4907  0.0083
 6185SOL     OW19453   3.555   6.122   6.276  0.0355  0.4963 -0.1832
 6185SOL    HW119454   3.651   6.142   6.296  0.3818 -1.1368 -0.0626
 6185SOL    HW219455   3.547   6.093   6.181 -0.6958  2.6098 -0.8164
 6186SOL     OW19456   1.681   4.697   4.984 -0.1399 -0.4976  0.1999
 6186SOL    HW119457   1.748   4.672   4.914 -0.2914 -2.8337  0.8058
 6186SOL    HW219458   1.590   4.704   4.943 -0.2292 -1.8588  0.1087
 6187SOL     OW19459   2.025   4.787   6.237 -0.2809 -0.2524  0.3904
 6187SOL    HW119460   1.947   4.745   6.189  0.6469 -3.3797  1.3582
 6187SOL    HW219461   2.096   4.718   6.250  1.2742  1.6285  2.4706
 6188SOL     OW19462   0.429   4.652   5.030 -0.2909 -0.6123  0.3769
 6188SOL    HW119463   0.343   4.688   4.994  0.8770 -0.6969 -2.8231
 6188SOL    HW219464   0.434   4.670   5.128 -1.6551  4.0262 -0.1888
 6189SOL     OW19465   5.075   2.214   6.989  0.3133 -0.1509 -0.0480
 6189SOL    HW119466   5.137   2.256   6.923  0.2879 -1.0757 -0.6768
 6189SOL    HW219467   4.981   2.240   6.966  0.3740  0.2343  0.1455
 6190SOL     OW19468   0.574   0.148   5.596 -0.3376 -0.2246  0.3162
 6190SOL    HW119469   0.491   0.172   5.547  0.3497  2.6804  0.3725
 6190SOL    HW219470   0.650   0.139   5.531 -0.2520 -0.6257  0.4679
 6191SOL     OW19471   0.126   0.487   4.129  0.2549 -0.4051  0.1088
 6191SOL    HW119472   0.121   0.585   4.147  0.2401 -0.4415  0.3030
 6191SOL    HW219473   0.217   0.464   4.097  0.3388 -0.3706  0.3204
 6192SOL     OW19474   5.875   6.065   6.574  0.2104  0.1733 -0.3444
 6192SOL    HW119475   5.842   6.018   6.656 -0.7659  1.4038 -0.0033
 6192SOL    HW219476   5.903   6.157   6.598 -0.1306  0.5643 -1.4071
 6193SOL     OW19477   1.223   6.609   4.624  0.1785  0.0857  0.2907
 6193SOL    HW119478   1.288   6.556   4.678  0.2853  0.0434  0.1201
 6193SOL    HW219479   1.194   6.689   4.677 -0.3831 -0.4167  0.7553
 6194SOL     OW19480   0.662   4.238   2.949  0.1708  0.0426 -0.1156
 6194SOL    HW119481   0.695   4.144   2.955  1.4972  0.3454 -1.7169
 6194SOL    HW219482   0.589   4.253   3.016  0.8468 -1.7240  1.0882
 6195SOL     OW19483   6.579   1.829   4.410  0.1310 -0.2680  0.7783
 6195SOL    HW119484   6.556   1.848   4.314  0.6122  1.2496  0.9428
 6195SOL    HW219485   6.516   1.760   4.446  0.0614 -1.0046 -0.6793
 6196SOL     OW19486   5.014   4.275   4.228  0.2170  0.5377 -0.4237
 6196SOL    HW119487   4.962   4.295   4.311 -0.3209  1.6072 -0.9857
 6196SOL    HW219488   4.976   4.193   4.184 -0.5175  0.8675 -0.4267
 6197SOL     OW19489   0.109   4.748   1.886 -0.3650  0.1963  0.4610
 6197SOL    HW119490   0.143   4.759   1.980  1.9560 -0.6036 -0.2253
 6197SOL    HW219491   0.184   4.720   1.826 -1.5024  1.8988 -1.9200
 6198SOL     OW19492   0.165   4.479   0.498 -0.0177  0.4396 -0.1379
 6198SOL    HW119493   0.083   4.471   0.442 -0.1091 -0.8090  0.1588
 6198SOL    HW219494   0.241   4.432   0.452  0.3212  0.8351  0.0107
 6199SOL     OW19495   3.512   4.038   1.246  0.2335 -0.3334 -0.0156
 6199SOL    HW119496   3.526   3.946   1.284 -0.4891 -1.7112 -2.8183
 6199SOL    HW219497   3.601   4.080   1.229  0.6541 -1.4872 -0.8288
 6200SOL     OW19498   0.012   2.140   5.301  0.4722 -0.0291 -0.4204
 6200SOL    HW119499  -0.008   2.234   5.329 -0.9857 -0.4542  0.0648
 6200SOL    HW219500  -0.021   2.126   5.207  0.8890  0.0062 -0.5727
 6201SOL     OW19501   0.809   0.705   6.536 -0.2148  0.3496  0.1694
 6201SOL    HW119502   0.776   0.734   6.446  1.1359 -0.4909 -0.6404
 6201SOL    HW219503   0.827   0.785   6.593 -1.6672  0.8739 -0.0730
 6202SOL     OW19504   5.777   2.763   0.001  0.3641 -1.0459 -0.2504
 6202SOL    HW119505   5.699   2.721   0.048  0.7129 -0.6001  0.7599
 6202SOL    HW219506   5.774   2.739  -0.096 -0.6027 -1.6622 -0.0872
 6203SOL     OW19507   6.367   0.325   2.480  0.1282 -0.6886 -0.6389
 6203SOL    HW119508   6.365   0.291   2.386  0.2658 -0.4465 -0.7292
 6203SOL    HW219509   6.455   0.303   2.521  0.5248  0.2415 -0.9543
 6204SOL     OW19510   1.838   1.857   6.897 -0.1835  0.0038  0.3327
 6204SOL    HW119511   1.792   1.944   6.913 -0.0963  0.1563 -0.2623
 6204SOL    HW219512   1.905   1.866   6.824  0.2999 -0.3959  0.7163
 6205SOL     OW19513   5.285   3.368   2.874 -0.1037  0.3755  0.0691
 6205SOL    HW119514   5.246   3.441   2.931 -1.7082  0.1198 -0.6558
 6205SOL    HW219515   5.259   3.382   2.779  2.8660  1.0104 -0.7539
 6206SOL     OW19516   0.555   2.922   1.777  0.3906  0.4020  0.2184
 6206SOL    HW119517   0.479   2.986   1.768 -1.4582 -1.8735 -1.7198
 6206SOL    HW219518   0.595   2.904   1.688  0.7761 -1.1811  0.6709
 6207SOL     OW19519   5.865   1.545   0.596  0.5789 -0.1770  0.1982
 6207SOL    HW119520   5.803   1.615   0.562  0.4955 -0.4730 -0.2780
 6207SOL    HW219521   5.814   1.462   0.617  0.8613 -0.5549 -0.5766
 6208SOL     OW19522   5.977   5.685   0.796  0.0940 -0.1298  0.5885
 6208SOL    HW119523   5.988   5.784   0.784  0.9440 -0.2267  0.4573
 6208SOL    HW219524   6.027   5.657   0.878 -0.3774 -0.4093  0.7784
 6209SOL     OW19525   6.443   3.178   5.600 -0.6682  0.1699  0.2744
 6209SOL    HW119526   6.513   3.247   5.616  0.0371 -0.7015  1.1346
 6209SOL    HW219527   6.487   3.092   5.574 -1.5957  0.3656 -2.1665
 6210SOL     OW19528   2.348   4.767   3.493 -0.0009 -0.2773 -0.2047
 6210SOL    HW119529   2.315   4.757   3.399  2.8788 -0.3603 -1.3364
 6210SOL    HW219530   2.431   4.712   3.505 -1.2709 -1.7234  3.0144
 6211SOL     OW19531   6.054   0.599   6.610  0.1468  0.4077 -0.4595
 6211SOL    HW119532   6.084   0.678   6.557  2.9070  0.3854  0.8928
 6211SOL    HW219533   6.062   0.516   6.554  1.2065  0.6046 -0.6074
 6212SOL     OW19534   0.443   1.769   3.257  0.5029  0.2976  0.6829
 6212SOL    HW119535   0.430   1.860   3.218  1.0326 -0.1111 -0.5094
 6212SOL    HW219536   0.507   1.775   3.334  1.6147  0.7641 -0.2403
 6213SOL     OW19537   4.591   6.007   3.615 -0.2435 -0.3366  0.1090
 6213SOL    HW119538   4.633   6.030   3.527 -0.2928 -0.9926 -0.0939
 6213SOL    HW219539   4.500   5.970   3.600 -0.4506  0.0132  0.4760
 6214SOL     OW19540   1.053   2.542   1.081 -0.2901  0.0785 -0.3873
 6214SOL    HW119541   1.053   2.561   0.983  0.8386  0.9317 -0.2349
 6214SOL    HW219542   1.028   2.624   1.131 -0.1811 -0.1664  0.0727
 6215SOL     OW19543   4.093   3.218   3.175  0.7553 -0.0631  0.1264
 6215SOL    HW119544   4.172   3.178   3.220 -0.3406 -0.4379  1.8165
 6215SOL    HW219545   4.011   3.201   3.230 -0.6754 -0.4894 -2.0091
 6216SOL     OW19546   5.259   6.490   2.089 -0.4066  0.2321 -0.2244
 6216SOL    HW119547   5.299   6.452   2.005 -0.0191 -1.6380  0.7467
 6216SOL    HW219548   5.330   6.533   2.143 -0.3424 -0.0433 -0.0886
 6217SOL     OW19549   4.128   4.844   6.904 -0.3853  0.3322  0.0390
 6217SOL    HW119550   4.081   4.761   6.935  0.4448  0.2191  1.0663
 6217SOL    HW219551   4.061   4.914   6.882 -1.1276 -0.7952 -1.4300
 6218SOL     OW19552   6.130   2.144   1.492 -0.6272  0.1283  0.3439
 6218SOL    HW119553   6.141   2.089   1.575 -1.0410 -0.8305 -0.2303
 6218SOL    HW219554   6.034   2.144   1.465 -0.7182  1.4893  0.5572
 6219SOL     OW19555   0.882   3.922   2.221 -0.3478 -0.2776  0.1279
 6219SOL    HW119556   0.892   3.968   2.133  2.2928 -2.4199 -0.8267
 6219SOL    HW219557   0.853   3.828   2.206 -0.3691 -0.5311  1.6181
 6220SOL     OW19558   0.700   3.936   5.006  0.0629 -0.2149 -0.1604
 6220SOL    HW119559   0.730   3.873   4.934 -0.8709 -1.1194  0.2235
 6220SOL    HW219560   0.604   3.959   4.992  0.0449  0.0962  0.4521
 6221SOL     OW19561   5.420   6.990   1.626  0.0810  0.3284  0.2705
 6221SOL    HW119562   5.393   7.070   1.572 -2.7254 -0.7245 -0.1018
 6221SOL    HW219563   5.519   6.985   1.632  0.5321  1.4193 -3.4416
 6222SOL     OW19564   6.544   3.290   5.169  0.2214  0.0148  0.2702
 6222SOL    HW119565   6.620   3.316   5.228 -0.1085  0.7452  0.3820
 6222SOL    HW219566   6.462   3.274   5.224  0.0136  0.3121  0.0532
 6223SOL     OW19567   0.197   1.835   0.825  0.1517 -0.1521  0.4798
 6223SOL    HW119568   0.143   1.920   0.826  1.0251  0.4300 -0.4854
 6223SOL    HW219569   0.179   1.786   0.741 -0.6639 -1.1568  1.2184
 6224SOL     OW19570   3.034   5.845   0.616  0.1831 -0.0060  0.0009
 6224SOL    HW119571   3.033   5.916   0.546 -0.5700  0.0312  0.0439
 6224SOL    HW219572   3.011   5.757   0.575  2.0912 -0.4410 -0.2516
 6225SOL     OW19573   5.245   2.568   6.870 -0.3618  0.7182 -0.2182
 6225SOL    HW119574   5.176   2.640   6.880  0.9461  2.1297 -0.9916
 6225SOL    HW219575   5.210   2.496   6.810 -2.1600  0.0390  1.5344
 6226SOL     OW19576   5.662   2.059   6.808  0.5644  0.0996 -0.6839
 6226SOL    HW119577   5.593   2.039   6.738 -0.6649 -0.9756  0.7868
 6226SOL    HW219578   5.723   2.131   6.774 -0.8356  0.5915 -2.3145
 6227SOL     OW19579   6.635   2.141   1.665 -0.0537  0.4926 -0.0593
 6227SOL    HW119580   6.591   2.058   1.698 -1.3874  1.7613  1.5244
 6227SOL    HW219581   6.699   2.175   1.734 -0.8729  1.7360  0.1162
 6228SOL     OW19582   0.847   1.031   3.170  0.4069 -0.2452 -1.4167
 6228SOL    HW119583   0.804   1.009   3.082  1.3038 -1.9092 -1.4866
 6228SOL    HW219584   0.946   1.020   3.162  0.6109  0.7740 -0.5048
 6229SOL     OW19585   5.309   2.316   6.009 -0.0343  0.1488  0.3421
 6229SOL    HW119586   5.212   2.332   6.029 -0.5788 -2.2502 -0.0375
 6229SOL    HW219587   5.323   2.315   5.910  0.5883  1.3985  0.3990
 6230SOL     OW19588   3.768   6.911   4.365  0.5312  0.1877  0.2576
 6230SOL    HW119589   3.709   6.903   4.445 -0.7255  0.3296 -0.6374
 6230SOL    HW219590   3.819   6.997   4.370  0.4290  0.2148  0.8827
 6231SOL     OW19591   5.336   6.237   4.447  0.1419  0.2333  1.1035
 6231SOL    HW119592   5.425   6.220   4.489  0.9430  1.0513 -0.1886
 6231SOL    HW219593   5.333   6.331   4.414 -0.7290 -0.1584  0.0170
 6232SOL     OW19594   0.170   6.446   6.930  0.0574 -0.0457 -0.3453
 6232SOL    HW119595   0.078   6.462   6.893 -0.4063  1.4873  1.3554
 6232SOL    HW219596   0.183   6.501   7.012  1.1782 -3.0123  1.6335
 6233SOL     OW19597   5.610   4.694   0.083  0.1681  0.1441 -0.2448
 6233SOL    HW119598   5.562   4.728   0.002  1.5865 -0.2204 -1.2940
 6233SOL    HW219599   5.555   4.625   0.129 -0.4811  0.0451 -1.1562
 6234SOL     OW19600   0.024   1.993   6.882  0.0618 -0.2324 -0.0090
 6234SOL    HW119601  -0.050   1.931   6.856  0.8475 -1.8855  1.4650
 6234SOL    HW219602   0.003   2.036   6.969  0.8744 -0.8154  0.4860
 6235SOL     OW19603   0.277   3.761   0.546 -0.3125 -0.1392  0.1103
 6235SOL    HW119604   0.210   3.691   0.571 -0.3220  0.2238  1.1547
 6235SOL    HW219605   0.240   3.851   0.567  1.3428 -0.0106  2.9618
 6236SOL     OW19606   3.377   1.231   3.615 -0.3552  0.2511  0.7684
 6236SOL    HW119607   3.427   1.252   3.698  0.1219  0.8181  0.3433
 6236SOL    HW219608   3.296   1.177   3.638 -0.2132  0.3752  1.5916
 6237SOL     OW19609   2.266   0.006   2.031  0.6464  0.2675 -0.1429
 6237SOL    HW119610   2.274   0.106   2.029 -0.8964  0.4190 -0.1747
 6237SOL    HW219611   2.173  -0.019   2.057  1.5880 -1.1810  2.2602
 6238SOL     OW19612   5.255   1.249   2.425 -0.1645  0.6310 -0.0329
 6238SOL    HW119613   5.345   1.259   2.381 -0.3074 -0.2824 -0.5643
 6238SOL    HW219614   5.268   1.239   2.524  0.2422  1.5103  0.0166
 6239SOL     OW19615   4.722   2.607   4.684  0.1185  0.4024  0.0503
 6239SOL    HW119616   4.640   2.584   4.737 -0.8796  0.6543 -1.3345
 6239SOL    HW219617   4.753   2.699   4.709 -0.9585  0.9346 -0.5227
 6240SOL     OW19618   2.941   3.489   2.889  0.6540  1.0943 -0.8489
 6240SOL    HW119619   2.950   3.446   2.799  0.4152  0.0705 -0.3876
 6240SOL    HW219620   2.966   3.424   2.961 -0.9279  1.2970 -0.0717
 6241SOL     OW19621   1.019   4.897   4.258  0.4668  0.0241  0.4872
 6241SOL    HW119622   1.112   4.886   4.224  0.1590 -0.5353 -0.1733
 6241SOL    HW219623   0.966   4.953   4.194  0.0070 -0.6737  0.2560
 6242SOL     OW19624   5.206   0.427   4.665  0.0191 -0.0762 -0.5451
 6242SOL    HW119625   5.142   0.395   4.735 -0.1206  0.0697 -0.6054
 6242SOL    HW219626   5.297   0.389   4.683 -0.2921 -1.0873 -1.0180
 6243SOL     OW19627   6.404   4.502   5.407  0.1603 -0.1653  0.1426
 6243SOL    HW119628   6.446   4.501   5.316 -0.6108 -0.0035 -0.2213
 6243SOL    HW219629   6.438   4.580   5.459 -1.8077  1.6610 -1.1748
 6244SOL     OW19630   6.705   6.856   3.715 -0.6585 -0.1255 -0.3818
 6244SOL    HW119631   6.710   6.768   3.763 -0.0193  0.2071  0.1749
 6244SOL    HW219632   6.789   6.871   3.664 -0.7319  0.2101 -0.4046
 6245SOL     OW19633   0.552   5.444   2.191 -0.4009  0.3929  0.6158
 6245SOL    HW119634   0.504   5.417   2.107 -0.4059  2.5988 -0.1554
 6245SOL    HW219635   0.590   5.363   2.235 -0.3975 -0.8410 -1.5122
 6246SOL     OW19636   3.442   6.232   4.277  0.1625  0.1882  0.0359
 6246SOL    HW119637   3.538   6.207   4.289 -0.3776 -1.8711  0.4246
 6246SOL    HW219638   3.421   6.311   4.335  1.2774 -0.2734  1.1231
 6247SOL     OW19639   2.403   0.113   4.947  0.3211  0.1990  0.0021
 6247SOL    HW119640   2.337   0.181   4.914  0.9222  1.0927  0.6035
 6247SOL    HW219641   2.493   0.156   4.957  0.9245 -0.9222 -0.4684
 6248SOL     OW19642   0.828   2.217   6.349  0.2089  0.1575  0.2184
 6248SOL    HW119643   0.796   2.275   6.423  2.9293  1.1981  0.6930
 6248SOL    HW219644   0.843   2.124   6.383 -0.8844 -0.0012  0.3087
 6249SOL     OW19645   2.651   4.743   2.503 -0.0905  0.2502  1.1195
 6249SOL    HW119646   2.582   4.717   2.436 -0.2027  3.3929 -0.1810
 6249SOL    HW219647   2.741   4.746   2.459  0.7139 -2.2971  2.4076
 6250SOL     OW19648   1.461   1.635   6.552  0.0017 -0.5554  0.0410
 6250SOL    HW119649   1.457   1.702   6.478 -0.1947 -0.1389  0.4234
 6250SOL    HW219650   1.499   1.549   6.517  0.6684 -0.1098 -0.3474
 6251SOL     OW19651   1.268   6.904   0.546  0.4510 -0.3557 -0.5755
 6251SOL    HW119652   1.250   6.924   0.642  2.8257 -1.1607  0.0876
 6251SOL    HW219653   1.201   6.838   0.513 -1.8572  1.6442 -0.2247
 6252SOL     OW19654   1.234   5.297   4.012  0.0705 -0.0756  1.0138
 6252SOL    HW119655   1.179   5.334   4.087 -0.9748 -2.1149  1.3497
 6252SOL    HW219656   1.272   5.209   4.040 -0.5051 -0.9849 -0.8761
 6253SOL     OW19657   4.541   6.939   4.506 -0.1627  0.0129 -0.4009
 6253SOL    HW119658   4.558   6.869   4.437  0.8548  0.6930 -0.8632
 6253SOL    HW219659   4.623   6.995   4.517 -0.2944 -0.0874  1.3713
 6254SOL     OW19660   2.155   4.907   2.024  0.3194 -0.2200  0.3942
 6254SOL    HW119661   2.152   4.946   2.116  0.2118 -0.3458  0.4445
 6254SOL    HW219662   2.121   4.975   1.958 -0.6107 -0.4981  0.5761
 6255SOL     OW19663   5.177   4.252   4.896 -1.0193  0.4326  0.1039
 6255SOL    HW119664   5.093   4.247   4.842 -0.9565 -0.5225  0.0659
 6255SOL    HW219665   5.253   4.213   4.843 -1.1119 -1.2715  1.1330
 6256SOL     OW19666   4.482   1.894   3.892  0.1715  0.5996  0.4916
 6256SOL    HW119667   4.534   1.869   3.973  0.4224  0.1168  0.1874
 6256SOL    HW219668   4.396   1.936   3.919 -0.2984 -0.6603  1.0350
 6257SOL     OW19669   5.775   5.034   1.911 -0.1771  0.1385  0.5839
 6257SOL    HW119670   5.720   5.116   1.897  1.0326  0.9709  0.5529
 6257SOL    HW219671   5.871   5.054   1.891 -0.2919 -2.3458 -3.5241
 6258SOL     OW19672   2.952   5.458   4.447  0.0460 -0.5046 -0.1224
 6258SOL    HW119673   2.878   5.499   4.500 -0.1409  0.7913 -1.3144
 6258SOL    HW219674   3.015   5.412   4.509 -1.2532 -0.8381  1.0046
 6259SOL     OW19675   3.478   5.144   0.648  0.6670 -0.1142  1.1318
 6259SOL    HW119676   3.464   5.189   0.736 -0.4746 -0.3143  1.0741
 6259SOL    HW219677   3.436   5.054   0.650  0.1314  0.1036  0.2024
 6260SOL     OW19678   0.652   6.238   1.477  0.4774  0.2196  0.1473
 6260SOL    HW119679   0.740   6.272   1.444  0.1820 -0.6822 -1.7005
 6260SOL    HW219680   0.611   6.305   1.538  1.8980  1.1744  0.1022
 6261SOL     OW19681   6.885   0.852   1.063 -0.2085  0.8445  0.7564
 6261SOL    HW119682   6.854   0.810   1.148 -0.4356  1.3059  0.9008
 6261SOL    HW219683   6.827   0.821   0.988 -0.1466  0.6136  0.8010
 6262SOL     OW19684   6.933   6.321   0.401 -0.3614 -0.0431 -0.3366
 6262SOL    HW119685   6.851   6.268   0.422 -0.1334 -0.3200 -0.1502
 6262SOL    HW219686   7.011   6.259   0.389 -0.0068  0.2757  0.2931
 6263SOL     OW19687   6.750   6.285   1.401 -0.6023  0.0098  0.2179
 6263SOL    HW119688   6.684   6.301   1.328 -0.2115 -0.2192 -0.1984
 6263SOL    HW219689   6.757   6.366   1.459 -0.4492  0.4372 -0.3874
 6264SOL     OW19690   1.071   5.797   3.968 -0.4397  0.5248 -0.2665
 6264SOL    HW119691   1.081   5.760   4.061  0.4021  0.5426 -0.3410
 6264SOL    HW219692   1.068   5.722   3.903  1.0217  0.5404 -0.3949
 6265SOL     OW19693   6.619   4.452   2.740  0.2702  0.5679 -0.5376
 6265SOL    HW119694   6.653   4.475   2.831 -1.9157  0.0223  0.4760
 6265SOL    HW219695   6.522   4.477   2.733 -0.2835 -1.6905 -1.8514
 6266SOL     OW19696   5.286   6.745   6.263 -0.0241  0.0707 -0.3874
 6266SOL    HW119697   5.277   6.759   6.361  0.1818  0.1850 -0.3851
 6266SOL    HW219698   5.265   6.830   6.214 -0.5329 -0.0963 -0.4652
 6267SOL     OW19699   4.884   2.054   2.584 -0.6513 -0.6835 -0.6697
 6267SOL    HW119700   4.923   1.966   2.611 -1.5497 -0.0842  3.2834
 6267SOL    HW219701   4.907   2.074   2.489  5.2932 -2.1090  0.0918
 6268SOL     OW19702   4.858   3.679   3.360  0.4417 -0.1585 -0.1933
 6268SOL    HW119703   4.853   3.778   3.346  1.2866  0.2128  1.8261
 6268SOL    HW219704   4.889   3.659   3.453 -0.3528 -2.3443 -0.3241
 6269SOL     OW19705   1.409   0.807   5.259 -0.0575  0.2918  0.6894
 6269SOL    HW119706   1.362   0.732   5.212  0.0677  0.4756  0.2704
 6269SOL    HW219707   1.391   0.893   5.211 -1.1712  0.7316  1.8271
 6270SOL     OW19708   0.478   1.043   2.275  0.1757  0.2172  0.2833
 6270SOL    HW119709   0.399   1.067   2.331  0.5151  2.3235 -0.0696
 6270SOL    HW219710   0.448   0.988   2.197 -0.9287  0.8816  0.2167
 6271SOL     OW19711   0.219   1.193   1.696  0.1729 -0.3118  0.1768
 6271SOL    HW119712   0.193   1.264   1.631 -1.4511 -1.8741 -0.9823
 6271SOL    HW219713   0.307   1.216   1.738 -1.5576  3.7815  2.0610
 6272SOL     OW19714   4.748   3.804   5.949  0.0852 -0.0425  0.1658
 6272SOL    HW119715   4.702   3.744   6.014 -0.4082 -1.4993 -1.4519
 6272SOL    HW219716   4.686   3.877   5.920 -0.6719 -0.9993 -0.7110
 6273SOL     OW19717   5.392   2.110   6.375 -0.6198 -0.7269 -0.0569
 6273SOL    HW119718   5.394   2.075   6.282 -0.0871 -0.9459  0.0388
 6273SOL    HW219719   5.485   2.116   6.411 -0.5575  1.8308 -0.4700
 6274SOL     OW19720   1.225   4.393   1.934 -0.2575 -0.2257  0.7145
 6274SOL    HW119721   1.237   4.489   1.960  1.0973 -0.5766  1.4718
 6274SOL    HW219722   1.167   4.347   2.002 -0.2906 -0.1105  0.7641
 6275SOL     OW19723   5.879   4.241   6.593 -0.3657 -0.6092  0.1573
 6275SOL    HW119724   5.891   4.248   6.692 -1.8111  1.8448  0.2237
 6275SOL    HW219725   5.785   4.262   6.569  0.0448 -0.7928 -1.8032
 6276SOL     OW19726   4.718   3.125   6.398  0.3984  0.0554  0.3220
 6276SOL    HW119727   4.622   3.102   6.416 -0.0628  1.5929 -0.0041
 6276SOL    HW219728   4.778   3.057   6.441 -0.8190 -0.7031  0.8681
 6277SOL     OW19729   2.952   2.255   4.591  0.2492 -0.7495  0.8180
 6277SOL    HW119730   3.004   2.261   4.506 -0.6827  2.1607  0.3570
 6277SOL    HW219731   3.002   2.300   4.664 -0.7292  0.4381  0.7923
 6278SOL     OW19732   0.540   3.620   6.149 -0.0328 -0.7440 -1.0025
 6278SOL    HW119733   0.533   3.602   6.051  1.3132  0.9837 -1.4790
 6278SOL    HW219734   0.526   3.718   6.165  0.8226 -0.8273  0.3919
 6279SOL     OW19735   3.247   4.922   6.733 -0.8969 -0.0310 -0.3268
 6279SOL    HW119736   3.327   4.866   6.759  1.1997  2.1937 -1.5581
 6279SOL    HW219737   3.167   4.863   6.723  0.2276 -2.2234  2.1593
 6280SOL     OW19738   2.170   6.686   0.751  0.5177 -0.1755 -0.5513
 6280SOL    HW119739   2.186   6.677   0.652 -2.7483 -0.0498 -1.2148
 6280SOL    HW219740   2.139   6.598   0.788 -0.0767  0.2224 -0.0790
 6281SOL     OW19741   3.643   0.978   6.649 -0.2332 -0.5505 -0.7167
 6281SOL    HW119742   3.681   0.992   6.558 -0.0068 -2.0047 -0.8761
 6281SOL    HW219743   3.630   1.066   6.694 -0.0762  0.1654 -2.0374
 6282SOL     OW19744   6.283   6.904   6.340 -0.4856  0.6936  0.0647
 6282SOL    HW119745   6.199   6.878   6.293  0.4199 -0.8117 -0.8296
 6282SOL    HW219746   6.262   6.937   6.432 -1.9616 -1.2512  0.4892
 6283SOL     OW19747   0.948   4.809   6.663  0.3436 -0.3265  0.0767
 6283SOL    HW119748   0.919   4.891   6.614  0.5103 -0.5400 -0.3926
 6283SOL    HW219749   0.898   4.730   6.628  1.6335 -0.7432 -0.9438
 6284SOL     OW19750   4.483   5.383   2.293 -0.1007  0.1154  0.5628
 6284SOL    HW119751   4.526   5.370   2.204 -1.6297  2.2781 -0.5814
 6284SOL    HW219752   4.537   5.448   2.347 -0.1367  0.2337  0.4581
 6285SOL     OW19753   0.459   1.127   4.191  0.0681  0.7007  0.2423
 6285SOL    HW119754   0.364   1.098   4.180  0.3453 -0.2607  0.2897
 6285SOL    HW219755   0.473   1.160   4.285  0.1863 -0.8321  0.8054
 6286SOL     OW19756   0.717   1.703   1.544  0.5376  0.0954 -0.2301
 6286SOL    HW119757   0.761   1.728   1.457 -0.2420  1.6386 -0.2229
 6286SOL    HW219758   0.735   1.775   1.611  0.4819 -0.7158  0.6637
 6287SOL     OW19759   1.291   1.682   4.873  0.9917  0.4248  0.3635
 6287SOL    HW119760   1.369   1.714   4.926  0.9041  0.5517  0.4178
 6287SOL    HW219761   1.304   1.706   4.777  1.7134 -0.8755  0.1262
 6288SOL     OW19762   1.402   0.375   4.038 -0.0139  0.3255 -0.2866
 6288SOL    HW119763   1.315   0.420   4.060  0.8577  2.1612 -0.3562
 6288SOL    HW219764   1.404   0.352   3.941 -1.0846 -1.3474  0.0524
 6289SOL     OW19765   6.767   5.037   4.292 -0.1775  0.2094 -0.7589
 6289SOL    HW119766   6.693   5.078   4.239 -1.5489 -1.2918 -0.0593
 6289SOL    HW219767   6.853   5.048   4.242 -0.6662  2.8171 -1.1446
 6290SOL     OW19768   3.788   0.028   2.265 -0.4458  0.3217  0.0197
 6290SOL    HW119769   3.703  -0.002   2.222 -1.6096 -0.0000  2.3468
 6290SOL    HW219770   3.782   0.126   2.284 -0.8128  0.0842  1.2038
 6291SOL     OW19771   3.769   3.677   3.276  0.3133  0.0973 -0.0199
 6291SOL    HW119772   3.787   3.580   3.295  1.2146  0.3458  0.4440
 6291SOL    HW219773   3.680   3.686   3.231  0.7322 -1.0616 -1.1500
 6292SOL     OW19774   6.147   2.871   3.135 -0.3472  0.0599  0.0008
 6292SOL    HW119775   6.088   2.916   3.069 -0.0615 -0.7433 -0.8166
 6292SOL    HW219776   6.096   2.854   3.219 -0.4826  1.8209  0.3221
 6293SOL     OW19777   3.061   1.732   5.523  0.6311 -0.4699 -0.1899
 6293SOL    HW119778   3.092   1.760   5.433 -0.1091  2.7490  0.4360
 6293SOL    HW219779   3.116   1.777   5.593  0.0580 -1.5134  0.9745
 6294SOL     OW19780   2.314   5.793   5.887 -0.3212 -0.1397  0.1125
 6294SOL    HW119781   2.241   5.783   5.819 -1.0013  0.1142  0.7951
 6294SOL    HW219782   2.299   5.728   5.962  0.0944 -0.0118  0.3083
 6295SOL     OW19783   4.590   1.577   0.845  0.1486 -0.0680 -0.0511
 6295SOL    HW119784   4.598   1.516   0.924  0.0641  0.5478  0.4443
 6295SOL    HW219785   4.618   1.529   0.762  1.5818 -0.3155  0.5448
 6296SOL     OW19786   1.571   3.183   5.878 -0.3074 -0.4099 -0.4343
 6296SOL    HW119787   1.590   3.147   5.787  1.7905 -0.0865 -0.1889
 6296SOL    HW219788   1.516   3.265   5.872  1.6811  0.9164 -1.6427
 6297SOL     OW19789   1.272   3.279   0.058  0.4249 -0.2913 -0.4240
 6297SOL    HW119790   1.339   3.298  -0.015  1.0186 -1.1352 -0.1134
 6297SOL    HW219791   1.295   3.334   0.139 -1.4506  2.2687 -1.4864
 6298SOL     OW19792   2.179   1.777   5.258  0.1510  0.1139  0.4852
 6298SOL    HW119793   2.181   1.720   5.177 -0.3000 -0.2070  0.6957
 6298SOL    HW219794   2.266   1.770   5.307 -0.1285 -0.8872  0.8470
 6299SOL     OW19795   2.747   6.228   2.892 -0.6792 -0.4827 -0.0179
 6299SOL    HW119796   2.687   6.300   2.859 -1.0720 -0.6509  0.3227
 6299SOL    HW219797   2.692   6.151   2.926 -0.3296  0.1567  2.1185
 6300SOL     OW19798   3.687   2.094   4.468  0.2294 -0.2156  0.6686
 6300SOL    HW119799   3.654   2.167   4.528  1.7197 -0.3222  1.6589
 6300SOL    HW219800   3.661   2.005   4.506 -2.2082 -0.2835 -0.8981
 6301SOL     OW19801   0.164   0.625   7.011 -0.1726 -0.2205 -0.0864
 6301SOL    HW119802   0.182   0.713   7.055 -0.6507 -0.8695  1.4981
 6301SOL    HW219803   0.178   0.633   6.913  2.8061  0.8193  0.3312
 6302SOL     OW19804   7.005   0.704   2.915  0.1381 -0.0292 -0.2498
 6302SOL    HW119805   6.984   0.783   2.858  1.2185  0.6409  0.2354
 6302SOL    HW219806   7.090   0.722   2.966  2.2066 -2.6916 -2.4306
 6303SOL     OW19807   5.360   5.873   0.890  0.0279 -0.1734  0.0075
 6303SOL    HW119808   5.271   5.829   0.874  0.1753 -0.6450  0.4309
 6303SOL    HW219809   5.403   5.895   0.803 -0.1382 -0.7025 -0.2119
 6304SOL     OW19810   1.617   5.949   3.893 -0.4138  0.5281  0.1964
 6304SOL    HW119811   1.562   6.025   3.858 -0.5788  1.1541  1.6965
 6304SOL    HW219812   1.641   5.968   3.989  1.5073 -0.2415 -0.0952
 6305SOL     OW19813   4.385   0.499   3.783  0.3592  0.0064  0.7190
 6305SOL    HW119814   4.343   0.410   3.801  1.3352 -0.9680 -1.4323
 6305SOL    HW219815   4.315   0.571   3.787 -1.2510 -1.3489 -1.1510
 6306SOL     OW19816   2.403   0.496   4.400 -0.6520  0.8659 -1.2282
 6306SOL    HW119817   2.484   0.437   4.395  0.0844  1.8107 -0.6993
 6306SOL    HW219818   2.406   0.563   4.327 -0.8111  1.0888 -1.0307
 6307SOL     OW19819   2.220   2.699   6.100  0.1699 -0.3532  0.2540
 6307SOL    HW119820   2.282   2.756   6.154 -0.0862  1.8566 -1.6167
 6307SOL    HW219821   2.126   2.718   6.127  0.1014 -0.3182 -0.0136
 6308SOL     OW19822   0.333   6.206   5.013 -0.0816 -0.0755  0.1600
 6308SOL    HW119823   0.327   6.182   5.110 -1.2140 -0.7482 -0.0587
 6308SOL    HW219824   0.321   6.124   4.957  0.0067  0.3897 -0.5609
 6309SOL     OW19825   5.545   5.908   4.537  0.1429  0.3091  0.0522
 6309SOL    HW119826   5.546   5.894   4.438  1.2963  0.4765  0.0272
 6309SOL    HW219827   5.625   5.864   4.577 -0.2195  0.4067  0.8938
 6310SOL     OW19828   7.016   0.383   6.377 -0.0470 -0.3590 -0.0928
 6310SOL    HW119829   7.046   0.368   6.282  0.8601  0.4767  0.0430
 6310SOL    HW219830   6.935   0.328   6.395  0.7477 -1.8417 -0.8287
 6311SOL     OW19831   0.842   1.165   4.413  0.0915  0.1209 -0.6300
 6311SOL    HW119832   0.775   1.231   4.447 -1.1038 -1.3245 -0.1063
 6311SOL    HW219833   0.934   1.201   4.426 -0.5325  1.7717 -0.5663
 6312SOL     OW19834   5.776   5.223   3.424  0.4306 -0.7765  0.1673
 6312SOL    HW119835   5.682   5.189   3.429  0.7417 -1.5142  1.5463
 6312SOL    HW219836   5.780   5.315   3.462  0.2839 -0.7604  0.1466
 6313SOL     OW19837   6.585   5.156   0.126  0.2666  0.3916  0.7190
 6313SOL    HW119838   6.658   5.150   0.194 -0.7881  0.2981  1.8863
 6313SOL    HW219839   6.567   5.065   0.088  0.9356  0.4631  0.2195
 6314SOL     OW19840   0.391   0.449   4.078  0.1165  0.3156  0.2355
 6314SOL    HW119841   0.364   0.353   4.081  1.0194  0.0689  1.0310
 6314SOL    HW219842   0.486   0.455   4.047 -0.3959  1.0678 -1.3027
 6315SOL     OW19843   5.469   3.818   2.269  0.2368 -0.8171  0.1064
 6315SOL    HW119844   5.369   3.811   2.276  0.0935  1.1492  0.6727
 6315SOL    HW219845   5.511   3.768   2.345 -0.3249 -1.6113 -0.1040
 6316SOL     OW19846   6.656   5.933   4.556 -0.6245 -0.1515 -0.2975
 6316SOL    HW119847   6.706   5.896   4.634 -0.6034  0.3617 -0.0658
 6316SOL    HW219848   6.680   5.881   4.474  3.2552  2.3240 -1.0005
 6317SOL     OW19849   3.766   3.009   3.550  0.0922  0.9588  0.0578
 6317SOL    HW119850   3.674   3.017   3.588  1.0709 -0.3706  2.9023
 6317SOL    HW219851   3.811   2.928   3.586  3.2609  2.8530  0.7243
 6318SOL     OW19852   2.793   6.082   0.823 -0.4524  0.1375  0.8281
 6318SOL    HW119853   2.793   6.016   0.748 -0.5095  1.0879 -0.0359
 6318SOL    HW219854   2.887   6.104   0.849 -0.3911  1.1333 -0.1861
 6319SOL     OW19855   1.469   4.871   5.712  0.3653  0.0387  0.4002
 6319SOL    HW119856   1.471   4.789   5.655  0.4195 -0.8001  1.5729
 6319SOL    HW219857   1.443   4.846   5.805  2.2263  1.0806  1.2377
 6320SOL     OW19858   1.881   6.481   4.882  0.3012 -0.9863  0.0789
 6320SOL    HW119859   1.914   6.481   4.977  1.0039  0.4148 -0.1382
 6320SOL    HW219860   1.912   6.398   4.836  2.3555 -0.3909  0.2922
 6321SOL     OW19861   0.351   3.664   5.432  0.2433 -0.2477  0.3443
 6321SOL    HW119862   0.415   3.735   5.462  0.5480 -1.2569  2.1870
 6321SOL    HW219863   0.258   3.688   5.462  0.4709 -0.9992  1.7290
 6322SOL     OW19864   5.081   6.882   0.622 -0.0098 -0.1523 -0.1407
 6322SOL    HW119865   5.097   6.928   0.709  1.8585 -2.7372  1.0089
 6322SOL    HW219866   5.022   6.803   0.636  0.5522 -0.7720 -1.1192
 6323SOL     OW19867   5.524   0.995   1.910  0.0632 -0.2155 -0.2813
 6323SOL    HW119868   5.447   1.057   1.926 -0.3528 -0.3943 -1.5406
 6323SOL    HW219869   5.605   1.031   1.957 -0.5517  0.4448  0.3034
 6324SOL     OW19870   4.748   3.471   6.698  0.1173 -0.4734  0.4632
 6324SOL    HW119871   4.767   3.481   6.601  0.3689 -1.2630  0.4218
 6324SOL    HW219872   4.672   3.406   6.710  0.3969 -0.7415  0.8083
 6325SOL     OW19873   4.018   2.038   3.782 -0.6783 -0.0695 -0.0636
 6325SOL    HW119874   4.073   1.958   3.807 -2.2022 -0.6741  1.5775
 6325SOL    HW219875   3.948   2.054   3.852 -0.4163  2.7533 -0.3227
 6326SOL     OW19876   1.524   0.893   3.007 -0.1474 -0.0923  0.3392
 6326SOL    HW119877   1.586   0.824   2.970 -1.4622  0.7900 -4.0801
 6326SOL    HW219878   1.563   0.984   2.991 -1.0146  0.3660  0.7726
 6327SOL     OW19879   2.045   2.139   2.512 -0.0667 -0.2583 -0.0255
 6327SOL    HW119880   2.097   2.201   2.571 -0.1921  0.1728 -0.3630
 6327SOL    HW219881   2.093   2.128   2.425  0.2160 -1.0449  0.2251
 6328SOL     OW19882   4.104   5.470   2.053 -0.1529  0.0744  0.3393
 6328SOL    HW119883   4.192   5.496   2.015  0.9228 -1.4583  1.6402
 6328SOL    HW219884   4.034   5.536   2.025  1.3569  1.2261 -0.8529
 6329SOL     OW19885   1.270   2.434   6.734 -0.0779  0.4119 -0.2882
 6329SOL    HW119886   1.275   2.359   6.800  1.6226  1.5647  0.9927
 6329SOL    HW219887   1.332   2.415   6.658  1.1722  0.9519  0.5625
 6330SOL     OW19888   5.972   0.844   0.106 -0.6448 -0.1108  0.2986
 6330SOL    HW119889   5.968   0.821   0.009 -0.5630 -2.4107  0.7836
 6330SOL    HW219890   6.031   0.923   0.119 -0.9927  0.5132 -1.5388
 6331SOL     OW19891   5.694   2.627   6.029 -0.3127  0.6516 -0.1179
 6331SOL    HW119892   5.772   2.680   5.996 -0.2133 -0.2955 -1.4905
 6331SOL    HW219893   5.722   2.531   6.041 -1.2873  0.2677 -0.7843
 6332SOL     OW19894   4.333   5.262   1.752 -0.0128 -0.3579 -0.7352
 6332SOL    HW119895   4.299   5.174   1.720 -0.6542 -0.3316 -0.1498
 6332SOL    HW219896   4.370   5.314   1.675 -1.1580 -0.4515 -1.3627
 6333SOL     OW19897   1.325   3.750   1.364  0.1220  0.1055  0.6395
 6333SOL    HW119898   1.339   3.849   1.371 -1.3487  0.5440 -1.6001
 6333SOL    HW219899   1.280   3.717   1.447 -1.2743  1.7243  0.5900
 6334SOL     OW19900   5.730   2.373   0.581  0.0626  0.0064 -0.8341
 6334SOL    HW119901   5.701   2.293   0.634  1.0556  0.4006  0.3586
 6334SOL    HW219902   5.818   2.354   0.538 -0.3300 -0.0000 -1.6475
 6335SOL     OW19903   4.461   0.682   0.724  0.6399  0.1642  0.3857
 6335SOL    HW119904   4.380   0.739   0.708  0.6254 -0.2421 -1.0959
 6335SOL    HW219905   4.437   0.586   0.716  1.3181  0.0448 -0.3987
 6336SOL     OW19906   6.976   5.047   1.151  0.7821  1.0762  0.1345
 6336SOL    HW119907   6.998   5.141   1.126  0.6021  0.8720 -0.8371
 6336SOL    HW219908   6.916   5.008   1.081  0.8346  0.2474  0.5456
 6337SOL     OW19909   4.061   6.594   0.086 -0.1214  0.4825 -0.8478
 6337SOL    HW119910   3.975   6.584   0.137 -0.5058 -0.4944 -1.6508
 6337SOL    HW219911   4.083   6.507   0.041  1.3553  0.6845 -0.5633
 6338SOL     OW19912   6.209   4.460   3.017  0.4985  0.0373 -0.5320
 6338SOL    HW119913   6.298   4.451   3.062 -0.5058 -0.1660  1.5479
 6338SOL    HW219914   6.168   4.369   3.006  0.6614  0.1041 -1.7330
 6339SOL     OW19915   4.726   2.219   6.063  0.4033  0.1166  0.0636
 6339SOL    HW119916   4.695   2.125   6.078 -0.8889  0.5762  0.3663
 6339SOL    HW219917   4.649   2.282   6.075  1.2514  1.2175 -0.1456
 6340SOL     OW19918   1.712   2.379   4.216  0.3682 -0.0676 -0.2610
 6340SOL    HW119919   1.712   2.295   4.271  1.0587 -1.0591 -1.7071
 6340SOL    HW219920   1.621   2.419   4.218  0.2493 -0.3500  1.1746
 6341SOL     OW19921   0.679   5.842   0.139 -0.2543 -0.1298 -0.4660
 6341SOL    HW119922   0.647   5.767   0.197 -0.3719  0.0077 -0.3511
 6341SOL    HW219923   0.656   5.823   0.044 -2.2379  0.7484 -0.2172
 6342SOL     OW19924   6.834   4.345   1.517 -0.5558  0.3021 -0.3963
 6342SOL    HW119925   6.737   4.322   1.515 -0.4300 -0.2075 -1.0751
 6342SOL    HW219926   6.850   4.417   1.585 -1.3939  0.3500 -0.2386
 6343SOL     OW19927   3.843   5.913   2.987  0.2317 -0.7262  0.5659
 6343SOL    HW119928   3.776   5.943   3.055  1.0824 -0.0291  1.1194
 6343SOL    HW219929   3.931   5.955   3.007  0.7746 -1.4279 -0.3054
 6344SOL     OW19930   2.600   5.316   4.685 -0.3450  0.3451 -0.1391
 6344SOL    HW119931   2.596   5.273   4.775 -2.0736  1.1826  0.2152
 6344SOL    HW219932   2.659   5.262   4.625  0.0694 -0.7446  1.2017
 6345SOL     OW19933   1.733   6.449   6.485  0.0670  0.4768  0.1181
 6345SOL    HW119934   1.767   6.524   6.429 -1.6875  0.9740 -0.3385
 6345SOL    HW219935   1.669   6.485   6.553  0.4994 -0.4056  1.0164
 6346SOL     OW19936   4.250   2.935   1.043  0.0296  0.1077  0.3324
 6346SOL    HW119937   4.314   2.999   1.087  0.6799 -1.1264  1.2456
 6346SOL    HW219938   4.299   2.851   1.018 -0.9035 -0.2201 -0.4382
 6347SOL     OW19939   4.886   4.853   4.491 -0.2308 -0.0665  0.0538
 6347SOL    HW119940   4.841   4.927   4.441  0.4081  0.1632 -0.1952
 6347SOL    HW219941   4.824   4.775   4.499 -0.9123  0.4942  0.3200
 6348SOL     OW19942   3.253   4.995   2.411  0.5646  0.2562  0.3083
 6348SOL    HW119943   3.220   4.947   2.330 -0.1945 -0.0520  0.7836
 6348SOL    HW219944   3.239   5.093   2.400 -1.4487  0.0838  0.8660
 6349SOL     OW19945   6.072   3.123   3.571  0.1326  0.4355 -0.2921
 6349SOL    HW119946   6.074   3.127   3.472 -0.2485  1.0899 -0.2797
 6349SOL    HW219947   6.145   3.063   3.604  0.4508  0.4540 -0.9537
 6350SOL     OW19948   0.108   1.771   0.536  0.0931  0.4649  0.2263
 6350SOL    HW119949   0.113   1.815   0.446 -0.9414 -0.8234 -0.4942
 6350SOL    HW219950   0.082   1.675   0.525 -2.0168  0.7648  2.0116
 6351SOL     OW19951   0.273   3.365   4.242 -0.2413 -0.5354 -0.3313
 6351SOL    HW119952   0.367   3.337   4.226  0.1797 -0.3405  1.5763
 6351SOL    HW219953   0.218   3.286   4.266 -1.0878 -0.9804 -3.2624
 6352SOL     OW19954   0.873   0.032   3.301 -0.2411  0.0426 -0.0182
 6352SOL    HW119955   0.861  -0.051   3.356 -2.0449  0.1428 -0.1831
 6352SOL    HW219956   0.857   0.112   3.359  0.7106  0.2531 -0.0404
 6353SOL     OW19957   0.933   0.318   3.338  0.6104 -0.1331  0.2218
 6353SOL    HW119958   0.983   0.403   3.356 -0.4835  0.3146  1.2531
 6353SOL    HW219959   0.885   0.325   3.250  3.2065 -1.0123 -1.3902
 6354SOL     OW19960   0.831   6.267   5.410 -0.2889  0.0764 -0.2522
 6354SOL    HW119961   0.813   6.183   5.462 -2.5460  1.1017  0.7619
 6354SOL    HW219962   0.754   6.284   5.348  0.6945  0.8054 -1.3146
 6355SOL     OW19963   1.273   6.608   4.342 -0.1487 -0.1578 -0.3093
 6355SOL    HW119964   1.288   6.622   4.440 -1.0236  0.2862 -0.2343
 6355SOL    HW219965   1.179   6.630   4.318  0.7834  2.7880 -1.7799
 6356SOL     OW19966   0.906   2.017   4.875  0.1577  0.0776 -0.3405
 6356SOL    HW119967   0.877   2.112   4.863  0.5277  0.2615  0.1636
 6356SOL    HW219968   0.843   1.957   4.826 -0.1902  0.5656 -0.5106
 6357SOL     OW19969   3.753   6.616   5.947  0.2465  0.4412  0.3217
 6357SOL    HW119970   3.852   6.629   5.956 -0.0267  1.5211  2.7913
 6357SOL    HW219971   3.728   6.617   5.851  2.3947  2.1900 -0.3105
 6358SOL     OW19972   3.296   3.250   1.945  0.2103 -0.6781  0.6124
 6358SOL    HW119973   3.368   3.320   1.937  0.2622 -0.8995 -1.3725
 6358SOL    HW219974   3.338   3.163   1.970  0.2912 -0.2948  1.9127
 6359SOL     OW19975   4.654   2.588   4.438  0.3710  0.7257  0.3842
 6359SOL    HW119976   4.565   2.542   4.432 -0.3679  2.1383 -0.0615
 6359SOL    HW219977   4.685   2.589   4.533  0.2564 -0.3601  0.4524
 6360SOL     OW19978   5.817   2.729   5.613  0.4607 -0.4998 -0.6228
 6360SOL    HW119979   5.794   2.658   5.680  0.2863  0.0994 -0.0442
 6360SOL    HW219980   5.916   2.738   5.607  0.4665  0.2525  0.4205
 6361SOL     OW19981   5.044   5.098   2.180 -0.2106 -0.6385 -0.2250
 6361SOL    HW119982   5.120   5.038   2.157  0.5775  0.7035 -1.1727
 6361SOL    HW219983   5.060   5.139   2.270  1.1721  1.1209 -1.2209
 6362SOL     OW19984   3.979   5.936   0.877  0.3149  0.1428  0.2508
 6362SOL    HW119985   3.913   5.867   0.906 -0.0604  0.4280  0.0771
 6362SOL    HW219986   3.931   6.017   0.843  0.7359  0.7234  0.9855
 6363SOL     OW19987   5.568   5.876   0.687  0.2819  0.0275  0.0490
 6363SOL    HW119988   5.640   5.808   0.701  2.2429  1.5865 -1.8681
 6363SOL    HW219989   5.590   5.960   0.736 -0.0363  0.6347 -0.8145
 6364SOL     OW19990   0.638   4.023   0.485 -0.5848  0.0819  0.0014
 6364SOL    HW119991   0.676   3.947   0.537 -1.7983 -0.1732  0.5542
 6364SOL    HW219992   0.673   4.109   0.522 -0.4380 -0.1461  0.3967
 6365SOL     OW19993   0.475   3.632   6.481  0.4526 -0.4035  0.1972
 6365SOL    HW119994   0.423   3.676   6.554  2.6211  0.4657  1.3316
 6365SOL    HW219995   0.512   3.702   6.420  0.9237 -0.9227 -0.1189
 6366SOL     OW19996   6.001   5.660   1.393  0.1513  0.7393 -0.4407
 6366SOL    HW119997   6.096   5.664   1.425  0.7563  0.5188 -2.0929
 6366SOL    HW219998   5.969   5.752   1.374  0.4992  0.7255 -1.1222
 6367SOL     OW19999   1.029   2.484   4.208 -0.3864  0.2324  0.4242
 6367SOL    HW120000   1.003   2.547   4.282 -0.8221 -0.4074  0.8244
 6367SOL    HW220001   1.048   2.394   4.247 -1.5218 -0.3527 -0.3593
 6368SOL     OW20002   3.713   6.514   4.176  0.2890  0.0116  0.2047
 6368SOL    HW120003   3.618   6.509   4.206 -0.0977 -0.3045 -0.9821
 6368SOL    HW220004   3.773   6.533   4.254 -0.7991  0.7509  0.8806
 6369SOL     OW20005   6.957   5.535   5.061 -0.3772 -0.2595 -0.0196
 6369SOL    HW120006   6.971   5.466   5.131  1.9254 -1.1385 -1.2067
 6369SOL    HW220007   7.000   5.621   5.089  2.1347 -1.1013 -0.9273
 6370SOL     OW20008   4.639   0.806   3.132  0.3394  0.1523 -0.3581
 6370SOL    HW120009   4.542   0.811   3.154  0.4064  1.2842 -0.2570
 6370SOL    HW220010   4.693   0.818   3.215  0.5757 -1.3504 -0.2741
 6371SOL     OW20011   5.747   6.662   4.068  0.1814  0.1451  0.3783
 6371SOL    HW120012   5.831   6.608   4.063  1.1339  1.5487  0.4066
 6371SOL    HW220013   5.735   6.711   3.982 -0.7308 -0.2002  0.3060
 6372SOL     OW20014   5.009   4.901   2.758 -0.3011  0.2880  0.3078
 6372SOL    HW120015   4.936   4.953   2.802  0.1564  1.2820 -0.0818
 6372SOL    HW220016   5.096   4.918   2.805  0.0187  0.6273 -0.3867
 6373SOL     OW20017   3.135   0.210   2.221 -0.6608  0.0422 -0.3927
 6373SOL    HW120018   3.060   0.152   2.189 -1.7921  1.8660 -1.2283
 6373SOL    HW220019   3.189   0.160   2.289 -2.7350 -1.2816  0.3869
 6374SOL     OW20020   0.118   4.394   2.144  0.9064  0.2387 -0.0541
 6374SOL    HW120021   0.131   4.474   2.203  1.3676  0.3731 -0.3370
 6374SOL    HW220022   0.207   4.363   2.110  0.6690 -0.0369 -0.4215
 6375SOL     OW20023   5.681   1.285   3.046  0.7507  1.2411 -0.4258
 6375SOL    HW120024   5.631   1.277   2.960  0.9266  2.9616 -0.7260
 6375SOL    HW220025   5.624   1.331   3.114  0.6264 -0.0725  0.3867
 6376SOL     OW20026   6.342   3.602   4.295  0.1671  0.0595 -0.0438
 6376SOL    HW120027   6.384   3.514   4.318 -2.0924 -1.1165 -0.0910
 6376SOL    HW220028   6.377   3.633   4.206  2.7256  0.4482  1.0216
 6377SOL     OW20029   0.265   4.517   1.512 -0.1262  0.6964 -0.1905
 6377SOL    HW120030   0.179   4.562   1.490  1.4023  2.5868 -2.9822
 6377SOL    HW220031   0.255   4.418   1.501 -1.7923  0.9243 -1.0925
 6378SOL     OW20032   4.926   6.066   1.781 -0.2971 -0.0067  0.5626
 6378SOL    HW120033   4.960   6.052   1.688  0.5981 -1.7218  1.1069
 6378SOL    HW220034   4.832   6.031   1.787  0.1304 -1.2010  0.6180
 6379SOL     OW20035   2.134   6.269   5.609  0.1471 -0.1644  0.0356
 6379SOL    HW120036   2.064   6.243   5.543 -2.0302 -0.5302  2.3385
 6379SOL    HW220037   2.124   6.214   5.692  1.0917  1.9746  1.6729
 6380SOL     OW20038   1.359   1.013   4.855 -0.0350 -1.0261 -0.3612
 6380SOL    HW120039   1.312   0.947   4.797  1.3378  0.8653 -3.8947
 6380SOL    HW220040   1.306   1.098   4.858  1.4396 -0.0183 -1.6159
 6381SOL     OW20041   3.569   5.029   3.881  0.1422  0.0713 -0.0302
 6381SOL    HW120042   3.596   4.990   3.969 -1.0445  1.2882  0.9356
 6381SOL    HW220043   3.644   5.023   3.817  1.0364 -0.8733  1.0660
 6382SOL     OW20044   1.859   4.478   7.015  0.7102  0.6575 -0.1900
 6382SOL    HW120045   1.855   4.569   6.973  1.4879  0.3890 -0.8487
 6382SOL    HW220046   1.906   4.414   6.955 -1.2629 -0.6152 -0.4855
 6383SOL     OW20047   5.724   6.653   1.905  0.0704  0.0952 -0.4500
 6383SOL    HW120048   5.667   6.624   1.982  0.7453 -1.1677 -0.3887
 6383SOL    HW220049   5.700   6.599   1.825 -0.7987  1.5761 -1.2219
 6384SOL     OW20050   0.846   4.994   5.759 -0.0732  0.1845 -0.0717
 6384SOL    HW120051   0.824   5.029   5.850  1.0579 -0.5256  0.5135
 6384SOL    HW220052   0.766   4.949   5.720 -0.2270 -0.6548  1.1496
 6385SOL     OW20053   4.661   4.814   5.752  0.0775 -0.5375  0.1366
 6385SOL    HW120054   4.689   4.871   5.675  0.6615 -1.2465 -0.1825
 6385SOL    HW220055   4.570   4.777   5.735 -0.2080  0.0957  0.2401
 6386SOL     OW20056   0.993   0.012   4.052 -0.1642 -0.1654 -0.3239
 6386SOL    HW120057   0.965   0.108   4.053 -1.9039 -0.6121 -1.4297
 6386SOL    HW220058   0.963  -0.032   4.137  1.3173  0.3991  0.5382
 6387SOL     OW20059   5.446   1.702   2.472  0.2337 -0.0695 -0.4519
 6387SOL    HW120060   5.390   1.645   2.532  1.1501  1.0260  1.5584
 6387SOL    HW220061   5.398   1.788   2.452  1.0625  0.8197  1.1759
 6388SOL     OW20062   0.301   1.218   0.372  0.0207  0.1414 -0.0554
 6388SOL    HW120063   0.317   1.281   0.296 -0.2386  1.3159  0.8255
 6388SOL    HW220064   0.242   1.143   0.343  0.2263  0.3740 -1.0919
 6389SOL     OW20065   4.892   6.218   2.368  0.3918 -0.2198 -0.1538
 6389SOL    HW120066   4.910   6.259   2.457 -1.2925  1.7566 -0.6372
 6389SOL    HW220067   4.816   6.266   2.324  2.2192  0.0400 -3.3941
 6390SOL     OW20068   4.184   0.466   1.789 -0.2628  0.2886 -0.5790
 6390SOL    HW120069   4.162   0.410   1.869 -0.5068 -0.7900 -1.3684
 6390SOL    HW220070   4.274   0.439   1.753 -0.6997 -0.1110 -1.3911
 6391SOL     OW20071   2.190   3.339   6.178 -0.2202 -0.0879 -0.1517
 6391SOL    HW120072   2.097   3.314   6.205  0.4590 -0.0459  2.4786
 6391SOL    HW220073   2.212   3.296   6.090 -2.6187 -0.2541 -0.7271
 6392SOL     OW20074   2.109   3.690   0.833 -0.2922  0.2513 -0.0367
 6392SOL    HW120075   2.011   3.705   0.826 -0.4429  0.5116  2.0691
 6392SOL    HW220076   2.144   3.737   0.914  1.1944 -1.6449  0.4844
 6393SOL     OW20077   3.636   2.304   6.404 -0.2026 -0.0712  0.0768
 6393SOL    HW120078   3.654   2.386   6.460  2.3673  0.2298 -1.0637
 6393SOL    HW220079   3.657   2.222   6.457  1.0823  0.1782 -0.0041
 6394SOL     OW20080   4.216   0.970   4.598  0.1411 -0.2213 -0.2125
 6394SOL    HW120081   4.299   0.933   4.554 -0.8425  0.4119 -2.7514
 6394SOL    HW220082   4.228   1.068   4.615 -0.0316 -0.1660 -0.4162
 6395SOL     OW20083   3.813   4.544   6.494 -0.0954  0.0384 -0.0939
 6395SOL    HW120084   3.824   4.474   6.565  1.4954  1.0304  0.6949
 6395SOL    HW220085   3.834   4.634   6.532  1.3484  0.5528 -1.9239
 6396SOL     OW20086   5.596   1.779   3.696 -0.0448  0.4541  0.7072
 6396SOL    HW120087   5.682   1.831   3.700  0.4785  0.1620 -3.1855
 6396SOL    HW220088   5.522   1.841   3.671 -0.4663  0.2332  1.3988
 6397SOL     OW20089   5.218   4.961   6.920  0.1223  0.7586  0.1129
 6397SOL    HW120090   5.152   5.002   6.983 -0.7259  1.6556 -1.3058
 6397SOL    HW220091   5.172   4.939   6.834  1.6292  1.2259 -0.8457
 6398SOL     OW20092   1.377   6.231   2.258  0.0002 -0.4651  0.3944
 6398SOL    HW120093   1.363   6.313   2.312 -0.4210 -0.3349  0.0972
 6398SOL    HW220094   1.291   6.206   2.214  0.9211  1.0503 -2.5081
 6399SOL     OW20095   1.967   0.299   0.947 -0.1859 -0.1168 -0.7841
 6399SOL    HW120096   2.017   0.224   0.991 -0.0094 -1.3167 -2.8375
 6399SOL    HW220097   2.031   0.370   0.919 -0.3028  0.6512  0.8497
 6400SOL     OW20098   3.717   6.818   3.647  0.8137 -0.8267 -0.7501
 6400SOL    HW120099   3.782   6.753   3.606  1.4811  0.9030 -2.6230
 6400SOL    HW220100   3.663   6.859   3.574  0.5263  0.8311  0.3673
 6401SOL     OW20101   6.297   2.316   1.159  0.0469  0.8142 -0.3108
 6401SOL    HW120102   6.200   2.342   1.156 -0.7529 -1.6561  1.4113
 6401SOL    HW220103   6.331   2.324   1.252  0.4479 -1.6214 -0.1760
 6402SOL     OW20104   4.742   6.865   0.141 -0.1625 -0.2895  0.6302
 6402SOL    HW120105   4.772   6.865   0.237  0.5947 -0.6088  0.3967
 6402SOL    HW220106   4.694   6.779   0.122 -0.9875  0.0946  0.9215
 6403SOL     OW20107   3.777   2.679   1.219 -0.4225 -0.5204 -0.5067
 6403SOL    HW120108   3.736   2.723   1.299  0.8107 -0.1322 -0.0523
 6403SOL    HW220109   3.788   2.747   1.146  2.3353  0.2627  0.5193
 6404SOL     OW20110   3.476   1.727   0.364  0.3202  0.3375 -0.0055
 6404SOL    HW120111   3.501   1.790   0.290  2.1223  1.4908  1.4882
 6404SOL    HW220112   3.377   1.730   0.377  0.1470  1.3721 -1.2773
 6405SOL     OW20113   2.636   2.650   1.578 -0.1054  0.1173  0.5007
 6405SOL    HW120114   2.735   2.653   1.595  0.2134  2.4115 -1.2148
 6405SOL    HW220115   2.614   2.567   1.527  1.4690  0.8000 -1.4607
 6406SOL     OW20116   5.490   2.663   2.139  0.3101 -0.5080  0.5220
 6406SOL    HW120117   5.478   2.762   2.151  0.7444 -0.0513 -2.2226
 6406SOL    HW220118   5.416   2.615   2.186 -1.2273  1.2446  0.0184
 6407SOL     OW20119   1.832   4.685   4.468  0.5000  0.0641 -0.0767
 6407SOL    HW120120   1.838   4.768   4.524 -0.7465  1.4508 -1.8633
 6407SOL    HW220121   1.900   4.689   4.395  0.3937 -0.4390 -0.2035
 6408SOL     OW20122   2.667   2.027   0.206  0.3594 -0.6511 -0.3770
 6408SOL    HW120123   2.760   2.000   0.180 -0.5046 -2.4530 -1.7916
 6408SOL    HW220124   2.601   1.970   0.158 -1.5158  0.7472  0.4280
 6409SOL     OW20125   4.108   3.484   3.139  0.3188 -0.0650  0.1731
 6409SOL    HW120126   4.127   3.503   3.043 -3.8580 -0.4193 -0.9247
 6409SOL    HW220127   4.084   3.387   3.150 -0.8814  0.3201  1.2086
 6410SOL     OW20128   6.988   3.565   6.607  0.1621  0.3682  0.3699
 6410SOL    HW120129   7.040   3.525   6.531  0.7702  1.1527  0.3581
 6410SOL    HW220130   6.921   3.630   6.571 -1.4230 -1.2172  0.3210
 6411SOL     OW20131   6.616   5.943   1.297  0.6342 -0.4274  0.1893
 6411SOL    HW120132   6.533   5.887   1.301  0.6206 -0.3970  0.3567
 6411SOL    HW220133   6.629   5.990   1.384  1.0720 -0.7837  0.3213
 6412SOL     OW20134   4.255   0.103   6.673 -0.1557 -0.2190 -0.3380
 6412SOL    HW120135   4.327   0.155   6.627  0.9056  0.2927  1.7638
 6412SOL    HW220136   4.175   0.097   6.614  0.1064  2.7791 -1.1667
 6413SOL     OW20137   4.312   5.399   4.864 -0.4109 -0.0366 -0.3355
 6413SOL    HW120138   4.401   5.356   4.845 -1.0366 -0.6476 -2.1108
 6413SOL    HW220139   4.308   5.487   4.817 -0.4805  0.3334  0.3571
 6414SOL     OW20140   1.764   3.029   4.151 -0.0112 -0.1524 -0.6197
 6414SOL    HW120141   1.794   3.004   4.059 -0.3756 -0.2414 -0.7136
 6414SOL    HW220142   1.798   3.121   4.173 -0.1218 -0.0339 -0.9338
 6415SOL     OW20143   5.684   6.563   2.403  0.3696 -0.3994 -0.1245
 6415SOL    HW120144   5.778   6.535   2.380  0.4906 -0.8282  0.8544
 6415SOL    HW220145   5.651   6.509   2.480 -0.3534  0.3941  0.1355
 6416SOL     OW20146   6.319   4.558   0.645 -0.1781 -0.1325 -0.1073
 6416SOL    HW120147   6.240   4.555   0.706 -0.1295 -3.3277 -0.0270
 6416SOL    HW220148   6.335   4.652   0.616 -1.7272  1.1668  2.7716
 6417SOL     OW20149   6.222   4.260   6.377  0.1681  0.3303  0.2305
 6417SOL    HW120150   6.280   4.230   6.452 -0.3313 -0.9760  0.1093
 6417SOL    HW220151   6.212   4.360   6.380 -0.2236  0.2607  2.1749
 6418SOL     OW20152   3.005   2.953   6.739  0.2623 -0.0912  0.1397
 6418SOL    HW120153   2.928   2.904   6.780 -0.4950  0.1703 -0.9302
 6418SOL    HW220154   3.083   2.891   6.729  0.0806 -0.4557  0.8934
 6419SOL     OW20155   3.650   4.390   5.639 -0.7980 -0.0427 -0.5614
 6419SOL    HW120156   3.584   4.397   5.713 -0.0938 -1.4327  0.2280
 6419SOL    HW220157   3.732   4.342   5.671  0.8897  2.1504 -1.3114
 6420SOL     OW20158   1.969   0.558   1.259 -0.3294  0.0282 -0.3144
 6420SOL    HW120159   2.010   0.506   1.334 -0.1731  0.0125 -0.4101
 6420SOL    HW220160   2.042   0.593   1.199 -0.4265  0.3977 -0.2230
 6421SOL     OW20161   1.608   2.401   0.881  0.3802  0.0680  0.2145
 6421SOL    HW120162   1.594   2.492   0.841  2.2318  0.4432  0.3236
 6421SOL    HW220163   1.703   2.393   0.912 -0.0954 -1.4541  1.3818
 6422SOL     OW20164   4.587   0.787   6.296 -0.3665  0.1396 -0.4799
 6422SOL    HW120165   4.526   0.857   6.260  0.8520  0.8797 -1.1844
 6422SOL    HW220166   4.680   0.804   6.263  0.3052 -0.7188  0.8764
 6423SOL     OW20167   0.848   3.685   0.059  0.1761  0.0166  0.1044
 6423SOL    HW120168   0.781   3.720   0.125 -0.1641  1.0659 -0.7669
 6423SOL    HW220169   0.806   3.679  -0.032  0.8943 -0.5711 -0.1989
 6424SOL     OW20170   1.572   2.822   2.157  0.1223  0.0664 -0.4705
 6424SOL    HW120171   1.579   2.885   2.080  2.3251 -0.2128 -0.5601
 6424SOL    HW220172   1.546   2.873   2.239  0.6644  0.8974 -0.7970
 6425SOL     OW20173   6.075   4.463   0.271  0.7190 -0.0477 -0.6490
 6425SOL    HW120174   6.000   4.410   0.310  0.3534  0.1587 -1.0723
 6425SOL    HW220175   6.154   4.458   0.333 -0.0923  0.8734  0.5099
 6426SOL     OW20176   2.340   1.657   2.209  0.1178  0.3261  0.5411
 6426SOL    HW120177   2.339   1.673   2.308  0.4948  0.0918  0.5815
 6426SOL    HW220178   2.261   1.599   2.184  0.5670 -0.4325  0.8432
 6427SOL     OW20179   2.385   6.305   5.494  0.2796  0.3744  0.5823
 6427SOL    HW120180   2.289   6.299   5.521  0.2303  3.3180  1.4462
 6427SOL    HW220181   2.391   6.343   5.402  0.5405  2.8456  1.5354
 6428SOL     OW20182   3.504   4.122   5.829  0.4334  0.5917  0.0224
 6428SOL    HW120183   3.549   4.049   5.778  1.4622  1.7578 -0.8026
 6428SOL    HW220184   3.428   4.158   5.775 -1.2235 -1.0039  1.1798
 6429SOL     OW20185   4.496   0.984   3.368  0.3996  0.3940  0.0731
 6429SOL    HW120186   4.589   0.969   3.337  0.4741  0.5589  0.2147
 6429SOL    HW220187   4.493   0.986   3.468 -0.0082 -1.1902  0.1184
 6430SOL     OW20188   0.210   6.647   4.600  0.0010  0.3726 -0.1980
 6430SOL    HW120189   0.160   6.733   4.599  0.1226  0.4394 -0.5773
 6430SOL    HW220190   0.208   6.608   4.693 -2.3325 -0.5525 -0.5592
 6431SOL     OW20191   5.179   5.254   5.656  0.0633  0.3788 -0.3477
 6431SOL    HW120192   5.272   5.221   5.638 -0.0298  0.4738 -1.0122
 6431SOL    HW220193   5.177   5.353   5.648  0.4667  0.6687  2.1882
 6432SOL     OW20194   6.108   5.242   0.762 -0.1669 -0.0237  0.6519
 6432SOL    HW120195   6.068   5.319   0.711  0.9059  0.7478  0.9389
 6432SOL    HW220196   6.093   5.157   0.710 -0.5348  0.5065 -0.1387
 6433SOL     OW20197   3.131   4.838   3.562 -0.4163 -0.5588  0.5855
 6433SOL    HW120198   3.207   4.854   3.624  0.5042  0.2594 -0.7052
 6433SOL    HW220199   3.155   4.869   3.470 -2.2087 -0.5290  0.0789
 6434SOL     OW20200   1.017   6.797   2.893 -0.0437  0.0940  0.4759
 6434SOL    HW120201   1.019   6.878   2.952 -0.6153 -0.8962  1.9166
 6434SOL    HW220202   1.040   6.823   2.799  0.5158  1.7861  1.0508
 6435SOL     OW20203   2.327   3.861   5.543 -0.3152  0.3111 -0.4113
 6435SOL    HW120204   2.368   3.839   5.454 -0.0072  0.6466 -0.3561
 6435SOL    HW220205   2.360   3.951   5.573  1.4894 -0.8097  1.1600
 6436SOL     OW20206   3.967   2.269   6.993 -0.4850  0.0706 -0.1808
 6436SOL    HW120207   3.900   2.337   6.962 -2.3501 -0.6545  1.9141
 6436SOL    HW220208   4.029   2.311   7.059 -1.5600 -0.1711  1.0205
 6437SOL     OW20209   0.486   1.255   1.116  0.6143 -0.2162  0.0652
 6437SOL    HW120210   0.440   1.267   1.028 -0.4861  1.4219  0.8137
 6437SOL    HW220211   0.572   1.305   1.116  0.3502  0.2501  0.0792
 6438SOL     OW20212   5.090   1.558   1.028  0.2893  0.5997  0.1685
 6438SOL    HW120213   5.131   1.571   1.119  0.6100 -0.1466  0.1367
 6438SOL    HW220214   5.046   1.469   1.024  0.7856  0.3811 -0.6012
 6439SOL     OW20215   0.071   2.737   6.718 -0.3436 -0.1362  0.3182
 6439SOL    HW120216  -0.022   2.701   6.720 -1.5864  2.6329 -1.4658
 6439SOL    HW220217   0.103   2.742   6.623  1.3406 -0.2805  0.8437
 6440SOL     OW20218   3.369   5.480   3.487 -0.5263 -0.3698 -0.4298
 6440SOL    HW120219   3.315   5.563   3.504 -0.1731 -0.1164 -0.5449
 6440SOL    HW220220   3.311   5.411   3.444 -0.5241  0.2356 -1.4181
 6441SOL     OW20221   5.878   5.884   0.511 -0.5381  0.2083  0.4621
 6441SOL    HW120222   5.977   5.882   0.509 -0.5260  0.7778  0.2826
 6441SOL    HW220223   5.846   5.979   0.514 -1.1477  0.2729 -3.3787
 6442SOL     OW20224   4.849   0.088   6.709  0.6406 -0.4126 -0.9839
 6442SOL    HW120225   4.882   0.007   6.660  0.0984 -1.1547 -0.1344
 6442SOL    HW220226   4.805   0.061   6.794  0.1120  0.7518 -0.8618
 6443SOL     OW20227   5.739   4.119   1.372 -0.0617 -0.1800  0.5652
 6443SOL    HW120228   5.737   4.217   1.387 -1.6963 -0.1224  0.1625
 6443SOL    HW220229   5.732   4.100   1.274  0.4486 -0.7141  0.6214
 6444SOL     OW20230   0.801   4.790   6.913  0.2811 -0.0894  0.2502
 6444SOL    HW120231   0.834   4.795   6.818 -0.7691  2.2884 -0.0700
 6444SOL    HW220232   0.824   4.875   6.960  0.5624 -1.1338  2.0917
 6445SOL     OW20233   3.999   1.741   6.186  0.4419 -0.2303  0.3893
 6445SOL    HW120234   4.081   1.775   6.139 -0.0113 -0.3643 -0.5189
 6445SOL    HW220235   4.017   1.648   6.219  0.3186 -0.6749 -0.7439
 6446SOL     OW20236   6.893   4.893   3.433 -0.2499  0.0882  0.0392
 6446SOL    HW120237   6.893   4.793   3.425 -0.2863 -0.1515  2.3466
 6446SOL    HW220238   6.813   4.922   3.485  1.0177  1.0592  1.5392
 6447SOL     OW20239   6.928   6.629   5.863  0.2746 -0.3139  0.0882
 6447SOL    HW120240   6.950   6.726   5.857  0.5865 -0.3675  0.3744
 6447SOL    HW220241   7.011   6.577   5.884  0.9078 -1.0287 -3.4764
 6448SOL     OW20242   1.523   6.052   0.337  0.7740 -0.3027 -0.0870
 6448SOL    HW120243   1.517   6.022   0.432 -0.6786 -1.7249 -0.5854
 6448SOL    HW220244   1.610   6.100   0.323  0.5365  0.9372  2.2028
 6449SOL     OW20245   6.848   2.647   6.686  0.5222 -0.1445 -0.4475
 6449SOL    HW120246   6.858   2.565   6.629  0.1010 -0.2141 -0.4253
 6449SOL    HW220247   6.770   2.700   6.654  0.2785 -0.1867  0.0664
 6450SOL     OW20248   2.356   2.826   3.915 -0.3870  0.6261 -0.2065
 6450SOL    HW120249   2.409   2.747   3.946 -0.4532  0.8823  0.5880
 6450SOL    HW220250   2.334   2.884   3.994  1.3146  2.4563 -1.0001
 6451SOL     OW20251   2.934   3.434   1.103  0.3556  0.1050  0.5400
 6451SOL    HW120252   2.894   3.502   1.040  1.4897 -0.0960 -0.4416
 6451SOL    HW220253   2.870   3.359   1.115  0.0576  0.2084 -0.2882
 6452SOL     OW20254   3.707   3.305   0.212 -0.2846  0.4868  0.2581
 6452SOL    HW120255   3.757   3.222   0.235  0.2979  0.5704 -0.6344
 6452SOL    HW220256   3.644   3.286   0.136 -0.1943  0.8411  0.0906
 6453SOL     OW20257   1.991   5.224   2.494 -0.1225 -0.2232 -0.3280
 6453SOL    HW120258   1.925   5.167   2.445  0.5608 -2.5376  1.2204
 6453SOL    HW220259   1.943   5.296   2.543 -1.3568 -0.9737 -0.3864
 6454SOL     OW20260   6.641   4.424   0.495  0.4219  0.1938  0.2449
 6454SOL    HW120261   6.651   4.342   0.552  0.3408 -1.8138 -2.4115
 6454SOL    HW220262   6.550   4.424   0.452  0.9269  0.9169 -0.8769
 6455SOL     OW20263   0.558   3.731   0.442 -0.1708  0.0573  0.8854
 6455SOL    HW120264   0.459   3.747   0.447  0.2316  3.0902  0.9574
 6455SOL    HW220265   0.594   3.720   0.534 -0.2676  0.4363  0.9730
 6456SOL     OW20266   3.715   4.968   6.423 -0.4152  0.3410  0.2995
 6456SOL    HW120267   3.678   4.988   6.514  1.1897  1.7970  0.6864
 6456SOL    HW220268   3.756   5.051   6.385 -0.0357 -0.5296 -1.2740
 6457SOL     OW20269   4.342   4.005   6.452 -0.0740 -0.4116 -0.0793
 6457SOL    HW120270   4.336   4.096   6.410  0.4883 -1.2475 -2.0504
 6457SOL    HW220271   4.254   3.983   6.495 -1.2985 -0.1871 -2.2986
 6458SOL     OW20272   1.259   5.076   0.663 -0.0100 -0.0908  0.3985
 6458SOL    HW120273   1.315   5.138   0.719 -0.4194 -0.1591  0.8950
 6458SOL    HW220274   1.282   4.981   0.686  2.2833 -0.2363 -1.9836
 6459SOL     OW20275   0.405   0.089   6.461 -0.1590 -0.1246  0.6507
 6459SOL    HW120276   0.398   0.103   6.560 -0.6769 -1.6346  0.8578
 6459SOL    HW220277   0.495   0.051   6.439 -0.2366 -0.2889  0.6144
 6460SOL     OW20278   0.396   4.247   5.587  0.5173  0.1195  0.0951
 6460SOL    HW120279   0.309   4.294   5.592 -0.3784 -1.1090 -2.3036
 6460SOL    HW220280   0.454   4.291   5.518 -0.1248 -1.8059 -1.7842
 6461SOL     OW20281   0.688   6.569   6.709 -0.2149 -0.8049  0.2714
 6461SOL    HW120282   0.671   6.655   6.757  0.8638  0.0734 -0.8473
 6461SOL    HW220283   0.651   6.576   6.616 -1.3412 -2.0841  0.5914
 6462SOL     OW20284   2.695   6.375   2.615  0.4166  0.2155 -0.5541
 6462SOL    HW120285   2.608   6.417   2.589  0.1183 -0.7452 -1.1463
 6462SOL    HW220286   2.761   6.447   2.637 -0.8118  0.9746  0.9518
 6463SOL     OW20287   4.198   5.471   0.319 -0.1577 -0.1890  0.3849
 6463SOL    HW120288   4.123   5.475   0.385  0.8440  1.0653  1.5261
 6463SOL    HW220289   4.169   5.510   0.232 -0.9402 -0.0769  0.6947
 6464SOL     OW20290   2.569   2.289   0.244 -0.1742 -0.1954  0.9573
 6464SOL    HW120291   2.620   2.352   0.184 -1.7716  0.4949  0.2605
 6464SOL    HW220292   2.590   2.195   0.217  1.3417  0.0238  1.2362
 6465SOL     OW20293   5.133   0.567   0.715 -0.0989 -0.1079 -0.6476
 6465SOL    HW120294   5.136   0.656   0.668  0.7255  0.8065  1.0256
 6465SOL    HW220295   5.038   0.544   0.735 -0.2724  1.0842  0.0534
 6466SOL     OW20296   2.444   4.977   5.252 -0.2942 -0.1634 -0.6527
 6466SOL    HW120297   2.452   4.922   5.335 -0.9862  0.9189  0.1451
 6466SOL    HW220298   2.515   5.048   5.252  0.0869 -0.5356 -1.2848
 6467SOL     OW20299   3.492   4.965   0.992 -0.0848  0.2511 -0.1450
 6467SOL    HW120300   3.480   4.892   0.924  0.4062  0.7876 -0.8199
 6467SOL    HW220301   3.402   4.997   1.023 -0.3064 -0.3225 -0.1750
 6468SOL     OW20302   1.948   1.807   5.544 -0.7579 -0.1587  0.2388
 6468SOL    HW120303   1.991   1.725   5.506  0.3540  0.4678  0.1113
 6468SOL    HW220304   1.862   1.781   5.589 -1.9854 -0.9885 -2.3593
 6469SOL     OW20305   1.572   0.904   2.683  0.0578 -0.3102 -0.3728
 6469SOL    HW120306   1.637   0.963   2.732  0.6523 -0.9672 -0.3594
 6469SOL    HW220307   1.576   0.924   2.585 -0.5874  0.4795 -0.2462
 6470SOL     OW20308   0.929   3.869   5.894  0.1188  0.1294  0.1910
 6470SOL    HW120309   0.992   3.795   5.915  1.1517  0.4403 -1.5457
 6470SOL    HW220310   0.980   3.946   5.855 -1.3489  0.1800 -1.8070
 6471SOL     OW20311   2.672   5.623   2.122 -0.0767 -0.5620 -0.6259
 6471SOL    HW120312   2.679   5.713   2.079 -2.4229  0.2248  0.5077
 6471SOL    HW220313   2.764   5.588   2.138  0.9178  1.5909 -1.1567
 6472SOL     OW20314   1.799   2.014   4.943 -0.0520 -0.6299 -0.3847
 6472SOL    HW120315   1.751   2.035   5.028  0.6111  0.5957 -0.3014
 6472SOL    HW220316   1.855   2.092   4.916 -1.6981 -0.2191 -2.9603
 6473SOL     OW20317   6.752   6.158   4.159 -0.5008 -0.5522 -0.0387
 6473SOL    HW120318   6.696   6.110   4.092  0.8621  0.3336 -1.9170
 6473SOL    HW220319   6.734   6.256   4.154 -0.7623 -0.5044  1.3036
 6474SOL     OW20320   4.606   2.427   2.608  0.6751 -0.3584  0.3719
 6474SOL    HW120321   4.589   2.330   2.594  0.0153 -0.4448  1.5501
 6474SOL    HW220322   4.682   2.457   2.552 -0.0920 -1.1980 -1.1828
 6475SOL     OW20323   2.799   2.445   5.330  0.0259  0.0661  0.8291
 6475SOL    HW120324   2.819   2.531   5.378 -0.8023  1.5285 -1.2706
 6475SOL    HW220325   2.867   2.376   5.355  1.1477  1.5377  2.0480
 6476SOL     OW20326   6.050   1.064   3.548 -0.3068  0.1119  0.6131
 6476SOL    HW120327   6.055   1.153   3.502 -0.2295 -0.4792 -0.5585
 6476SOL    HW220328   6.128   1.008   3.521 -0.4886 -0.4037  1.1405
 6477SOL     OW20329   2.365   4.046   0.930 -0.1560 -0.3120  0.0478
 6477SOL    HW120330   2.358   3.999   0.841  1.8723 -2.0571  0.7007
 6477SOL    HW220331   2.377   3.978   1.002 -0.3242  1.1382  1.4966
 6478SOL     OW20332   5.961   2.385   6.916  0.0113  0.0820 -0.0513
 6478SOL    HW120333   5.927   2.436   6.837 -1.1395 -0.7555 -0.1181
 6478SOL    HW220334   5.899   2.399   6.994  0.5349  0.0235  0.3813
 6479SOL     OW20335   0.540   3.327   2.843  0.1659  0.2566  0.1502
 6479SOL    HW120336   0.628   3.344   2.799  0.3536 -0.6441  0.1617
 6479SOL    HW220337   0.469   3.316   2.773  0.2642 -0.0792  0.0994
 6480SOL     OW20338   6.315   0.967   1.727 -0.1564 -0.2856 -0.4832
 6480SOL    HW120339   6.240   0.928   1.780 -0.5366  0.2774 -0.6036
 6480SOL    HW220340   6.358   1.041   1.778 -0.5611  0.2992 -0.9699
 6481SOL     OW20341   2.023   1.738   0.042 -0.2290 -0.2049 -0.2841
 6481SOL    HW120342   1.933   1.733  -0.002  0.4326 -2.1498 -1.5459
 6481SOL    HW220343   2.090   1.774  -0.023 -0.2140  2.2311  0.9682
 6482SOL     OW20344   6.896   4.381   2.263  0.2001 -0.9497 -0.0886
 6482SOL    HW120345   6.976   4.354   2.208 -0.4268 -2.8967 -0.1315
 6482SOL    HW220346   6.848   4.455   2.217  2.2336  0.6464  0.2024
 6483SOL     OW20347   3.203   1.783   5.284 -0.5649 -0.6404 -0.1431
 6483SOL    HW120348   3.300   1.788   5.308 -0.8588  0.5341  0.9445
 6483SOL    HW220349   3.181   1.855   5.218 -0.7302 -0.7762 -0.2370
 6484SOL     OW20350   4.758   2.915   4.227 -0.4710 -0.3554  0.1988
 6484SOL    HW120351   4.780   2.948   4.136  1.7956 -0.5592  0.6338
 6484SOL    HW220352   4.724   2.821   4.222 -1.9059  0.1728 -0.5428
 6485SOL     OW20353   6.082   0.458   2.219 -0.4259  0.0575  0.1826
 6485SOL    HW120354   6.068   0.360   2.230  0.2946 -0.0141  0.4772
 6485SOL    HW220355   6.005   0.508   2.259 -0.8126 -0.3805 -0.0057
 6486SOL     OW20356   2.113   1.534   1.809 -0.2834  0.0117 -0.2746
 6486SOL    HW120357   2.184   1.600   1.828 -0.0296 -1.1692  3.6617
 6486SOL    HW220358   2.151   1.459   1.753  0.9029  0.4892 -0.1298
 6487SOL     OW20359   1.724   2.222   4.489 -0.5330 -0.1718 -0.3945
 6487SOL    HW120360   1.795   2.152   4.477  1.1041  1.3594 -0.1043
 6487SOL    HW220361   1.642   2.181   4.528 -0.4480 -2.3381 -2.2899
 6488SOL     OW20362   0.426   5.982   6.727 -0.6635 -0.6145  0.0463
 6488SOL    HW120363   0.390   6.069   6.759 -2.3845 -1.4062  0.4051
 6488SOL    HW220364   0.496   5.949   6.790 -1.5435 -0.5034  1.1071
 6489SOL     OW20365   6.644   5.478   4.919  0.6958  0.2399 -0.1662
 6489SOL    HW120366   6.550   5.482   4.886  0.3208 -1.0427  0.6711
 6489SOL    HW220367   6.697   5.417   4.861  0.8445  0.4677 -0.2684
 6490SOL     OW20368   2.822   0.200   1.133  0.6510  0.2503  0.0964
 6490SOL    HW120369   2.838   0.146   1.215  0.7790  0.2629  0.0796
 6490SOL    HW220370   2.790   0.140   1.060  0.6964  0.2122  0.1074
 6491SOL     OW20371   5.551   6.509   3.473  0.2355  0.2271 -0.1712
 6491SOL    HW120372   5.591   6.419   3.491 -2.5212 -0.7118  1.9645
 6491SOL    HW220373   5.611   6.580   3.510  0.4965 -1.0387  1.9656
 6492SOL     OW20374   3.103   0.505   0.968  0.2624 -0.2297  0.2588
 6492SOL    HW120375   3.183   0.558   0.997  0.8525  0.0231 -1.6993
 6492SOL    HW220376   3.129   0.439   0.898 -1.4306  0.7798 -1.4384
 6493SOL     OW20377   4.925   3.009   2.177  0.2514  0.0245  0.3564
 6493SOL    HW120378   4.956   3.094   2.218 -0.2073  0.2379  0.2627
 6493SOL    HW220379   4.846   3.027   2.118  1.8465  0.0126 -1.9177
 6494SOL     OW20380   1.072   5.098   1.867  0.1189 -0.2845 -0.1962
 6494SOL    HW120381   1.113   5.172   1.814  0.8196 -0.4902  0.0428
 6494SOL    HW220382   0.973   5.107   1.866  0.1867  0.5192 -0.3731
 6495SOL     OW20383   6.763   2.712   0.750 -0.2402 -0.8843 -0.0893
 6495SOL    HW120384   6.677   2.749   0.784  0.4676 -0.1620  0.9985
 6495SOL    HW220385   6.748   2.621   0.711 -1.4305 -0.8956  0.3646
 6496SOL     OW20386   0.423   2.844   5.844 -0.2002  0.9638  0.6224
 6496SOL    HW120387   0.410   2.892   5.757 -1.4878 -0.2599  0.0838
 6496SOL    HW220388   0.407   2.907   5.920  1.5577  2.2129  0.0160
 6497SOL     OW20389   0.728   3.275   2.368 -0.0578 -0.5277  0.0589
 6497SOL    HW120390   0.787   3.348   2.403 -0.3819  0.4155 -1.2886
 6497SOL    HW220391   0.764   3.243   2.280 -0.6399 -1.1038  0.0239
 6498SOL     OW20392   1.240   2.927   3.673  0.3126 -0.6969  0.2230
 6498SOL    HW120393   1.222   3.021   3.702  4.2107  0.2195  0.1770
 6498SOL    HW220394   1.210   2.915   3.578  1.9616  1.3380 -0.6110
 6499SOL     OW20395   0.319   5.165   2.369 -0.4634  0.3996  0.1640
 6499SOL    HW120396   0.287   5.227   2.297 -4.7061  0.7135  2.0218
 6499SOL    HW220397   0.362   5.219   2.442  1.5993  0.3344 -0.9307
 6500SOL     OW20398   3.336   6.436   3.638  0.0863  0.2526  0.9215
 6500SOL    HW120399   3.263   6.477   3.693  1.0755  1.0463  1.6788
 6500SOL    HW220400   3.331   6.336   3.644 -0.4060  0.3151  1.6796
 6501SOL     OW20401   0.847   3.067   1.549 -0.5688  0.1559 -0.2991
 6501SOL    HW120402   0.798   3.005   1.611 -1.4831 -0.2100 -1.3433
 6501SOL    HW220403   0.871   3.151   1.597  0.6015 -0.9413  1.1226
 6502SOL     OW20404   2.823   0.521   2.513  0.0644  0.3168 -0.1977
 6502SOL    HW120405   2.835   0.620   2.518  0.1768  0.3203 -0.5285
 6502SOL    HW220406   2.795   0.495   2.421 -2.4710  0.2978  0.5107
 6503SOL     OW20407   6.744   0.534   1.076  0.0993  0.5060 -0.0324
 6503SOL    HW120408   6.801   0.526   1.157 -0.9192 -2.2170  0.5109
 6503SOL    HW220409   6.683   0.612   1.086 -0.1766  0.0810  1.9401
 6504SOL     OW20410   3.022   5.973   0.246 -0.0683 -0.1592 -0.0540
 6504SOL    HW120411   3.002   6.042   0.316 -0.4020 -0.2089 -0.1027
 6504SOL    HW220412   3.100   5.917   0.276  0.2332  0.2663 -0.0339
 6505SOL     OW20413   3.397   5.196   5.923 -0.4031  0.7496 -0.1722
 6505SOL    HW120414   3.336   5.254   5.977 -1.0672  0.3052 -0.4381
 6505SOL    HW220415   3.461   5.253   5.872  0.9306  1.1864  1.8429
 6506SOL     OW20416   3.890   1.486   3.974  0.3112 -0.6672 -0.2316
 6506SOL    HW120417   3.982   1.523   3.988 -0.1589  0.0403  1.1771
 6506SOL    HW220418   3.831   1.558   3.939 -1.0321  0.6235  4.0949
 6507SOL     OW20419   6.462   6.841   3.306  0.4550  0.1288  0.7941
 6507SOL    HW120420   6.534   6.887   3.254 -0.4173 -2.2528 -2.9261
 6507SOL    HW220421   6.492   6.749   3.331 -1.2811 -1.1270 -1.3284
 6508SOL     OW20422   4.386   0.057   1.263 -0.8613  0.8052  0.1672
 6508SOL    HW120423   4.341   0.068   1.174  1.1733 -0.8780 -1.1675
 6508SOL    HW220424   4.483   0.039   1.249 -0.7042 -0.8169  2.6755
 6509SOL     OW20425   5.746   2.829   0.460  0.0074  0.3431  0.0811
 6509SOL    HW120426   5.694   2.752   0.496  0.8173 -0.2206  0.0607
 6509SOL    HW220427   5.745   2.904   0.526  0.2867 -0.1537  0.6556
 6510SOL     OW20428   0.180   0.467   5.364 -0.3268 -0.0617 -0.0400
 6510SOL    HW120429   0.277   0.485   5.350  0.1608 -0.3277  2.4577
 6510SOL    HW220430   0.142   0.537   5.424 -1.1358 -1.1170  0.7202
 6511SOL     OW20431   1.029   2.982   1.373 -0.1958  0.3330  0.7524
 6511SOL    HW120432   1.094   3.056   1.357 -2.0011  1.8042 -0.1289
 6511SOL    HW220433   0.949   3.017   1.422 -1.8264 -0.5843 -1.0958
 6512SOL     OW20434   4.159   6.915   6.448  0.2417 -0.2239  0.1414
 6512SOL    HW120435   4.250   6.929   6.409 -0.0849  1.0453 -0.2148
 6512SOL    HW220436   4.167   6.878   6.541  1.1180 -0.1714  0.0894
 6513SOL     OW20437   2.954   4.794   2.022  0.4313  0.0195 -0.2090
 6513SOL    HW120438   2.883   4.729   1.994  0.6984  0.3581 -1.7666
 6513SOL    HW220439   2.914   4.885   2.031  1.1510  0.9897 -4.5877
 6514SOL     OW20440   6.079   3.468   0.292 -0.2406 -0.2505 -0.2704
 6514SOL    HW120441   6.106   3.521   0.212  0.6209 -1.8406 -1.0619
 6514SOL    HW220442   6.153   3.469   0.359 -0.3598 -0.1860 -0.1379
 6515SOL     OW20443   0.298   1.604   0.961  0.0910 -0.5120  0.1265
 6515SOL    HW120444   0.322   1.622   1.056 -0.4680 -2.3836  0.6602
 6515SOL    HW220445   0.241   1.678   0.926  0.5683  0.3526  1.1293
 6516SOL     OW20446   5.905   4.701   6.968  0.7134 -0.5724 -0.0781
 6516SOL    HW120447   5.835   4.633   6.991  0.1284  0.0773  0.0965
 6516SOL    HW220448   5.990   4.654   6.943  0.8678 -1.3608  1.7515
 6517SOL     OW20449   3.732   0.012   6.575  0.4082 -0.8490  0.3176
 6517SOL    HW120450   3.772  -0.057   6.515  1.1104  0.0476 -0.2650
 6517SOL    HW220451   3.635   0.021   6.555  0.4430 -1.2244 -0.0336
 6518SOL     OW20452   4.490   6.298   1.881  0.1138 -0.6476 -0.1456
 6518SOL    HW120453   4.394   6.270   1.876  0.2062 -1.1560  0.7611
 6518SOL    HW220454   4.545   6.224   1.919  0.6842  0.0595  0.4449
 6519SOL     OW20455   5.579   1.710   4.679 -0.1929  0.3554 -0.1357
 6519SOL    HW120456   5.508   1.777   4.659 -0.1331  0.4969  0.1189
 6519SOL    HW220457   5.592   1.651   4.600  0.3380  1.1758 -0.6867
 6520SOL     OW20458   4.490   0.153   1.968 -0.3663 -0.0999 -0.8564
 6520SOL    HW120459   4.543   0.180   2.048 -1.0206 -0.9931 -0.1026
 6520SOL    HW220460   4.469   0.234   1.912  0.1181  0.5232 -0.1478
 6521SOL     OW20461   5.222   0.875   3.903  0.0511 -0.1098  0.4092
 6521SOL    HW120462   5.266   0.865   3.814 -1.3867  2.9590 -0.7823
 6521SOL    HW220463   5.123   0.865   3.893 -0.2464  1.4959  1.3755
 6522SOL     OW20464   2.032   5.136   4.330 -0.3544  0.2644 -0.6680
 6522SOL    HW120465   1.942   5.097   4.308  0.0398 -0.3150 -1.2829
 6522SOL    HW220466   2.061   5.103   4.420 -1.7132  2.1864  0.5471
 6523SOL     OW20467   6.207   1.627   1.236  0.0665  0.0015  0.3184
 6523SOL    HW120468   6.226   1.538   1.276  0.1789 -0.1258 -0.0114
 6523SOL    HW220469   6.133   1.618   1.169  1.2331 -0.1936 -1.0042
 6524SOL     OW20470   3.526   0.787   0.528  0.0347 -0.5862 -0.0446
 6524SOL    HW120471   3.519   0.697   0.572 -0.6017 -0.3939  0.2507
 6524SOL    HW220472   3.532   0.774   0.429 -0.2785 -0.9506 -0.0209
 6525SOL     OW20473   4.636   6.868   2.092 -0.0878 -0.1214 -0.4298
 6525SOL    HW120474   4.710   6.934   2.105 -0.3492  0.7447 -2.7884
 6525SOL    HW220475   4.659   6.809   2.014 -1.1174 -1.0008 -0.0862
 6526SOL     OW20476   6.973   5.723   2.011 -0.1181  0.8707 -0.9969
 6526SOL    HW120477   6.903   5.652   2.013  0.5447  0.2174 -0.2066
 6526SOL    HW220478   6.932   5.811   2.036 -0.6500  0.4780 -0.4433
 6527SOL     OW20479   0.328   2.318   6.360  0.3029  0.2429 -0.1438
 6527SOL    HW120480   0.280   2.353   6.441  2.3576  0.5536  1.0265
 6527SOL    HW220481   0.427   2.323   6.376  0.7725 -3.1342 -1.1778
 6528SOL     OW20482   3.641   1.610   0.557  0.1163  0.2052  0.2037
 6528SOL    HW120483   3.658   1.525   0.506  1.2064  1.6413 -2.0089
 6528SOL    HW220484   3.564   1.658   0.516  0.0031  0.6531  0.9285
 6529SOL     OW20485   2.936   1.417   6.709  0.0027 -0.2106 -0.3216
 6529SOL    HW120486   2.869   1.489   6.693  0.9723  0.6312 -0.6814
 6529SOL    HW220487   2.977   1.428   6.799  0.0343 -0.4130 -0.3105
 6530SOL     OW20488   3.874   3.370   2.668  0.1777 -0.3831 -0.2399
 6530SOL    HW120489   3.808   3.424   2.615  0.3418  0.0419 -0.0230
 6530SOL    HW220490   3.833   3.346   2.756 -0.4721 -1.9567 -0.9343
 6531SOL     OW20491   1.721   6.458   0.120  0.3785 -0.3093 -0.1913
 6531SOL    HW120492   1.812   6.416   0.114  1.6350  1.7287  2.5584
 6531SOL    HW220493   1.671   6.419   0.197  0.5294  1.3154  0.7702
 6532SOL     OW20494   2.350   2.573   0.755  0.4298  0.1262  0.0972
 6532SOL    HW120495   2.401   2.581   0.669 -0.1612 -2.0867 -0.5102
 6532SOL    HW220496   2.253   2.564   0.736  0.2057  0.3931  1.0506
 6533SOL     OW20497   6.081   0.520   5.693  0.2597  0.0629  0.3311
 6533SOL    HW120498   6.170   0.545   5.730 -0.0605  0.3899  0.8828
 6533SOL    HW220499   6.093   0.490   5.598  1.0756 -0.7470  0.6697
 6534SOL     OW20500   7.016   5.946   2.277  0.3250 -0.2542 -0.3845
 6534SOL    HW120501   6.982   5.980   2.189  0.6388 -0.2765 -0.5180
 6534SOL    HW220502   7.116   5.936   2.272  0.2985 -0.6564 -0.1662
 6535SOL     OW20503   3.697   4.188   6.869  0.1224 -0.1837  0.1287
 6535SOL    HW120504   3.609   4.236   6.864  0.8229  1.1661  0.1644
 6535SOL    HW220505   3.685   4.093   6.843 -0.9212  0.5481 -2.3351
 6536SOL     OW20506   5.738   6.181   1.761 -0.1351 -0.4261  0.1232
 6536SOL    HW120507   5.687   6.099   1.735 -0.4242  0.1542 -1.2545
 6536SOL    HW220508   5.738   6.191   1.861 -1.0228 -1.5034  0.2455
 6537SOL     OW20509   3.377   2.012   3.484 -0.0148 -0.3021 -0.2670
 6537SOL    HW120510   3.390   2.063   3.569 -0.1399 -1.4702  0.4888
 6537SOL    HW220511   3.348   1.918   3.506  1.4107 -1.0868 -1.5377
 6538SOL     OW20512   3.385   2.664   1.770 -0.1366  0.1303  0.0492
 6538SOL    HW120513   3.397   2.565   1.758  0.8055  0.2953 -0.4051
 6538SOL    HW220514   3.474   2.708   1.780 -0.5365  0.9688  0.0078
 6539SOL     OW20515   5.306   5.791   4.503 -0.4396  0.8076 -0.3872
 6539SOL    HW120516   5.392   5.837   4.524 -0.2517  1.3000 -2.0802
 6539SOL    HW220517   5.324   5.700   4.468 -0.4896  1.3969 -2.0285
 6540SOL     OW20518   5.890   2.280   5.278  0.3135  0.3530 -0.2487
 6540SOL    HW120519   5.821   2.345   5.310  0.3122 -0.0904  0.6909
 6540SOL    HW220520   5.878   2.193   5.326  1.1956  0.1070 -0.4608
 6541SOL     OW20521   1.353   6.582   1.145  0.0499  0.3798 -0.2754
 6541SOL    HW120522   1.262   6.579   1.104  0.4560 -1.3486 -1.1679
 6541SOL    HW220523   1.422   6.569   1.073  0.9844  1.2309  0.4410
 6542SOL     OW20524   5.486   2.527   6.770  0.2758 -0.3716 -0.2228
 6542SOL    HW120525   5.544   2.606   6.790 -0.7346  0.0375  1.2108
 6542SOL    HW220526   5.390   2.550   6.788  0.1058 -2.4370  2.0914
 6543SOL     OW20527   2.032   6.671   1.115  0.0408 -0.1576  0.3140
 6543SOL    HW120528   1.988   6.602   1.058 -0.6928 -0.8059  1.6219
 6543SOL    HW220529   2.029   6.760   1.068  0.9624 -0.9680 -1.3711
 6544SOL     OW20530   3.264   0.412   4.197  0.4251 -0.9483 -0.3016
 6544SOL    HW120531   3.195   0.431   4.127  2.8727  0.2959 -2.5935
 6544SOL    HW220532   3.274   0.313   4.209 -1.9321 -1.1583  0.4032
 6545SOL     OW20533   5.584   3.906   5.229  0.5024 -0.8917  0.3357
 6545SOL    HW120534   5.652   3.959   5.279 -0.1296 -0.0359  0.3080
 6545SOL    HW220535   5.602   3.808   5.242  2.5404 -0.7051 -0.7852
 6546SOL     OW20536   3.861   3.431   3.363  0.1647 -0.1595  0.0352
 6546SOL    HW120537   3.858   3.364   3.437 -1.9691  0.7335  0.8597
 6546SOL    HW220538   3.954   3.463   3.349  0.6445 -0.4621  2.2624
 6547SOL     OW20539   1.350   4.487   4.851 -0.4081 -0.3995 -0.2529
 6547SOL    HW120540   1.391   4.575   4.875  0.4775 -1.1717  1.2767
 6547SOL    HW220541   1.404   4.443   4.780  1.9468 -1.6380  2.1005
 6548SOL     OW20542   2.738   2.086   3.886 -0.1084 -0.1408  0.5649
 6548SOL    HW120543   2.731   2.084   3.786 -2.2297 -1.0937  0.6957
 6548SOL    HW220544   2.730   1.993   3.923 -0.0842  0.2746  1.6678
 6549SOL     OW20545   1.488   3.519   1.173  0.4499 -0.1004 -0.5767
 6549SOL    HW120546   1.393   3.548   1.158  0.6172 -0.1710 -1.8321
 6549SOL    HW220547   1.498   3.488   1.268 -0.7508  0.0014 -0.3987
 6550SOL     OW20548   0.751   5.638   0.763 -0.7311  0.1347  0.3313
 6550SOL    HW120549   0.739   5.556   0.708  0.1683 -0.2188  0.6450
 6550SOL    HW220550   0.785   5.613   0.854 -1.2681  0.7836  0.7182
 6551SOL     OW20551   4.131   5.470   6.458 -0.3036 -0.1023  0.1489
 6551SOL    HW120552   4.213   5.459   6.401  1.0964  1.7807  1.6419
 6551SOL    HW220553   4.138   5.555   6.510 -4.4789  1.5790 -1.5945
 6552SOL     OW20554   6.357   2.642   2.491 -0.0953 -0.3141  0.1766
 6552SOL    HW120555   6.372   2.613   2.396 -2.9342 -2.1375  0.1771
 6552SOL    HW220556   6.403   2.578   2.553  1.7057  0.8410  0.1246
 6553SOL     OW20557   5.407   5.552   6.378  0.6042  0.2431  0.2837
 6553SOL    HW120558   5.463   5.559   6.296 -0.4362  0.7754 -0.4072
 6553SOL    HW220559   5.447   5.608   6.451  0.8333  0.8252 -0.2788
 6554SOL     OW20560   6.779   6.550   0.980  0.2544 -0.3741 -0.0067
 6554SOL    HW120561   6.857   6.565   0.919 -0.1070 -0.4095 -0.4862
 6554SOL    HW220562   6.710   6.620   0.962 -1.5587 -2.5897 -2.4079
 6555SOL     OW20563   4.212   0.444   6.002 -0.4093  0.4736 -0.3444
 6555SOL    HW120564   4.270   0.503   6.058  0.7560  0.4379 -1.4644
 6555SOL    HW220565   4.252   0.353   5.998  0.4695  0.8842 -2.5246
 6556SOL     OW20566   5.505   1.257   6.047 -0.2089  0.2319  0.7634
 6556SOL    HW120567   5.435   1.313   6.093 -1.2955 -0.3433 -0.1365
 6556SOL    HW220568   5.468   1.222   5.961  1.4706  0.5625 -0.1486
 6557SOL     OW20569   6.765   0.763   1.325 -0.1389  0.2885 -0.0871
 6557SOL    HW120570   6.781   0.831   1.397  0.8648 -0.2366  0.2023
 6557SOL    HW220571   6.678   0.783   1.280 -0.4496  1.0436  0.8016
 6558SOL     OW20572   2.917   2.381   5.980  0.0827 -0.2926 -0.2627
 6558SOL    HW120573   2.840   2.364   5.918  0.6511  0.8609 -1.3451
 6558SOL    HW220574   2.943   2.295   6.025 -1.8635 -0.6865  0.1973
 6559SOL     OW20575   4.330   0.201   5.938  0.0121 -0.1865 -0.2445
 6559SOL    HW120576   4.350   0.192   5.840  0.7981  0.6254 -0.1779
 6559SOL    HW220577   4.343   0.113   5.983  1.2141 -0.2224 -0.6189
 6560SOL     OW20578   0.314   4.689   1.708 -0.2337 -0.2006  0.7806
 6560SOL    HW120579   0.305   4.598   1.667 -4.5937 -0.3445  1.5890
 6560SOL    HW220580   0.303   4.759   1.638 -1.3266 -0.3782  0.7644
 6561SOL     OW20581   1.886   4.001   2.543 -0.0814 -0.0745  0.2370
 6561SOL    HW120582   1.884   3.951   2.456 -0.6835 -0.9876  0.7654
 6561SOL    HW220583   1.974   3.987   2.588  0.3408  0.6292 -0.3430
 6562SOL     OW20584   4.751   5.423   1.015  0.1633 -0.2671 -0.1798
 6562SOL    HW120585   4.691   5.348   0.987  1.2730 -0.7314 -1.4095
 6562SOL    HW220586   4.738   5.500   0.952 -0.4301  0.3192  0.6349
 6563SOL     OW20587   1.642   0.126   3.814 -0.2507  0.7509  0.2691
 6563SOL    HW120588   1.594   0.114   3.901  0.8727  1.6488  1.0609
 6563SOL    HW220589   1.694   0.043   3.793 -2.3565 -0.3650 -0.7839
 6564SOL     OW20590   5.729   4.716   5.084 -0.9624  0.3511 -0.4513
 6564SOL    HW120591   5.727   4.775   5.164  0.7871  1.5118 -1.2148
 6564SOL    HW220592   5.823   4.699   5.057 -1.5129  0.0305 -2.2997
 6565SOL     OW20593   6.807   3.260   2.765  0.0745  0.1128 -0.1321
 6565SOL    HW120594   6.893   3.297   2.731  0.1793 -0.8978 -1.0121
 6565SOL    HW220595   6.825   3.184   2.827 -0.1665 -0.2327 -0.4753
 6566SOL     OW20596   2.124   5.750   1.759 -0.7247 -0.0337  0.0353
 6566SOL    HW120597   2.124   5.677   1.690  1.5740 -0.5891  0.5421
 6566SOL    HW220598   2.074   5.719   1.840 -0.0481 -0.9509  0.1183
 6567SOL     OW20599   3.053   4.448   5.266  0.0681  0.6044 -0.4919
 6567SOL    HW120600   2.971   4.485   5.222 -0.3148  0.2306 -0.1074
 6567SOL    HW220601   3.045   4.349   5.273  0.2351  0.6316  0.1867
 6568SOL     OW20602   6.550   3.143   3.450  0.3564 -0.1590 -0.2910
 6568SOL    HW120603   6.507   3.228   3.418 -1.7624 -0.8047  0.7079
 6568SOL    HW220604   6.529   3.069   3.386  1.1489 -0.2138 -0.5005
 6569SOL     OW20605   5.999   5.050   3.378 -0.3802 -0.0686  0.2446
 6569SOL    HW120606   5.964   4.959   3.402  0.4987 -0.3466  0.5055
 6569SOL    HW220607   5.928   5.118   3.395 -0.6099 -0.5524  1.3067
 6570SOL     OW20608   6.386   0.926   6.628  0.0029 -0.8349  0.2425
 6570SOL    HW120609   6.354   0.833   6.611 -1.4590  0.1179 -3.1504
 6570SOL    HW220610   6.322   0.973   6.689 -0.5691 -1.3814  0.0710
 6571SOL     OW20611   1.852   1.343   5.037 -0.4956  0.0059  0.1987
 6571SOL    HW120612   1.913   1.356   4.959  0.5008  0.8408  1.0966
 6571SOL    HW220613   1.825   1.432   5.074 -1.6317 -0.3660  0.3189
 6572SOL     OW20614   6.656   6.334   3.884 -0.2950  0.3893 -0.2274
 6572SOL    HW120615   6.670   6.386   3.968 -0.1299 -0.3431  0.2097
 6572SOL    HW220616   6.560   6.307   3.877  0.0839 -1.4320  0.8794
 6573SOL     OW20617   4.020   2.970   1.739 -0.0321 -0.3052 -0.2076
 6573SOL    HW120618   3.956   2.996   1.811  1.0075  2.4193 -0.1463
 6573SOL    HW220619   4.113   2.968   1.776  0.3659 -0.1735 -1.1717
 6574SOL     OW20620   1.214   3.109   5.906 -0.1960  0.0933  0.4452
 6574SOL    HW120621   1.187   3.034   5.968 -1.5908 -0.3700 -0.6847
 6574SOL    HW220622   1.314   3.107   5.895 -0.1257 -1.1310  1.0192
 6575SOL     OW20623   0.615   4.917   0.432 -0.6467 -0.1770  0.0964
 6575SOL    HW120624   0.686   4.948   0.495 -1.6536  1.5738  0.4461
 6575SOL    HW220625   0.534   4.975   0.442 -1.7501 -1.4438 -1.0432
 6576SOL     OW20626   2.073   2.130   5.953  0.2362 -0.2723  0.5897
 6576SOL    HW120627   2.057   2.182   5.869  0.3686 -0.2133  0.6026
 6576SOL    HW220628   2.157   2.161   5.997 -0.4671  0.5446  1.3939
 6577SOL     OW20629   0.049   5.667   0.609 -0.0249 -0.3569 -0.2640
 6577SOL    HW120630  -0.019   5.711   0.668  1.5926 -0.5169  1.8462
 6577SOL    HW220631   0.129   5.642   0.663  0.9773 -1.8613 -2.2858
 6578SOL     OW20632   5.444   4.578   1.211 -0.1079  0.5463  0.1188
 6578SOL    HW120633   5.475   4.545   1.300 -1.4903 -1.4829 -0.0844
 6578SOL    HW220634   5.347   4.602   1.216 -0.5013 -0.6635 -1.0626
 6579SOL     OW20635   6.310   5.266   1.401 -0.3255 -0.1955  0.0554
 6579SOL    HW120636   6.312   5.279   1.500  2.3422  0.9131 -0.0711
 6579SOL    HW220637   6.361   5.339   1.356  0.6124 -1.9483 -1.9473
 6580SOL     OW20638   3.951   3.004   6.533  0.5770 -0.4911 -0.3772
 6580SOL    HW120639   3.929   3.048   6.620  1.3552 -0.5425 -0.1522
 6580SOL    HW220640   3.869   3.003   6.475  0.4040  0.8205 -0.2008
 6581SOL     OW20641   2.829   1.460   6.351 -0.4516 -0.0548  0.1525
 6581SOL    HW120642   2.765   1.427   6.421 -0.0955 -1.9061 -0.3516
 6581SOL    HW220643   2.922   1.431   6.374 -0.3806 -1.0685 -1.2782
 6582SOL     OW20644   4.581   6.061   3.986  0.0760 -0.2076 -1.0382
 6582SOL    HW120645   4.655   6.012   3.939 -0.3961 -1.1893 -0.8005
 6582SOL    HW220646   4.617   6.111   4.064  0.5136 -0.5756 -1.0027
 6583SOL     OW20647   4.510   3.859   6.608  0.1383 -0.5946 -0.0906
 6583SOL    HW120648   4.458   3.922   6.551 -2.0438 -1.5606  0.7098
 6583SOL    HW220649   4.589   3.906   6.646 -1.3215  1.6590  0.3921
 6584SOL     OW20650   4.313   1.721   0.263 -0.0002 -0.0884 -0.9137
 6584SOL    HW120651   4.239   1.653   0.267 -1.2510  1.2827  1.0337
 6584SOL    HW220652   4.367   1.715   0.347 -2.4583  3.6500  1.2292
 6585SOL     OW20653   2.797   5.826   2.002  0.4775  0.6041 -0.2667
 6585SOL    HW120654   2.780   5.822   1.903  1.1004  1.3287 -0.4125
 6585SOL    HW220655   2.895   5.822   2.019  0.3196 -1.0720  0.4235
 6586SOL     OW20656   5.925   3.787   5.318 -0.1236 -0.3852 -0.2092
 6586SOL    HW120657   5.896   3.702   5.363  1.1494 -0.4304  0.5944
 6586SOL    HW220658   6.011   3.771   5.269 -2.1435 -0.7227 -4.0193
 6587SOL     OW20659   4.916   4.018   4.119 -0.3421  0.3401  0.2714
 6587SOL    HW120660   4.960   3.929   4.104 -2.2719 -0.5037 -0.8082
 6587SOL    HW220661   4.874   4.049   4.033 -0.9428  1.5929  0.9907
 6588SOL     OW20662   4.674   0.802   5.884  0.0452  0.1722  0.0094
 6588SOL    HW120663   4.617   0.874   5.845 -0.3994 -0.7914 -1.1992
 6588SOL    HW220664   4.702   0.827   5.977  0.9134  2.4427 -0.8019
 6589SOL     OW20665   6.749   6.713   1.679 -0.0200  0.0392 -0.5140
 6589SOL    HW120666   6.737   6.804   1.641  1.0404  0.8573  1.0026
 6589SOL    HW220667   6.818   6.716   1.752  0.8351 -2.1775 -1.1477
 6590SOL     OW20668   1.293   1.401   2.059  0.4860 -0.1058 -0.5661
 6590SOL    HW120669   1.250   1.430   2.144  0.6984  0.1640 -0.5478
 6590SOL    HW220670   1.386   1.369   2.079  0.9270  0.9722 -0.8371
 6591SOL     OW20671   1.466   5.538   6.170 -0.0788 -0.1276 -1.0229
 6591SOL    HW120672   1.431   5.617   6.220  0.4284  0.2355 -1.2354
 6591SOL    HW220673   1.464   5.457   6.230 -3.5021 -0.7193 -1.6963
 6592SOL     OW20674   4.618   3.621   1.481 -0.4334 -0.1843 -0.2005
 6592SOL    HW120675   4.592   3.678   1.558  0.0554 -0.6349  0.3037
 6592SOL    HW220676   4.552   3.545   1.472  1.0533 -1.7722  1.5554
 6593SOL     OW20677   5.059   3.442   4.426 -0.3012  0.2146  0.2284
 6593SOL    HW120678   5.108   3.356   4.442 -0.5095 -0.0625 -0.6118
 6593SOL    HW220679   5.003   3.464   4.506  0.4496  0.0392  0.8105
 6594SOL     OW20680   0.674   6.308   2.434 -0.2628 -0.4094 -0.3895
 6594SOL    HW120681   0.618   6.297   2.516 -0.0762  1.3240  0.0147
 6594SOL    HW220682   0.622   6.359   2.365  0.7280  1.1850 -0.0237
 6595SOL     OW20683   1.258   4.534   5.840 -0.4068 -0.6563 -0.2902
 6595SOL    HW120684   1.254   4.624   5.884  0.1097 -0.9421  0.3785
 6595SOL    HW220685   1.241   4.544   5.742  0.6376  0.3108 -0.3989
 6596SOL     OW20686   4.839   4.816   1.524  0.2830 -0.3178 -0.1393
 6596SOL    HW120687   4.903   4.744   1.552  1.3111  0.5354 -0.2183
 6596SOL    HW220688   4.875   4.904   1.553 -1.8062  0.0641  1.5212
 6597SOL     OW20689   2.233   5.320   4.672 -0.2519  0.6688 -0.2035
 6597SOL    HW120690   2.239   5.416   4.647 -0.2162  0.9902  1.0087
 6597SOL    HW220691   2.189   5.310   4.761  0.4797 -0.3833  0.0626
 6598SOL     OW20692   1.058   1.945   3.779 -0.1078 -0.1210 -0.5743
 6598SOL    HW120693   1.070   2.007   3.701 -2.0280 -0.9629 -1.5974
 6598SOL    HW220694   0.971   1.896   3.770 -0.1593 -0.5971  1.8773
 6599SOL     OW20695   1.842   4.367   6.106  0.4295 -0.5327 -0.0246
 6599SOL    HW120696   1.936   4.363   6.139  0.3289  0.1714  0.3705
 6599SOL    HW220697   1.780   4.349   6.182  0.2526 -1.5239 -0.3960
 6600SOL     OW20698   3.665   5.028   2.975 -0.1057  0.2661  0.5892
 6600SOL    HW120699   3.715   5.107   2.941 -0.4371 -0.0871 -0.7976
 6600SOL    HW220700   3.660   4.958   2.903 -1.0119 -0.4500  1.3121
 6601SOL     OW20701   1.047   3.618   3.963 -0.0811 -0.1995  0.3234
 6601SOL    HW120702   1.110   3.696   3.964  0.7925 -0.8865  0.7037
 6601SOL    HW220703   0.991   3.619   4.046  0.4602 -0.3833  0.6980
 6602SOL     OW20704   1.100   0.982   1.893  0.2348  0.0906 -0.0519
 6602SOL    HW120705   1.111   1.076   1.925  1.5728  0.3868 -1.2771
 6602SOL    HW220706   1.057   0.983   1.802 -1.6077 -0.6132  0.7678
 6603SOL     OW20707   3.597   6.999   1.086 -0.1639 -0.6691  0.0801
 6603SOL    HW120708   3.579   6.930   1.015  0.7210  1.1151 -2.0053
 6603SOL    HW220709   3.525   7.069   1.083  0.6471  0.1698 -0.0493
 6604SOL     OW20710   5.216   1.903   0.858  0.0696  0.3233 -0.4369
 6604SOL    HW120711   5.127   1.861   0.870  0.9789 -1.1674  1.8046
 6604SOL    HW220712   5.260   1.867   0.776 -1.7192  1.8873 -2.2031
 6605SOL     OW20713   2.480   4.310   6.526  0.1240 -0.2530  0.6969
 6605SOL    HW120714   2.415   4.242   6.560 -0.4151  0.5783  1.3807
 6605SOL    HW220715   2.442   4.402   6.538  1.2479  0.2325  0.7354
 6606SOL     OW20716   6.912   4.006   2.128  0.1881  0.0142  0.1183
 6606SOL    HW120717   6.974   3.928   2.138  2.2370  1.5340 -0.1400
 6606SOL    HW220718   6.839   3.999   2.196  0.9116 -1.5799  0.7871
 6607SOL     OW20719   3.378   3.136   7.008  0.0996  0.2284  0.1457
 6607SOL    HW120720   3.278   3.130   7.014 -0.0065  1.4621 -0.0345
 6607SOL    HW220721   3.406   3.231   7.018  1.1339  0.1346 -1.4034
 6608SOL     OW20722   2.914   1.122   6.845 -0.0094 -0.1033  0.2261
 6608SOL    HW120723   2.949   1.096   6.935 -1.6064 -0.0421  0.9104
 6608SOL    HW220724   2.875   1.214   6.850 -2.4633 -1.0512  0.2167
 6609SOL     OW20725   2.280   3.601   5.319 -0.2473  0.3050  0.0472
 6609SOL    HW120726   2.280   3.545   5.402 -1.7539  0.4547  0.1695
 6609SOL    HW220727   2.342   3.678   5.331 -0.8701  0.6345  1.2549
 6610SOL     OW20728   0.996   4.734   2.560 -0.6689  0.7932 -0.2430
 6610SOL    HW120729   1.001   4.641   2.597 -1.2390  0.7139 -0.3581
 6610SOL    HW220730   1.080   4.754   2.509 -1.4235 -0.4958 -2.1151
 6611SOL     OW20731   3.983   4.866   3.830 -0.0614  0.0727  0.1455
 6611SOL    HW120732   3.990   4.841   3.927 -0.1483  1.1029  0.4312
 6611SOL    HW220733   4.075   4.874   3.791  0.0226  1.0323  0.5201
 6612SOL     OW20734   4.327   2.185   1.936  0.7010  0.1656 -0.1243
 6612SOL    HW120735   4.411   2.180   1.989 -0.5436  0.3432  1.9684
 6612SOL    HW220736   4.274   2.101   1.949 -1.1050  1.5085  1.5729
 6613SOL     OW20737   2.499   4.625   1.107  0.1953  0.3304 -0.5377
 6613SOL    HW120738   2.488   4.716   1.148  0.6821 -0.2733  1.0144
 6613SOL    HW220739   2.527   4.560   1.178 -0.5424 -1.1277 -1.5470
 6614SOL     OW20740   1.917   0.569   5.015  0.5979  0.1790  0.6000
 6614SOL    HW120741   2.014   0.594   5.026  0.2649  2.1964 -0.6959
 6614SOL    HW220742   1.880   0.614   4.935 -1.8044  0.5383  1.8311
 6615SOL     OW20743   3.647   2.982   1.023 -0.3227 -0.1196 -0.1715
 6615SOL    HW120744   3.550   3.005   1.025  0.0119  1.4456  0.9733
 6615SOL    HW220745   3.688   3.005   1.112  1.2808  0.1993 -0.9558
 6616SOL     OW20746   4.942   3.675   2.620  0.0544 -0.0002  0.0386
 6616SOL    HW120747   4.963   3.589   2.667  0.6879 -0.1251 -0.4464
 6616SOL    HW220748   4.987   3.750   2.667 -0.5421  0.0724  0.4934
 6617SOL     OW20749   4.155   6.911   4.311 -0.1377  0.5121  0.4860
 6617SOL    HW120750   4.116   6.820   4.302  0.3965  0.3362 -0.1401
 6617SOL    HW220751   4.193   6.923   4.402 -0.6097  0.2745  0.7175
 6618SOL     OW20752   4.419   2.454   4.004 -0.0929 -0.4891  0.6578
 6618SOL    HW120753   4.453   2.521   3.937  0.9233  1.2244  2.7606
 6618SOL    HW220754   4.497   2.411   4.050 -0.7719 -1.2099  1.1523
 6619SOL     OW20755   1.219   0.585   5.680 -0.0073 -0.3934  0.6101
 6619SOL    HW120756   1.317   0.603   5.693 -0.0416  0.0756  0.2606
 6619SOL    HW220757   1.182   0.543   5.762  0.5272 -0.7365  0.6830
 6620SOL     OW20758   1.485   6.717   3.887 -0.5498  0.2483 -0.4588
 6620SOL    HW120759   1.563   6.660   3.860  0.2719  1.2459 -0.2410
 6620SOL    HW220760   1.419   6.661   3.936 -0.3800 -0.8058 -1.3724
 6621SOL     OW20761   6.668   2.327   3.071  0.7236 -0.3699 -0.0022
 6621SOL    HW120762   6.671   2.356   2.975 -0.2220  0.2031  0.1206
 6621SOL    HW220763   6.634   2.403   3.127  2.4522 -0.2724  0.9727
 6622SOL     OW20764   2.774   1.549   2.623  0.2218  0.0568 -0.2007
 6622SOL    HW120765   2.752   1.473   2.685 -0.6375  0.3528 -0.1369
 6622SOL    HW220766   2.754   1.521   2.529  0.2954  0.0590 -0.2166
 6623SOL     OW20767   6.706   4.382   0.984 -0.1976  0.5749  0.1323
 6623SOL    HW120768   6.631   4.388   0.919  0.0798  2.1766 -0.0776
 6623SOL    HW220769   6.680   4.427   1.069  0.7648  1.8052 -0.2010
 6624SOL     OW20770   2.157   1.519   4.836 -0.3511  0.3272  0.1990
 6624SOL    HW120771   2.159   1.484   4.742 -2.2879  1.2075 -0.2165
 6624SOL    HW220772   2.062   1.521   4.869  0.2798  0.1008  2.1715
 6625SOL     OW20773   5.634   0.286   5.399 -0.4122 -0.5585 -0.1228
 6625SOL    HW120774   5.584   0.369   5.374  0.8936  0.0894 -0.6709
 6625SOL    HW220775   5.572   0.223   5.445 -1.6000  0.4288 -0.3089
 6626SOL     OW20776   2.038   4.771   2.491  0.6562 -0.6871 -0.1337
 6626SOL    HW120777   2.070   4.681   2.519  0.2098  0.1916  3.8234
 6626SOL    HW220778   2.117   4.830   2.470  1.2155 -0.9246  1.1894
 6627SOL     OW20779   6.919   0.954   2.097  0.0876 -0.5450 -0.3660
 6627SOL    HW120780   6.952   1.046   2.118 -0.8673 -0.2132 -0.2617
 6627SOL    HW220781   6.993   0.901   2.056  0.3983  0.5610 -1.3121
 6628SOL     OW20782   4.904   3.694   6.767 -0.1595  0.8793 -0.1444
 6628SOL    HW120783   4.847   3.620   6.729  1.0351 -0.0713 -0.1509
 6628SOL    HW220784   4.861   3.782   6.748 -1.2340  0.2332 -0.8230
 6629SOL     OW20785   3.651   5.848   4.332  0.1708 -0.3255 -0.1937
 6629SOL    HW120786   3.557   5.852   4.298 -0.1576 -0.6803  0.6398
 6629SOL    HW220787   3.662   5.768   4.391 -0.0126  1.5576  2.5738
 6630SOL     OW20788   4.210   0.216   4.398  0.2697 -0.2931 -0.1162
 6630SOL    HW120789   4.269   0.220   4.479  0.6973  0.1837 -0.4417
 6630SOL    HW220790   4.260   0.174   4.323  0.9124  1.8917 -0.9702
 6631SOL     OW20791   4.656   5.675   4.339  0.1176  0.8074 -0.0178
 6631SOL    HW120792   4.689   5.585   4.311  2.2042  1.2624  0.7495
 6631SOL    HW220793   4.670   5.740   4.264 -0.0111  0.7917 -0.0556
 6632SOL     OW20794   5.393   3.823   3.905  0.3642 -0.0593 -0.0722
 6632SOL    HW120795   5.447   3.885   3.962 -0.8801 -0.0429  1.1392
 6632SOL    HW220796   5.417   3.729   3.926  0.4037 -0.0421 -0.0403
 6633SOL     OW20797   4.337   0.590   2.627  0.9879 -0.1094  0.2430
 6633SOL    HW120798   4.318   0.569   2.531  2.6101  0.0538 -0.1495
 6633SOL    HW220799   4.265   0.649   2.663  0.3589 -0.1597 -0.8759
 6634SOL     OW20800   0.732   0.469   4.207 -0.0356 -0.5870 -0.1292
 6634SOL    HW120801   0.676   0.456   4.288  0.2273 -0.7809  0.0209
 6634SOL    HW220802   0.673   0.481   4.127 -0.2855 -1.5437 -0.0913
 6635SOL     OW20803   6.469   2.083   3.923 -0.4759 -0.2217  0.3371
 6635SOL    HW120804   6.455   2.060   3.826 -0.3006 -1.7936  0.6495
 6635SOL    HW220805   6.383   2.071   3.973 -0.6863  1.0529  0.3171
 6636SOL     OW20806   3.944   1.036   0.200  0.3936  0.4517  0.4220
 6636SOL    HW120807   3.883   1.077   0.132  1.3848  1.0843 -0.1133
 6636SOL    HW220808   4.011   0.977   0.153 -0.9380 -1.7688  1.1570
 6637SOL     OW20809   0.520   4.159   5.283 -0.1851  0.5299  0.1507
 6637SOL    HW120810   0.544   4.225   5.355  0.1859  0.4198  0.1299
 6637SOL    HW220811   0.558   4.070   5.305  0.1669  0.5598 -0.3204
 6638SOL     OW20812   2.345   5.926   1.841 -0.1797  0.6461  0.1166
 6638SOL    HW120813   2.264   5.880   1.804  0.6526 -1.5631  0.9235
 6638SOL    HW220814   2.323   6.023   1.856 -2.7591  0.0753  0.5633
 6639SOL     OW20815   1.380   1.063   3.593 -0.0727 -0.3425  0.3669
 6639SOL    HW120816   1.377   1.163   3.587 -2.2797 -0.2726  1.3215
 6639SOL    HW220817   1.474   1.033   3.608  0.4311  1.7671  2.0733
 6640SOL     OW20818   0.545   3.523   1.003 -0.1766 -0.1072 -0.4584
 6640SOL    HW120819   0.555   3.617   0.970  2.0445 -0.4093 -0.8176
 6640SOL    HW220820   0.548   3.460   0.926  1.1240 -0.5938 -0.0483
 6641SOL     OW20821   1.076   1.910   1.682  0.0546  0.2342  0.0103
 6641SOL    HW120822   0.981   1.927   1.709  0.7432  0.2406  2.7163
 6641SOL    HW220823   1.085   1.816   1.651 -0.3967 -0.6845  2.4251
 6642SOL     OW20824   3.288   1.700   6.068  0.0404 -0.1156  0.0461
 6642SOL    HW120825   3.224   1.717   5.993  1.3617  1.0679 -0.8451
 6642SOL    HW220826   3.317   1.604   6.066 -1.0778 -0.4740 -0.0029
 6643SOL     OW20827   0.899   5.209   4.990  0.2482 -0.7089  0.3141
 6643SOL    HW120828   0.956   5.164   5.059  0.4695 -2.8151 -1.1393
 6643SOL    HW220829   0.831   5.143   4.956  0.9282 -0.1467 -2.3148
 6644SOL     OW20830   4.923   3.093   0.712 -0.2250  0.3528  0.6079
 6644SOL    HW120831   4.903   3.114   0.616 -0.3756 -0.6900  0.3920
 6644SOL    HW220832   5.001   3.147   0.743 -0.2803  0.8240 -0.0449
 6645SOL     OW20833   2.890   5.471   1.430  0.2597 -0.0324  0.0645
 6645SOL    HW120834   2.893   5.557   1.378  2.2560  1.3511  2.3186
 6645SOL    HW220835   2.813   5.473   1.494  1.3102  0.8871  1.3409
 6646SOL     OW20836   6.805   0.517   5.282 -0.1377 -0.1408 -0.2840
 6646SOL    HW120837   6.899   0.483   5.287  0.4396  1.3661 -0.2915
 6646SOL    HW220838   6.801   0.599   5.224 -0.9753  1.2440  1.5949
 6647SOL     OW20839   2.160   5.603   1.344  0.6116 -0.0844 -0.1069
 6647SOL    HW120840   2.224   5.527   1.333  0.9390 -0.0351  1.3481
 6647SOL    HW220841   2.128   5.631   1.253  2.2279 -0.4523 -0.8415
 6648SOL     OW20842   6.989   6.255   6.814  0.1069  0.3311  0.1227
 6648SOL    HW120843   7.067   6.230   6.872 -0.6100 -1.2716  0.4405
 6648SOL    HW220844   6.941   6.173   6.784  0.1269  1.1474 -2.3585
 6649SOL     OW20845   5.457   4.912   0.267  0.2671  0.5579  0.4753
 6649SOL    HW120846   5.458   4.935   0.364 -0.1334  1.2749  0.3136
 6649SOL    HW220847   5.544   4.868   0.243 -0.9947 -3.1190  1.9652
 6650SOL     OW20848   0.769   3.281   6.951 -0.8018 -0.2739  0.4185
 6650SOL    HW120849   0.725   3.192   6.954 -1.2456 -0.0758 -0.1259
 6650SOL    HW220850   0.780   3.316   7.044  0.8617 -1.6072  0.7644
 6651SOL     OW20851   1.859   2.646   0.990  0.0011 -0.2556 -0.4062
 6651SOL    HW120852   1.773   2.682   0.956  0.1042 -0.3422 -0.7735
 6651SOL    HW220853   1.860   2.648   1.090 -0.4616 -0.3444 -0.3985
 6652SOL     OW20854   4.121   6.329   6.548  0.0721 -0.6280 -0.4675
 6652SOL    HW120855   4.153   6.308   6.456 -2.2656 -3.5501 -0.7523
 6652SOL    HW220856   4.078   6.419   6.548  1.9655  0.3442 -1.6587
 6653SOL     OW20857   5.629   0.618   4.590 -0.3879 -0.1202  0.0768
 6653SOL    HW120858   5.613   0.571   4.503 -0.4276 -0.6699  0.3757
 6653SOL    HW220859   5.707   0.679   4.581  0.5970 -1.3349  0.0834
 6654SOL     OW20860   5.527   1.463   5.723 -0.1126  0.3206  0.3467
 6654SOL    HW120861   5.494   1.557   5.713  2.6362  1.2535 -0.9646
 6654SOL    HW220862   5.601   1.460   5.791  0.3266 -0.7546 -0.1479
 6655SOL     OW20863   2.414   5.887   3.588  0.0268 -0.3102  0.0692
 6655SOL    HW120864   2.399   5.846   3.498 -0.7450 -0.8948  0.4509
 6655SOL    HW220865   2.496   5.945   3.585 -1.0145  1.1886 -1.5123
 6656SOL     OW20866   0.697   5.940   4.391 -0.4477  0.1663  0.1747
 6656SOL    HW120867   0.680   5.878   4.467 -1.4909 -1.1075 -1.0402
 6656SOL    HW220868   0.741   5.890   4.316  1.3107  1.5759  0.2065
 6657SOL     OW20869   4.916   3.725   4.521  0.6087  0.4245  0.6115
 6657SOL    HW120870   4.906   3.810   4.572  0.4815  0.5374  0.4028
 6657SOL    HW220871   4.897   3.742   4.424 -2.3633 -0.4129  0.9379
 6658SOL     OW20872   2.047   2.950   1.461 -0.2449 -0.0474  0.0319
 6658SOL    HW120873   2.115   2.996   1.404 -0.2934 -0.3631 -0.2839
 6658SOL    HW220874   1.959   2.998   1.452  0.3591  1.5109  1.9071
 6659SOL     OW20875   3.499   2.915   4.014 -0.0244  0.4711  0.0581
 6659SOL    HW120876   3.517   2.894   4.111 -2.0375  0.4175  0.4617
 6659SOL    HW220877   3.524   3.010   3.995 -1.5562  1.1495  1.2160
 6660SOL     OW20878   5.747   5.666   1.577  0.0112  0.2805 -0.4271
 6660SOL    HW120879   5.824   5.665   1.512  0.0756  1.7672 -0.4024
 6660SOL    HW220880   5.765   5.602   1.652  0.5292 -0.4888 -1.1875
 6661SOL     OW20881   6.590   1.830   5.607  0.0577  0.5765 -0.2998
 6661SOL    HW120882   6.640   1.746   5.585  0.4632  0.5723  0.5871
 6661SOL    HW220883   6.531   1.855   5.530  0.2282 -0.2990 -0.7292
 6662SOL     OW20884   6.761   3.470   0.971 -0.5507 -0.2769 -0.2156
 6662SOL    HW120885   6.763   3.554   1.025 -0.1205  0.8942 -1.9838
 6662SOL    HW220886   6.844   3.417   0.988 -0.6027 -0.1320  0.5423
 6663SOL     OW20887   5.852   4.007   3.843  0.1637  0.5838  0.2786
 6663SOL    HW120888   5.802   4.025   3.927  0.5133  0.9626  0.4095
 6663SOL    HW220889   5.914   4.084   3.824  0.1664  0.4502 -0.2617
 6664SOL     OW20890   3.974   0.893   3.151  0.1326 -1.3460  0.4135
 6664SOL    HW120891   3.929   0.966   3.099  1.7771 -1.2760 -0.9939
 6664SOL    HW220892   4.008   0.823   3.089  0.8177 -2.0563  1.5367
 6665SOL     OW20893   3.710   6.358   4.896  0.0163  0.7238  0.6234
 6665SOL    HW120894   3.778   6.387   4.964 -1.0833  1.6616  1.3632
 6665SOL    HW220895   3.619   6.360   4.937 -0.6443  1.0212 -0.7969
 6666SOL     OW20896   3.633   2.295   1.086  0.2826 -0.1523  0.2296
 6666SOL    HW120897   3.661   2.343   1.002 -1.2551 -0.1203 -0.2855
 6666SOL    HW220898   3.617   2.363   1.158 -0.0752 -0.0334  0.0417
 6667SOL     OW20899   0.958   4.403   1.335  0.1466 -0.3613  0.0209
 6667SOL    HW120900   0.950   4.426   1.238  0.8049  1.6376  0.3851
 6667SOL    HW220901   1.046   4.435   1.370 -0.2699 -0.6209  1.3836
 6668SOL     OW20902   4.333   0.514   1.238  0.0773 -0.1541  0.0731
 6668SOL    HW120903   4.406   0.583   1.237  0.0529 -0.1330 -0.2805
 6668SOL    HW220904   4.246   0.557   1.217 -0.1992 -0.0056  1.4687
 6669SOL     OW20905   3.144   0.644   6.190  0.2903  0.1742 -0.1477
 6669SOL    HW120906   3.172   0.590   6.270 -1.4823  0.2615  0.5795
 6669SOL    HW220907   3.125   0.582   6.114 -0.6557 -0.1598  0.3450
 6670SOL     OW20908   4.827   3.120   0.396 -0.2873 -0.2355  0.5519
 6670SOL    HW120909   4.869   3.126   0.306  0.0800 -2.3169  0.5198
 6670SOL    HW220910   4.762   3.195   0.408  0.7112  0.8998 -0.8613
 6671SOL     OW20911   3.927   4.633   6.874  0.2653  0.2439 -0.8262
 6671SOL    HW120912   3.856   4.635   6.945 -1.6070  0.8558 -2.6006
 6671SOL    HW220913   3.883   4.634   6.784  2.5709  1.3541 -2.0171
 6672SOL     OW20914   3.940   0.021   1.292  0.4942  0.1137  0.1107
 6672SOL    HW120915   3.943   0.061   1.384 -1.9730 -0.7597  0.6467
 6672SOL    HW220916   3.875   0.072   1.236  0.2896 -0.7269 -0.4326
 6673SOL     OW20917   5.069   3.083   0.162 -0.5983 -0.1839 -0.2192
 6673SOL    HW120918   5.065   3.151   0.089  0.1317 -0.0776 -0.1732
 6673SOL    HW220919   5.083   2.993   0.123  2.1141  0.1218 -0.1799
 6674SOL     OW20920   5.657   4.871   4.534 -0.0294 -0.5464  0.0683
 6674SOL    HW120921   5.692   4.896   4.625 -0.6006  0.1275  0.1143
 6674SOL    HW220922   5.612   4.951   4.493  2.7634  0.0551 -2.0702
 6675SOL     OW20923   5.393   0.080   0.477  0.2114 -0.2391 -0.5089
 6675SOL    HW120924   5.426   0.174   0.485  3.2074 -1.2943  1.4705
 6675SOL    HW220925   5.294   0.078   0.487  0.0541  2.6805 -0.6860
 6676SOL     OW20926   0.759   5.710   3.613 -0.2075  0.2136 -0.3610
 6676SOL    HW120927   0.720   5.700   3.704  1.0362  2.4817  0.5084
 6676SOL    HW220928   0.837   5.772   3.617  0.0206  0.2063 -2.9587
 6677SOL     OW20929   0.783   5.020   0.676  0.2872  0.0973 -0.2518
 6677SOL    HW120930   0.699   4.980   0.713  0.4175 -0.6360 -0.7300
 6677SOL    HW220931   0.851   5.028   0.750  0.6357 -1.6028 -0.3470
 6678SOL     OW20932   0.574   0.982   0.760 -0.0897 -0.6565 -0.5574
 6678SOL    HW120933   0.480   1.012   0.773 -0.4164 -0.9969 -2.0054
 6678SOL    HW220934   0.578   0.882   0.762  0.8283 -0.6966  3.1225
 6679SOL     OW20935   1.474   0.696   6.791  0.0744  0.1472 -0.2499
 6679SOL    HW120936   1.448   0.609   6.834 -0.3243 -0.1665 -1.0928
 6679SOL    HW220937   1.571   0.713   6.805  0.7508 -1.7092 -2.1972
 6680SOL     OW20938   2.572   3.164   5.354  0.0601 -0.0741  0.1481
 6680SOL    HW120939   2.527   3.116   5.279  0.6976 -2.0613  0.9612
 6680SOL    HW220940   2.506   3.222   5.401 -0.7233 -0.0510 -0.9267
 6681SOL     OW20941   4.924   6.465   4.533  0.2886  0.6282  0.1499
 6681SOL    HW120942   5.003   6.433   4.585 -0.5219 -2.3220 -0.2549
 6681SOL    HW220943   4.840   6.427   4.573 -0.4059 -1.3874 -2.8333
 6682SOL     OW20944   6.333   3.259   5.341 -0.0757  0.1630 -0.2548
 6682SOL    HW120945   6.345   3.207   5.426 -1.3000  0.2327 -0.0242
 6682SOL    HW220946   6.312   3.354   5.362  1.3999  0.6103 -0.6752
 6683SOL     OW20947   5.446   0.345   3.435  0.8785  0.5714 -0.2060
 6683SOL    HW120948   5.425   0.423   3.494  1.6489  0.3228  0.4029
 6683SOL    HW220949   5.386   0.268   3.459  2.2925 -0.0824  1.4173
 6684SOL     OW20950   1.236   0.934   5.996 -0.3603  0.0150  0.0277
 6684SOL    HW120951   1.156   0.957   6.051  1.7427  0.9874  2.9541
 6684SOL    HW220952   1.283   0.856   6.036  2.1113  1.7099  0.7204
 6685SOL     OW20953   2.248   6.930   5.892  0.3101 -0.6658 -0.1866
 6685SOL    HW120954   2.346   6.911   5.899  0.7991  1.6905 -0.0737
 6685SOL    HW220955   2.211   6.953   5.982  0.0558  0.2282 -0.5107
 6686SOL     OW20956   6.943   0.392   2.408 -0.4605  0.1794  0.3510
 6686SOL    HW120957   7.012   0.324   2.434 -0.9923 -0.4103  0.2443
 6686SOL    HW220958   6.962   0.478   2.455  0.0970 -0.1070  0.6606
 6687SOL     OW20959   6.091   2.938   0.434  0.1839 -0.0663  0.1407
 6687SOL    HW120960   6.090   2.851   0.482 -0.4833 -0.2951 -0.2845
 6687SOL    HW220961   6.117   2.924   0.338  0.4254  0.2528  0.1542
 6688SOL     OW20962   6.286   0.768   4.756  0.3652  0.3863  0.6270
 6688SOL    HW120963   6.188   0.785   4.749  0.3921 -0.1422 -2.0430
 6688SOL    HW220964   6.301   0.676   4.793 -0.0798  0.8141  1.9402
 6689SOL     OW20965   6.987   1.676   6.246  0.4193  0.2162  0.1743
 6689SOL    HW120966   6.957   1.733   6.323  0.4863  1.4089 -0.6648
 6689SOL    HW220967   6.931   1.696   6.166  0.0993 -1.2918 -0.0225
 6690SOL     OW20968   6.389   1.516   2.018  0.0173 -0.3159 -0.4878
 6690SOL    HW120969   6.317   1.500   1.950 -0.3194  0.0226 -0.2108
 6690SOL    HW220970   6.476   1.531   1.971 -0.2091 -0.1087 -0.8459
 6691SOL     OW20971   5.932   6.469   1.531  0.4413  0.0819  0.5057
 6691SOL    HW120972   5.931   6.415   1.615  1.7667 -1.5201 -0.4419
 6691SOL    HW220973   5.841   6.467   1.489  0.2750 -0.8114  0.8852
 6692SOL     OW20974   3.348   2.858   6.366  0.1688 -0.0149  0.1659
 6692SOL    HW120975   3.398   2.778   6.332 -0.1350  0.4333 -1.4108
 6692SOL    HW220976   3.392   2.941   6.331 -0.8303  0.4281 -0.0520
 6693SOL     OW20977   0.931   3.012   6.924 -0.0403  0.2337  0.3114
 6693SOL    HW120978   0.949   3.110   6.912 -0.5124  0.5193  1.7291
 6693SOL    HW220979   0.994   2.975   6.992 -0.7051 -0.1460  0.7281
 6694SOL     OW20980   1.194   2.649   5.867  0.0502  0.6623  0.6371
 6694SOL    HW120981   1.114   2.604   5.907 -0.1368  0.7722  0.3844
 6694SOL    HW220982   1.247   2.582   5.814 -0.1767  0.7176  0.3397
 6695SOL     OW20983   3.282   3.649   0.426  0.1216  0.5008  0.4181
 6695SOL    HW120984   3.382   3.648   0.420  0.0697 -1.3869 -1.0276
 6695SOL    HW220985   3.244   3.688   0.342 -0.3760  0.5541  0.6644
 6696SOL     OW20986   3.727   2.545   6.537  0.0825  0.1322 -0.0140
 6696SOL    HW120987   3.797   2.494   6.586 -0.1986  0.2750  0.5389
 6696SOL    HW220988   3.648   2.560   6.596 -0.5992 -0.4013 -0.7648
 6697SOL     OW20989   6.297   6.333   1.194 -0.0645  0.2543  0.2733
 6697SOL    HW120990   6.277   6.251   1.249 -1.1036 -0.8401 -1.6399
 6697SOL    HW220991   6.238   6.408   1.224  0.3081  0.0954  1.4876
 6698SOL     OW20992   3.535   1.263   2.243  0.1239  0.0944  0.4138
 6698SOL    HW120993   3.438   1.266   2.215  0.8767 -1.6848 -2.9648
 6698SOL    HW220994   3.567   1.357   2.256 -1.4136  0.9295 -1.1806
 6699SOL     OW20995   5.750   3.248   3.362  0.6968  0.6359 -0.1162
 6699SOL    HW120996   5.756   3.150   3.340 -0.2845  0.3230  0.8566
 6699SOL    HW220997   5.775   3.261   3.458  1.0795  1.3824 -0.3183
 6700SOL     OW20998   0.397   6.774   0.628  0.1841 -0.1342 -0.2500
 6700SOL    HW120999   0.372   6.804   0.535  1.4015 -1.0533 -0.8978
 6700SOL    HW221000   0.376   6.847   0.693  0.5435  1.0549 -1.4247
 6701SOL     OW21001   3.262   3.337   0.812  0.0501 -0.4998 -0.4789
 6701SOL    HW121002   3.329   3.267   0.836 -1.4487 -1.2734  1.8180
 6701SOL    HW221003   3.276   3.367   0.718  2.0403 -2.3614 -0.8408
 6702SOL     OW21004   6.202   3.307   0.956 -0.2783 -0.1586 -1.1459
 6702SOL    HW121005   6.222   3.212   0.933  0.4625  0.0010 -1.2038
 6702SOL    HW221006   6.155   3.312   1.044 -0.3912 -0.5837 -1.1827
 6703SOL     OW21007   2.497   2.277   5.037  0.1662  0.3232  0.8964
 6703SOL    HW121008   2.579   2.334   5.048  0.4003  0.3713 -0.7595
 6703SOL    HW221009   2.479   2.264   4.939 -0.7117 -1.2772  1.2370
 6704SOL     OW21010   0.092   2.697   0.564 -0.6232  0.3656 -0.3297
 6704SOL    HW121011   0.019   2.663   0.505 -0.3928  0.3597 -0.6155
 6704SOL    HW221012   0.065   2.687   0.660 -0.7949 -0.0904 -0.4217
 6705SOL     OW21013   0.979   0.430   0.612 -0.0575  0.7786 -0.0737
 6705SOL    HW121014   0.962   0.519   0.568 -1.0045  0.9601  0.6196
 6705SOL    HW221015   0.986   0.359   0.542 -0.1960  1.2664 -0.5895
 6706SOL     OW21016   4.720   6.870   2.974 -0.0104  0.2316  0.0464
 6706SOL    HW121017   4.731   6.838   2.880  0.0571  1.4085 -0.3612
 6706SOL    HW221018   4.645   6.936   2.979  0.5976  0.8969  0.6324
 6707SOL     OW21019   0.623   7.011   6.357 -0.7366 -0.1053 -0.1087
 6707SOL    HW121020   0.722   7.014   6.343 -0.5769 -0.1463  0.9053
 6707SOL    HW221021   0.586   6.927   6.318 -0.2197 -0.5674  0.3927
 6708SOL     OW21022   1.825   6.273   5.542  0.2958  0.1234 -0.2168
 6708SOL    HW121023   1.795   6.331   5.466 -0.1819 -0.0651 -0.1781
 6708SOL    HW221024   1.822   6.325   5.627 -1.4838 -0.3237  0.0435
 6709SOL     OW21025   4.150   0.545   4.474  0.3127 -0.1928 -0.2032
 6709SOL    HW121026   4.095   0.622   4.440 -0.8053 -0.9995 -0.2721
 6709SOL    HW221027   4.113   0.514   4.561  1.8583  0.4744  0.7232
 6710SOL     OW21028   3.585   6.227   2.016  0.5510 -0.0404  0.1433
 6710SOL    HW121029   3.502   6.220   1.960 -0.3463 -1.7187  1.6170
 6710SOL    HW221030   3.579   6.309   2.073  0.4612  0.4861 -0.6087
 6711SOL     OW21031   4.830   5.010   2.914 -0.4580  0.3651  0.0758
 6711SOL    HW121032   4.843   5.107   2.891  2.2360 -0.3035 -1.7211
 6711SOL    HW221033   4.822   5.000   3.013 -2.2843  2.5055  0.2347
 6712SOL     OW21034   3.941   3.113   4.210 -0.3662 -0.5403 -0.1841
 6712SOL    HW121035   3.878   3.136   4.284 -0.4397 -1.7520  0.1567
 6712SOL    HW221036   3.911   3.028   4.165 -0.9836  0.7492 -2.3830
 6713SOL     OW21037   4.183   6.829   0.144  0.4307  0.4162 -0.1624
 6713SOL    HW121038   4.140   6.743   0.117 -0.2764  0.8516 -0.4268
 6713SOL    HW221039   4.208   6.882   0.063  1.0722  0.3722 -0.0058
 6714SOL     OW21040   4.114   4.760   3.203  0.5500 -0.2770 -0.2196
 6714SOL    HW121041   4.060   4.776   3.286 -1.3680 -1.3280 -1.2165
 6714SOL    HW221042   4.055   4.763   3.123  2.1977 -0.3062 -1.5041
 6715SOL     OW21043   2.010   6.770   5.834 -0.8535  0.1331 -0.2498
 6715SOL    HW121044   1.935   6.832   5.854  0.0640  2.0652 -2.3966
 6715SOL    HW221045   2.097   6.813   5.859 -0.2223 -0.5373 -1.1922
 6716SOL     OW21046   3.663   4.863   1.389  0.0450 -0.2324 -0.0254
 6716SOL    HW121047   3.582   4.815   1.424  0.4854 -1.0739 -0.1346
 6716SOL    HW221048   3.733   4.796   1.364  1.4610  0.5152  1.6988
 6717SOL     OW21049   4.561   2.350   1.452 -0.1020 -0.7181  0.1880
 6717SOL    HW121050   4.590   2.400   1.534 -0.2201 -2.4716  1.3590
 6717SOL    HW221051   4.465   2.322   1.462  0.8397 -4.0117  1.1450
 6718SOL     OW21052   3.774   1.642   1.275 -0.0632  0.2152  0.3142
 6718SOL    HW121053   3.726   1.714   1.323  2.0318  1.1888  1.0808
 6718SOL    HW221054   3.773   1.661   1.177  0.8027  1.5375  0.5377
 6719SOL     OW21055   2.243   3.775   0.162 -0.7591  0.7606  0.5592
 6719SOL    HW121056   2.291   3.862   0.152  0.6653  0.3878  3.3289
 6719SOL    HW221057   2.166   3.787   0.224 -0.6337  0.0874  0.8501
 6720SOL     OW21058   0.974   2.782   1.198 -0.7195  0.0947 -0.3692
 6720SOL    HW121059   1.012   2.845   1.266  0.2010 -0.8549  0.0201
 6720SOL    HW221060   0.874   2.778   1.209 -0.4892 -1.3669  2.1788
 6721SOL     OW21061   4.237   1.952   3.029 -0.0895  0.4723 -0.6920
 6721SOL    HW121062   4.145   1.915   3.044  0.8727 -0.9329  2.6154
 6721SOL    HW221063   4.241   2.046   3.062 -0.7510  1.2879 -2.7298
 6722SOL     OW21064   0.408   6.126   0.567  0.2695 -0.3850 -0.5254
 6722SOL    HW121065   0.315   6.100   0.541 -0.9959  1.6575  1.5747
 6722SOL    HW221066   0.438   6.203   0.511  0.4458 -0.6318 -0.7716
 6723SOL     OW21067   6.336   4.283   4.358 -0.2097 -0.0460 -0.2204
 6723SOL    HW121068   6.260   4.339   4.326 -0.9990 -1.2286 -0.4661
 6723SOL    HW221069   6.411   4.288   4.292 -0.5924  0.0565 -0.6512
 6724SOL     OW21070   3.815   4.088   4.227  0.3298  0.5036 -0.0558
 6724SOL    HW121071   3.868   4.080   4.143  0.7798 -0.0917  0.2841
 6724SOL    HW221072   3.876   4.088   4.306 -0.1643 -0.0896  0.3305
 6725SOL     OW21073   5.166   6.394   6.849  0.5475  0.1469 -0.5235
 6725SOL    HW121074   5.145   6.392   6.751  0.5986 -1.4857 -0.5284
 6725SOL    HW221075   5.211   6.309   6.875 -0.2813  0.1626  1.0894
 6726SOL     OW21076   5.620   2.206   5.086  0.1304  0.7477 -0.5511
 6726SOL    HW121077   5.554   2.131   5.092 -0.1464  1.0742  0.9376
 6726SOL    HW221078   5.713   2.168   5.084  0.1172  0.3236  2.3351
 6727SOL     OW21079   6.129   6.567   4.596  0.0317 -0.7136  0.8698
 6727SOL    HW121080   6.223   6.599   4.588 -0.2835  0.3201  1.1719
 6727SOL    HW221081   6.079   6.589   4.513  0.1313 -1.5574  0.5772
 6728SOL     OW21082   6.323   1.935   3.121  0.2918 -0.0029 -0.1253
 6728SOL    HW121083   6.324   2.018   3.065 -1.0057  0.8508  1.0477
 6728SOL    HW221084   6.311   1.856   3.062  3.4260  0.3778 -1.4842
 6729SOL     OW21085   0.318   1.426   2.814  0.0389 -0.1340  0.0891
 6729SOL    HW121086   0.360   1.516   2.806  0.5175 -0.2906  0.7505
 6729SOL    HW221087   0.358   1.377   2.891  1.0997 -1.6077 -1.3208
 6730SOL     OW21088   5.539   6.599   5.368  0.0580 -0.3480 -0.0513
 6730SOL    HW121089   5.596   6.665   5.418  0.6064  0.3051 -1.4926
 6730SOL    HW221090   5.447   6.597   5.409  0.1002  1.1502  0.1811
 6731SOL     OW21091   2.398   1.121   0.837 -0.2089 -0.7784  0.7211
 6731SOL    HW121092   2.449   1.201   0.806 -1.5863 -0.2246 -0.2223
 6731SOL    HW221093   2.362   1.071   0.758 -1.9889 -0.5492  1.3362
 6732SOL     OW21094   4.421   5.135   3.762 -0.2952 -0.4014 -0.9684
 6732SOL    HW121095   4.335   5.186   3.750  0.9481  1.3625 -2.9745
 6732SOL    HW221096   4.418   5.052   3.706  0.0932  0.7981 -2.8735
 6733SOL     OW21097   0.722   6.332   6.879  0.4432 -0.0519 -0.1444
 6733SOL    HW121098   0.814   6.295   6.865  0.4977  0.2933 -0.7635
 6733SOL    HW221099   0.709   6.411   6.818 -0.5184 -0.5596 -0.6159
 6734SOL     OW21100   6.785   5.891   3.851  0.5883  0.5056  0.3444
 6734SOL    HW121101   6.750   5.869   3.760  0.0626 -0.3892  0.7498
 6734SOL    HW221102   6.874   5.936   3.843  1.3661 -1.1285 -0.5578
 6735SOL     OW21103   2.941   1.993   2.270 -0.1934 -0.6976 -0.5856
 6735SOL    HW121104   2.857   2.046   2.258  0.5128  0.5410 -0.2412
 6735SOL    HW221105   3.015   2.035   2.217  0.6737 -0.5902  0.6471
 6736SOL     OW21106   4.249   6.281   0.586 -0.5264 -0.1456 -0.1466
 6736SOL    HW121107   4.204   6.370   0.598 -0.9972 -0.5186  0.9480
 6736SOL    HW221108   4.186   6.208   0.612 -0.2326 -0.8371 -1.2795
 6737SOL     OW21109   6.626   0.352   4.739 -0.3093  0.0076 -0.5230
 6737SOL    HW121110   6.671   0.377   4.825  0.9294  0.6862 -1.3274
 6737SOL    HW221111   6.546   0.295   4.758 -0.0882  0.1810  1.0694
 6738SOL     OW21112   3.253   0.321   5.464 -0.1647 -0.1485 -0.1898
 6738SOL    HW121113   3.281   0.311   5.368 -0.2317 -1.3401 -0.0974
 6738SOL    HW221114   3.334   0.315   5.522 -0.2238 -0.2788 -0.1213
 6739SOL     OW21115   1.114   4.340   5.431  0.1463 -0.4540  0.5896
 6739SOL    HW121116   1.046   4.349   5.358  2.8172  0.4292 -1.9991
 6739SOL    HW221117   1.183   4.272   5.404  0.6768 -0.8566  2.8015
 6740SOL     OW21118   1.821   1.357   4.527  0.1454  0.2244  0.5485
 6740SOL    HW121119   1.770   1.323   4.448 -0.0774  0.5308  0.5598
 6740SOL    HW221120   1.836   1.455   4.517 -0.9352  0.4994  1.4628
 6741SOL     OW21121   6.751   5.454   6.703 -0.5467  0.2100 -0.7012
 6741SOL    HW121122   6.691   5.484   6.629  0.6136 -2.0127 -2.7269
 6741SOL    HW221123   6.780   5.359   6.685  0.3743 -0.1775  2.2810
 6742SOL     OW21124   6.276   4.792   6.975  0.0101  0.8805  0.3816
 6742SOL    HW121125   6.235   4.701   6.983 -0.3107  0.9786 -0.0925
 6742SOL    HW221126   6.375   4.782   6.968 -0.1740  0.2408 -3.3911
 6743SOL     OW21127   0.836   6.653   6.150  0.1397  0.0235 -0.0988
 6743SOL    HW121128   0.871   6.600   6.073  1.4408 -0.7176  0.9519
 6743SOL    HW221129   0.831   6.594   6.231 -0.5632  0.9541  0.5556
 6744SOL     OW21130   2.845   1.181   3.595 -0.1471  0.0920  0.1749
 6744SOL    HW121131   2.848   1.273   3.634  0.3191  0.8620 -1.5844
 6744SOL    HW221132   2.781   1.125   3.647 -0.6461  1.4832  1.1185
 6745SOL     OW21133   5.585   4.702   6.054  0.2310  0.6125 -0.1589
 6745SOL    HW121134   5.653   4.639   6.016  0.2088  0.4250  0.1107
 6745SOL    HW221135   5.496   4.657   6.057  0.2316  0.6252  0.1091
 6746SOL     OW21136   6.745   5.264   4.750 -0.3398 -0.0960  0.3409
 6746SOL    HW121137   6.725   5.186   4.691  0.2875  0.0231 -0.0432
 6746SOL    HW221138   6.844   5.268   4.767  0.1500  2.4280 -2.2768
 6747SOL     OW21139   1.903   4.604   5.706  0.2306 -0.1667 -0.6361
 6747SOL    HW121140   1.890   4.581   5.610 -0.0950  2.2974 -1.2596
 6747SOL    HW221141   1.822   4.576   5.758 -0.2621 -0.1474 -1.3758
 6748SOL     OW21142   2.003   2.880   1.985  0.1467  0.0245  0.6293
 6748SOL    HW121143   1.947   2.852   2.062 -0.3408 -0.7463  0.0116
 6748SOL    HW221144   1.954   2.947   1.930 -0.4521 -1.1159 -0.2599
 6749SOL     OW21145   3.705   5.242   1.093 -0.1811  0.2587 -0.3819
 6749SOL    HW121146   3.686   5.144   1.104  2.0349 -0.1878  0.0584
 6749SOL    HW221147   3.638   5.295   1.145 -0.8185 -1.0646  0.2072
 6750SOL     OW21148   4.609   1.557   1.277 -0.0793  0.1840  0.0735
 6750SOL    HW121149   4.686   1.501   1.245 -0.3718 -0.0397 -0.2369
 6750SOL    HW221150   4.584   1.528   1.370 -0.8529 -0.8627 -0.4453
 6751SOL     OW21151   0.102   6.427   2.479  0.0062 -0.2424 -0.4790
 6751SOL    HW121152   0.072   6.448   2.572 -0.8221 -0.2542 -0.7345
 6751SOL    HW221153   0.193   6.465   2.463  2.1299 -3.8117  1.7477
 6752SOL     OW21154   6.881   0.771   4.890  0.2353 -0.4695 -0.3248
 6752SOL    HW121155   6.861   0.869   4.895 -0.5171 -0.6084 -0.4581
 6752SOL    HW221156   6.976   0.758   4.860  0.6026  0.2176  0.4917
 6753SOL     OW21157   1.805   1.920   0.401 -0.4587 -0.1883 -0.1278
 6753SOL    HW121158   1.890   1.868   0.401  0.4964  1.2828  0.7398
 6753SOL    HW221159   1.733   1.866   0.445  0.0470 -1.3997 -0.7386
 6754SOL     OW21160   4.445   1.831   4.859 -0.1278  0.4164 -0.3226
 6754SOL    HW121161   4.420   1.794   4.949 -1.5035  0.9294 -0.4685
 6754SOL    HW221162   4.518   1.899   4.870  0.3626 -0.1891  0.2817
 6755SOL     OW21163   4.985   2.247   1.775 -0.0148  0.0203 -0.0974
 6755SOL    HW121164   5.005   2.328   1.719 -2.0286  1.4761  1.1694
 6755SOL    HW221165   4.888   2.226   1.770  0.3931 -2.1345 -0.0665
 6756SOL     OW21166   6.705   3.897   2.279  0.7467  0.0601  0.7032
 6756SOL    HW121167   6.673   3.810   2.242  0.6264 -0.0131  0.9794
 6756SOL    HW221168   6.650   3.922   2.358 -0.6761  1.4896 -0.6702
 6757SOL     OW21169   0.365   3.034   6.067 -0.2376 -0.5710 -0.1139
 6757SOL    HW121170   0.451   3.003   6.107 -0.1263  0.7910  0.7589
 6757SOL    HW221171   0.328   3.109   6.121 -0.9543  0.2187 -1.6300
 6758SOL     OW21172   4.479   2.376   6.030 -0.1439 -0.3402  0.0743
 6758SOL    HW121173   4.383   2.406   6.027  0.1225  0.4922 -0.3765
 6758SOL    HW221174   4.508   2.348   5.938  0.1809 -0.1756  0.1272
 6759SOL     OW21175   0.198   6.486   2.984 -0.1931  0.6673 -0.1209
 6759SOL    HW121176   0.249   6.401   2.995 -0.7096  0.5164  1.2387
 6759SOL    HW221177   0.253   6.563   3.016 -0.2847  0.6637  0.0486
 6760SOL     OW21178   2.163   0.233   3.193  0.0263 -0.6594  0.0273
 6760SOL    HW121179   2.114   0.291   3.127  0.0526 -1.8917 -1.1330
 6760SOL    HW221180   2.097   0.178   3.245  0.0523 -0.3686  0.3694
 6761SOL     OW21181   0.618   0.612   5.971  0.0754  0.4419  0.2822
 6761SOL    HW121182   0.525   0.583   5.950  0.6964 -1.3831 -0.1660
 6761SOL    HW221183   0.617   0.669   6.053 -1.5374  1.3585 -0.3385
 6762SOL     OW21184   1.534   2.378   5.810  0.3827  0.2247 -0.5311
 6762SOL    HW121185   1.449   2.358   5.761  0.2744 -0.3053 -0.1430
 6762SOL    HW221186   1.514   2.441   5.886  0.3133  0.0173 -0.3754
 6763SOL     OW21187   2.501   6.923   6.651 -0.1513  0.4092  0.2698
 6763SOL    HW121188   2.481   6.825   6.652 -0.1295  0.2461 -2.8858
 6763SOL    HW221189   2.575   6.941   6.587 -0.4919  2.5412  0.3936
 6764SOL     OW21190   3.752   3.234   5.639 -0.0165 -0.0922  0.4234
 6764SOL    HW121191   3.828   3.184   5.680  2.1234  0.9603 -1.9489
 6764SOL    HW221192   3.720   3.305   5.701  0.5737 -0.8688  1.6528
 6765SOL     OW21193   3.534   3.031   3.664 -0.7130  0.1152 -0.4229
 6765SOL    HW121194   3.549   3.082   3.749  1.7782 -2.0196  0.5552
 6765SOL    HW221195   3.478   2.951   3.682 -0.0378 -0.4364 -0.7300
 6766SOL     OW21196   3.833   0.998   4.061 -0.2924 -0.4185 -0.2254
 6766SOL    HW121197   3.828   1.094   4.092  1.5662 -0.0851 -0.8350
 6766SOL    HW221198   3.767   0.944   4.113 -1.5004  1.2044  0.0345
 6767SOL     OW21199   4.087   0.695   5.173  0.1549 -0.3584  0.1782
 6767SOL    HW121200   4.071   0.626   5.103  0.0828 -0.9780  0.7871
 6767SOL    HW221201   4.136   0.772   5.134  1.8997 -1.5638 -0.1160
 6768SOL     OW21202   5.214   3.996   4.470 -0.5194 -0.5872  0.1174
 6768SOL    HW121203   5.230   3.964   4.377 -0.8196 -1.0232  0.2130
 6768SOL    HW221204   5.246   3.928   4.535  0.6309  0.1569  0.3551
 6769SOL     OW21205   5.046   0.249   3.561 -0.3056 -0.2134 -0.9896
 6769SOL    HW121206   5.129   0.234   3.615 -1.8532 -1.7484  1.1363
 6769SOL    HW221207   5.047   0.189   3.481  1.0699  0.5744 -1.6169
 6770SOL     OW21208   5.821   1.071   2.923  0.5095 -0.0349  0.5505
 6770SOL    HW121209   5.774   1.111   3.002 -0.4194 -0.0150  0.0006
 6770SOL    HW221210   5.787   0.978   2.908  0.1512  0.2209 -0.2601
 6771SOL     OW21211   0.114   1.391   5.265  0.0257 -0.0588  0.3110
 6771SOL    HW121212   0.173   1.445   5.324 -2.7523  3.6907  0.0000
 6771SOL    HW221213   0.142   1.403   5.169  0.8238 -1.2323  0.3651
 6772SOL     OW21214   0.951   0.188   4.604  0.0562 -0.0852  0.1973
 6772SOL    HW121215   1.015   0.190   4.527  0.6512  0.4262  0.6910
 6772SOL    HW221216   0.988   0.243   4.679 -0.6339 -0.3693  0.7561
 6773SOL     OW21217   3.929   3.116   5.242  0.4896 -0.2480 -0.5529
 6773SOL    HW121218   3.907   3.137   5.146  1.5187 -0.9003 -0.9417
 6773SOL    HW221219   4.007   3.054   5.246  0.3453 -0.3743  0.7155
 6774SOL     OW21220   6.803   5.790   5.689 -0.4691 -0.1715 -0.0793
 6774SOL    HW121221   6.864   5.851   5.739 -0.9364  0.8618 -0.7276
 6774SOL    HW221222   6.725   5.766   5.746 -0.1498 -0.3869  0.2714
 6775SOL     OW21223   4.125   3.271   5.891  0.4886  0.3096 -0.0307
 6775SOL    HW121224   4.057   3.344   5.892  0.6111  0.4227  0.1403
 6775SOL    HW221225   4.082   3.186   5.861 -0.1477 -0.0198  1.7179
 6776SOL     OW21226   0.023   4.099   0.369 -0.5174  0.0167  0.2905
 6776SOL    HW121227   0.032   4.000   0.357 -0.2542  0.2001 -1.1991
 6776SOL    HW221228   0.107   4.144   0.339 -0.5658  0.6908  1.1311
 6777SOL     OW21229   4.324   2.612   5.917 -0.5519 -0.5297  0.4047
 6777SOL    HW121230   4.424   2.603   5.915 -0.6098 -1.7553  1.6409
 6777SOL    HW221231   4.299   2.707   5.898  0.8560 -0.1174  0.4722
 6778SOL     OW21232   3.850   5.443   4.279  0.0641  0.1313  0.0909
 6778SOL    HW121233   3.845   5.357   4.228 -0.3029  0.8542 -1.1192
 6778SOL    HW221234   3.811   5.517   4.225 -4.3728  0.2546  2.9778
 6779SOL     OW21235   5.647   4.781   2.516 -0.2076  0.0395  0.1794
 6779SOL    HW121236   5.605   4.800   2.605 -0.8273 -0.9128  0.1043
 6779SOL    HW221237   5.606   4.699   2.477  2.1095 -1.2721  0.3298
 6780SOL     OW21238   2.124   2.708   1.806 -0.4270 -0.3387  0.3500
 6780SOL    HW121239   2.220   2.697   1.829  0.0343  0.4086 -1.0556
 6780SOL    HW221240   2.082   2.776   1.867  0.7799  1.7041 -0.9730
 6781SOL     OW21241   5.539   1.689   6.659  0.0710 -0.5969  0.1984
 6781SOL    HW121242   5.519   1.787   6.658 -0.5094 -0.7045 -1.3460
 6781SOL    HW221243   5.616   1.671   6.720 -1.0262  0.5656  2.0049
 6782SOL     OW21244   1.591   4.586   4.517  0.2865  0.4816 -0.0791
 6782SOL    HW121245   1.515   4.626   4.466  1.4502  1.3602 -1.1721
 6782SOL    HW221246   1.677   4.619   4.480  1.2031  0.4999  1.9361
 6783SOL     OW21247   0.411   2.000   2.175  0.3768 -0.1196  0.0122
 6783SOL    HW121248   0.501   2.012   2.216 -0.1099 -0.1646  1.1225
 6783SOL    HW221249   0.406   2.052   2.090  1.5649 -0.4079 -0.2575
 6784SOL     OW21250   5.892   1.822   2.614  0.0196 -0.3811  0.5615
 6784SOL    HW121251   5.944   1.745   2.649  1.6641 -0.0046 -0.9139
 6784SOL    HW221252   5.896   1.822   2.514 -3.1002 -0.4877  0.3171
 6785SOL     OW21253   6.431   1.473   2.798  0.1008  0.9806 -0.0166
 6785SOL    HW121254   6.439   1.441   2.893  0.3454  1.9071  0.2869
 6785SOL    HW221255   6.519   1.460   2.752 -0.4134 -0.8412 -0.5882
 6786SOL     OW21256   3.855   1.222   2.092 -0.2016  0.3635 -0.3827
 6786SOL    HW121257   3.787   1.263   2.152  1.8128  0.1745  2.1646
 6786SOL    HW221258   3.912   1.294   2.052 -1.3188  0.4620 -1.8980
 6787SOL     OW21259   1.370   1.742   5.904 -0.4818 -0.1751  0.1793
 6787SOL    HW121260   1.359   1.831   5.950  1.1100  0.2354 -0.1608
 6787SOL    HW221261   1.452   1.697   5.940  0.4763 -0.0964 -1.8087
 6788SOL     OW21262   3.639   0.790   5.665 -0.9533 -0.1876 -0.2460
 6788SOL    HW121263   3.705   0.821   5.596 -1.1180  0.8043  0.0171
 6788SOL    HW221264   3.595   0.870   5.707  1.7300 -0.4508  3.5824
 6789SOL     OW21265   3.383   6.398   0.738 -0.1386 -0.0747  0.0242
 6789SOL    HW121266   3.285   6.413   0.752  0.0807  2.0288 -0.3646
 6789SOL    HW221267   3.397   6.347   0.653 -0.8810 -0.0578 -0.1112
 6790SOL     OW21268   0.061   1.684   3.853  0.1020 -0.4041 -0.6591
 6790SOL    HW121269   0.067   1.780   3.881 -3.0895  0.1941 -1.5654
 6790SOL    HW221270   0.001   1.635   3.917 -1.6938 -0.6980 -2.4634
 6791SOL     OW21271   2.454   1.468   2.683 -0.0791  0.3091 -0.3207
 6791SOL    HW121272   2.363   1.464   2.642 -0.7834  0.2361  1.1475
 6791SOL    HW221273   2.513   1.400   2.640 -0.5992  0.6080 -1.5465
 6792SOL     OW21274   6.998   4.407   4.363 -0.7760 -0.9263 -0.2394
 6792SOL    HW121275   6.942   4.375   4.287 -2.8220  1.1849  0.2682
 6792SOL    HW221276   6.945   4.404   4.448  0.0750  0.5421  0.3856
 6793SOL     OW21277   3.510   6.293   3.051 -0.3602 -0.3864  0.2699
 6793SOL    HW121278   3.517   6.382   3.095 -0.3013 -0.6687  0.8346
 6793SOL    HW221279   3.416   6.261   3.053 -0.9604  0.9242 -2.4547
 6794SOL     OW21280   6.250   4.157   6.989 -0.1313 -0.0281 -0.1852
 6794SOL    HW121281   6.270   4.175   6.893 -0.1393 -0.8778 -0.3546
 6794SOL    HW221282   6.151   4.150   7.002 -0.0888 -2.8523 -0.7143
 6795SOL     OW21283   1.298   2.276   5.994 -0.9290  0.0082  0.8471
 6795SOL    HW121284   1.234   2.258   6.068 -0.9271 -4.5288 -0.0171
 6795SOL    HW221285   1.306   2.196   5.935  3.1788  1.4471 -0.9713
 6796SOL     OW21286   6.223   0.109   0.514 -0.1038  0.2570  0.5681
 6796SOL    HW121287   6.148   0.169   0.542 -0.9027  0.2145 -1.3044
 6796SOL    HW221288   6.207   0.017   0.549 -1.5170 -0.0017 -0.6487
 6797SOL     OW21289   4.493   4.506   2.809 -0.0634 -0.0682  0.1941
 6797SOL    HW121290   4.450   4.417   2.789  1.1806 -0.3078 -1.7647
 6797SOL    HW221291   4.586   4.491   2.842  0.6545  0.4721 -1.4691
 6798SOL     OW21292   0.399   5.308   2.618 -0.3283  0.3203  0.5639
 6798SOL    HW121293   0.479   5.359   2.589  0.2983 -0.9783 -0.0621
 6798SOL    HW221294   0.409   5.282   2.714 -0.2636  0.6297  0.6418
 6799SOL     OW21295   6.603   3.094   0.670  0.5440  0.0676  0.2839
 6799SOL    HW121296   6.665   3.053   0.604  0.4133  1.8643 -1.0237
 6799SOL    HW221297   6.590   3.031   0.747  4.3346 -0.2232  0.8928
 6800SOL     OW21298   6.505   3.407   2.305 -0.2858 -0.0657 -0.0279
 6800SOL    HW121299   6.507   3.455   2.393  0.6612  1.2399 -0.7156
 6800SOL    HW221300   6.435   3.336   2.308 -1.6323  1.2116  1.1430
 6801SOL     OW21301   2.783   3.693   1.668  0.2964  0.2579 -0.1180
 6801SOL    HW121302   2.868   3.721   1.713  0.8098 -0.8429 -0.3739
 6801SOL    HW221303   2.804   3.651   1.579  0.0520 -4.6074  1.8004
 6802SOL     OW21304   3.587   1.859   5.660  0.0305 -0.0137 -0.2375
 6802SOL    HW121305   3.505   1.902   5.698 -0.2611 -1.8322  1.3791
 6802SOL    HW221306   3.665   1.878   5.719  0.4842  0.5578 -1.0140
 6803SOL     OW21307   0.623   3.244   5.110 -0.5284 -0.2403 -0.1950
 6803SOL    HW121308   0.622   3.335   5.149  1.1012 -0.4035  0.2836
 6803SOL    HW221309   0.661   3.248   5.017 -0.9214 -0.3716 -0.3645
 6804SOL     OW21310   6.007   4.542   2.409 -0.2618  0.1974 -0.1425
 6804SOL    HW121311   5.933   4.477   2.424 -0.5791  0.3788 -0.8936
 6804SOL    HW221312   5.976   4.614   2.347  0.4792  0.3950 -0.2912
 6805SOL     OW21313   2.088   6.608   0.013 -0.1026  0.0880 -0.0397
 6805SOL    HW121314   2.186   6.594   0.027  0.3824  2.2199 -0.8520
 6805SOL    HW221315   2.074   6.690  -0.044 -2.3747  0.2882  0.7085
 6806SOL     OW21316   4.805   1.231   3.064 -0.4787  0.2109  0.2030
 6806SOL    HW121317   4.831   1.311   3.119 -0.2411  0.2588  0.0205
 6806SOL    HW221318   4.738   1.259   2.995  0.3993  0.4837 -0.5664
 6807SOL     OW21319   4.606   4.861   1.394  0.4330  0.5996 -0.1770
 6807SOL    HW121320   4.694   4.843   1.437  0.5642  2.9045  0.6336
 6807SOL    HW221321   4.582   4.957   1.406 -2.2783  0.0122 -0.2217
 6808SOL     OW21322   6.338   1.919   2.021  0.0592 -0.1325  0.7699
 6808SOL    HW121323   6.339   2.012   1.983 -2.3133  0.2479  1.4595
 6808SOL    HW221324   6.387   1.919   2.109  0.7551  0.2583  0.3938
 6809SOL     OW21325   1.032   4.171   0.613  0.2363  0.2455  0.0087
 6809SOL    HW121326   1.042   4.167   0.712  0.7653 -0.5899 -0.0716
 6809SOL    HW221327   1.107   4.121   0.569 -1.9410 -2.7069 -0.7043
 6810SOL     OW21328   5.833   0.828   6.429  0.3653  0.1989 -0.3486
 6810SOL    HW121329   5.776   0.818   6.510 -0.5982  1.7442 -0.7781
 6810SOL    HW221330   5.926   0.852   6.456  0.5969 -1.3514  0.3293
 6811SOL     OW21331   3.690   6.560   5.323 -0.0827  0.3279 -0.4677
 6811SOL    HW121332   3.782   6.598   5.318 -1.0522  2.6580 -2.5041
 6811SOL    HW221333   3.631   6.624   5.373 -0.7428 -0.9151  0.4020
 6812SOL     OW21334   6.562   0.731   1.989  0.3737  0.1694  0.9814
 6812SOL    HW121335   6.475   0.764   2.026 -0.0038  2.3083 -1.5153
 6812SOL    HW221336   6.546   0.678   1.906  1.4239  2.0993 -0.5394
 6813SOL     OW21337   3.513   4.787   6.017  0.2744  0.0735  0.4798
 6813SOL    HW121338   3.565   4.755   6.096  2.6514 -0.8096 -1.2976
 6813SOL    HW221339   3.427   4.736   6.010  0.5325 -0.5951  1.8541
 6814SOL     OW21340   5.768   6.995   1.451 -0.3831  0.1236  0.4466
 6814SOL    HW121341   5.728   7.035   1.533 -2.1033  0.1107 -0.3347
 6814SOL    HW221342   5.833   6.923   1.477 -2.9657 -1.8612  1.8261
 6815SOL     OW21343   1.265   2.133   4.425 -0.8635  0.5865  0.2405
 6815SOL    HW121344   1.203   2.209   4.445 -2.0369 -0.7035  1.7765
 6815SOL    HW221345   1.212   2.050   4.407  0.3953 -0.0292 -0.8396
 6816SOL     OW21346   5.018   6.672   2.024  0.1087 -0.3275  0.1183
 6816SOL    HW121347   4.939   6.611   2.030  0.6060 -1.2542 -1.8634
 6816SOL    HW221348   5.094   6.633   2.076 -0.6938  0.5711  2.0378
 6817SOL     OW21349   0.000   5.766   1.487 -0.3314 -0.0319  0.0271
 6817SOL    HW121350   0.060   5.842   1.462 -0.5447  0.6350  1.4499
 6817SOL    HW221351  -0.084   5.771   1.433  0.3571 -0.2556 -1.0933
 6818SOL     OW21352   3.203   5.995   4.906  0.0457  0.2921  0.1514
 6818SOL    HW121353   3.120   5.998   4.851  1.8180  2.4496 -2.7840
 6818SOL    HW221354   3.249   5.907   4.893 -0.2749  0.2508 -0.7964
 6819SOL     OW21355   2.141   0.582   3.653  0.3376 -0.2491  0.3280
 6819SOL    HW121356   2.186   0.581   3.743  1.9668  2.5419 -0.3179
 6819SOL    HW221357   2.200   0.538   3.586  0.1279 -0.3945  0.2396
 6820SOL     OW21358   5.063   1.335   1.600 -0.1128 -0.3089  0.1392
 6820SOL    HW121359   5.009   1.334   1.684 -0.8669  0.5243 -0.3258
 6820SOL    HW221360   5.043   1.417   1.548  0.1974 -0.9131 -0.9701
 6821SOL     OW21361   4.848   4.004   2.134 -0.9530  0.2543 -0.1749
 6821SOL    HW121362   4.856   4.066   2.211 -0.0357  0.7437 -0.6444
 6821SOL    HW221363   4.786   4.043   2.066 -1.4587  0.0047  0.1430
 6822SOL     OW21364   3.297   2.160   1.857 -0.1213  0.2582 -0.0192
 6822SOL    HW121365   3.337   2.231   1.799  0.1363  1.2114  1.2615
 6822SOL    HW221366   3.370   2.117   1.910 -0.5990  1.1661  1.4405
 6823SOL     OW21367   4.736   2.293   1.227  0.2655  0.0113 -0.8857
 6823SOL    HW121368   4.679   2.278   1.147  0.8814  0.0486 -1.3415
 6823SOL    HW221369   4.681   2.331   1.301  0.1811  2.5642 -2.1517
 6824SOL     OW21370   2.127   3.383   2.552  0.7154  0.3468  0.4387
 6824SOL    HW121371   2.148   3.287   2.532 -1.6592 -0.1475  0.0675
 6824SOL    HW221372   2.139   3.400   2.649 -1.2646 -1.0461  0.9831
 6825SOL     OW21373   5.495   5.025   0.737  0.8673  0.5978 -0.0608
 6825SOL    HW121374   5.533   5.116   0.752 -0.2844  1.4362 -1.8027
 6825SOL    HW221375   5.432   5.028   0.659 -1.8919 -0.9175  1.9183
 6826SOL     OW21376   1.951   5.202   1.308  0.2845 -0.2495 -0.4544
 6826SOL    HW121377   1.881   5.256   1.261 -0.0880  0.3470  0.7586
 6826SOL    HW221378   1.908   5.124   1.354  0.5836 -0.5352 -0.6482
 6827SOL     OW21379   2.394   6.117   5.903 -0.5987  0.5563  0.1703
 6827SOL    HW121380   2.361   6.201   5.946 -0.9702  0.1671  0.6433
 6827SOL    HW221381   2.323   6.047   5.905 -0.5730  0.4678 -0.9287
 6828SOL     OW21382   5.541   6.721   0.769 -0.0328  0.0176  0.3294
 6828SOL    HW121383   5.480   6.649   0.801  0.3094 -0.6365 -0.4684
 6828SOL    HW221384   5.575   6.773   0.847 -0.3573 -0.6154  0.9013
 6829SOL     OW21385   3.701   3.154   4.336 -0.5682 -0.7571  0.2370
 6829SOL    HW121386   3.679   3.205   4.253  0.1064  0.7941  0.9764
 6829SOL    HW221387   3.643   3.185   4.411  1.0029  0.2070  1.1144
 6830SOL     OW21388   0.341   5.634   3.665  0.2643  0.1943  0.4047
 6830SOL    HW121389   0.257   5.587   3.637  1.7180 -0.7440 -2.9227
 6830SOL    HW221390   0.383   5.585   3.741 -0.6330 -1.1404  0.0769
 6831SOL     OW21391   1.918   1.687   1.560  0.6021 -0.6128 -0.4715
 6831SOL    HW121392   1.983   1.697   1.635 -0.2387 -0.9660  0.3251
 6831SOL    HW221393   1.949   1.615   1.498  1.6772  0.1840 -0.8760
 6832SOL     OW21394   0.592   4.376   5.421  0.6097 -0.3515 -0.1786
 6832SOL    HW121395   0.525   4.422   5.362  0.0326 -2.1768 -1.0429
 6832SOL    HW221396   0.637   4.443   5.479 -0.3730  1.2339 -1.1621
 6833SOL     OW21397   6.685   0.793   5.747 -0.3497  0.3461  0.5225
 6833SOL    HW121398   6.611   0.860   5.739 -0.9619 -0.4929 -1.3202
 6833SOL    HW221399   6.651   0.703   5.723  0.9141 -0.3365  1.1967
 6834SOL     OW21400   6.403   2.950   5.171 -0.2975  0.0386 -0.5250
 6834SOL    HW121401   6.425   2.855   5.193  1.9004  0.8171  0.9722
 6834SOL    HW221402   6.305   2.967   5.188 -0.3926 -1.5654  0.7052
 6835SOL     OW21403   1.800   3.730   4.630  0.2101 -0.2144  0.0371
 6835SOL    HW121404   1.843   3.790   4.563 -0.6979  0.2697 -0.1374
 6835SOL    HW221405   1.845   3.742   4.719  0.5166  0.1827 -0.1688
 6836SOL     OW21406   5.263   5.873   0.410 -0.1077  0.1881  0.1256
 6836SOL    HW121407   5.294   5.956   0.363 -1.4595  0.0927 -1.0019
 6836SOL    HW221408   5.168   5.855   0.386  0.1370 -1.6513  0.4236
 6837SOL     OW21409   0.501   5.776   6.043  0.3145  0.0823  0.0389
 6837SOL    HW121410   0.558   5.833   6.102  1.0730 -1.0536  0.4323
 6837SOL    HW221411   0.559   5.725   5.980 -0.2515 -1.0820  0.4385
 6838SOL     OW21412   5.049   2.002   3.750  0.2693  0.3427 -0.4588
 6838SOL    HW121413   5.147   1.980   3.752 -0.0376 -1.1238 -0.4089
 6838SOL    HW221414   5.030   2.075   3.816  1.1637 -0.1555  0.3899
 6839SOL     OW21415   2.542   2.365   2.218  0.1862 -0.0139  0.4630
 6839SOL    HW121416   2.501   2.289   2.269 -0.5244 -1.1886 -1.7362
 6839SOL    HW221417   2.505   2.451   2.251  0.4109 -0.6281  2.4851
 6840SOL     OW21418   2.183   6.739   5.125 -0.4047  0.1654 -0.0465
 6840SOL    HW121419   2.280   6.718   5.140 -0.8203  0.3603  3.8376
 6840SOL    HW221420   2.170   6.839   5.129 -1.0017  0.0536  2.0445
 6841SOL     OW21421   6.291   3.520   4.699  0.0851  0.3010  0.6217
 6841SOL    HW121422   6.389   3.526   4.714  0.0181  0.8093  0.9212
 6841SOL    HW221423   6.246   3.492   4.784 -0.0947  0.9098  0.7395
 6842SOL     OW21424   2.095   4.292   4.211  0.0039 -0.1840  0.3489
 6842SOL    HW121425   2.120   4.328   4.121  2.1158 -1.5915  0.3143
 6842SOL    HW221426   2.113   4.362   4.280 -1.1677  0.7304 -0.2223
 6843SOL     OW21427   6.470   2.469   5.348  0.2808  0.2728 -0.3817
 6843SOL    HW121428   6.401   2.397   5.355  0.3627  0.2319  0.0548
 6843SOL    HW221429   6.525   2.455   5.266  1.1282 -0.9154  0.3414
 6844SOL     OW21430   1.055   3.927   6.547  0.0574 -0.0708  0.6094
 6844SOL    HW121431   1.011   4.001   6.495  0.0156  0.1988  1.0172
 6844SOL    HW221432   1.145   3.908   6.508  0.0331  0.1385  0.4463
 6845SOL     OW21433   6.485   0.750   3.586 -0.1270  0.4826  0.0202
 6845SOL    HW121434   6.554   0.768   3.656 -1.7429 -0.5600  1.9921
 6845SOL    HW221435   6.504   0.662   3.542 -0.6873 -0.2719  1.2418
 6846SOL     OW21436   1.155   3.898   4.184 -0.0101 -0.1503 -0.1887
 6846SOL    HW121437   1.220   3.833   4.223 -0.7742 -0.8370 -0.0203
 6846SOL    HW221438   1.062   3.860   4.192 -0.4620  0.9451 -0.1365
 6847SOL     OW21439   0.895   3.128   0.573 -0.0056 -0.5962 -0.0316
 6847SOL    HW121440   0.907   3.131   0.474 -1.1561  0.3182 -0.1660
 6847SOL    HW221441   0.935   3.210   0.614 -3.1172  1.1625 -0.2202
 6848SOL     OW21442   0.437   4.181   0.033  0.4357  1.0517  0.0842
 6848SOL    HW121443   0.507   4.202  -0.035  0.5791 -2.3927 -1.0447
 6848SOL    HW221444   0.470   4.107   0.092 -2.5955 -1.6106 -1.2934
 6849SOL     OW21445   2.464   6.936   2.759  0.3518  0.0993 -0.3587
 6849SOL    HW121446   2.431   7.003   2.693 -1.3344 -1.7795 -1.5491
 6849SOL    HW221447   2.390   6.910   2.820  1.3116  0.1928  0.8851
 6850SOL     OW21448   4.339   0.867   6.606 -0.0959  0.5520 -0.0852
 6850SOL    HW121449   4.290   0.781   6.622  0.1098  0.8028  2.2236
 6850SOL    HW221450   4.438   0.849   6.606 -0.0451  0.7832  0.5950
 6851SOL     OW21451   4.970   4.440   4.003  0.5360  0.0452 -0.0389
 6851SOL    HW121452   4.992   4.530   4.041 -0.9383  0.1244  0.7062
 6851SOL    HW221453   5.003   4.369   4.065 -2.6090  0.1804  2.0280
 6852SOL     OW21454   1.536   5.865   2.060 -0.4586  0.6045 -0.0003
 6852SOL    HW121455   1.599   5.821   1.995 -0.0171 -0.2662  0.9844
 6852SOL    HW221456   1.565   5.959   2.076 -1.2188  1.2120 -1.8823
 6853SOL     OW21457   1.104   0.866   1.155  0.1693 -0.1608  0.0160
 6853SOL    HW121458   1.015   0.835   1.121 -1.0793  1.8302  1.2476
 6853SOL    HW221459   1.157   0.904   1.079 -0.8726  0.4518 -0.4347
 6854SOL     OW21460   0.784   6.956   1.955 -0.4093  0.4531  0.0514
 6854SOL    HW121461   0.765   6.917   1.865 -0.2265  1.6360 -0.5114
 6854SOL    HW221462   0.832   6.888   2.010 -1.9215 -0.8679 -0.1569
 6855SOL     OW21463   5.262   4.832   3.315 -0.0612  0.1819 -0.5147
 6855SOL    HW121464   5.341   4.787   3.273  0.1150  0.7564 -0.8173
 6855SOL    HW221465   5.274   4.932   3.310  0.1420  0.2776  1.2309
 6856SOL     OW21466   3.026   4.752   6.702 -0.0713  0.3726  0.3050
 6856SOL    HW121467   2.934   4.772   6.737 -1.1108  0.8630 -2.4790
 6856SOL    HW221468   3.024   4.665   6.653  0.8338  0.6088 -0.1561
 6857SOL     OW21469   4.306   1.960   0.967 -0.4284 -0.2343  0.0612
 6857SOL    HW121470   4.349   1.938   1.055 -1.3357 -2.2334  0.0694
 6857SOL    HW221471   4.231   2.024   0.982 -1.4203 -1.5450  0.9926
 6858SOL     OW21472   0.733   1.256   0.967  0.6148 -0.2058 -0.3332
 6858SOL    HW121473   0.791   1.301   1.034  0.0016 -0.2131  0.2139
 6858SOL    HW221474   0.739   1.157   0.979  1.4290 -0.2612 -1.0849
 6859SOL     OW21475   2.535   4.471   3.726 -0.1907 -0.4498 -0.3710
 6859SOL    HW121476   2.541   4.533   3.647  1.3995  0.0865  0.1254
 6859SOL    HW221477   2.615   4.412   3.728 -1.2183 -1.8794 -0.2758
 6860SOL     OW21478   5.898   3.721   4.973  0.2628  0.4338 -0.4533
 6860SOL    HW121479   5.998   3.726   4.977  0.1989  1.5380  1.4975
 6860SOL    HW221480   5.865   3.664   5.048 -0.5787 -0.0331 -1.1663
 6861SOL     OW21481   3.793   0.852   2.505  0.0653  0.0201 -0.3481
 6861SOL    HW121482   3.739   0.860   2.422 -1.5479 -0.2544  0.6342
 6861SOL    HW221483   3.864   0.922   2.505  0.7037 -0.5614 -2.3593
 6862SOL     OW21484   3.068   3.719   4.969  0.1887 -0.0929 -0.0793
 6862SOL    HW121485   3.018   3.635   4.944 -1.5592  0.1210  2.3371
 6862SOL    HW221486   3.028   3.797   4.921  0.3882 -0.3518 -0.6747
 6863SOL     OW21487   6.761   0.292   1.955 -0.2330  0.0651 -0.4765
 6863SOL    HW121488   6.781   0.377   2.003 -0.1251 -0.0066 -0.3930
 6863SOL    HW221489   6.782   0.303   1.857  2.4897 -0.6990 -0.0803
 6864SOL     OW21490   4.307   6.385   1.026 -0.2923 -0.7608 -0.3663
 6864SOL    HW121491   4.311   6.474   0.980 -0.6988 -1.6491 -2.2168
 6864SOL    HW221492   4.248   6.392   1.107  2.3171  1.4356  1.5347
 6865SOL     OW21493   1.325   2.983   6.902  0.6981 -0.5573  0.5791
 6865SOL    HW121494   1.310   2.975   6.804 -0.9745 -0.2616  0.7656
 6865SOL    HW221495   1.286   2.903   6.948  1.1427 -0.5182  1.0261
 6866SOL     OW21496   0.871   3.403   4.420  0.3902  0.1056  0.2429
 6866SOL    HW121497   0.822   3.384   4.335 -0.8186 -0.1161  0.9688
 6866SOL    HW221498   0.863   3.499   4.443  0.0979  0.0250  0.4813
 6867SOL     OW21499   2.206   2.238   6.990  0.4549 -0.0447  0.4476
 6867SOL    HW121500   2.149   2.156   6.995  0.8747 -0.3138  0.8745
 6867SOL    HW221501   2.233   2.265   7.083  0.7427  0.2741  0.2702
 6868SOL     OW21502   1.367   3.648   3.256  0.6485  0.0284 -0.3160
 6868SOL    HW121503   1.366   3.687   3.348  0.7500  1.6147 -0.9437
 6868SOL    HW221504   1.308   3.703   3.197  0.8870 -0.7394 -1.2851
 6869SOL     OW21505   6.796   1.201   2.518 -0.4827 -0.4785  0.0115
 6869SOL    HW121506   6.794   1.214   2.419  0.6816 -2.5526 -0.3433
 6869SOL    HW221507   6.708   1.164   2.549  0.0855 -2.6359 -0.7704
 6870SOL     OW21508   6.835   1.058   1.811 -0.0078  0.1295  0.1915
 6870SOL    HW121509   6.923   1.068   1.856 -1.0026  0.9629  2.0466
 6870SOL    HW221510   6.785   0.981   1.850  0.3025 -1.0897 -1.6529
 6871SOL     OW21511   3.020   3.903   3.086 -0.1159 -0.4823  0.0957
 6871SOL    HW121512   2.986   3.904   2.992  0.1766 -0.7230 -0.0151
 6871SOL    HW221513   3.022   3.809   3.120  3.3025 -0.9421 -0.9814
 6872SOL     OW21514   5.808   0.967   3.435  0.5270  0.2214 -0.4759
 6872SOL    HW121515   5.899   0.985   3.472  0.1459  2.8559 -0.5935
 6872SOL    HW221516   5.758   0.906   3.497  1.8363 -0.0347  0.3601
 6873SOL     OW21517   0.918   3.703   5.493 -0.0292  0.1885  0.5146
 6873SOL    HW121518   0.922   3.792   5.447 -0.3714 -0.5050 -0.9390
 6873SOL    HW221519   0.975   3.637   5.443  1.4413 -0.0835  2.4228
 6874SOL     OW21520   5.331   0.067   5.857  0.1562  0.7050  0.1017
 6874SOL    HW121521   5.241   0.032   5.832  0.5531 -0.6762  0.5093
 6874SOL    HW221522   5.375   0.105   5.776 -0.9597  1.8399 -0.0080
 6875SOL     OW21523   2.822   1.345   0.962  0.0611 -0.6737  0.0601
 6875SOL    HW121524   2.746   1.285   0.985  0.1107 -1.0447 -0.7107
 6875SOL    HW221525   2.855   1.391   1.044 -1.3726 -0.0600  0.3221
 6876SOL     OW21526   3.277   5.152   1.323  0.2834 -0.3247 -0.9693
 6876SOL    HW121527   3.209   5.223   1.307  0.8350  0.2705 -0.7129
 6876SOL    HW221528   3.235   5.077   1.374 -0.4517 -0.4531 -1.7394
 6877SOL     OW21529   4.007   1.410   1.203  0.0577  0.4613 -0.1444
 6877SOL    HW121530   4.024   1.386   1.108 -3.8680 -0.3769 -0.8251
 6877SOL    HW221531   3.991   1.508   1.211  0.9710  0.6204 -0.2198
 6878SOL     OW21532   3.847   0.619   6.882 -0.6199  0.3054  0.2260
 6878SOL    HW121533   3.828   0.587   6.789 -0.1927  1.1516 -0.1587
 6878SOL    HW221534   3.792   0.700   6.901 -1.5176 -0.4957  1.1096
 6879SOL     OW21535   0.872   0.317   3.811 -0.1844 -1.2588  0.3508
 6879SOL    HW121536   0.964   0.279   3.815  0.1455 -0.7724 -1.5742
 6879SOL    HW221537   0.833   0.300   3.720 -0.5458  1.6612 -0.1534
 6880SOL     OW21538   2.415   1.008   2.887  0.4283 -0.1196 -0.5618
 6880SOL    HW121539   2.369   0.924   2.917  0.5695 -0.5034 -1.3937
 6880SOL    HW221540   2.384   1.085   2.943 -0.0082 -0.6543 -0.0561
 6881SOL     OW21541   4.989   3.281   2.149 -0.1324 -0.1835  0.1006
 6881SOL    HW121542   5.064   3.345   2.137  0.4786 -0.8748  0.1800
 6881SOL    HW221543   4.957   3.250   2.060 -0.1905 -0.0475  0.0734
 6882SOL     OW21544   0.290   6.533   2.090  0.1481 -0.1565 -0.3484
 6882SOL    HW121545   0.252   6.589   2.163 -1.1850 -0.7321 -0.5773
 6882SOL    HW221546   0.367   6.479   2.125  0.6195  0.8433  0.1796
 6883SOL     OW21547   0.047   3.996   4.888 -0.3979 -0.0751 -0.7592
 6883SOL    HW121548   0.135   3.973   4.847 -0.3362 -1.0443 -0.1001
 6883SOL    HW221549   0.059   4.073   4.952  0.3350 -1.3311  0.6735
 6884SOL     OW21550   5.014   2.504   1.680  0.1046  0.4631  0.1385
 6884SOL    HW121551   4.978   2.590   1.646 -0.2754  0.5498  0.7486
 6884SOL    HW221552   5.072   2.520   1.760 -0.0499  0.1476  0.3185
 6885SOL     OW21553   6.240   5.814   0.935 -0.0922  0.9329 -0.3227
 6885SOL    HW121554   6.173   5.754   0.979  2.4233 -0.0230  2.5599
 6885SOL    HW221555   6.270   5.772   0.849 -0.4682 -0.4943  0.2078
 6886SOL     OW21556   0.278   2.946   0.606 -0.6622  0.0189 -0.9186
 6886SOL    HW121557   0.321   2.996   0.531  3.5231 -0.7788  0.6292
 6886SOL    HW221558   0.255   2.853   0.576  0.0435  0.0204 -1.5010
 6887SOL     OW21559   5.924   2.787   6.018 -0.7014 -0.0376 -0.0061
 6887SOL    HW121560   6.019   2.771   6.046 -0.8594 -1.2730 -0.0946
 6887SOL    HW221561   5.923   2.831   5.928 -0.1932 -0.8963 -0.4516
 6888SOL     OW21562   4.718   1.713   2.561  0.3035  0.6059 -0.3752
 6888SOL    HW121563   4.700   1.618   2.589 -1.6512  1.1331  0.3025
 6888SOL    HW221564   4.813   1.735   2.580  0.8280 -1.2349 -0.6138
 6889SOL     OW21565   3.256   5.792   0.790  0.3037  0.3286  0.5514
 6889SOL    HW121566   3.186   5.800   0.719  1.4906 -1.0030 -0.8302
 6889SOL    HW221567   3.306   5.707   0.779  0.0432 -0.3323  3.4995
 6890SOL     OW21568   5.534   6.384   6.404 -0.2914  0.0997  0.2570
 6890SOL    HW121569   5.550   6.442   6.325  0.6023 -0.5735 -0.0751
 6890SOL    HW221570   5.479   6.433   6.472  0.2299  1.2302 -0.1246
 6891SOL     OW21571   2.891   4.496   5.847  0.2469 -0.0737 -0.3546
 6891SOL    HW121572   2.955   4.558   5.802 -0.8719 -0.2997 -2.3755
 6891SOL    HW221573   2.812   4.481   5.788 -0.1077 -2.4501  0.5981
 6892SOL     OW21574   3.817   0.992   0.466 -0.2447  0.1226  0.1338
 6892SOL    HW121575   3.825   0.904   0.512  0.2161  0.9617  1.7466
 6892SOL    HW221576   3.872   0.991   0.383  0.7552 -0.7267  0.7692
 6893SOL     OW21577   3.991   1.598   0.075  0.1190 -0.4183  0.8767
 6893SOL    HW121578   4.036   1.627  -0.009  0.2259  1.0781  1.4269
 6893SOL    HW221579   4.060   1.562   0.139  0.7447  2.3767  1.9341
 6894SOL     OW21580   1.115   4.217   6.976 -0.3963  0.4120 -0.5689
 6894SOL    HW121581   1.154   4.281   6.911  0.9506  0.3330  0.1288
 6894SOL    HW221582   1.114   4.258   7.067  2.4243 -1.2134  0.3133
 6895SOL     OW21583   1.091   1.930   2.931 -0.3683  0.1646  0.3594
 6895SOL    HW121584   1.018   1.862   2.931 -0.7542  0.5736  0.0405
 6895SOL    HW221585   1.176   1.887   2.959 -0.7909 -0.2526  1.0232
 6896SOL     OW21586   1.450   3.972   1.138  0.3208  0.4147  0.3097
 6896SOL    HW121587   1.375   4.016   1.188  2.0528  3.8500  0.2093
 6896SOL    HW221588   1.508   3.921   1.202 -1.0380 -0.7352  0.6656
 6897SOL     OW21589   3.225   0.739   4.578  0.1922 -0.6871 -0.8254
 6897SOL    HW121590   3.130   0.707   4.581 -0.5098  1.3286  1.2394
 6897SOL    HW221591   3.283   0.676   4.631 -0.5537 -0.4238  0.3515
 6898SOL     OW21592   5.098   5.134   0.404  0.1711  0.2750  0.3935
 6898SOL    HW121593   5.097   5.234   0.411  0.5572  0.1950  1.9053
 6898SOL    HW221594   5.108   5.108   0.308  0.2580  1.6896 -0.0080
 6899SOL     OW21595   2.021   2.236   3.106 -0.2694  0.1880  0.1228
 6899SOL    HW121596   2.065   2.146   3.108  0.9969  0.7375  3.2550
 6899SOL    HW221597   1.945   2.237   3.171 -0.4387  1.2987 -0.0782
 6900SOL     OW21598   1.616   5.029   4.708  0.1239 -0.4506  0.1276
 6900SOL    HW121599   1.521   5.058   4.715 -0.2141 -1.2220 -0.8888
 6900SOL    HW221600   1.649   5.045   4.615  0.2972 -2.0989 -0.1402
 6901SOL     OW21601   2.165   5.745   2.732 -0.0856  0.2974  0.4342
 6901SOL    HW121602   2.113   5.803   2.668  2.1539 -0.9384 -2.7611
 6901SOL    HW221603   2.252   5.789   2.754  1.9926 -1.8394 -2.6378
 6902SOL     OW21604   1.303   1.899   0.560  0.7209  0.7050  0.1408
 6902SOL    HW121605   1.207   1.873   0.549  0.6632  1.2264 -0.6290
 6902SOL    HW221606   1.325   1.906   0.658 -0.0108  0.5474  0.3179
 6903SOL     OW21607   3.939   1.989   5.298  0.4850 -0.1028 -0.1961
 6903SOL    HW121608   3.943   2.070   5.240 -2.0244  0.2691  0.0480
 6903SOL    HW221609   3.862   1.997   5.361  0.3751 -2.5405  0.0676
 6904SOL     OW21610   4.804   2.856   2.458  0.2282 -0.7702  0.1369
 6904SOL    HW121611   4.779   2.887   2.366 -0.6237 -0.2145  0.5350
 6904SOL    HW221612   4.813   2.757   2.459  2.0226 -0.6642 -0.9481
 6905SOL     OW21613   0.635   6.775   2.801  0.1001 -0.1680  0.1428
 6905SOL    HW121614   0.623   6.776   2.900  0.6318 -1.2434  0.2353
 6905SOL    HW221615   0.695   6.699   2.775 -0.8905 -0.5751 -1.0960
 6906SOL     OW21616   1.974   5.524   3.098 -0.2744  0.0011 -0.1934
 6906SOL    HW121617   1.967   5.529   3.197 -0.5339 -0.2496 -0.1984
 6906SOL    HW221618   2.058   5.475   3.073 -0.1511  0.1643 -0.1005
 6907SOL     OW21619   2.106   5.713   3.425 -0.6038 -0.3301 -0.8223
 6907SOL    HW121620   2.013   5.721   3.390 -1.1697  0.3608  0.7684
 6907SOL    HW221621   2.119   5.623   3.466 -0.9459 -0.0442 -0.0621
 6908SOL     OW21622   0.908   1.077   6.377  0.8642  0.2181 -1.0206
 6908SOL    HW121623   0.849   1.156   6.362  1.7109  0.8792 -0.9193
 6908SOL    HW221624   0.871   1.021   6.451  0.3465  0.6009 -0.9854
 6909SOL     OW21625   6.433   4.720   2.948 -0.4431  0.0630  0.3566
 6909SOL    HW121626   6.528   4.693   2.966 -0.4177 -0.7438 -0.8951
 6909SOL    HW221627   6.391   4.751   3.033  0.2751 -1.6479  1.3918
 6910SOL     OW21628   6.341   1.358   1.406 -0.1115  0.5805  0.3220
 6910SOL    HW121629   6.271   1.424   1.432  1.9355  3.3329 -0.7313
 6910SOL    HW221630   6.390   1.328   1.488 -1.0713  0.2838  0.8112
 6911SOL     OW21631   2.966   4.047   1.537 -0.9230  0.0736  0.0136
 6911SOL    HW121632   2.961   4.109   1.616 -1.7181 -1.0819  0.8943
 6911SOL    HW221633   3.032   3.974   1.556 -1.0860 -0.1849 -0.4071
 6912SOL     OW21634   6.639   1.436   4.633 -0.9400  0.5763 -0.2230
 6912SOL    HW121635   6.617   1.390   4.547  0.9790  1.6646 -1.3733
 6912SOL    HW221636   6.692   1.375   4.691 -0.1778  0.6107 -0.8637
 6913SOL     OW21637   0.484   3.038   2.197  0.7374 -0.3810  0.1983
 6913SOL    HW121638   0.521   2.971   2.262  1.1148 -0.6369 -0.2699
 6913SOL    HW221639   0.491   3.130   2.236 -0.9739 -0.6970  1.4052
 6914SOL     OW21640   5.968   2.955   5.353 -0.1208  0.4308  0.9149
 6914SOL    HW121641   5.939   2.885   5.288  0.9276 -2.0922  2.9735
 6914SOL    HW221642   6.033   3.017   5.308 -0.5406 -0.3145 -0.8088
 6915SOL     OW21643   4.111   6.018   3.577  0.4381 -0.2368  0.1569
 6915SOL    HW121644   4.036   5.953   3.569  0.2236  0.1438 -1.0704
 6915SOL    HW221645   4.198   5.970   3.562  0.3004 -0.3098 -0.4352
 6916SOL     OW21646   2.107   0.299   3.985 -0.7563  0.2108 -0.5609
 6916SOL    HW121647   2.145   0.389   3.967 -0.3066  0.0091 -0.6253
 6916SOL    HW221648   2.007   0.303   3.977 -0.9861  1.2863  1.9159
 6917SOL     OW21649   1.048   1.489   1.223  0.0311  0.0509 -0.0397
 6917SOL    HW121650   1.047   1.391   1.242 -0.8009 -0.1743 -1.1390
 6917SOL    HW221651   1.029   1.504   1.126  2.1945  1.2191 -0.3385
 6918SOL     OW21652   3.288   3.753   6.137 -0.1359  0.1848  0.1746
 6918SOL    HW121653   3.321   3.740   6.043 -2.2493  1.1477 -0.7678
 6918SOL    HW221654   3.306   3.670   6.190  0.7378 -0.5347 -1.1729
 6919SOL     OW21655   4.446   6.045   0.674 -0.0214 -0.4084 -0.8744
 6919SOL    HW121656   4.380   6.113   0.642 -1.0102 -0.2488  1.3170
 6919SOL    HW221657   4.482   6.074   0.762 -0.7055 -2.8423  0.2817
 6920SOL     OW21658   4.347   2.188   6.408 -0.2184  0.7466  0.0614
 6920SOL    HW121659   4.276   2.225   6.348  0.3114  0.9572 -0.4426
 6920SOL    HW221660   4.304   2.136   6.482 -0.8657 -0.4052 -1.0791
 6921SOL     OW21661   0.948   6.365   0.855  0.4586  0.1574  0.6866
 6921SOL    HW121662   0.974   6.286   0.799  1.1236  3.0416 -3.5073
 6921SOL    HW221663   0.849   6.367   0.865  0.3502 -0.6670 -0.0867
 6922SOL     OW21664   4.711   1.242   4.129 -0.0442  0.7243 -0.1947
 6922SOL    HW121665   4.682   1.291   4.047 -0.7133 -0.5550 -0.7553
 6922SOL    HW221666   4.811   1.237   4.132 -0.0175  0.0982 -1.3863
 6923SOL     OW21667   4.867   0.338   6.843  0.2161 -0.1124 -0.2552
 6923SOL    HW121668   4.869   0.250   6.795  0.7096  0.1098 -0.6392
 6923SOL    HW221669   4.960   0.366   6.865 -0.0372 -0.9317  2.1540
 6924SOL     OW21670   5.759   4.857   0.274  0.6561 -0.1099  0.3981
 6924SOL    HW121671   5.808   4.780   0.315  1.7891 -0.6759 -1.8761
 6924SOL    HW221672   5.716   4.827   0.189  0.6943  1.6680 -0.2691
 6925SOL     OW21673   4.723   6.544   0.526  0.0593 -0.3362 -0.8160
 6925SOL    HW121674   4.748   6.530   0.430  0.5024  2.1774 -1.1352
 6925SOL    HW221675   4.632   6.507   0.542  0.4782 -1.9206 -1.8614
 6926SOL     OW21676   0.395   0.568   5.818  0.0989  0.3116  0.2954
 6926SOL    HW121677   0.387   0.645   5.755 -0.6737 -1.2065 -1.5741
 6926SOL    HW221678   0.455   0.499   5.778 -1.5757 -1.3458  0.5041
 6927SOL     OW21679   6.875   4.604   5.697 -0.1943 -0.0182 -0.7157
 6927SOL    HW121680   6.812   4.526   5.703  0.8149 -0.9269 -1.4517
 6927SOL    HW221681   6.953   4.587   5.756 -1.1910  1.7088  1.2307
 6928SOL     OW21682   5.542   1.681   2.140  0.4787 -0.6805 -0.4567
 6928SOL    HW121683   5.450   1.649   2.164  0.1132 -0.9137 -2.0796
 6928SOL    HW221684   5.586   1.718   2.222 -2.4886  3.0708 -0.2651
 6929SOL     OW21685   2.007   4.322   6.842 -0.4991 -0.1484 -0.0166
 6929SOL    HW121686   2.088   4.325   6.900 -0.9121  2.3450  0.5763
 6929SOL    HW221687   2.033   4.298   6.748  0.6315 -1.1048  0.5147
 6930SOL     OW21688   5.830   6.033   5.640 -0.6628  0.0146  0.3509
 6930SOL    HW121689   5.802   5.969   5.568  1.9617 -0.9959  0.0797
 6930SOL    HW221690   5.791   6.123   5.623 -1.2365 -0.5497 -1.5289
 6931SOL     OW21691   2.596   1.780   5.089 -0.3602 -0.2719 -0.2578
 6931SOL    HW121692   2.586   1.868   5.136  3.1045  1.8580 -3.0025
 6931SOL    HW221693   2.525   1.771   5.020  0.6590  1.7202 -1.6605
 6932SOL     OW21694   2.726   0.868   5.690  0.1295 -0.2411  0.0866
 6932SOL    HW121695   2.701   0.809   5.612  1.1754 -0.2050 -0.2836
 6932SOL    HW221696   2.764   0.812   5.763 -1.2989 -0.3386  0.7939
 6933SOL     OW21697   4.501   3.403   1.726  0.0747 -0.2469 -0.5638
 6933SOL    HW121698   4.596   3.377   1.707 -0.0013  0.5287 -2.1189
 6933SOL    HW221699   4.444   3.320   1.729  0.5664 -0.6116 -1.0567
 6934SOL     OW21700   2.650   5.284   2.903 -0.3704  0.2460  0.1221
 6934SOL    HW121701   2.739   5.262   2.943  0.0182 -1.0420 -1.3087
 6934SOL    HW221702   2.615   5.203   2.856 -0.6472  1.7007 -2.3343
 6935SOL     OW21703   0.003   6.730   6.915 -0.3427  0.1560  0.3284
 6935SOL    HW121704  -0.001   6.826   6.886 -2.1170  0.3402  1.0785
 6935SOL    HW221705  -0.046   6.673   6.849 -1.0190  0.0531  0.9054
 6936SOL     OW21706   1.378   6.509   0.178  0.1863  0.0462  0.1767
 6936SOL    HW121707   1.434   6.536   0.256 -0.5677 -0.4965  0.9183
 6936SOL    HW221708   1.388   6.410   0.163 -0.2249  0.0270  0.0301
 6937SOL     OW21709   2.883   1.493   4.200 -0.4056  0.2802  0.6248
 6937SOL    HW121710   2.951   1.565   4.192  0.8723 -0.7125  2.1100
 6937SOL    HW221711   2.910   1.415   4.144 -1.0579  0.4013  0.1286
 6938SOL     OW21712   4.598   4.863   5.108 -0.1155  0.0420 -0.7449
 6938SOL    HW121713   4.670   4.831   5.047 -0.3647  0.7690 -1.4349
 6938SOL    HW221714   4.551   4.785   5.149  0.5577 -0.4387 -0.8814
 6939SOL     OW21715   3.257   2.183   3.985 -0.0337 -0.0298  0.0311
 6939SOL    HW121716   3.301   2.241   4.053 -0.2322 -0.2828  0.3732
 6939SOL    HW221717   3.162   2.214   3.971 -0.4525 -0.8778  0.9339
 6940SOL     OW21718   3.700   4.495   5.984 -0.3383  0.2260  0.2428
 6940SOL    HW121719   3.739   4.409   5.951  0.4145 -1.2402  4.2631
 6940SOL    HW221720   3.607   4.479   6.016 -0.5912  1.1798  0.0047
 6941SOL     OW21721   6.966   5.324   2.436 -0.1793 -0.0375 -0.7370
 6941SOL    HW121722   6.870   5.313   2.408 -0.7759 -0.0147  1.1472
 6941SOL    HW221723   6.995   5.418   2.420 -1.5614  0.8792  1.5918
 6942SOL     OW21724   5.395   1.209   3.992 -0.0407  0.2116 -0.5388
 6942SOL    HW121725   5.348   1.153   3.925  0.3460 -0.2270 -0.4501
 6942SOL    HW221726   5.484   1.237   3.956 -1.1754  2.7946 -1.5699
 6943SOL     OW21727   6.933   6.297   6.474  0.0343  0.5257 -0.7300
 6943SOL    HW121728   6.930   6.334   6.381 -0.8980 -3.1194 -2.3264
 6943SOL    HW221729   6.840   6.270   6.502  0.2237  1.9148  1.5082
 6944SOL     OW21730   5.516   0.877   6.137 -0.0067  0.3386 -0.3211
 6944SOL    HW121731   5.612   0.905   6.130 -0.1399  0.3762 -3.5332
 6944SOL    HW221732   5.470   0.934   6.205  1.7223  1.9787 -0.4338
 6945SOL     OW21733   4.911   5.858   5.027 -0.2331 -0.1754 -0.2059
 6945SOL    HW121734   4.871   5.771   5.055  1.6521 -1.1535 -0.4074
 6945SOL    HW221735   4.971   5.844   4.948 -1.5624  1.6971 -1.6666
 6946SOL     OW21736   0.972   5.887   5.310 -0.0232 -0.3624  0.0057
 6946SOL    HW121737   0.881   5.913   5.343 -0.1809 -1.0548  0.1390
 6946SOL    HW221738   0.985   5.789   5.324  1.5926  0.0859  2.0758
 6947SOL     OW21739   0.533   3.594   3.670  0.1995  0.2438 -0.1013
 6947SOL    HW121740   0.540   3.625   3.575  0.9453 -0.5042 -0.3011
 6947SOL    HW221741   0.560   3.498   3.676  0.8147  0.4724  0.9726
 6948SOL     OW21742   5.656   3.714   2.024  0.7360 -0.2796 -0.0435
 6948SOL    HW121743   5.570   3.687   2.067  1.3191 -0.8085  0.8152
 6948SOL    HW221744   5.638   3.746   1.931 -0.4745  0.3279  0.3849
 6949SOL     OW21745   0.461   0.076   3.048  0.1226  0.4506  0.0402
 6949SOL    HW121746   0.456   0.175   3.059 -3.0470  0.5489 -1.0474
 6949SOL    HW221747   0.416   0.031   3.125 -1.0564  0.0665 -0.8277
 6950SOL     OW21748   5.321   0.173   4.350  0.4154  0.3050  0.4131
 6950SOL    HW121749   5.388   0.133   4.413 -0.5276 -1.2271  0.5086
 6950SOL    HW221750   5.239   0.200   4.401  0.3449  0.7001  0.0948
 6951SOL     OW21751   6.024   5.668   3.077  0.0226  0.4905 -0.5877
 6951SOL    HW121752   5.941   5.723   3.083  0.1586  0.5178  1.9324
 6951SOL    HW221753   6.016   5.605   2.999 -2.8539 -0.2489  0.1689
 6952SOL     OW21754   0.636   6.848   1.183  0.0172  0.2736  0.5869
 6952SOL    HW121755   0.587   6.934   1.199  0.2368  0.6168 -0.4692
 6952SOL    HW221756   0.682   6.820   1.267 -2.9354 -0.7175  2.0166
 6953SOL     OW21757   6.729   1.600   5.544  0.0281 -0.3311  0.3823
 6953SOL    HW121758   6.823   1.628   5.562 -0.3763  0.5118  1.2595
 6953SOL    HW221759   6.728   1.507   5.507  1.1611 -0.5217  0.8063
 6954SOL     OW21760   5.212   6.786   2.350  0.0266 -0.1445 -0.1625
 6954SOL    HW121761   5.289   6.726   2.373  0.2265  0.7718  1.7588
 6954SOL    HW221762   5.127   6.743   2.379 -0.0052 -0.2980 -0.4812
 6955SOL     OW21763   0.556   6.006   1.898 -0.1443 -0.0555 -1.5809
 6955SOL    HW121764   0.552   6.034   1.994 -2.1805  0.3182 -1.7229
 6955SOL    HW221765   0.545   6.087   1.839 -0.7761 -0.4917 -2.0837
 6956SOL     OW21766   2.158   4.263   3.287 -0.9902 -0.2939 -0.2362
 6956SOL    HW121767   2.115   4.174   3.299 -0.3699 -0.4211  1.2450
 6956SOL    HW221768   2.205   4.266   3.199 -0.7840 -1.5291 -0.1838
 6957SOL     OW21769   0.331   5.609   0.246 -0.1897 -0.1132 -0.0365
 6957SOL    HW121770   0.311   5.614   0.148 -0.2106 -2.2028 -0.1810
 6957SOL    HW221771   0.428   5.629   0.261 -0.3991  1.2322 -0.3453
 6958SOL     OW21772   3.254   3.493   0.118  0.0234  0.0413 -0.6050
 6958SOL    HW121773   3.352   3.513   0.120  0.5591 -2.2894 -0.5727
 6958SOL    HW221774   3.226   3.455   0.207 -1.1574  1.5672 -0.2815
 6959SOL     OW21775   2.503   2.649   0.972  0.1654  0.1819  0.7898
 6959SOL    HW121776   2.597   2.632   0.941  0.0221  0.6691  0.0587
 6959SOL    HW221777   2.440   2.640   0.895 -0.5753 -1.4794  1.5371
 6960SOL     OW21778   2.005   1.330   6.187 -0.6404  0.0512 -0.7863
 6960SOL    HW121779   2.064   1.256   6.154  2.2248  0.8275  2.1033
 6960SOL    HW221780   1.914   1.293   6.206  0.2021 -2.3545 -1.0341
 6961SOL     OW21781   4.909   5.895   5.988 -0.1678  0.7736  0.1788
 6961SOL    HW121782   4.858   5.981   5.995  0.2752  1.0428  0.2092
 6961SOL    HW221783   4.959   5.893   5.902  1.3343  1.4185  0.9839
 6962SOL     OW21784   1.807   1.150   1.909  0.1737 -0.4694  0.0697
 6962SOL    HW121785   1.789   1.052   1.903  1.5231 -0.6748 -0.8641
 6962SOL    HW221786   1.875   1.177   1.841  0.3301  1.0045  0.7549
 6963SOL     OW21787   2.005   4.985   2.699 -0.0366  0.0638  0.2373
 6963SOL    HW121788   1.994   4.886   2.698 -1.0708  0.1711  0.2385
 6963SOL    HW221789   1.957   5.024   2.620  3.4417  0.2873 -1.9908
 6964SOL     OW21790   1.679   2.344   6.440  0.2609  0.2663 -0.3709
 6964SOL    HW121791   1.601   2.403   6.461  0.6766  0.3338  1.0590
 6964SOL    HW221792   1.763   2.386   6.474  0.5906 -1.0208  0.4879
 6965SOL     OW21793   2.259   4.315   6.301  0.2424  0.1780 -0.2086
 6965SOL    HW121794   2.178   4.257   6.302  0.3917 -0.0818 -1.1915
 6965SOL    HW221795   2.241   4.400   6.350  0.1902 -0.9054  1.7326
 6966SOL     OW21796   3.875   1.152   0.690  0.5101 -0.1657 -0.0701
 6966SOL    HW121797   3.973   1.174   0.683  0.9090 -1.7170  0.1259
 6966SOL    HW221798   3.847   1.102   0.608  0.1685 -0.7193  0.3784
 6967SOL     OW21799   0.129   3.558   0.880  0.5456 -0.0722  0.1190
 6967SOL    HW121800   0.097   3.565   0.785  0.1848 -2.2098  0.0229
 6967SOL    HW221801   0.195   3.483   0.886  3.2595  2.2109  0.9375
 6968SOL     OW21802   5.459   0.855   4.037  0.3622  0.5427  0.3949
 6968SOL    HW121803   5.365   0.864   4.005  0.7863  0.3949 -0.9640
 6968SOL    HW221804   5.509   0.940   4.018  1.4289 -0.5701 -2.2603
 6969SOL     OW21805   0.217   4.008   1.127  0.2796 -0.1333  0.1554
 6969SOL    HW121806   0.312   3.983   1.143  0.3935  0.7817  0.9876
 6969SOL    HW221807   0.179   3.951   1.054  0.4242 -2.9037  2.1111
 6970SOL     OW21808   1.759   3.591   6.447 -0.0278 -0.3713  0.0368
 6970SOL    HW121809   1.727   3.665   6.388 -0.2496 -1.5260 -1.3437
 6970SOL    HW221810   1.855   3.572   6.426 -0.6930 -2.2211 -1.5424
 6971SOL     OW21811   5.379   5.715   0.610 -0.8475  0.0770 -0.9122
 6971SOL    HW121812   5.370   5.749   0.517  0.5717 -1.7503 -1.7985
 6971SOL    HW221813   5.449   5.766   0.658  0.8601 -1.1010 -2.0355
 6972SOL     OW21814   4.314   1.382   3.924 -0.8517 -0.2629  0.0595
 6972SOL    HW121815   4.224   1.427   3.924  0.6810  3.1933  1.3314
 6972SOL    HW221816   4.347   1.371   4.018  0.4448 -0.5457 -0.3996
 6973SOL     OW21817   4.121   6.629   4.274 -0.5645 -0.4429  0.0099
 6973SOL    HW121818   4.207   6.601   4.231 -0.6232  0.3652 -0.6540
 6973SOL    HW221819   4.060   6.668   4.205 -0.6550  0.9090  0.8124
 6974SOL     OW21820   1.985   5.390   4.038  0.6913 -0.4224 -0.6221
 6974SOL    HW121821   2.049   5.313   4.035  1.2928  0.0849 -0.9553
 6974SOL    HW221822   2.030   5.473   4.005 -0.3290 -0.2001 -1.5331
 6975SOL     OW21823   1.771   0.208   6.752  0.1168  0.5773  0.3831
 6975SOL    HW121824   1.813   0.171   6.670  1.8223 -0.0364  1.4829
 6975SOL    HW221825   1.829   0.279   6.791  0.0134 -0.0609  1.7676
 6976SOL     OW21826   4.485   6.006   4.735  0.2910  1.1741  0.5650
 6976SOL    HW121827   4.413   6.066   4.700 -1.0704 -0.0922  1.0836
 6976SOL    HW221828   4.515   5.943   4.662  0.3410  1.2102  0.5541
 6977SOL     OW21829   6.546   2.263   1.334  0.3806 -0.1468 -0.5532
 6977SOL    HW121830   6.634   2.226   1.303  0.0595  0.2704 -2.0615
 6977SOL    HW221831   6.480   2.189   1.342  0.3639 -0.2238 -1.3077
 6978SOL     OW21832   4.349   6.382   2.162  0.2364 -0.1283  0.0150
 6978SOL    HW121833   4.321   6.298   2.116 -2.3363  0.4470  0.3624
 6978SOL    HW221834   4.339   6.459   2.099 -0.2150  0.2672  0.5591
 6979SOL     OW21835   4.977   3.957   5.604  0.1561 -0.3309 -0.1321
 6979SOL    HW121836   5.001   4.043   5.648  0.9550  0.1121 -1.3661
 6979SOL    HW221837   4.884   3.963   5.567  0.4940  0.3152 -0.9084
 6980SOL     OW21838   6.970   3.115   0.573  0.2777  0.0059  0.2722
 6980SOL    HW121839   7.009   3.027   0.547  2.1076  1.3918 -2.1424
 6980SOL    HW221840   6.890   3.135   0.517  0.0797  0.0299  0.5608
 6981SOL     OW21841   4.749   6.112   5.413 -0.0969  0.2810  0.3984
 6981SOL    HW121842   4.812   6.098   5.337  0.0561 -0.4883  0.6558
 6981SOL    HW221843   4.655   6.095   5.382 -0.0053 -0.3633  0.4519
 6982SOL     OW21844   1.640   5.513   2.339 -0.3931 -0.3722  0.0409
 6982SOL    HW121845   1.568   5.458   2.381 -0.7378 -0.4440 -0.6247
 6982SOL    HW221846   1.645   5.491   2.241  1.4696 -1.4052  0.3261
 6983SOL     OW21847   4.439   6.404   6.688 -0.5713  0.0944  0.1195
 6983SOL    HW121848   4.357   6.351   6.666 -0.9343  1.4514 -2.0713
 6983SOL    HW221849   4.413   6.487   6.738 -0.4357  0.1873  0.0356
 6984SOL     OW21850   6.602   1.505   0.221 -0.2878 -0.0585 -0.1763
 6984SOL    HW121851   6.607   1.439   0.295  1.5179 -0.8944 -0.9773
 6984SOL    HW221852   6.605   1.457   0.133 -2.0622  0.9290 -0.8282
 6985SOL     OW21853   2.126   5.136   4.010  0.4710 -0.9244  0.0918
 6985SOL    HW121854   2.203   5.101   3.956  0.2874 -1.2462  0.0325
 6985SOL    HW221855   2.110   5.075   4.088  1.5320  0.2139  1.2356
 6986SOL     OW21856   6.357   6.482   3.465 -0.5038  0.0045  0.0786
 6986SOL    HW121857   6.296   6.486   3.387  0.2694 -3.4953 -0.8902
 6986SOL    HW221858   6.451   6.501   3.435 -0.4782  0.7213  0.5962
 6987SOL     OW21859   4.586   5.056   1.943 -0.2147 -0.4481  0.1588
 6987SOL    HW121860   4.591   5.012   1.853 -1.5116  0.9128 -0.6080
 6987SOL    HW221861   4.491   5.080   1.963  0.1438 -0.2116  1.6502
 6988SOL     OW21862   1.444   4.011   5.567  0.4751 -0.0417 -0.1756
 6988SOL    HW121863   1.348   3.986   5.553  0.0815  0.8577  0.8157
 6988SOL    HW221864   1.487   3.945   5.629  0.6447 -0.7324 -1.0166
 6989SOL     OW21865   5.357   0.822   2.534 -0.2679 -0.0930  0.5482
 6989SOL    HW121866   5.430   0.890   2.524 -0.9498  0.4529 -0.9542
 6989SOL    HW221867   5.270   0.868   2.553 -0.2892 -0.7297  2.1674
 6990SOL     OW21868   5.668   3.035   2.498  0.7870  0.4149  0.1469
 6990SOL    HW121869   5.596   3.073   2.557 -0.6917 -2.5829  0.4788
 6990SOL    HW221870   5.742   2.999   2.554  1.7536  1.9166 -0.1204
 6991SOL     OW21871   4.066   1.514   3.682 -0.0623  0.5854  0.5684
 6991SOL    HW121872   4.161   1.508   3.651 -0.6836  1.4356 -1.7537
 6991SOL    HW221873   4.017   1.581   3.626 -2.1538 -0.1377  1.4141
 6992SOL     OW21874   1.604   1.871   1.306 -0.0740  0.1611 -0.4095
 6992SOL    HW121875   1.689   1.857   1.358 -0.1392  0.8694 -0.0921
 6992SOL    HW221876   1.526   1.867   1.368 -0.1938  0.4984 -0.5361
 6993SOL     OW21877   0.363   1.896   6.907  0.0902 -0.3356  0.0094
 6993SOL    HW121878   0.338   1.855   6.819 -0.3768 -0.3707  0.1594
 6993SOL    HW221879   0.342   1.833   6.981  0.2034 -0.1849  0.1708
 6994SOL     OW21880   0.113   6.884   1.375  0.1970  0.3065 -0.3580
 6994SOL    HW121881   0.207   6.912   1.353  0.7804  0.1752  1.7217
 6994SOL    HW221882   0.107   6.863   1.473 -1.7314 -0.8437 -0.6714
 6995SOL     OW21883   1.926   4.143   0.169  0.1778  0.0966 -0.3362
 6995SOL    HW121884   1.856   4.193   0.119 -0.1777  0.3147  0.3651
 6995SOL    HW221885   1.921   4.167   0.266  0.6619 -0.5401 -0.1483
 6996SOL     OW21886   5.496   5.209   2.757  0.5908 -0.3583 -0.0381
 6996SOL    HW121887   5.522   5.302   2.784  0.6726  1.0381 -4.1206
 6996SOL    HW221888   5.576   5.163   2.717 -0.4107 -0.4374 -2.0672
 6997SOL     OW21889   5.836   0.763   4.532  0.1773  0.7076  0.2354
 6997SOL    HW121890   5.807   0.859   4.534 -0.5303  0.5424 -1.1686
 6997SOL    HW221891   5.924   0.756   4.486 -0.4954  0.5317 -1.0617
 6998SOL     OW21892   1.607   6.275   3.272  0.1447  0.1393  0.6623
 6998SOL    HW121893   1.585   6.261   3.175  1.7212 -1.7217  0.5065
 6998SOL    HW221894   1.651   6.364   3.284 -1.4510  1.0761 -0.0294
 6999SOL     OW21895   3.652   6.916   6.250 -0.2575 -0.9188  0.4568
 6999SOL    HW121896   3.590   6.891   6.176  0.3220 -0.2787 -0.2636
 6999SOL    HW221897   3.617   6.998   6.296  1.1967  0.9512 -1.5144
 7000SOL     OW21898   0.753   5.021   6.030 -0.3099  0.4644  0.6262
 7000SOL    HW121899   0.827   5.049   6.091  0.5758  1.5683 -0.8861
 7000SOL    HW221900   0.718   4.932   6.059  2.3715 -0.6385  0.7764
 7001SOL     OW21901   0.085   5.593   4.318  0.0333  0.5952  0.3069
 7001SOL    HW121902  -0.011   5.597   4.289 -0.2773  0.4382  1.2552
 7001SOL    HW221903   0.089   5.563   4.414  1.0312  0.6307  0.2847
 7002SOL     OW21904   2.021   5.456   6.175 -0.3086 -0.1426  0.1157
 7002SOL    HW121905   1.923   5.475   6.189 -0.8873 -1.2706 -1.9547
 7002SOL    HW221906   2.033   5.358   6.161  1.3003 -0.1452  1.2911
 7003SOL     OW21907   6.445   1.996   2.276 -0.5749 -0.0560  0.3093
 7003SOL    HW121908   6.510   2.061   2.236 -0.5509 -0.3355 -0.1089
 7003SOL    HW221909   6.481   1.961   2.362 -0.1494 -0.2459  0.0548
 7004SOL     OW21910   3.120   1.243   2.326  0.7361 -0.0157 -0.0496
 7004SOL    HW121911   3.219   1.248   2.339  0.7953  2.1145 -0.8426
 7004SOL    HW221912   3.084   1.336   2.312 -1.2961 -0.7997 -0.3201
 7005SOL     OW21913   1.639   4.108   4.474  0.3808 -0.3165  0.2422
 7005SOL    HW121914   1.659   4.042   4.401 -1.7779 -1.5664  0.6897
 7005SOL    HW221915   1.695   4.088   4.554 -0.5897 -1.9841  0.5458
 7006SOL     OW21916   2.121   4.799   5.460 -0.7274  0.3569  0.1730
 7006SOL    HW121917   2.096   4.828   5.552  0.3091 -1.5353  1.1096
 7006SOL    HW221918   2.175   4.870   5.416  0.7382  0.4142  1.9357
 7007SOL     OW21919   0.307   3.753   2.429  0.1660  1.0260 -0.6479
 7007SOL    HW121920   0.333   3.740   2.524  0.3815 -0.6757 -0.9073
 7007SOL    HW221921   0.214   3.720   2.415 -0.4942  2.8020 -0.7084
 7008SOL     OW21922   6.509   5.603   6.584  1.2662 -0.3354  0.0921
 7008SOL    HW121923   6.465   5.514   6.573  1.1763 -0.1647 -1.0336
 7008SOL    HW221924   6.440   5.671   6.610  1.3185 -0.5640  0.8566
 7009SOL     OW21925   4.354   6.515   5.794  0.4763  0.1076  0.1754
 7009SOL    HW121926   4.273   6.526   5.737  0.7599  0.6394 -0.1386
 7009SOL    HW221927   4.432   6.491   5.737  0.6067 -0.0894  0.4343
 7010SOL     OW21928   4.864   0.281   3.778 -0.1044  0.2321  0.2627
 7010SOL    HW121929   4.769   0.253   3.761  0.2179 -1.0715  0.5063
 7010SOL    HW221930   4.922   0.249   3.703  0.3522 -0.1550  0.7732
 7011SOL     OW21931   6.474   5.276   3.554 -0.5053 -0.3092 -0.6091
 7011SOL    HW121932   6.464   5.295   3.651 -0.5203  0.9855 -0.8546
 7011SOL    HW221933   6.384   5.274   3.511 -0.5222 -1.1664 -0.5658
 7012SOL     OW21934   2.686   6.054   2.087  0.4846  0.7125  0.1288
 7012SOL    HW121935   2.732   5.967   2.069 -0.7026 -0.0217  0.5510
 7012SOL    HW221936   2.648   6.089   2.002 -0.5905 -0.1085  0.2508
 7013SOL     OW21937   3.407   0.879   4.193 -0.3798  0.7419 -0.0266
 7013SOL    HW121938   3.498   0.903   4.226 -0.3845 -0.0461  0.6073
 7013SOL    HW221939   3.391   0.781   4.209 -0.9706  0.6710 -1.0056
 7014SOL     OW21940   3.282   1.009   1.098 -0.1042 -0.5966 -0.5942
 7014SOL    HW121941   3.275   1.109   1.100  0.9797 -0.5000 -0.5650
 7014SOL    HW221942   3.191   0.969   1.092 -0.5750  0.3854 -0.2843
 7015SOL     OW21943   6.658   0.602   6.827 -0.1505  0.0579  0.3640
 7015SOL    HW121944   6.584   0.621   6.763 -0.8415  1.5703  1.5434
 7015SOL    HW221945   6.620   0.581   6.917  0.8382 -0.0976  0.7614
 7016SOL     OW21946   4.966   2.038   5.299  0.2066  0.6448  0.4041
 7016SOL    HW121947   5.004   2.080   5.216 -0.5331 -0.0684 -0.3157
 7016SOL    HW221948   5.006   1.947   5.310 -1.1358 -0.0539 -0.2754
 7017SOL     OW21949   1.411   4.867   6.927 -0.1337  0.2732  0.1287
 7017SOL    HW121950   1.468   4.942   6.892 -1.2689  1.5386  0.8579
 7017SOL    HW221951   1.352   4.833   6.855  0.3853  0.0765 -0.2075
 7018SOL     OW21952   4.724   6.662   6.212 -0.0313  0.3949  0.1277
 7018SOL    HW121953   4.761   6.754   6.225 -1.2393  1.1466 -1.4503
 7018SOL    HW221954   4.776   6.615   6.140 -1.0165  0.8266 -0.8927
 7019SOL     OW21955   2.263   6.915   6.881 -0.7267  0.0456 -0.0628
 7019SOL    HW121956   2.279   6.999   6.828  0.0218 -0.1683 -0.1973
 7019SOL    HW221957   2.219   6.938   6.967  0.0151  0.6587  0.1723
 7020SOL     OW21958   2.761   5.173   4.495  0.1660  0.7915  0.2570
 7020SOL    HW121959   2.817   5.129   4.565  0.8113  1.8066  0.4040
 7020SOL    HW221960   2.745   5.110   4.420 -0.0707 -0.1331  1.0632
 7021SOL     OW21961   5.700   4.707   1.610  0.4679 -0.3210 -0.2327
 7021SOL    HW121962   5.652   4.794   1.614 -0.0177 -0.5984  3.6309
 7021SOL    HW221963   5.797   4.722   1.589  0.1040  0.9475 -1.0689
 7022SOL     OW21964   3.993   5.243   2.502  0.4279  0.0820  0.2878
 7022SOL    HW121965   3.977   5.240   2.403 -0.4954 -0.5260  0.4426
 7022SOL    HW221966   3.922   5.299   2.546  1.5913  1.4582  0.4794
 7023SOL     OW21967   6.780   6.132   2.361 -0.1264 -0.1230 -0.6968
 7023SOL    HW121968   6.815   6.220   2.327 -0.0825  0.1264 -0.0203
 7023SOL    HW221969   6.855   6.065   2.361 -0.1878 -0.1988 -1.3237
 7024SOL     OW21970   1.131   0.609   4.300 -0.2272  0.4982 -0.0765
 7024SOL    HW121971   1.118   0.545   4.376  2.7075 -0.1635  0.0051
 7024SOL    HW221972   1.115   0.562   4.214  1.2672 -0.2278  0.0091
 7025SOL     OW21973   3.389   5.751   4.859  0.2421 -0.0359  0.0226
 7025SOL    HW121974   3.319   5.708   4.915 -0.8145  0.4497 -0.8956
 7025SOL    HW221975   3.475   5.700   4.868  0.0363 -0.1075  1.8536
 7026SOL     OW21976   6.180   3.878   3.319  0.8318 -0.5792 -0.1569
 7026SOL    HW121977   6.128   3.962   3.335  1.7797  0.2160 -1.0473
 7026SOL    HW221978   6.118   3.800   3.318 -0.0765  0.0916  0.6877
 7027SOL     OW21979   6.698   0.247   5.006 -0.8544 -0.1129  0.3361
 7027SOL    HW121980   6.789   0.270   4.971 -0.6110  0.0314  1.0510
 7027SOL    HW221981   6.682   0.295   5.093 -1.4278 -0.5064  0.4534
 7028SOL     OW21982   5.695   3.794   6.526 -0.0528 -0.2222  0.1290
 7028SOL    HW121983   5.616   3.811   6.584  1.5428  0.9577  2.0988
 7028SOL    HW221984   5.730   3.701   6.543 -0.1082 -0.1900  0.4200
 7029SOL     OW21985   2.620   6.294   6.694 -0.6268 -0.0279 -0.2502
 7029SOL    HW121986   2.582   6.220   6.748 -0.6552 -0.8590 -1.3743
 7029SOL    HW221987   2.582   6.381   6.725 -2.0699 -0.6654 -0.1515
 7030SOL     OW21988   1.200   3.684   1.588  0.0080 -0.3516 -0.2583
 7030SOL    HW121989   1.215   3.591   1.621 -1.2363  0.0340  1.5383
 7030SOL    HW221990   1.107   3.692   1.551 -0.0253  0.2550 -0.0551
 7031SOL     OW21991   2.710   3.949   1.510  0.2336 -0.4231  0.1760
 7031SOL    HW121992   2.802   3.986   1.506 -0.2866  1.2787  2.1617
 7031SOL    HW221993   2.706   3.876   1.579 -0.3238  1.0206  1.7294
 7032SOL     OW21994   3.194   5.704   4.666 -0.3283  0.4146 -0.4100
 7032SOL    HW121995   3.255   5.713   4.745  1.3591 -1.2927 -1.4383
 7032SOL    HW221996   3.103   5.738   4.690  0.4584  1.0767  1.8551
 7033SOL     OW21997   3.068   0.017   0.858  0.2303 -0.6578 -0.0325
 7033SOL    HW121998   3.153   0.001   0.807 -0.0153 -0.7267 -0.4220
 7033SOL    HW221999   2.992   0.025   0.794 -0.1185 -0.9810  0.3404
 7034SOL     OW22000   0.092   0.728   5.970  0.5663 -0.7701  0.4474
 7034SOL    HW122001   0.141   0.808   5.936  1.0036 -0.3878  1.9186
 7034SOL    HW222002   0.154   0.670   6.021 -0.2471 -0.8508  1.3811
 7035SOL     OW22003   5.785   4.883   6.004  0.2314  0.3877 -0.2784
 7035SOL    HW122004   5.791   4.936   6.088  0.6087 -2.0364  1.3346
 7035SOL    HW222005   5.700   4.830   6.004  1.2239 -1.2768 -0.3396
 7036SOL     OW22006   3.396   6.533   1.963  0.3007  0.1352 -0.5804
 7036SOL    HW122007   3.352   6.453   1.924 -1.9556  1.1030 -0.1742
 7036SOL    HW222008   3.422   6.515   2.057 -1.6938  0.3380  0.0475
 7037SOL     OW22009   5.751   0.835   6.687 -0.1761 -0.1404  0.1304
 7037SOL    HW122010   5.658   0.863   6.663 -0.8799 -1.1260  1.5584
 7037SOL    HW222011   5.755   0.810   6.784  1.6622  0.1805  0.1762
 7038SOL     OW22012   4.406   0.825   1.761  0.1137 -0.3720 -0.2073
 7038SOL    HW122013   4.348   0.776   1.826  0.4954  0.0177  0.4321
 7038SOL    HW222014   4.432   0.763   1.687 -1.7414 -0.3722 -0.9338
 7039SOL     OW22015   5.230   4.858   1.372  0.4905  0.4105 -0.7269
 7039SOL    HW122016   5.223   4.958   1.367 -0.7885  0.3583 -0.2747
 7039SOL    HW222017   5.248   4.830   1.466  1.0964  0.2214 -0.8954
 7040SOL     OW22018   2.767   5.478   0.957  0.3625 -0.1046  0.1054
 7040SOL    HW122019   2.671   5.493   0.932  0.5552  0.5865 -0.2501
 7040SOL    HW222020   2.775   5.392   1.007 -0.3261 -0.5634 -0.5515
 7041SOL     OW22021   6.906   0.722   5.588 -0.2888 -0.0976 -0.3567
 7041SOL    HW122022   6.832   0.756   5.646  0.1282  1.1031 -0.5065
 7041SOL    HW222023   6.882   0.735   5.492 -0.8411 -1.8018 -0.4972
 7042SOL     OW22024   4.671   6.187   0.577  0.1428  0.3899 -0.0401
 7042SOL    HW122025   4.735   6.234   0.638  2.0767  0.6766 -2.1511
 7042SOL    HW222026   4.603   6.138   0.631  2.1626  0.0286  2.3497
 7043SOL     OW22027   0.104   3.551   0.574 -0.6588  0.1272  0.2754
 7043SOL    HW122028   0.150   3.462   0.573 -1.4877 -0.3134 -0.1412
 7043SOL    HW222029   0.007   3.538   0.554 -0.8471  1.1010  0.5074
 7044SOL     OW22030   3.814   3.101   6.744 -0.3683 -0.1561 -0.3084
 7044SOL    HW122031   3.803   3.172   6.813 -0.6787 -1.0022  0.5237
 7044SOL    HW222032   3.728   3.052   6.731 -0.0868 -0.5683 -0.6694
 7045SOL     OW22033   2.085   1.377   0.479  0.2721  0.3939  0.1405
 7045SOL    HW122034   2.003   1.433   0.474  0.9362  1.3867  0.2167
 7045SOL    HW222035   2.158   1.427   0.526  1.0159 -0.3674 -0.1645
 7046SOL     OW22036   4.131   4.579   6.446 -0.5889  0.5969  0.4408
 7046SOL    HW122037   4.188   4.524   6.385  0.9446  1.6344  0.8611
 7046SOL    HW222038   4.066   4.632   6.392 -1.4297 -0.8590 -0.0294
 7047SOL     OW22039   6.320   5.307   4.960 -0.3251  0.3176 -0.7447
 7047SOL    HW122040   6.302   5.220   5.006  0.1307 -0.2623 -1.6350
 7047SOL    HW222041   6.240   5.365   4.966 -0.6409 -0.1662 -0.1388
 7048SOL     OW22042   6.254   6.659   6.568  0.2956 -0.1528 -0.4922
 7048SOL    HW122043   6.254   6.749   6.525  1.5198  0.3220  0.4265
 7048SOL    HW222044   6.225   6.590   6.502 -0.6708  0.8979 -1.2109
 7049SOL     OW22045   1.554   5.716   2.874  0.4081  0.3263 -0.0748
 7049SOL    HW122046   1.631   5.653   2.861  1.0391  1.0090  0.2955
 7049SOL    HW222047   1.487   5.703   2.800  0.9481 -0.1549 -0.4877
 7050SOL     OW22048   3.164   3.211   3.389  0.0829  0.5197  0.0693
 7050SOL    HW122049   3.134   3.173   3.302  0.3745  1.8927 -0.6489
 7050SOL    HW222050   3.254   3.176   3.412  0.0918  0.3138 -0.2832
 7051SOL     OW22051   6.036   1.287   3.842 -0.2204 -0.0089 -0.1684
 7051SOL    HW122052   5.984   1.221   3.787  0.3270 -0.2025 -0.4532
 7051SOL    HW222053   6.130   1.290   3.811 -0.3082  1.1418 -0.3546
 7052SOL     OW22054   4.337   1.057   5.608 -0.3911 -0.2147  0.1729
 7052SOL    HW122055   4.407   1.097   5.548  0.4822 -2.2119 -0.2168
 7052SOL    HW222056   4.313   1.123   5.680  1.0556  0.9346 -0.3424
 7053SOL     OW22057   5.588   0.697   1.987 -0.0982  0.3146 -0.0676
 7053SOL    HW122058   5.543   0.770   1.935 -0.4818  0.7747  0.8895
 7053SOL    HW222059   5.562   0.703   2.083 -1.3149 -1.9520 -0.1765
 7054SOL     OW22060   1.570   4.170   2.947  0.1999  0.6398  0.2027
 7054SOL    HW122061   1.498   4.239   2.953  0.9572  1.3356  1.8704
 7054SOL    HW222062   1.627   4.189   2.867  0.3759  1.9344  0.6159
 7055SOL     OW22063   6.224   0.953   1.438  0.5029 -0.2321 -0.3814
 7055SOL    HW122064   6.126   0.954   1.456  0.7465 -0.6599  1.1055
 7055SOL    HW222065   6.274   0.958   1.524  1.7795 -1.4008 -1.0088
 7056SOL     OW22066   5.377   6.789   3.904 -0.3849  0.1652 -0.0987
 7056SOL    HW122067   5.472   6.770   3.879  0.2262  0.2760  2.0012
 7056SOL    HW222068   5.374   6.856   3.978 -2.0503 -0.6936  0.6646
 7057SOL     OW22069   4.149   4.906   6.258  0.0632  0.1223 -0.3471
 7057SOL    HW122070   4.127   5.003   6.259 -1.2540 -0.1568  0.1745
 7057SOL    HW222071   4.065   4.853   6.247  0.7765 -0.9593 -0.7987
 7058SOL     OW22072   1.964   1.611   2.738  0.3740  0.3660 -0.2413
 7058SOL    HW122073   1.930   1.692   2.691 -0.7350 -0.0790 -0.2478
 7058SOL    HW222074   1.893   1.576   2.800  1.0523 -0.2541  0.2065
 7059SOL     OW22075   1.069   2.174   2.821 -0.7318 -0.0038  0.0212
 7059SOL    HW122076   1.098   2.084   2.852 -0.1171 -0.3059 -1.3484
 7059SOL    HW222077   1.104   2.244   2.884 -0.9988 -0.6897  0.9487
 7060SOL     OW22078   6.677   1.743   6.230  0.4044 -0.1956 -0.0533
 7060SOL    HW122079   6.728   1.743   6.144  0.6257 -0.6668  0.0763
 7060SOL    HW222080   6.741   1.754   6.307  0.2369 -0.0664  0.0687
 7061SOL     OW22081   5.681   0.106   4.427 -0.0956  0.0011 -0.1959
 7061SOL    HW122082   5.635   0.033   4.376  0.4968 -0.0734 -0.6261
 7061SOL    HW222083   5.628   0.190   4.421 -0.8483 -0.4194  0.4027
 7062SOL     OW22084   4.850   0.191   0.377  0.6497  0.0380 -0.1058
 7062SOL    HW122085   4.864   0.286   0.351 -0.6377  0.7314  1.6052
 7062SOL    HW222086   4.755   0.165   0.359  0.9136 -0.8532 -0.2730
 7063SOL     OW22087   4.323   2.501   1.262 -0.2292 -0.4213  0.1514
 7063SOL    HW122088   4.254   2.571   1.245 -2.0013 -2.1742 -0.2183
 7063SOL    HW222089   4.291   2.438   1.334  0.7901 -1.5094 -0.3023
 7064SOL     OW22090   1.597   5.401   3.545 -0.3568 -0.7692 -0.0499
 7064SOL    HW122091   1.590   5.476   3.610  1.1268  0.6772 -1.4504
 7064SOL    HW222092   1.671   5.339   3.571 -0.1564 -0.5263 -0.0440
 7065SOL     OW22093   3.972   3.723   3.087  0.4785  0.4417  0.0151
 7065SOL    HW122094   4.033   3.643   3.087  0.6376  0.5623 -0.1180
 7065SOL    HW222095   3.925   3.729   3.175  0.1663 -0.0274 -0.1163
 7066SOL     OW22096   5.922   4.122   4.765 -0.4243 -0.4488 -0.3690
 7066SOL    HW122097   5.881   4.137   4.855 -2.4791 -1.0329 -1.1431
 7066SOL    HW222098   5.864   4.059   4.713  1.6695 -1.5763 -1.4575
 7067SOL     OW22099   0.160   0.663   5.545  0.2207 -0.2516 -0.1371
 7067SOL    HW122100   0.085   0.725   5.570  0.5568 -0.2145  0.8251
 7067SOL    HW222101   0.244   0.695   5.588  0.4971 -1.1072 -0.0375
 7068SOL     OW22102   6.476   0.963   4.817 -0.0578 -0.2498 -0.4320
 7068SOL    HW122103   6.475   0.967   4.917 -1.5662 -1.0879 -0.3839
 7068SOL    HW222104   6.429   0.880   4.787  0.0356  0.1900 -1.8487
 7069SOL     OW22105   2.294   4.912   3.009 -0.3931  0.3036 -0.1761
 7069SOL    HW122106   2.242   4.990   2.974 -1.3415 -0.4471 -0.5012
 7069SOL    HW222107   2.257   4.828   2.970  0.9217 -0.2803 -0.2143
 7070SOL     OW22108   4.906   3.595   0.005  0.1392 -0.8152 -0.6857
 7070SOL    HW122109   4.853   3.646  -0.063  0.7550  1.2298  0.2900
 7070SOL    HW222110   4.850   3.578   0.086 -0.4016 -2.7166 -1.4073
 7071SOL     OW22111   2.781   3.065   5.585  0.3623  0.9800 -0.0452
 7071SOL    HW122112   2.742   3.064   5.493  0.4105  0.5427 -0.0608
 7071SOL    HW222113   2.832   3.151   5.598  1.9384  0.2518 -1.0929
 7072SOL     OW22114   4.912   6.257   1.958 -0.2717  0.2562  0.1495
 7072SOL    HW122115   4.932   6.188   1.888  0.5057  0.0548  0.5491
 7072SOL    HW222116   4.976   6.245   2.035 -2.6285 -1.1028  2.0410
 7073SOL     OW22117   5.337   2.454   5.764 -0.4487 -0.2123  0.8863
 7073SOL    HW122118   5.305   2.548   5.775  0.2970  0.0629  0.7783
 7073SOL    HW222119   5.277   2.405   5.701 -2.2339 -0.5195  2.6948
 7074SOL     OW22120   2.026   3.383   1.780 -0.4144 -0.5442 -0.0543
 7074SOL    HW122121   1.942   3.438   1.782  0.1504  0.3483 -0.3517
 7074SOL    HW222122   2.097   3.429   1.832 -0.2772 -1.6158  0.7517
 7075SOL     OW22123   5.644   1.755   4.964 -0.0050 -0.1497 -0.2472
 7075SOL    HW122124   5.722   1.817   4.972 -0.2279  0.3541 -1.6618
 7075SOL    HW222125   5.588   1.782   4.886 -1.0801 -1.0849  0.1714
 7076SOL     OW22126   5.050   1.561   3.761 -0.1244 -0.0007 -0.4270
 7076SOL    HW122127   5.050   1.512   3.673 -0.7767 -0.0366 -0.4118
 7076SOL    HW222128   4.957   1.564   3.797  0.2852 -0.9362  0.7957
 7077SOL     OW22129   1.985   2.682   1.543  0.0535  0.0826  0.0888
 7077SOL    HW122130   1.995   2.775   1.508  0.1458 -0.2904 -0.9035
 7077SOL    HW222131   2.011   2.679   1.639  0.8419  0.9196 -0.0892
 7078SOL     OW22132   5.414   0.268   2.307  0.6986 -0.6534  0.0645
 7078SOL    HW122133   5.352   0.232   2.237  1.8156  0.4198 -1.5223
 7078SOL    HW222134   5.373   0.349   2.349  0.6998 -0.3892 -0.4414
 7079SOL     OW22135   6.811   5.427   5.712 -0.0187 -0.1498  0.0788
 7079SOL    HW122136   6.765   5.463   5.794 -0.3461  1.0043 -0.5963
 7079SOL    HW222137   6.764   5.460   5.630  2.5485  1.9244 -0.7036
 7080SOL     OW22138   6.867   2.782   4.779 -0.4062 -0.4182 -0.3543
 7080SOL    HW122139   6.856   2.776   4.878 -0.3861 -0.1578 -0.3340
 7080SOL    HW222140   6.777   2.785   4.736 -0.4268  0.5126 -0.2699
 7081SOL     OW22141   1.927   6.052   0.834  0.3383  0.6497 -0.2464
 7081SOL    HW122142   1.888   6.034   0.743  1.1672  0.3014 -0.5455
 7081SOL    HW222143   1.854   6.080   0.896 -0.9390 -2.6749 -0.0106
 7082SOL     OW22144   6.614   4.084   3.058 -0.7785  0.4808 -0.0803
 7082SOL    HW122145   6.563   4.026   3.122 -0.5485  0.7323  0.3400
 7082SOL    HW222146   6.601   4.051   2.965  1.6659 -2.0453  0.3699
 7083SOL     OW22147   3.495   5.755   6.356 -0.2190 -0.2841 -0.1222
 7083SOL    HW122148   3.461   5.669   6.317 -0.7992 -1.3108  2.4681
 7083SOL    HW222149   3.420   5.820   6.365  0.0216  0.1590 -1.1183
 7084SOL     OW22150   1.343   5.646   1.862 -0.0728  0.0653  0.7435
 7084SOL    HW122151   1.421   5.583   1.869  0.8281  1.1580  0.8771
 7084SOL    HW222152   1.258   5.594   1.871  0.4476 -1.7059 -2.7469
 7085SOL     OW22153   7.016   4.633   1.412 -0.0936 -0.1382 -0.1558
 7085SOL    HW122154   7.024   4.732   1.424  0.2550 -0.2152  0.2716
 7085SOL    HW222155   7.001   4.612   1.315  1.1219  0.2561 -0.4437
 7086SOL     OW22156   0.950   3.339   3.965 -0.1088  0.0549  0.5479
 7086SOL    HW122157   0.987   3.432   3.967  0.8024 -0.2009 -1.8342
 7086SOL    HW222158   0.963   3.300   3.874 -1.8405 -1.8784  1.0696
 7087SOL     OW22159   6.144   6.661   2.084 -0.3743 -0.0013 -0.3024
 7087SOL    HW122160   6.091   6.742   2.060 -0.3385  0.0911 -0.0766
 7087SOL    HW222161   6.096   6.609   2.156 -0.3455 -0.1217 -0.3700
 7088SOL     OW22162   0.424   1.971   6.140  0.1349  0.4047 -0.3142
 7088SOL    HW122163   0.393   2.048   6.084 -0.4203 -0.3472 -1.0600
 7088SOL    HW222164   0.524   1.971   6.143  0.1301  2.0340  0.9632
 7089SOL     OW22165   5.321   0.053   2.079 -0.3332  0.0019  0.1011
 7089SOL    HW122166   5.294  -0.014   2.010 -2.2211 -0.4847  1.2246
 7089SOL    HW222167   5.420   0.045   2.097 -0.2978 -1.6358 -0.6607
 7090SOL     OW22168   1.796   3.346   0.586 -0.3800 -0.1262  0.3067
 7090SOL    HW122169   1.793   3.445   0.572  1.0964  0.0817  1.2099
 7090SOL    HW222170   1.788   3.326   0.684 -0.8395 -0.9120  0.1184
 7091SOL     OW22171   0.974   4.179   1.764 -0.2876  0.0724  0.2555
 7091SOL    HW122172   0.880   4.206   1.783 -1.2027 -3.0096  0.6641
 7091SOL    HW222173   1.013   4.135   1.845  1.3986  0.9356 -0.0465
 7092SOL     OW22174   2.590   1.405   0.037  0.3027 -0.2578 -0.6313
 7092SOL    HW122175   2.568   1.401  -0.061  0.9856 -0.5874 -0.7739
 7092SOL    HW222176   2.505   1.402   0.090 -0.1802  1.3847 -1.2393
 7093SOL     OW22177   1.607   2.224   0.646  0.0861  0.7003  0.7506
 7093SOL    HW122178   1.702   2.218   0.614  0.5385  0.2451  2.1126
 7093SOL    HW222179   1.605   2.262   0.738 -0.9311 -0.4744  1.2492
 7094SOL     OW22180   6.929   0.273   6.088 -0.4444 -0.4367  0.1129
 7094SOL    HW122181   7.004   0.233   6.036 -0.4784 -0.4096  0.0427
 7094SOL    HW222182   6.899   0.357   6.044 -1.9819 -1.5727 -1.1409
 7095SOL     OW22183   0.931   3.899   0.533 -0.4837 -0.0776  0.0197
 7095SOL    HW122184   0.965   3.919   0.441  0.4152 -0.3900  0.2731
 7095SOL    HW222185   0.949   3.976   0.593  1.0391 -0.7563  0.4789
 7096SOL     OW22186   3.875   6.209   6.097 -0.3164 -0.0927  0.4362
 7096SOL    HW122187   3.945   6.170   6.036 -1.3657  1.2975 -1.8009
 7096SOL    HW222188   3.912   6.291   6.141 -0.6679  1.0506 -1.2880
 7097SOL     OW22189   4.822   6.073   3.736  0.1669 -0.1729  0.4245
 7097SOL    HW122190   4.730   6.052   3.703  1.2784 -1.8046 -1.9626
 7097SOL    HW222191   4.838   6.027   3.823 -1.2073  0.0325  0.8073
 7098SOL     OW22192   0.949   3.211   6.551  0.2756 -0.9967  0.8316
 7098SOL    HW122193   1.010   3.279   6.511 -1.1662  0.9118  1.7011
 7098SOL    HW222194   1.002   3.130   6.578  2.4767  0.6703  1.8124
 7099SOL     OW22195   6.260   6.322   5.350  0.1208  0.4484 -0.5727
 7099SOL    HW122196   6.345   6.309   5.400 -0.9811 -0.0222  1.3124
 7099SOL    HW222197   6.220   6.233   5.327 -1.1767  0.5453  1.0521
 7100SOL     OW22198   0.286   2.586   6.093  0.2482 -0.6071 -0.3558
 7100SOL    HW122199   0.232   2.597   6.010 -1.6624  2.1502  1.0694
 7100SOL    HW222200   0.365   2.647   6.089  0.0518 -0.3322 -0.0909
 7101SOL     OW22201   1.380   2.784   4.274  0.5722 -0.6015  0.4893
 7101SOL    HW122202   1.361   2.875   4.238 -1.5688 -1.3173 -0.3652
 7101SOL    HW222203   1.327   2.716   4.224  1.7572 -2.3021  1.4018
 7102SOL     OW22204   5.393   5.068   5.513  0.3694 -0.4215 -0.2987
 7102SOL    HW122205   5.397   4.973   5.480 -2.4354 -0.2792 -1.3051
 7102SOL    HW222206   5.459   5.079   5.588  3.5352 -2.0615 -2.5587
 7103SOL     OW22207   6.323   5.443   1.081  0.0774 -0.6454 -0.8097
 7103SOL    HW122208   6.325   5.348   1.051 -2.0798  0.0454 -3.6793
 7103SOL    HW222209   6.410   5.487   1.061  2.0264 -2.4429  2.7974
 7104SOL     OW22210   0.370   2.537   3.455  0.7052 -0.2887 -0.3876
 7104SOL    HW122211   0.448   2.599   3.461  1.7163 -1.5893  0.2279
 7104SOL    HW222212   0.287   2.591   3.438  1.6014  1.1854 -0.3065
 7105SOL     OW22213   3.411   3.084   5.306 -0.0030  0.5394  0.6041
 7105SOL    HW122214   3.318   3.110   5.279  0.3943  0.6437 -0.7234
 7105SOL    HW222215   3.476   3.152   5.273  0.6995 -0.3291  0.1565
 7106SOL     OW22216   1.763   4.003   0.545 -0.0280  0.2766 -0.9931
 7106SOL    HW122217   1.758   4.089   0.494  0.2029  1.4192  0.8152
 7106SOL    HW222218   1.858   3.981   0.564 -0.1532  0.8882  0.5144
 7107SOL     OW22219   5.986   5.264   5.248 -0.0871  0.1585  0.0063
 7107SOL    HW122220   6.072   5.315   5.242 -0.9329  1.6089 -0.0210
 7107SOL    HW222221   5.926   5.289   5.172 -1.3759  0.7638  1.1804
 7108SOL     OW22222   3.279   1.615   6.507  0.1977  0.3987 -0.1894
 7108SOL    HW122223   3.312   1.674   6.433 -0.5917  2.0967  0.7602
 7108SOL    HW222224   3.355   1.594   6.569 -0.0347  2.8350  1.0209
 7109SOL     OW22225   6.280   4.552   5.844 -0.1956 -0.4128  0.2472
 7109SOL    HW122226   6.324   4.464   5.861 -0.7535 -1.5668 -3.3754
 7109SOL    HW222227   6.190   4.553   5.887  0.7969 -0.4911  2.4833
 7110SOL     OW22228   2.531   6.789   3.620  1.1336 -0.7478 -0.2788
 7110SOL    HW122229   2.477   6.815   3.700  0.7120 -1.1628 -0.4240
 7110SOL    HW222230   2.476   6.732   3.559  1.3516 -0.1963 -1.0136
 7111SOL     OW22231   2.717   3.092   1.733 -0.4280 -0.2403 -0.6052
 7111SOL    HW122232   2.800   3.106   1.787 -0.0521 -0.2851 -1.1651
 7111SOL    HW222233   2.663   3.177   1.731  0.2410  0.1853 -1.2952
 7112SOL     OW22234   6.035   4.454   6.630  0.5027  0.2853 -0.3623
 7112SOL    HW122235   5.970   4.382   6.606  1.3253 -0.4426 -0.4363
 7112SOL    HW222236   6.081   4.487   6.548  0.9564  0.0946 -0.1848
 7113SOL     OW22237   4.001   2.150   4.109 -0.5019  0.3998 -0.0824
 7113SOL    HW122238   3.993   2.168   4.207  3.0919 -2.1343  0.9049
 7113SOL    HW222239   4.073   2.207   4.070 -0.4982 -0.0397 -0.7326
 7114SOL     OW22240   0.563   1.537   3.453  0.3817 -0.0886 -0.0828
 7114SOL    HW122241   0.530   1.578   3.367  0.2802 -0.1980 -0.0969
 7114SOL    HW222242   0.512   1.453   3.471  0.6606 -0.2663 -0.1082
 7115SOL     OW22243   0.829   0.580   4.573 -0.5611  0.8269 -0.7423
 7115SOL    HW122244   0.751   0.518   4.562 -0.8300  1.3817 -2.1125
 7115SOL    HW222245   0.825   0.652   4.503  0.7165  1.3613 -0.2948
 7116SOL     OW22246   3.455   0.480   1.538 -0.2268  0.1641 -0.1628
 7116SOL    HW122247   3.387   0.481   1.611 -0.1585 -0.0854 -0.0947
 7116SOL    HW222248   3.536   0.531   1.566  1.8993 -3.8690  1.9747
 7117SOL     OW22249   2.015   5.339   1.813  0.0695  0.1573  0.0000
 7117SOL    HW122250   2.020   5.434   1.843  0.5992  0.1015  0.0949
 7117SOL    HW222251   2.019   5.336   1.713  1.3242  0.1735  0.0285
 7118SOL     OW22252   0.753   0.578   4.853  0.0768  0.1863 -0.0501
 7118SOL    HW122253   0.757   0.643   4.929  3.4303 -1.6692  1.6089
 7118SOL    HW222254   0.797   0.617   4.772  1.3056  0.3444  0.6713
 7119SOL     OW22255   1.283   6.304   5.643 -0.1699  0.2413  0.1206
 7119SOL    HW122256   1.214   6.235   5.618 -0.4047  0.4155  0.2825
 7119SOL    HW222257   1.300   6.298   5.741  0.6520 -0.3538 -0.0457
 7120SOL     OW22258   1.980   4.971   1.099 -0.2267 -0.3018  0.0427
 7120SOL    HW122259   1.919   5.048   1.115  0.9421  0.9030 -1.0596
 7120SOL    HW222260   1.927   4.886   1.096 -1.9947  0.7763 -1.8250
 7121SOL     OW22261   6.649   3.759   3.107 -0.3017 -0.4128  0.3019
 7121SOL    HW122262   6.633   3.693   3.035 -1.5063 -0.7271  0.8304
 7121SOL    HW222263   6.563   3.805   3.131 -0.1525 -1.0118  2.1882
 7122SOL     OW22264   4.033   1.719   0.988 -0.0280 -0.1164 -0.6581
 7122SOL    HW122265   4.047   1.737   0.891 -0.6216  0.1287 -0.7030
 7122SOL    HW222266   3.940   1.686   1.003 -0.2553  0.7347 -0.0652
 7123SOL     OW22267   0.677   3.649   3.455 -0.1401 -0.0868  0.4832
 7123SOL    HW122268   0.670   3.633   3.356  0.7890  0.5018  0.3135
 7123SOL    HW222269   0.733   3.730   3.472 -0.3613 -0.1329  1.4999
 7124SOL     OW22270   0.008   4.749   5.145 -0.3069 -0.3229  0.0956
 7124SOL    HW122271  -0.052   4.817   5.104 -1.0175 -0.7922  0.3309
 7124SOL    HW222272   0.020   4.769   5.242  2.6921  1.7311 -0.5917
 7125SOL     OW22273   3.522   3.569   0.230 -0.0034  0.8413 -0.0541
 7125SOL    HW122274   3.571   3.656   0.216 -0.8767  1.1698 -1.2046
 7125SOL    HW222275   3.549   3.530   0.318 -0.1615  2.6710  0.8614
 7126SOL     OW22276   6.680   0.730   6.056 -0.5559  0.2068 -0.0113
 7126SOL    HW122277   6.769   0.731   6.101  0.9100 -1.5005 -2.6035
 7126SOL    HW222278   6.661   0.821   6.017  0.6287  0.2895 -0.4344
 7127SOL     OW22279   4.822   5.263   4.543  0.2299 -0.0614  0.0867
 7127SOL    HW122280   4.917   5.280   4.517  0.0145  1.6984  0.3543
 7127SOL    HW222281   4.782   5.196   4.480  1.2487  0.1839 -0.8554
 7128SOL     OW22282   2.844   5.793   5.984  0.2504 -0.2226 -0.2250
 7128SOL    HW122283   2.753   5.800   5.943  0.8752  0.4027 -1.5805
 7128SOL    HW222284   2.840   5.817   6.081 -1.0560 -0.4038 -0.2269
 7129SOL     OW22285   2.062   2.816   0.963 -0.0784  0.0038 -0.0245
 7129SOL    HW122286   2.115   2.807   1.047 -0.6265  2.2635  0.6142
 7129SOL    HW222287   1.996   2.741   0.956  0.6595 -0.7657  1.0228
 7130SOL     OW22288   1.693   5.129   4.966  0.3090  0.3544 -0.3914
 7130SOL    HW122289   1.694   5.046   5.023  1.8999  0.1795 -0.6215
 7130SOL    HW222290   1.665   5.105   4.873 -0.4685  0.3069 -0.1483
 7131SOL     OW22291   1.975   0.829   5.265  0.0961 -0.8054 -0.9079
 7131SOL    HW122292   2.046   0.838   5.196 -1.5453  2.0634 -2.4163
 7131SOL    HW222293   1.997   0.886   5.344 -0.4261 -0.0057 -1.3266
 7132SOL     OW22294   1.789   4.918   5.119 -0.1607 -0.7617  0.1059
 7132SOL    HW122295   1.752   4.830   5.087  1.1430 -1.8589  1.4874
 7132SOL    HW222296   1.783   4.923   5.218 -0.1093  0.6797  0.0534
 7133SOL     OW22297   6.643   3.520   5.033  0.0330  0.2922 -0.9181
 7133SOL    HW122298   6.722   3.525   4.973 -1.9884  0.9221 -3.7517
 7133SOL    HW222299   6.618   3.424   5.047  0.9231  0.1167 -0.4907
 7134SOL     OW22300   4.738   4.679   4.841 -0.1192 -0.3530 -0.3261
 7134SOL    HW122301   4.825   4.632   4.831  0.2503  0.2428  0.0144
 7134SOL    HW222302   4.663   4.614   4.829  0.3138 -0.5439 -2.5436
 7135SOL     OW22303   0.657   2.683   3.856  0.8518  0.2504  0.1840
 7135SOL    HW122304   0.695   2.750   3.792  0.4202  1.1740  0.8718
 7135SOL    HW222305   0.568   2.716   3.889  0.1255 -1.1604 -0.2702
 7136SOL     OW22306   1.062   2.687   6.750  0.0151 -0.2418 -0.0774
 7136SOL    HW122307   1.101   2.601   6.716 -2.0279 -1.2036 -0.1240
 7136SOL    HW222308   1.134   2.756   6.757  1.5667 -1.7315 -0.7559
 7137SOL     OW22309   2.355   5.193   3.470 -0.2225 -0.0040  0.4154
 7137SOL    HW122310   2.306   5.254   3.407  0.3459  0.6378  0.5842
 7137SOL    HW222311   2.430   5.148   3.421 -0.2347 -0.0664  0.4540
 7138SOL     OW22312   0.981   5.988   5.063  0.2392 -0.1230  0.5725
 7138SOL    HW122313   0.986   5.940   5.150 -1.7618 -0.5639  0.4970
 7138SOL    HW222314   0.885   6.003   5.038  0.7640  1.9370 -0.5065
 7139SOL     OW22315   3.484   4.038   0.192 -0.2997  0.3476 -0.5806
 7139SOL    HW122316   3.481   4.132   0.159 -0.2598 -0.0642 -1.8058
 7139SOL    HW222317   3.439   3.978   0.127  0.8767 -0.6780 -0.4951
 7140SOL     OW22318   6.473   4.584   2.300 -0.0074  0.6158  0.0440
 7140SOL    HW122319   6.416   4.528   2.240  0.2006  0.9511 -0.4699
 7140SOL    HW222320   6.432   4.675   2.311 -1.2958 -0.1434  2.3024
 7141SOL     OW22321   3.466   0.049   0.271  0.1062  0.0346  0.3994
 7141SOL    HW122322   3.382   0.026   0.222  1.1649  0.2013 -1.6288
 7141SOL    HW222323   3.542  -0.003   0.232  0.7212 -1.4515  3.3456
 7142SOL     OW22324   6.357   4.195   2.702  0.0153  0.1031  0.1635
 7142SOL    HW122325   6.451   4.173   2.728  0.2771 -0.4135 -1.1647
 7142SOL    HW222326   6.358   4.267   2.632 -0.5349 -0.3489 -0.3223
 7143SOL     OW22327   0.604   1.051   3.529  0.2813  0.0781  0.7965
 7143SOL    HW122328   0.631   0.979   3.594  2.0946  0.0030  0.0229
 7143SOL    HW222329   0.528   1.018   3.473  1.4569 -1.5132  0.0549
 7144SOL     OW22330   6.024   4.102   5.715  0.6514 -0.3692 -0.1996
 7144SOL    HW122331   5.979   4.150   5.640  0.1521  0.6657  0.7324
 7144SOL    HW222332   5.955   4.074   5.783  0.8352 -2.9361 -0.9521
 7145SOL     OW22333   6.519   0.997   5.107  0.0498  0.5216  0.2770
 7145SOL    HW122334   6.484   1.028   5.196 -0.2742  0.2330  0.2490
 7145SOL    HW222335   6.604   1.046   5.087 -0.9126  2.0777 -0.1778
 7146SOL     OW22336   2.316   6.108   1.050 -0.2889  0.2906  0.5064
 7146SOL    HW122337   2.249   6.043   1.014 -1.3264  1.2676  0.6088
 7146SOL    HW222338   2.402   6.097   1.000 -0.8230 -0.3119 -0.3246
 7147SOL     OW22339   0.091   5.287   6.036 -0.1291 -0.2565 -0.2112
 7147SOL    HW122340   0.074   5.384   6.048 -1.3702 -0.6181  1.2029
 7147SOL    HW222341   0.028   5.250   5.967 -0.3978 -0.2601  0.0349
 7148SOL     OW22342   2.628   1.258   1.611  0.1266 -0.3584 -0.8414
 7148SOL    HW122343   2.608   1.318   1.534 -1.4955  0.1211 -0.1003
 7148SOL    HW222344   2.678   1.177   1.579 -0.4293 -0.1249 -2.3751
 7149SOL     OW22345   6.257   6.069   1.733 -0.5970 -0.1562 -0.1049
 7149SOL    HW122346   6.178   6.010   1.717 -2.0578  1.8687 -0.8107
 7149SOL    HW222347   6.225   6.161   1.756  1.5393  0.8956 -1.0706
 7150SOL     OW22348   4.682   0.477   5.444 -0.3187  0.5868  0.5301
 7150SOL    HW122349   4.770   0.437   5.472  0.2014  1.4149  0.1162
 7150SOL    HW222350   4.642   0.526   5.522 -0.7690 -0.3818  0.9245
 7151SOL     OW22351   6.334   4.644   4.278 -0.7805  0.0067  0.8766
 7151SOL    HW122352   6.275   4.563   4.287 -0.6455 -0.5387 -2.1338
 7151SOL    HW222353   6.303   4.699   4.200  0.9127  1.2919  1.0646
 7152SOL     OW22354   0.189   0.325   6.668  0.0975 -1.0667 -0.0002
 7152SOL    HW122355   0.100   0.293   6.699 -0.0620  0.1852  0.9279
 7152SOL    HW222356   0.186   0.343   6.570 -0.1838 -2.5579 -0.2842
 7153SOL     OW22357   2.555   5.478   2.743  0.1000  0.1265 -0.3749
 7153SOL    HW122358   2.468   5.486   2.792 -0.1297  1.5274 -0.9626
 7153SOL    HW222359   2.597   5.390   2.765 -1.3366 -0.4786  0.1252
 7154SOL     OW22360   5.125   0.412   6.928  0.4647 -0.2526 -0.7103
 7154SOL    HW122361   5.146   0.342   6.996 -0.2697  0.0235 -0.1889
 7154SOL    HW222362   5.210   0.445   6.886  0.8465 -1.1249 -0.6361
 7155SOL     OW22363   2.074   0.887   4.001 -0.1480 -0.0043 -0.2403
 7155SOL    HW122364   2.036   0.854   4.087 -0.8335 -4.0265 -1.8587
 7155SOL    HW222365   2.171   0.863   3.995  0.7934  3.0630  0.5244
 7156SOL     OW22366   5.875   0.573   6.172 -0.9905  0.1634  0.3284
 7156SOL    HW122367   5.799   0.624   6.211 -0.1575  0.6653  1.3304
 7156SOL    HW222368   5.962   0.616   6.198 -0.2960 -1.2162  0.4127
 7157SOL     OW22369   1.711   6.350   0.814  0.2769  0.3833  0.1905
 7157SOL    HW122370   1.656   6.269   0.834  0.3835  0.2204 -0.1727
 7157SOL    HW222371   1.777   6.329   0.742 -1.3550  1.4841 -1.7193
 7158SOL     OW22372   4.988   2.510   3.179 -0.4987  0.0243  0.2615
 7158SOL    HW122373   4.918   2.509   3.109 -0.5066 -1.5884  0.2489
 7158SOL    HW222374   5.037   2.422   3.179  1.2339  0.9336  0.5497
 7159SOL     OW22375   1.208   3.783   3.073 -0.5968 -0.6903 -0.3210
 7159SOL    HW122376   1.226   3.879   3.047 -0.0138 -0.7778 -0.2552
 7159SOL    HW222377   1.115   3.775   3.109 -0.8805 -0.2704 -0.9418
 7160SOL     OW22378   4.818   2.912   0.035 -0.3377  0.1746 -0.4008
 7160SOL    HW122379   4.769   2.858   0.103  0.3295 -0.7326 -0.6148
 7160SOL    HW222380   4.780   3.005   0.031 -0.4762  0.2015  1.1022
 7161SOL     OW22381   1.071   3.556   6.881 -0.0042 -0.2791 -0.5723
 7161SOL    HW122382   1.111   3.537   6.971 -1.1850 -1.2190 -0.2305
 7161SOL    HW222383   1.143   3.552   6.812  0.8060 -0.1878  0.2419
 7162SOL     OW22384   1.473   4.073   3.809 -0.1936 -0.3733 -0.4268
 7162SOL    HW122385   1.457   4.021   3.893 -0.6598  1.0573  0.4094
 7162SOL    HW222386   1.571   4.073   3.788 -0.0535 -0.6458  0.1904
 7163SOL     OW22387   1.138   6.138   1.074  0.3052  0.2100  0.4277
 7163SOL    HW122388   1.047   6.097   1.068  0.8343 -0.8695 -0.7175
 7163SOL    HW222389   1.142   6.199   1.153 -1.7258  1.0949 -0.0833
 7164SOL     OW22390   6.985   2.101   0.096 -0.2330 -0.1401  0.2187
 7164SOL    HW122391   6.889   2.119   0.117 -0.4911  0.8535 -1.5906
 7164SOL    HW222392   7.035   2.188   0.090  0.7054 -0.6186  0.6839
 7165SOL     OW22393   3.970   5.498   5.064  0.5232 -0.3778  0.2448
 7165SOL    HW122394   3.989   5.577   5.005 -0.1617 -1.5777 -1.6861
 7165SOL    HW222395   3.921   5.528   5.146 -1.8326  0.9835 -1.5453
 7166SOL     OW22396   5.055   4.085   2.843 -0.3606  0.2075  0.4356
 7166SOL    HW122397   4.973   4.029   2.833 -0.4813  0.6116 -1.2318
 7166SOL    HW222398   5.042   4.171   2.795  1.7558 -0.5662 -1.7435
 7167SOL     OW22399   1.229   6.326   4.513 -0.0055 -0.0305 -0.6040
 7167SOL    HW122400   1.191   6.418   4.529 -1.5249 -0.5923 -0.7527
 7167SOL    HW222401   1.326   6.325   4.537 -0.1743  1.3773  0.2739
 7168SOL     OW22402   6.668   5.842   3.616 -0.0283 -0.0521 -0.2626
 7168SOL    HW122403   6.590   5.879   3.565 -0.8334 -1.3937 -0.0403
 7168SOL    HW222404   6.647   5.749   3.647  1.9321 -0.7114 -0.7808
 7169SOL     OW22405   3.876   6.174   2.149 -0.1615  0.2643 -0.2037
 7169SOL    HW122406   3.794   6.148   2.200  1.0841  0.7599  2.2211
 7169SOL    HW222407   3.878   6.274   2.138 -0.0939  0.2147 -0.6620
 7170SOL     OW22408   5.781   5.474   6.339 -0.2629 -0.5536 -0.4418
 7170SOL    HW122409   5.692   5.448   6.377  0.5906  0.5579  2.5667
 7170SOL    HW222410   5.771   5.558   6.287 -0.8004  0.4035  1.1247
 7171SOL     OW22411   6.015   2.840   0.117  0.0529  0.2281  0.3925
 7171SOL    HW122412   5.927   2.817   0.075  1.0241 -0.0395 -1.5860
 7171SOL    HW222413   6.029   2.939   0.114  0.2318  0.1894 -0.1901
 7172SOL     OW22414   3.995   1.809   2.232  0.3331 -0.0116  0.8303
 7172SOL    HW122415   3.921   1.876   2.231 -0.9724 -1.4100  0.1003
 7172SOL    HW222416   4.042   1.813   2.320 -1.9118 -0.4285  2.1368
 7173SOL     OW22417   3.308   0.619   3.445  0.5890  0.4720 -0.1046
 7173SOL    HW122418   3.282   0.713   3.424  2.4053  0.7506 -1.3185
 7173SOL    HW222419   3.249   0.556   3.396 -0.1131  0.9860  0.0716
 7174SOL     OW22420   3.526   5.505   0.748 -0.1867  0.2956  0.0712
 7174SOL    HW122421   3.487   5.421   0.785  3.4957 -2.5612 -1.8366
 7174SOL    HW222422   3.522   5.503   0.648  0.5165  2.1334 -0.0423
 7175SOL     OW22423   2.434   0.431   6.921  0.3395 -0.5190  0.0570
 7175SOL    HW122424   2.370   0.427   6.845  0.7903  1.4453 -0.4856
 7175SOL    HW222425   2.386   0.460   7.004  0.4743  0.9301 -0.3442
 7176SOL     OW22426   5.787   3.315   2.644 -0.1478  0.1576  0.2444
 7176SOL    HW122427   5.814   3.288   2.551  3.1519 -0.6688  1.3039
 7176SOL    HW222428   5.689   3.298   2.656 -0.2341 -1.9519 -2.3618
 7177SOL     OW22429   3.946   4.741   6.229 -0.0441 -0.0863  0.3185
 7177SOL    HW122430   3.979   4.658   6.184 -1.6437 -1.6958  1.9421
 7177SOL    HW222431   3.846   4.747   6.219 -0.1662  0.6554  1.7391
 7178SOL     OW22432   5.947   6.534   2.315 -0.2183 -0.1881 -0.1771
 7178SOL    HW122433   6.012   6.471   2.357  1.9633  0.5767 -2.1701
 7178SOL    HW222434   5.976   6.629   2.331 -1.6547  0.2370  0.0763
 7179SOL     OW22435   4.505   5.143   4.843  0.5213  0.3325 -0.4065
 7179SOL    HW122436   4.425   5.124   4.900 -0.7277 -0.2038 -2.2529
 7179SOL    HW222437   4.544   5.057   4.812  0.4524  0.6215 -1.3165
 7180SOL     OW22438   1.207   4.803   6.438  0.0415  0.4705  0.5316
 7180SOL    HW122439   1.129   4.810   6.376 -0.8592 -0.4894  1.5136
 7180SOL    HW222440   1.176   4.815   6.532  1.2711  1.1968  0.8561
 7181SOL     OW22441   5.752   5.394   6.761 -0.6828  0.5041  0.3168
 7181SOL    HW122442   5.693   5.390   6.681 -1.5179 -0.3563  0.9579
 7181SOL    HW222443   5.787   5.303   6.783 -0.3219  0.7551  0.8298
 7182SOL     OW22444   4.699   3.893   5.284  0.0464  0.2240 -0.0259
 7182SOL    HW122445   4.622   3.874   5.345  0.4659 -0.8240  0.2017
 7182SOL    HW222446   4.688   3.983   5.243 -2.7360 -0.9384 -2.1410
 7183SOL     OW22447   3.472   5.355   6.491  0.2381 -0.1011 -0.5755
 7183SOL    HW122448   3.459   5.439   6.545  0.7846 -1.3160  1.5517
 7183SOL    HW222449   3.399   5.349   6.423 -1.3425  0.8493  0.9223
 7184SOL     OW22450   5.679   0.308   6.657  0.1471  0.3217  0.1771
 7184SOL    HW122451   5.735   0.254   6.720 -0.2784  1.9292  2.0429
 7184SOL    HW222452   5.732   0.386   6.624 -0.3625  0.7699  0.3983
 7185SOL     OW22453   5.072   1.163   0.256 -0.0681 -0.2561  0.3107
 7185SOL    HW122454   4.990   1.217   0.235 -0.4726 -0.1782  1.9943
 7185SOL    HW222455   5.116   1.135   0.170 -0.2494  2.0948 -0.6149
 7186SOL     OW22456   0.687   3.823   3.712  1.1380 -0.6912  0.3401
 7186SOL    HW122457   0.780   3.792   3.734  0.6200 -1.9961  0.7744
 7186SOL    HW222458   0.624   3.746   3.720 -0.1654  0.4170  1.1495
 7187SOL     OW22459   3.012   3.582   6.062  0.4636  0.0111  1.2779
 7187SOL    HW122460   3.074   3.555   5.988 -0.0217  0.8726  0.5399
 7187SOL    HW222461   3.013   3.512   6.134 -0.7200 -1.9678 -0.5234
 7188SOL     OW22462   3.280   0.937   1.701  0.8108 -0.1026  0.1884
 7188SOL    HW122463   3.186   0.906   1.711  0.3210  1.2819  0.0394
 7188SOL    HW222464   3.331   0.871   1.646 -0.0972 -0.8111  0.1727
 7189SOL     OW22465   2.241   1.452   4.120 -0.0008 -0.0806  0.2063
 7189SOL    HW122466   2.179   1.530   4.123  0.0514 -0.0374  0.1628
 7189SOL    HW222467   2.195   1.372   4.157 -0.7634 -0.5167 -1.5701
 7190SOL     OW22468   0.900   0.085   0.768  0.3977  0.2459  0.6022
 7190SOL    HW122469   0.808   0.047   0.761 -0.2609  1.8873 -0.3541
 7190SOL    HW222470   0.899   0.163   0.830  0.8852  0.9135 -0.2010
 7191SOL     OW22471   3.491   0.990   6.341  0.4101  0.2329  0.3977
 7191SOL    HW122472   3.516   1.085   6.360  1.0032  0.1731 -0.0683
 7191SOL    HW222473   3.407   0.988   6.287  1.4276  0.5734 -1.2483
 7192SOL     OW22474   5.425   0.229   6.728 -0.1021  0.1796 -0.0429
 7192SOL    HW122475   5.398   0.274   6.814 -0.4931 -0.8270  0.3787
 7192SOL    HW222476   5.515   0.262   6.701 -1.2648  2.9017 -0.9653
 7193SOL     OW22477   4.407   5.804   6.703  0.2682 -0.0512  0.0717
 7193SOL    HW122478   4.490   5.785   6.651 -0.6190 -2.2400 -0.6593
 7193SOL    HW222479   4.340   5.850   6.644 -0.2351 -1.2901 -0.3369
 7194SOL     OW22480   6.434   1.609   4.530 -0.1400 -0.3551 -0.2729
 7194SOL    HW122481   6.373   1.545   4.484 -0.7375 -0.6319  0.8700
 7194SOL    HW222482   6.488   1.561   4.599 -0.5021  0.3386  0.5129
 7195SOL     OW22483   1.787   3.644   2.659 -0.4931  0.0127  0.5084
 7195SOL    HW122484   1.855   3.697   2.709  0.2222  1.0656 -1.4759
 7195SOL    HW222485   1.749   3.700   2.585  1.5099 -2.6127 -2.7994
 7196SOL     OW22486   0.911   0.590   5.675 -0.6015  0.0407 -0.4438
 7196SOL    HW122487   1.007   0.619   5.665 -1.0486  2.3663  1.0631
 7196SOL    HW222488   0.897   0.553   5.767 -1.6847  2.4504  0.4442
 7197SOL     OW22489   5.081   5.694   1.063 -0.1676 -0.5085  0.7839
 7197SOL    HW122490   5.158   5.697   1.127 -0.3134  0.0447  0.9337
 7197SOL    HW222491   5.114   5.659   0.975  0.4079  0.3432  0.6464
 7198SOL     OW22492   4.911   6.912   1.603  0.5935  0.1978  0.0961
 7198SOL    HW122493   4.954   6.874   1.684 -0.1930  0.7776  0.8056
 7198SOL    HW222494   4.812   6.918   1.617  0.5467  1.1813 -0.5327
 7199SOL     OW22495   0.831   5.784   4.157 -0.5427  0.2303 -0.1592
 7199SOL    HW122496   0.762   5.712   4.144 -0.2214  0.1385 -1.5581
 7199SOL    HW222497   0.915   5.744   4.194 -0.0679 -0.3054 -1.7429
 7200SOL     OW22498   0.291   0.017   1.624  0.1471  0.5195  0.0510
 7200SOL    HW122499   0.288   0.096   1.562  1.4890  2.3258  2.1106
 7200SOL    HW222500   0.385   0.000   1.652 -0.1828 -1.5680  0.0480
 7201SOL     OW22501   5.670   5.132   1.258 -0.5529  0.3754 -0.0504
 7201SOL    HW122502   5.656   5.198   1.332  0.6130  0.7271 -0.1182
 7201SOL    HW222503   5.618   5.049   1.278 -1.6828  1.1227  0.2612
 7202SOL     OW22504   1.220   7.002   5.936  0.0539 -0.4966 -0.2795
 7202SOL    HW122505   1.246   7.030   5.843 -0.5529 -3.4785 -1.4376
 7202SOL    HW222506   1.123   6.979   5.938  0.0194 -0.3008  1.1690
 7203SOL     OW22507   4.022   5.162   6.252  0.0775 -0.1381  0.4484
 7203SOL    HW122508   3.938   5.155   6.305  0.1165  0.6437  0.6166
 7203SOL    HW222509   4.051   5.258   6.246  1.0572 -0.4135  0.5456
 7204SOL     OW22510   3.760   6.511   0.795  0.2713  0.1032  0.5484
 7204SOL    HW122511   3.822   6.582   0.761  0.8616  0.2229  1.8079
 7204SOL    HW222512   3.727   6.535   0.886  1.6120 -1.8465  1.6390
 7205SOL     OW22513   0.743   1.437   4.515 -0.2070 -0.1663 -0.1849
 7205SOL    HW122514   0.727   1.381   4.596  0.0331 -0.3324 -0.2515
 7205SOL    HW222515   0.671   1.507   4.508 -1.5870 -1.6156 -1.1184
 7206SOL     OW22516   3.613   0.064   4.684  0.2975  0.3830 -0.2655
 7206SOL    HW122517   3.597   0.117   4.601  1.1817 -0.2197 -0.8448
 7206SOL    HW222518   3.710   0.039   4.689 -0.1417 -1.4313 -0.1688
 7207SOL     OW22519   5.938   4.044   4.374  0.1918  0.1304  0.5100
 7207SOL    HW122520   5.887   4.102   4.437 -0.0371  0.2763  0.1914
 7207SOL    HW222521   6.036   4.051   4.393  0.3955  2.4977 -1.0755
 7208SOL     OW22522   2.142   1.987   3.001  0.3971 -0.1510 -0.0712
 7208SOL    HW122523   2.147   1.937   3.088 -0.3483  1.8127  1.1711
 7208SOL    HW222524   2.230   2.033   2.984  0.4042 -0.1899 -0.1405
 7209SOL     OW22525   4.980   0.654   5.580 -0.2878  0.5257 -0.3033
 7209SOL    HW122526   4.947   0.560   5.585 -0.5401  0.5383 -1.4120
 7209SOL    HW222527   4.967   0.699   5.668  0.4462 -0.6658  0.4339
 7210SOL     OW22528   4.294   1.361   2.277  0.2093 -0.2664 -0.2127
 7210SOL    HW122529   4.354   1.439   2.298  0.9848 -1.4175  2.1156
 7210SOL    HW222530   4.293   1.346   2.178  1.6610  1.4244 -0.5348
 7211SOL     OW22531   4.031   3.764   3.527  0.0511 -0.0371  0.1022
 7211SOL    HW122532   4.031   3.736   3.623  0.1383  0.1749  0.1631
 7211SOL    HW222533   4.020   3.863   3.520 -3.0399 -0.2890 -0.1596
 7212SOL     OW22534   2.125   3.333   2.837 -0.3026 -0.0646  0.0163
 7212SOL    HW122535   2.048   3.366   2.890  0.6558 -0.5046  1.7498
 7212SOL    HW222536   2.149   3.240   2.866  1.7968  0.6003  0.5823
 7213SOL     OW22537   6.899   3.094   5.910 -0.3996  0.1844 -0.1817
 7213SOL    HW122538   6.975   3.091   5.844 -1.1142 -2.6807 -1.0360
 7213SOL    HW222539   6.935   3.075   6.001 -0.0587 -1.7897 -0.6638
 7214SOL     OW22540   5.577   5.722   2.693 -0.1449 -0.4952 -0.0776
 7214SOL    HW122541   5.540   5.655   2.629 -0.6973 -0.9398  0.6857
 7214SOL    HW222542   5.676   5.724   2.687 -0.1049 -1.6011  0.0980
 7215SOL     OW22543   6.985   5.067   4.115  0.1007  0.1821 -0.9366
 7215SOL    HW122544   6.990   5.088   4.017 -0.1243  2.8099 -0.4498
 7215SOL    HW222545   7.067   5.102   4.161 -0.1691 -0.2974 -0.0721
 7216SOL     OW22546   1.362   5.537   3.910 -0.9166 -0.2725 -0.6929
 7216SOL    HW122547   1.324   5.459   3.960 -0.0170 -0.8398 -0.8766
 7216SOL    HW222548   1.371   5.615   3.971 -0.7410 -0.6655 -0.2174
 7217SOL     OW22549   1.876   4.634   4.043 -0.2354  0.2186  0.0451
 7217SOL    HW122550   1.779   4.635   4.067 -0.5566 -0.1199 -1.1563
 7217SOL    HW222551   1.887   4.669   3.950  0.4434 -2.4715 -0.9646
 7218SOL     OW22552   1.257   3.046   2.066 -0.2178  0.2081 -0.3120
 7218SOL    HW122553   1.178   2.986   2.057 -0.3639  0.6171 -2.2028
 7218SOL    HW222554   1.232   3.138   2.036  0.9695  0.3351 -0.9626
 7219SOL     OW22555   3.475   6.774   5.282  0.0174 -0.4094 -0.0903
 7219SOL    HW122556   3.533   6.728   5.215 -0.7634 -1.6529  0.0526
 7219SOL    HW222557   3.457   6.868   5.252  0.8246 -0.5021 -0.9005
 7220SOL     OW22558   4.367   3.467   0.626  0.4644  0.0934 -0.3448
 7220SOL    HW122559   4.359   3.392   0.561  0.2721 -1.5249  1.4773
 7220SOL    HW222560   4.306   3.542   0.598 -2.3336 -1.9677 -0.2076
 7221SOL     OW22561   2.778   2.219   2.215 -0.2794  0.4825  0.3931
 7221SOL    HW122562   2.834   2.270   2.150 -0.5086  2.2921  1.5465
 7221SOL    HW222563   2.686   2.258   2.217 -1.0420 -1.1874 -0.0170
 7222SOL     OW22564   0.414   3.048   0.875 -0.2482  0.6383  0.1303
 7222SOL    HW122565   0.490   3.008   0.823 -0.1489  0.2426  0.5757
 7222SOL    HW222566   0.337   2.984   0.876  0.1437  0.1568  1.3972
 7223SOL     OW22567   4.302   6.265   6.937 -1.1111 -0.4455  0.4040
 7223SOL    HW122568   4.381   6.215   6.901 -0.5395  1.6979 -1.5808
 7223SOL    HW222569   4.220   6.211   6.923 -0.4012 -1.2942 -0.7167
 7224SOL     OW22570   4.505   1.085   6.170 -0.1580 -0.1693 -0.0433
 7224SOL    HW122571   4.469   1.101   6.261  0.0862  1.3971 -0.1959
 7224SOL    HW222572   4.603   1.105   6.169 -0.5969  2.3530 -1.1831
 7225SOL     OW22573   3.815   2.082   5.020  0.1151 -0.4544 -0.1977
 7225SOL    HW122574   3.718   2.100   5.035  0.5128 -0.2649  2.9030
 7225SOL    HW222575   3.832   1.983   5.029  0.2333 -0.4751 -0.6308
 7226SOL     OW22576   5.251   6.243   1.709  0.2110 -0.4782 -0.3552
 7226SOL    HW122577   5.232   6.204   1.799  0.9254 -1.1247 -0.4741
 7226SOL    HW222578   5.181   6.211   1.644 -1.2333  1.2505  0.2772
 7227SOL     OW22579   0.486   3.205   4.263 -0.3827  0.1031 -0.0449
 7227SOL    HW122580   0.487   3.259   4.346  0.7264  0.3052 -0.1830
 7227SOL    HW222581   0.579   3.190   4.231 -0.6368 -1.8842 -0.0121
 7228SOL     OW22582   1.793   3.361   2.640 -0.1145  0.8259  0.0099
 7228SOL    HW122583   1.819   3.445   2.688 -0.0408  0.6145  0.3396
 7228SOL    HW222584   1.705   3.328   2.675  0.1884  0.3873  0.3684
 7229SOL     OW22585   5.661   2.991   3.080  0.5616  0.9158  0.3980
 7229SOL    HW122586   5.593   3.058   3.112 -1.1132  0.0972 -1.2479
 7229SOL    HW222587   5.684   2.929   3.155  0.3956  1.9305  1.3115
 7230SOL     OW22588   3.710   1.139   2.626  0.0891  0.1218 -0.4610
 7230SOL    HW122589   3.781   1.099   2.569 -0.9897 -2.6251 -0.0071
 7230SOL    HW222590   3.620   1.105   2.598 -0.6533  0.1682  1.6312
 7231SOL     OW22591   6.676   6.668   6.026 -0.2556  0.0937  0.0268
 7231SOL    HW122592   6.745   6.652   5.955 -0.8002 -2.8396  0.0445
 7231SOL    HW222593   6.585   6.673   5.985 -0.3962  0.4029  0.3623
 7232SOL     OW22594   1.372   5.254   0.306 -0.3830  0.2343  0.1615
 7232SOL    HW122595   1.408   5.168   0.270  0.0772 -0.1468  1.4634
 7232SOL    HW222596   1.436   5.328   0.286  0.1925 -0.0914  0.7561
 7233SOL     OW22597   5.358   3.106   2.630  0.5007 -0.0464  0.6507
 7233SOL    HW122598   5.268   3.140   2.656  0.5126  0.8484 -0.4090
 7233SOL    HW222599   5.362   3.007   2.646 -0.3682  0.0425  1.4964
 7234SOL     OW22600   2.925   1.715   0.069 -0.1430 -0.2484 -0.3424
 7234SOL    HW122601   2.943   1.688  -0.026 -0.6490  0.9922 -0.8035
 7234SOL    HW222602   2.829   1.695   0.091 -0.5618  1.2287 -0.7321
 7235SOL     OW22603   6.565   2.694   6.543  0.2333 -0.1113 -0.0627
 7235SOL    HW122604   6.536   2.607   6.583  1.0168 -0.7641 -0.8624
 7235SOL    HW222605   6.486   2.754   6.531 -0.1780 -0.3186  1.3979
 7236SOL     OW22606   5.612   1.678   0.624 -0.1890  0.1229  0.2173
 7236SOL    HW122607   5.660   1.690   0.711 -1.0383 -1.7344  1.0013
 7236SOL    HW222608   5.624   1.759   0.567  1.1103  1.0216  1.7085
 7237SOL     OW22609   2.661   5.282   3.553  0.3892 -0.7785 -0.1190
 7237SOL    HW122610   2.565   5.256   3.558 -0.2043  1.0273 -1.0976
 7237SOL    HW222611   2.692   5.277   3.458  0.8153  0.0326 -0.0346
 7238SOL     OW22612   5.516   2.874   6.023 -0.5326 -0.1323 -0.1024
 7238SOL    HW122613   5.581   2.944   6.054 -1.0140  0.1548  0.2803
 7238SOL    HW222614   5.554   2.784   6.042 -0.4459  0.0357  0.5662
 7239SOL     OW22615   2.406   0.986   1.400  0.0935 -0.1085 -0.2321
 7239SOL    HW122616   2.339   0.973   1.326 -1.0549 -3.6281  1.1770
 7239SOL    HW222617   2.367   1.046   1.469 -1.2855 -1.3136  0.0962
 7240SOL     OW22618   2.968   1.750   1.566 -0.4199  0.0747 -0.1221
 7240SOL    HW122619   3.044   1.805   1.530  0.0691 -0.3273  0.2701
 7240SOL    HW222620   2.992   1.653   1.560 -1.3518 -0.1234 -0.9906
 7241SOL     OW22621   2.851   6.737   1.189 -0.2265  0.0590  0.1990
 7241SOL    HW122622   2.781   6.808   1.200 -1.6261 -1.3807  1.1805
 7241SOL    HW222623   2.889   6.741   1.097  0.4352  2.6504  0.5071
 7242SOL     OW22624   5.991   6.477   5.430  0.3478 -0.5927  0.1227
 7242SOL    HW122625   5.939   6.540   5.373 -0.4118 -0.9303  0.4282
 7242SOL    HW222626   6.072   6.446   5.381  0.5255  0.3303 -0.1681
 7243SOL     OW22627   0.662   0.748   6.301 -0.1612  0.1439 -0.2606
 7243SOL    HW122628   0.629   0.803   6.225 -0.4732  2.3041  1.3338
 7243SOL    HW222629   0.586   0.694   6.339 -0.5891  0.8923 -0.0267
 7244SOL     OW22630   5.923   1.496   2.862 -0.1720 -0.2808  0.8472
 7244SOL    HW122631   5.888   1.514   2.954 -1.7937 -2.8822  0.8474
 7244SOL    HW222632   5.975   1.410   2.862  0.7240  0.2260 -0.4791
 7245SOL     OW22633   3.005   2.589   6.597  0.6940 -0.3146 -0.3085
 7245SOL    HW122634   2.906   2.598   6.593  0.7022  0.4792  0.7411
 7245SOL    HW222635   3.041   2.567   6.506 -0.4214 -0.5058 -0.7184
 7246SOL     OW22636   0.442   3.068   5.667 -1.1556 -0.1148  0.3974
 7246SOL    HW122637   0.443   3.159   5.709  2.0842  0.0529  0.1760
 7246SOL    HW222638   0.465   3.076   5.570  1.7653 -1.2726  0.9113
 7247SOL     OW22639   5.418   2.482   3.667 -0.2624  0.0366 -0.3335
 7247SOL    HW122640   5.445   2.458   3.574  0.1000  0.1473 -0.2576
 7247SOL    HW222641   5.335   2.538   3.665 -1.1093 -1.1820 -0.5151
 7248SOL     OW22642   3.594   6.262   6.711 -0.1129 -0.6304 -0.2268
 7248SOL    HW122643   3.508   6.263   6.660  0.1442 -0.9171 -0.6763
 7248SOL    HW222644   3.600   6.344   6.767 -0.5874 -0.5060 -0.3480
 7249SOL     OW22645   6.782   0.914   2.788  0.6824  0.3144  0.5353
 7249SOL    HW122646   6.762   0.969   2.869 -4.4791 -2.0050  1.2657
 7249SOL    HW222647   6.700   0.908   2.731  2.2905 -2.9810 -1.7477
 7250SOL     OW22648   0.809   6.323   0.560  0.1602 -0.5737  0.3239
 7250SOL    HW122649   0.742   6.257   0.596  0.4288 -0.9596  0.1271
 7250SOL    HW222650   0.806   6.321   0.460  1.7987 -2.0058  0.2542
 7251SOL     OW22651   2.255   1.586   5.097  0.0029  0.4115  0.5447
 7251SOL    HW122652   2.352   1.560   5.103 -0.4154 -1.1295  1.0904
 7251SOL    HW222653   2.207   1.523   5.037 -1.2496 -0.7528  2.6472
 7252SOL     OW22654   6.975   5.395   0.514  0.0107  0.1252  0.2627
 7252SOL    HW122655   6.985   5.339   0.596  2.5686  1.5813  1.0574
 7252SOL    HW222656   6.954   5.489   0.540  2.6217  1.0229 -0.5205
 7253SOL     OW22657   6.474   4.322   3.656  0.3428 -0.1351  0.2262
 7253SOL    HW122658   6.463   4.292   3.561 -1.7924 -0.0045  0.3738
 7253SOL    HW222659   6.488   4.421   3.659  4.0727 -0.4979 -0.0701
 7254SOL     OW22660   0.038   4.803   4.188 -0.0744  0.6856 -0.2498
 7254SOL    HW122661   0.012   4.845   4.101  0.3102 -0.7544 -1.0932
 7254SOL    HW222662   0.117   4.851   4.226  0.2421  0.8479 -1.0893
 7255SOL     OW22663   0.313   0.453   1.468 -0.2338 -0.1454  0.0901
 7255SOL    HW122664   0.385   0.462   1.537  0.2706 -3.3803  0.1620
 7255SOL    HW222665   0.231   0.500   1.499  0.6640  0.3571  1.8453
 7256SOL     OW22666   3.781   1.456   2.251  0.5259  0.3605 -0.2654
 7256SOL    HW122667   3.865   1.435   2.301  1.1544 -1.4682 -1.9888
 7256SOL    HW222668   3.712   1.489   2.316  1.0980 -2.4176  1.9696
 7257SOL     OW22669   0.604   0.534   0.843 -0.9110  0.3351 -0.3579
 7257SOL    HW122670   0.511   0.508   0.870 -0.5394 -0.4763  0.1628
 7257SOL    HW222671   0.668   0.463   0.870 -0.3406  0.0580 -2.2685
 7258SOL     OW22672   3.427   1.576   3.732 -0.0902  0.3224  0.2735
 7258SOL    HW122673   3.500   1.640   3.711  0.1228  0.2056  0.6502
 7258SOL    HW222674   3.466   1.487   3.758 -0.3347 -1.2141 -3.8193
 7259SOL     OW22675   2.850   0.499   2.784 -0.0014 -0.1438 -0.3050
 7259SOL    HW122676   2.806   0.489   2.694 -1.0777 -1.9309  0.3680
 7259SOL    HW222677   2.782   0.528   2.851  0.4766 -0.2703  0.2358
 7260SOL     OW22678   1.763   5.196   6.295  0.2991 -0.2520 -0.3472
 7260SOL    HW122679   1.712   5.163   6.375  5.4059 -2.4459  2.4526
 7260SOL    HW222680   1.786   5.119   6.236  2.3024  0.1860 -0.2098
 7261SOL     OW22681   3.509   2.763   6.041  0.5852  0.1456  0.0400
 7261SOL    HW122682   3.546   2.685   6.093  1.5404  0.1167 -0.6579
 7261SOL    HW222683   3.421   2.737   6.000  1.3705 -0.9355 -1.0268
 7262SOL     OW22684   0.695   0.373   1.170  0.2817 -0.9089  0.0408
 7262SOL    HW122685   0.653   0.313   1.101 -0.2629 -0.6145  0.1041
 7262SOL    HW222686   0.767   0.427   1.127 -1.3468  0.6941 -0.8103
 7263SOL     OW22687   0.559   2.197   0.668  0.0191  0.2586 -0.4217
 7263SOL    HW122688   0.508   2.136   0.730  2.5228 -0.9182  0.6088
 7263SOL    HW222689   0.511   2.202   0.580 -0.9825 -2.1487 -0.1021
 7264SOL     OW22690   1.888   0.931   6.182  0.3012  0.6446 -0.2857
 7264SOL    HW122691   1.828   0.882   6.245  0.1169  0.8188 -0.3240
 7264SOL    HW222692   1.874   1.030   6.192  1.6539  0.7556  0.7654
 7265SOL     OW22693   1.159   1.637   3.514 -0.5486 -0.7087  0.0657
 7265SOL    HW122694   1.247   1.670   3.546  0.7163 -3.4907 -0.2011
 7265SOL    HW222695   1.089   1.655   3.583  0.2915  1.1459  0.4781
 7266SOL     OW22696   6.082   2.431   2.543  0.3506 -0.1090  0.1549
 7266SOL    HW122697   6.049   2.361   2.479  0.0857  0.1669 -0.0107
 7266SOL    HW222698   6.122   2.507   2.491 -0.6519  0.5156  0.2852
 7267SOL     OW22699   4.527   4.486   4.752  0.3164 -0.0156  0.4399
 7267SOL    HW122700   4.471   4.513   4.831  1.3266 -1.0961  1.5872
 7267SOL    HW222701   4.483   4.516   4.668 -1.2956  0.3386  1.3620
 7268SOL     OW22702   7.008   1.089   3.416  0.0674  0.0395 -0.0369
 7268SOL    HW122703   7.048   1.060   3.504 -1.0454  1.0828  0.8482
 7268SOL    HW222704   6.910   1.073   3.418 -0.2236  1.6244 -0.4283
 7269SOL     OW22705   5.859   2.477   1.479 -0.0600 -0.2911 -0.1171
 7269SOL    HW122706   5.765   2.482   1.514  0.1635  1.5993  0.2663
 7269SOL    HW222707   5.922   2.516   1.545  1.1720 -2.3794  0.0300
 7270SOL     OW22708   4.760   6.934   6.237 -0.0872 -0.4195 -0.0240
 7270SOL    HW122709   4.831   6.922   6.167 -0.5956 -0.4888 -0.5356
 7270SOL    HW222710   4.769   7.025   6.277  0.9662 -0.8143  0.6914
 7271SOL     OW22711   2.589   6.005   4.608  0.3916 -0.0277 -0.4733
 7271SOL    HW122712   2.495   6.014   4.639  0.4840 -0.8831  0.0904
 7271SOL    HW222713   2.595   5.936   4.536  0.5180  0.3564 -0.8340
 7272SOL     OW22714   0.908   0.730   1.349  0.2617 -0.0165 -0.3032
 7272SOL    HW122715   0.872   0.814   1.310  1.2844  1.2776  1.3911
 7272SOL    HW222716   0.994   0.705   1.305  0.3313  0.2457 -0.3124
 7273SOL     OW22717   2.607   0.055   0.897  0.1440  0.4129 -0.7568
 7273SOL    HW122718   2.542   0.120   0.936 -0.1610  1.3048 -2.6463
 7273SOL    HW222719   2.559  -0.029   0.871 -0.0512  0.6293 -1.1036
 7274SOL     OW22720   5.247   5.159   6.129 -0.1622 -0.0279  0.5042
 7274SOL    HW122721   5.201   5.074   6.154  0.1753  0.1870  1.9172
 7274SOL    HW222722   5.228   5.230   6.198 -0.3044  1.0063 -0.5574
 7275SOL     OW22723   1.608   5.483   5.058 -0.3263 -0.4654  0.1302
 7275SOL    HW122724   1.648   5.439   5.138 -0.6975  0.8836  1.0883
 7275SOL    HW222725   1.681   5.507   4.994  0.2373  0.3549  1.0505
 7276SOL     OW22726   0.322   2.591   4.641  0.0061 -0.0357  0.1195
 7276SOL    HW122727   0.253   2.518   4.636 -1.4542  1.3363 -0.7343
 7276SOL    HW222728   0.298   2.664   4.578  2.1722  0.6100 -0.0306
 7277SOL     OW22729   6.331   1.895   5.243  0.3555 -0.2523 -0.2313
 7277SOL    HW122730   6.414   1.926   5.290  0.4429 -0.7922 -0.0140
 7277SOL    HW222731   6.317   1.949   5.160 -0.7687  1.9297  1.2839
 7278SOL     OW22732   2.155   0.080   0.690  0.1145  0.6002  0.4252
 7278SOL    HW122733   2.082   0.033   0.740  0.1318  0.6444  0.4922
 7278SOL    HW222734   2.118   0.119   0.606 -0.3174  2.0147  1.2219
 7279SOL     OW22735   4.756   4.328   6.948 -0.1097  0.2490 -1.1487
 7279SOL    HW122736   4.832   4.264   6.955  0.6937  1.1806 -1.0286
 7279SOL    HW222737   4.761   4.377   6.861  0.1142  1.1213 -0.6673
 7280SOL     OW22738   1.387   2.170   0.527 -0.7247  0.0021 -0.0233
 7280SOL    HW122739   1.381   2.073   0.503  1.1208 -0.4016  0.9756
 7280SOL    HW222740   1.472   2.187   0.577 -0.1009  2.4770 -1.7227
 7281SOL     OW22741   5.281   5.953   6.498  0.1580  0.1004  0.0045
 7281SOL    HW122742   5.322   6.005   6.573  3.0504 -0.1361 -1.2877
 7281SOL    HW222743   5.221   6.013   6.445 -1.5669  0.3781  2.1680
 7282SOL     OW22744   4.199   2.294   3.976  0.5490  0.8551  0.1771
 7282SOL    HW122745   4.217   2.243   3.892 -0.5165 -0.7098  0.8512
 7282SOL    HW222746   4.274   2.358   3.993  1.5824  0.0310 -1.0974
 7283SOL     OW22747   5.304   3.863   1.623 -0.8598 -0.2919 -0.0803
 7283SOL    HW122748   5.384   3.883   1.679 -0.9596  1.5829 -0.5443
 7283SOL    HW222749   5.291   3.764   1.618  1.8423 -0.7032 -0.5496
 7284SOL     OW22750   6.677   6.461   4.115 -0.1327  0.6860  0.1821
 7284SOL    HW122751   6.603   6.462   4.181 -1.2706  1.8752 -1.0362
 7284SOL    HW222752   6.727   6.548   4.120  0.1449  0.5446 -0.1087
 7285SOL     OW22753   5.252   6.248   3.136  0.0109  0.0502 -0.4963
 7285SOL    HW122754   5.194   6.186   3.083 -0.7677  1.0400 -0.8468
 7285SOL    HW222755   5.270   6.330   3.082  0.8226  0.2365  0.0475
 7286SOL     OW22756   6.727   4.365   5.726 -0.2161  0.4704  0.1874
 7286SOL    HW122757   6.746   4.292   5.793  2.9044 -1.0657 -2.1170
 7286SOL    HW222758   6.680   4.326   5.647  3.7436  0.0851 -2.2448
 7287SOL     OW22759   6.289   6.465   3.913  0.8342 -0.1576 -0.3034
 7287SOL    HW122760   6.334   6.375   3.906 -2.1616 -1.7729 -0.2599
 7287SOL    HW222761   6.253   6.476   4.006 -0.0813  0.4384 -0.7229
 7288SOL     OW22762   1.130   6.451   0.112 -0.6421 -0.0709  0.6448
 7288SOL    HW122763   1.107   6.375   0.174  1.6030 -2.9809 -1.8118
 7288SOL    HW222764   1.222   6.483   0.132 -0.6582  0.3432  0.0534
 7289SOL     OW22765   6.835   2.093   2.883 -0.6394 -0.2484 -0.9617
 7289SOL    HW122766   6.805   2.016   2.939  1.2622 -0.9062 -0.7784
 7289SOL    HW222767   6.886   2.158   2.940  0.9741 -0.7292 -1.8004
 7290SOL     OW22768   5.963   6.592   0.467  0.6925  0.5148 -0.4035
 7290SOL    HW122769   6.053   6.574   0.509  0.1357 -1.0380  0.2043
 7290SOL    HW222770   5.959   6.548   0.378  0.7708  1.1855 -0.7431
 7291SOL     OW22771   4.329   6.097   4.136  0.3244 -0.2356  0.0003
 7291SOL    HW122772   4.398   6.059   4.198  0.0373 -0.7183  0.0277
 7291SOL    HW222773   4.369   6.109   4.045  0.6248  0.0798  0.1693
 7292SOL     OW22774   4.388   0.582   6.149  0.2173 -0.0930  0.3028
 7292SOL    HW122775   4.479   0.541   6.160  1.5580  2.9380  1.4045
 7292SOL    HW222776   4.394   0.661   6.088 -1.8221 -0.0958  0.0339
 7293SOL     OW22777   6.961   4.946   1.783  0.0835  0.5041 -0.1490
 7293SOL    HW122778   6.995   5.019   1.841 -0.2956 -0.4292  1.3040
 7293SOL    HW222779   7.006   4.860   1.808 -0.7317 -0.0824 -0.6422
 7294SOL     OW22780   6.156   3.089   5.232  0.6133 -0.2048  0.1513
 7294SOL    HW122781   6.227   3.137   5.284  2.4816  0.1117 -2.4700
 7294SOL    HW222782   6.079   3.150   5.216 -0.3085 -0.4901  2.8759
 7295SOL     OW22783   5.843   0.240   5.800 -0.4271  0.5032  0.1275
 7295SOL    HW122784   5.879   0.300   5.871  0.9294  0.5057 -0.5296
 7295SOL    HW222785   5.851   0.285   5.711  2.4732 -1.2782 -0.6696
 7296SOL     OW22786   2.189   5.036   5.325  0.0575 -0.1432 -0.1562
 7296SOL    HW122787   2.286   5.035   5.300  0.1241 -0.3756  0.1056
 7296SOL    HW222788   2.172   5.113   5.385  0.0205  0.0622 -0.4266
 7297SOL     OW22789   2.280   2.085   0.441  0.1675 -0.1560 -0.9533
 7297SOL    HW122790   2.263   2.059   0.536 -0.8450 -0.7432 -1.2813
 7297SOL    HW222791   2.334   2.014   0.396 -0.1928 -0.3519 -1.0804
 7298SOL     OW22792   0.337   1.964   4.354  0.7818  0.0309 -0.5173
 7298SOL    HW122793   0.369   2.018   4.276  1.1286 -0.3818 -0.6636
 7298SOL    HW222794   0.299   2.026   4.423 -0.4557  0.3368 -1.4273
 7299SOL     OW22795   6.266   2.949   1.739 -0.0491  0.0359  0.3027
 7299SOL    HW122796   6.183   2.999   1.716  1.9165  2.4569 -2.2807
 7299SOL    HW222797   6.300   2.979   1.828 -1.6026 -0.6420  1.1669
 7300SOL     OW22798   5.735   4.817   3.203 -0.4452 -0.0397 -0.5295
 7300SOL    HW122799   5.781   4.812   3.292 -1.2528 -1.9772 -0.1739
 7300SOL    HW222800   5.708   4.912   3.185 -1.3909  0.2414  1.9036
 7301SOL     OW22801   1.234   4.258   5.836  0.3172  0.1232 -0.2128
 7301SOL    HW122802   1.222   4.357   5.846  1.7271  0.2423  0.5957
 7301SOL    HW222803   1.326   4.233   5.865  0.1917 -1.3563 -1.0062
 7302SOL     OW22804   2.887   5.127   3.641  0.2051  0.0700 -0.4234
 7302SOL    HW122805   2.897   5.051   3.705  2.8814  0.5570 -0.1343
 7302SOL    HW222806   2.800   5.173   3.658 -0.2364 -1.2603  1.2335
 7303SOL     OW22807   6.907   3.179   0.086  0.0430 -0.2901 -0.0351
 7303SOL    HW122808   6.883   3.212   0.177  0.9800 -1.6115  0.7258
 7303SOL    HW222809   7.004   3.195   0.069  0.3924 -1.9738  0.1147
 7304SOL     OW22810   3.669   0.803   4.608  0.5192 -0.1677  0.0019
 7304SOL    HW122811   3.703   0.792   4.702  0.2592 -1.5547 -0.0470
 7304SOL    HW222812   3.570   0.821   4.611  0.0551 -2.4629 -0.0448
 7305SOL     OW22813   1.243   2.618   4.096 -0.2972 -0.6797  0.2522
 7305SOL    HW122814   1.160   2.568   4.118  0.0905 -1.2153  0.5352
 7305SOL    HW222815   1.258   2.616   3.997 -1.1283  0.2567  0.0912
 7306SOL     OW22816   6.517   6.879   0.298  0.6388  0.5408 -0.5270
 7306SOL    HW122817   6.460   6.929   0.233  0.3132 -0.3694 -0.9567
 7306SOL    HW222818   6.557   6.944   0.364 -0.7241  1.2181 -0.3303
 7307SOL     OW22819   2.427   6.378   2.405 -0.2373 -0.2590 -0.5796
 7307SOL    HW122820   2.334   6.342   2.408 -0.2688 -0.1322  2.2797
 7307SOL    HW222821   2.491   6.302   2.390 -0.6017 -0.9160  0.9943
 7308SOL     OW22822   6.550   2.995   1.330  0.2497  0.4064 -0.3034
 7308SOL    HW122823   6.591   2.946   1.252  1.3905  0.5929  0.1606
 7308SOL    HW222824   6.595   2.967   1.414 -0.6711  0.5502  0.2502
 7309SOL     OW22825   6.346   5.157   2.516 -0.1075 -0.1294 -0.1047
 7309SOL    HW122826   6.302   5.072   2.486  0.0706  0.3582 -1.8668
 7309SOL    HW222827   6.281   5.233   2.508 -0.6136 -0.1879  2.4557
 7310SOL     OW22828   6.497   1.091   0.307 -0.2125  0.4854  0.0707
 7310SOL    HW122829   6.545   1.010   0.341 -0.1507 -0.0247 -1.1870
 7310SOL    HW222830   6.403   1.091   0.342  0.0008  0.2598  0.6637
 7311SOL     OW22831   2.954   6.576   2.966  0.2423 -0.0217  0.0084
 7311SOL    HW122832   3.035   6.600   3.021 -1.6732  2.2329  2.1163
 7311SOL    HW222833   2.968   6.487   2.923  3.0534 -0.5876  1.8049
 7312SOL     OW22834   3.264   6.528   0.166  0.6782  0.4221 -0.0215
 7312SOL    HW122835   3.362   6.519   0.148  0.4528 -1.6445 -0.4709
 7312SOL    HW222836   3.218   6.556   0.082  0.6580 -0.6984 -0.4023
 7313SOL     OW22837   5.279   1.501   3.985 -0.6402 -0.0458 -0.2560
 7313SOL    HW122838   5.240   1.556   3.911 -0.9506  1.2361  0.8184
 7313SOL    HW222839   5.359   1.451   3.951 -0.3417  1.0838 -1.2861
 7314SOL     OW22840   5.250   1.591   0.363 -0.5399 -0.2473  0.2029
 7314SOL    HW122841   5.252   1.691   0.371  0.3691 -0.2595  0.2183
 7314SOL    HW222842   5.186   1.566   0.290  0.7067  0.4592 -1.1874
 7315SOL     OW22843   0.648   0.489   3.941 -0.4767  0.8137  0.6482
 7315SOL    HW122844   0.614   0.540   3.863  1.3141  0.3074 -0.5418
 7315SOL    HW222845   0.733   0.442   3.915 -0.3486 -0.1486  2.6268
 7316SOL     OW22846   4.771   0.697   1.032  0.3569 -0.0174  0.0637
 7316SOL    HW122847   4.742   0.611   1.073  1.9582 -0.6983 -0.1440
 7316SOL    HW222848   4.868   0.691   1.007  0.3172  1.5997 -0.6154
 7317SOL     OW22849   5.998   5.348   4.147  0.0052 -0.7070 -0.6121
 7317SOL    HW122850   5.929   5.353   4.075 -0.0491 -3.3865 -0.8745
 7317SOL    HW222851   5.975   5.273   4.210  0.4106  1.1046  1.8690
 7318SOL     OW22852   1.484   2.470   3.361 -0.3605  1.2301  0.2936
 7318SOL    HW122853   1.489   2.500   3.456  1.3443 -0.5398  0.8031
 7318SOL    HW222854   1.492   2.370   3.356 -0.7616  1.2464 -1.6942
 7319SOL     OW22855   6.826   4.934   0.930 -0.0035  0.0249  0.2135
 7319SOL    HW122856   6.740   4.922   0.980 -0.2026 -1.0735 -0.3760
 7319SOL    HW222857   6.860   4.845   0.899  0.4337  0.6175 -1.0785
 7320SOL     OW22858   2.861   2.365   0.879  0.6743 -0.1913  0.3431
 7320SOL    HW122859   2.838   2.462   0.888 -0.8019 -0.6045  1.5899
 7320SOL    HW222860   2.940   2.354   0.819  0.8850  1.7741  0.2083
 7321SOL     OW22861   5.337   1.032   5.482 -0.2449 -0.4088  0.1345
 7321SOL    HW122862   5.437   1.026   5.483 -0.0874  1.1411 -1.3453
 7321SOL    HW222863   5.303   0.999   5.394 -0.5160  4.0285 -1.6684
 7322SOL     OW22864   1.609   2.698   3.946  0.2494  0.3919 -0.0804
 7322SOL    HW122865   1.518   2.734   3.967  0.3866  0.5376  0.2742
 7322SOL    HW222866   1.673   2.725   4.018  0.4292 -0.2715  0.0118
 7323SOL     OW22867   5.200   5.617   5.998 -0.0201  0.7279  0.5501
 7323SOL    HW122868   5.112   5.571   5.993  0.2151  0.2736  0.5159
 7323SOL    HW222869   5.191   5.701   6.052 -0.4759  0.6996  0.5205
 7324SOL     OW22870   0.021   4.252   1.776  0.0444 -0.0667  0.0363
 7324SOL    HW122871  -0.016   4.159   1.779  1.1964 -0.5412  0.2341
 7324SOL    HW222872  -0.054   4.318   1.780 -0.7711 -0.9808  0.3332
 7325SOL     OW22873   6.760   2.053   3.633 -0.3141 -0.1615 -0.7644
 7325SOL    HW122874   6.787   2.108   3.553 -1.4429  1.0181 -0.3712
 7325SOL    HW222875   6.667   2.079   3.661 -0.2768 -1.2046  0.3868
 7326SOL     OW22876   2.480   3.788   5.302 -0.0454 -0.2265 -0.5664
 7326SOL    HW122877   2.468   3.868   5.243 -0.4926 -0.8802 -1.3838
 7326SOL    HW222878   2.548   3.808   5.372 -0.6103  1.0896 -0.3616
 7327SOL     OW22879   6.476   4.669   1.101 -0.2995  0.0190  0.0818
 7327SOL    HW122880   6.377   4.667   1.118 -0.1472  1.2411  1.2923
 7327SOL    HW222881   6.493   4.694   1.006 -1.1472 -2.8862 -0.9461
 7328SOL     OW22882   2.586   0.843   4.421 -0.0164  0.5279  0.3208
 7328SOL    HW122883   2.496   0.868   4.386  0.0705 -0.5829 -0.7326
 7328SOL    HW222884   2.656   0.872   4.357  0.2728  0.0525  0.4181
 7329SOL     OW22885   5.465   4.377   5.253  0.1307  0.0770 -0.5707
 7329SOL    HW122886   5.388   4.338   5.202 -0.1300  0.6760 -0.6418
 7329SOL    HW222887   5.450   4.474   5.267  0.7692  0.1534 -0.3785
 7330SOL     OW22888   6.762   0.666   2.442 -0.3119  0.5807 -0.2160
 7330SOL    HW122889   6.689   0.645   2.506  0.6543 -0.5657  0.5540
 7330SOL    HW222890   6.834   0.718   2.488  0.1072  0.2787 -0.5091
 7331SOL     OW22891   2.288   4.920   6.474 -0.4801  0.3900 -0.1051
 7331SOL    HW122892   2.255   4.826   6.473  0.3368  0.0626  1.2085
 7331SOL    HW222893   2.216   4.981   6.442 -0.6570 -0.7606 -2.0826
 7332SOL     OW22894   1.521   3.782   4.835  0.3815  0.6854  0.0737
 7332SOL    HW122895   1.614   3.749   4.850 -0.4856 -1.0543  2.1843
 7332SOL    HW222896   1.470   3.714   4.783 -0.7935 -0.4337  2.5157
 7333SOL     OW22897   0.603   1.871   3.436 -0.6182  0.1915  0.3113
 7333SOL    HW122898   0.691   1.843   3.474 -0.8879 -2.2172 -0.6847
 7333SOL    HW222899   0.605   1.969   3.416  1.8528  0.1707  0.1853
 7334SOL     OW22900   6.335   4.359   2.063  0.1691  0.3943 -0.4232
 7334SOL    HW122901   6.404   4.287   2.065  1.0826  1.2432 -0.3367
 7334SOL    HW222902   6.333   4.400   1.972  0.1033  0.6750 -0.2947
 7335SOL     OW22903   2.153   3.120   2.483 -0.1678  0.1722 -0.2575
 7335SOL    HW122904   2.246   3.088   2.502 -0.0703  0.5501 -0.0827
 7335SOL    HW222905   2.118   3.075   2.401  0.6486  0.9511 -1.0529
 7336SOL     OW22906   4.208   1.721   1.206 -0.0579  0.2593 -0.1511
 7336SOL    HW122907   4.164   1.703   1.118  0.3658 -0.5933 -0.2059
 7336SOL    HW222908   4.139   1.730   1.278 -0.3682 -0.0194 -0.4138
 7337SOL     OW22909   5.584   6.077   2.847 -0.4534  0.0148 -0.3689
 7337SOL    HW122910   5.507   6.024   2.884 -0.5912  0.6823  0.3206
 7337SOL    HW222911   5.663   6.067   2.907 -0.9624  1.8801  0.7121
 7338SOL     OW22912   2.482   1.481   4.857 -0.2517 -0.2303 -0.2936
 7338SOL    HW122913   2.466   1.383   4.870 -0.6412 -0.1288  0.0013
 7338SOL    HW222914   2.524   1.496   4.767  0.7933 -0.7628  0.0888
 7339SOL     OW22915   6.559   2.524   4.522 -0.1386  0.6818  0.6772
 7339SOL    HW122916   6.636   2.545   4.462  0.2754  0.9781  1.3002
 7339SOL    HW222917   6.525   2.609   4.563 -0.3912  0.4786  0.8882
 7340SOL     OW22918   1.819   3.722   0.819  0.3633 -0.7869  0.0708
 7340SOL    HW122919   1.737   3.752   0.772  0.5385 -0.4189 -0.0023
 7340SOL    HW222920   1.796   3.694   0.912  0.4822  1.4979  0.8591
 7341SOL     OW22921   5.433   3.094   5.364  0.5541 -0.3674 -0.2317
 7341SOL    HW122922   5.467   3.042   5.442  2.2093 -1.4631 -1.6089
 7341SOL    HW222923   5.366   3.040   5.313 -0.3244  0.2423  0.2450
 7342SOL     OW22924   2.772   6.828   6.954  0.4499  0.2995  0.1586
 7342SOL    HW122925   2.781   6.793   6.861 -0.7828 -0.2072  0.2182
 7342SOL    HW222926   2.708   6.904   6.955  1.2317  0.9761  0.4475
 7343SOL     OW22927   4.985   3.960   5.164 -0.3059  0.5512 -0.3184
 7343SOL    HW122928   4.968   3.906   5.082  1.3106 -1.8670  0.8246
 7343SOL    HW222929   5.076   3.938   5.200 -1.1558  1.1436  2.4045
 7344SOL     OW22930   0.173   4.450   6.618 -0.8358 -0.7523  0.3596
 7344SOL    HW122931   0.147   4.458   6.714 -1.2583 -0.4040  0.2179
 7344SOL    HW222932   0.159   4.538   6.572  3.7826  0.6258  1.0330
 7345SOL     OW22933   0.674   0.314   2.308 -0.3159  0.0571 -0.1081
 7345SOL    HW122934   0.579   0.345   2.307 -0.5752 -0.6183 -2.1353
 7345SOL    HW222935   0.713   0.324   2.216  1.3121 -0.4676  0.4880
 7346SOL     OW22936   6.041   6.587   5.675  0.2433  0.8724 -0.6561
 7346SOL    HW122937   5.998   6.520   5.615  0.1657 -0.7164  1.0550
 7346SOL    HW222938   5.987   6.671   5.675 -0.6044  0.3480 -1.5944
 7347SOL     OW22939   1.385   3.027   0.294 -0.0313  0.5382  0.0763
 7347SOL    HW122940   1.481   3.026   0.267  0.0033  1.4701  0.1514
 7347SOL    HW222941   1.365   3.110   0.346  0.0534 -1.4414  3.5632
 7348SOL     OW22942   3.005   6.065   5.155  0.2566 -0.1332  0.0809
 7348SOL    HW122943   3.035   5.985   5.206 -0.8065 -0.7133 -0.1843
 7348SOL    HW222944   2.988   6.040   5.060  0.6913  0.5954 -0.2027
 7349SOL     OW22945   1.347   6.057   3.402  0.1502  0.4271  0.1031
 7349SOL    HW122946   1.317   6.151   3.416  0.2673  0.2612  1.6927
 7349SOL    HW222947   1.446   6.052   3.414  0.7446  0.6785 -3.4969
 7350SOL     OW22948   5.038   4.160   0.987 -0.5988 -0.1386 -0.0047
 7350SOL    HW122949   4.942   4.163   1.016 -0.4560 -1.4822  0.6884
 7350SOL    HW222950   5.091   4.225   1.042 -1.1920  1.1132 -0.8539
 7351SOL     OW22951   1.639   6.342   2.635 -0.0510  1.0043 -0.1243
 7351SOL    HW122952   1.544   6.374   2.639  0.9632  4.4117  0.5372
 7351SOL    HW222953   1.642   6.243   2.649 -3.5775  0.5126 -1.8525
 7352SOL     OW22954   1.571   3.834   6.560 -0.0235  0.2893  0.1648
 7352SOL    HW122955   1.658   3.841   6.609  0.3381  0.3755 -0.4781
 7352SOL    HW222956   1.587   3.802   6.467 -0.4637  2.0894 -0.5757
 7353SOL     OW22957   0.400   2.027   1.194  0.1233  0.5061 -0.2420
 7353SOL    HW122958   0.439   2.119   1.199  1.7357  0.1221 -3.1873
 7353SOL    HW222959   0.403   1.996   1.099 -0.5642 -2.5359  0.6386
 7354SOL     OW22960   1.155   5.335   2.439 -0.1993 -0.0749  0.3670
 7354SOL    HW122961   1.089   5.405   2.465 -2.2999 -0.7423 -2.6191
 7354SOL    HW222962   1.168   5.271   2.514 -1.5712  1.0610  1.6407
 7355SOL     OW22963   0.373   3.205   3.592 -0.3181 -0.5867 -0.2485
 7355SOL    HW122964   0.387   3.147   3.511  0.5421 -1.0624  0.2281
 7355SOL    HW222965   0.461   3.241   3.623 -0.9290  1.7135 -1.0442
 7356SOL     OW22966   3.709   2.868   5.096 -0.4870  0.4458  0.8831
 7356SOL    HW122967   3.784   2.828   5.148 -0.4682  1.3052  1.5247
 7356SOL    HW222968   3.627   2.871   5.153 -0.3100  1.9543  1.0843
 7357SOL     OW22969   1.541   3.383   6.561 -0.0240 -0.2189  0.0682
 7357SOL    HW122970   1.540   3.332   6.647 -0.5641 -0.9506 -0.3579
 7357SOL    HW222971   1.621   3.443   6.559 -1.6193  2.2787  2.4811
 7358SOL     OW22972   6.772   2.575   3.516 -0.2078  0.1292  0.7334
 7358SOL    HW122973   6.713   2.647   3.554  0.3447  1.0254 -0.0781
 7358SOL    HW222974   6.808   2.604   3.428 -1.0002 -1.6807 -0.2511
 7359SOL     OW22975   0.143   2.804   3.039 -0.1738  0.4900  0.5938
 7359SOL    HW122976   0.081   2.880   3.059  1.6569  2.6637 -1.4239
 7359SOL    HW222977   0.094   2.734   2.987 -1.0921  1.8875 -0.5024
 7360SOL     OW22978   2.780   2.887   6.074  0.2664 -0.3926 -0.1679
 7360SOL    HW122979   2.696   2.860   6.026 -0.4344  1.3117  0.0211
 7360SOL    HW222980   2.845   2.811   6.072 -1.1605 -1.6661 -0.5664
 7361SOL     OW22981   4.905   6.040   5.213  0.4212 -0.2502 -0.2773
 7361SOL    HW122982   4.945   6.128   5.185 -0.8384  0.3451 -0.2400
 7361SOL    HW222983   4.921   5.973   5.141 -0.2506  0.5134 -1.1617
 7362SOL     OW22984   0.643   3.522   3.205  0.4931 -0.4055  0.3830
 7362SOL    HW122985   0.714   3.459   3.174 -1.3781 -2.7105  0.5450
 7362SOL    HW222986   0.637   3.599   3.142  0.5119 -2.1560 -1.8761
 7363SOL     OW22987   3.600   0.484   3.326 -0.0294 -0.3380 -1.0550
 7363SOL    HW122988   3.521   0.505   3.383  0.8739 -1.0337  0.5196
 7363SOL    HW222989   3.591   0.391   3.290  1.1358 -1.4047  1.1607
 7364SOL     OW22990   4.018   4.960   2.630  0.2054  0.4936  0.3869
 7364SOL    HW122991   4.091   4.958   2.699  0.5956  0.8712 -0.0152
 7364SOL    HW222992   4.017   5.049   2.585 -0.0098  0.2199 -0.1503
 7365SOL     OW22993   2.404   4.358   2.652  0.2225 -0.0741 -0.1487
 7365SOL    HW122994   2.333   4.308   2.703  0.1918  0.5414  0.4322
 7365SOL    HW222995   2.479   4.295   2.629 -0.2414 -0.5975 -0.2590
 7366SOL     OW22996   0.296   1.858   1.699 -0.0480  0.1290 -0.6635
 7366SOL    HW122997   0.264   1.764   1.711  2.8186 -1.2330 -2.6468
 7366SOL    HW222998   0.255   1.898   1.618 -0.9619  0.4798 -0.0417
 7367SOL     OW22999   2.878   4.984   0.275  0.3902  0.0428 -0.6318
 7367SOL    HW123000   2.788   4.945   0.291  0.8333 -1.1644 -0.9832
 7367SOL    HW223001   2.933   4.920   0.222  0.9908  1.3480 -1.6489
 7368SOL     OW23002   6.573   0.853   1.636  0.6307 -0.4699 -0.1556
 7368SOL    HW123003   6.640   0.923   1.610 -1.6896  1.7736 -0.5624
 7368SOL    HW223004   6.486   0.898   1.657 -0.5643 -3.1783  1.0896
 7369SOL     OW23005   3.472   4.702   0.851 -0.0779 -0.1438  1.0613
 7369SOL    HW123006   3.547   4.735   0.794  0.2190 -1.4927  0.6476
 7369SOL    HW223007   3.509   4.646   0.926 -0.6124 -0.1111  1.3571
 7370SOL     OW23008   4.831   5.862   3.267 -0.0232 -0.0833 -0.0785
 7370SOL    HW123009   4.778   5.930   3.318 -0.3955 -1.1629  1.0250
 7370SOL    HW223010   4.929   5.881   3.276 -0.1472  0.7266 -0.4066
 7371SOL     OW23011   6.293   1.054   5.538 -0.0484 -0.4715  0.0063
 7371SOL    HW123012   6.246   0.967   5.521  0.5955 -0.8662  0.1852
 7371SOL    HW223013   6.251   1.100   5.615 -0.2456 -0.7429  0.0622
 7372SOL     OW23014   5.376   3.128   0.693 -0.3344  0.6796 -0.0499
 7372SOL    HW123015   5.319   3.149   0.613 -0.3484  1.3497  0.1310
 7372SOL    HW223016   5.471   3.148   0.672 -0.1400 -0.5125 -0.3774
 7373SOL     OW23017   4.772   2.441   5.909  0.3633  0.1005  0.2135
 7373SOL    HW123018   4.756   2.368   5.975 -1.0570  0.4589  0.2943
 7373SOL    HW223019   4.849   2.498   5.939  0.3410 -0.3038  1.0481
 7374SOL     OW23020   0.216   5.666   0.988 -0.1403  0.4182  0.3947
 7374SOL    HW123021   0.265   5.720   0.921 -0.6507  0.4226  0.0164
 7374SOL    HW223022   0.213   5.715   1.075 -0.0574  0.7148  0.2307
 7375SOL     OW23023   4.328   3.449   5.920  0.3110  0.0182  0.1416
 7375SOL    HW123024   4.245   3.393   5.918 -0.1274  0.5054  2.4639
 7375SOL    HW223025   4.376   3.434   6.006  1.6300  1.1699 -0.3695
 7376SOL     OW23026   4.147   6.139   3.330  0.2453 -0.2216  0.0199
 7376SOL    HW123027   4.146   6.102   3.423 -2.9080 -0.1077  0.1283
 7376SOL    HW223028   4.108   6.231   3.330  1.5505  0.3870 -1.2687
 7377SOL     OW23029   2.862   4.457   1.380 -0.2049 -0.4472  0.1725
 7377SOL    HW123030   2.833   4.468   1.475  1.9083  0.9201  0.7329
 7377SOL    HW223031   2.942   4.397   1.376 -2.0555 -3.0060 -1.1540
 7378SOL     OW23032   4.785   3.228   0.111 -0.0516 -0.4448 -0.2782
 7378SOL    HW123033   4.820   3.250   0.019 -0.7335 -1.2527 -0.7377
 7378SOL    HW223034   4.686   3.239   0.112 -0.0773 -0.7127  0.2903
 7379SOL     OW23035   2.164   3.275   4.560 -0.1253  0.5489 -0.2800
 7379SOL    HW123036   2.174   3.272   4.660 -0.3381  1.2634 -0.2372
 7379SOL    HW223037   2.178   3.183   4.523 -1.5202 -0.0396  0.5571
 7380SOL     OW23038   0.387   0.268   5.397  0.3636  0.3634  0.1391
 7380SOL    HW123039   0.291   0.291   5.382 -0.3279 -2.0161  0.4918
 7380SOL    HW223040   0.445   0.339   5.357 -1.5109  2.3526  0.7395
 7381SOL     OW23041   1.475   2.106   3.965 -0.6487  0.3504  0.7977
 7381SOL    HW123042   1.383   2.100   4.004 -0.5704 -0.3930  0.8912
 7381SOL    HW223043   1.502   2.202   3.956 -1.7251  0.6055  0.0952
 7382SOL     OW23044   5.708   6.883   0.953  0.2981 -0.4000 -0.2262
 7382SOL    HW123045   5.714   6.962   0.893 -0.6249 -0.8819 -0.9895
 7382SOL    HW223046   5.694   6.913   1.048  2.1516  0.3704 -0.1761
 7383SOL     OW23047   2.803   3.518   6.888  0.1564  0.2866 -0.6188
 7383SOL    HW123048   2.757   3.452   6.947  0.0057  1.2499  0.3671
 7383SOL    HW223049   2.884   3.553   6.934  0.0403  1.0457 -0.9848
 7384SOL     OW23050   4.302   1.929   4.636  0.6764 -0.4177 -0.5086
 7384SOL    HW123051   4.356   2.000   4.590  0.1039  0.1834 -0.2808
 7384SOL    HW223052   4.359   1.883   4.705 -0.0965  3.1818  2.9589
 7385SOL     OW23053   0.450   5.442   5.103 -0.4498 -0.4116  0.5780
 7385SOL    HW123054   0.365   5.400   5.072  0.0217 -0.7220 -0.3235
 7385SOL    HW223055   0.470   5.411   5.196 -1.7002  0.2605  1.0954
 7386SOL     OW23056   0.960   0.530   1.059 -0.1858 -0.5102  0.3327
 7386SOL    HW123057   0.928   0.621   1.032  0.2266 -0.6456 -0.6374
 7386SOL    HW223058   1.056   0.535   1.086  0.1204 -0.8163 -0.6552
 7387SOL     OW23059   2.586   2.507   5.694  0.1119 -0.4271 -0.0061
 7387SOL    HW123060   2.582   2.604   5.718  0.1571 -0.2025 -0.8565
 7387SOL    HW223061   2.560   2.496   5.598 -0.9790 -1.3827  0.3693
 7388SOL     OW23062   2.123   0.827   6.263 -0.3711  0.8296 -0.0945
 7388SOL    HW123063   2.039   0.866   6.227 -0.2249  0.9196 -0.3429
 7388SOL    HW223064   2.180   0.900   6.302 -0.0035  0.9025 -0.7488
 7389SOL     OW23065   4.132   3.461   5.518  0.1798  0.1340  0.7220
 7389SOL    HW123066   4.064   3.398   5.480  0.7239 -0.3996  0.6033
 7389SOL    HW223067   4.123   3.550   5.473 -1.0697  0.3698  1.4004
 7390SOL     OW23068   4.622   4.574   6.574 -0.2545  0.6838  0.0499
 7390SOL    HW123069   4.666   4.641   6.634  0.3271  1.6736 -1.4204
 7390SOL    HW223070   4.653   4.482   6.598  2.2148  1.2926 -0.5565
 7391SOL     OW23071   4.982   0.120   5.004 -0.5225 -0.4801 -0.1715
 7391SOL    HW123072   5.013   0.026   4.991  0.4854  0.0896 -2.2554
 7391SOL    HW223073   4.959   0.160   4.916 -1.7919  0.9799  0.7666
 7392SOL     OW23074   1.616   3.921   3.111 -0.0614 -0.0333  0.1845
 7392SOL    HW123075   1.571   4.006   3.082  0.1473  0.4421  1.2038
 7392SOL    HW223076   1.593   3.847   3.048 -0.3819  0.7455 -0.6248
 7393SOL     OW23077   3.735   6.202   4.360  0.3581  0.3190  0.0051
 7393SOL    HW123078   3.820   6.254   4.357  0.6003 -0.0626  0.1095
 7393SOL    HW223079   3.729   6.153   4.447  0.7211 -0.7905 -0.5709
 7394SOL     OW23080   5.780   3.297   1.559  0.0274  0.2344 -0.8203
 7394SOL    HW123081   5.704   3.361   1.566 -1.8999 -2.0714  1.5449
 7394SOL    HW223082   5.861   3.336   1.603 -0.5693  1.6550 -0.9202
 7395SOL     OW23083   0.867   4.491   5.003 -0.0358 -0.7532 -0.0112
 7395SOL    HW123084   0.868   4.562   4.932  0.3404 -0.4400  0.2992
 7395SOL    HW223085   0.777   4.449   5.007 -0.5358  0.3268  0.4059
 7396SOL     OW23086   6.246   4.954   2.839  0.5659 -0.1083 -0.5158
 7396SOL    HW123087   6.273   4.867   2.881 -1.1301 -0.5992 -0.3813
 7396SOL    HW223088   6.180   4.936   2.766  0.2776  1.0682 -0.5515
 7397SOL     OW23089   2.589   4.588   3.494  0.1404 -0.7924  0.5756
 7397SOL    HW123090   2.542   4.519   3.439  0.1123 -1.2449  1.1611
 7397SOL    HW223091   2.634   4.653   3.433 -0.7635 -0.6760  0.0093
 7398SOL     OW23092   2.871   1.845   0.802 -0.6717  0.1306  0.5017
 7398SOL    HW123093   2.828   1.759   0.830 -0.0094  0.3040  2.1996
 7398SOL    HW223094   2.945   1.867   0.866  0.5895  0.8730 -1.1580
 7399SOL     OW23095   3.896   4.368   6.270  0.0062 -0.2712  0.0746
 7399SOL    HW123096   3.860   4.275   6.261  0.2094 -0.4543  1.0489
 7399SOL    HW223097   3.854   4.413   6.348  0.6563  0.0959  0.2255
 7400SOL     OW23098   4.112   4.402   1.318  0.6258 -0.3761 -0.1724
 7400SOL    HW123099   4.055   4.426   1.397 -0.0060 -2.7669  0.1938
 7400SOL    HW223100   4.202   4.445   1.328  0.8164 -1.1262  2.2654
 7401SOL     OW23101   5.551   2.961   1.870  0.3803 -0.3336  0.2104
 7401SOL    HW123102   5.560   2.861   1.867 -1.8131 -0.5645 -1.7169
 7401SOL    HW223103   5.590   3.000   1.787 -0.8424  0.1458 -0.1625
 7402SOL     OW23104   3.976   0.519   5.592  0.0449  0.3294  0.2372
 7402SOL    HW123105   3.886   0.508   5.548 -0.5325 -1.0027  1.6310
 7402SOL    HW223106   4.035   0.575   5.534 -1.5193  0.8304 -0.9546
 7403SOL     OW23107   1.417   0.353   3.158 -0.2183 -0.2096 -0.5643
 7403SOL    HW123108   1.436   0.281   3.090 -0.5889 -0.6034 -0.2569
 7403SOL    HW223109   1.326   0.390   3.142  0.4266  1.0640 -1.4876
 7404SOL     OW23110   1.032   5.664   5.511 -0.2108  0.0799  0.1545
 7404SOL    HW123111   1.032   5.637   5.414 -1.4090 -2.1329  0.6888
 7404SOL    HW223112   1.122   5.646   5.550 -0.5594 -1.9962  0.1240
 7405SOL     OW23113   3.885   0.005   4.697  1.0179 -0.2640 -0.0152
 7405SOL    HW123114   3.890   0.049   4.786  0.4382 -0.3055  0.0448
 7405SOL    HW223115   3.925   0.065   4.628 -0.3779  0.6974 -0.0410
 7406SOL     OW23116   6.872   4.298   4.146  0.0785 -0.3416 -0.1756
 7406SOL    HW123117   6.872   4.379   4.088 -1.0902 -1.1959 -1.4339
 7406SOL    HW223118   6.864   4.216   4.089  1.9719 -1.4251  1.0036
 7407SOL     OW23119   4.326   6.715   2.269  0.6207 -0.3324  0.0002
 7407SOL    HW123120   4.234   6.703   2.308 -0.2831  1.7940 -1.2700
 7407SOL    HW223121   4.332   6.666   2.183  0.3987  0.1070 -0.2718
 7408SOL     OW23122   2.251   3.971   1.260 -0.4245 -0.4798  0.0069
 7408SOL    HW123123   2.152   3.977   1.253 -0.5074 -1.6677 -0.0186
 7408SOL    HW223124   2.280   4.006   1.349 -1.1287 -2.4756  1.0754
 7409SOL     OW23125   3.758   1.088   6.402  0.1355  0.4405 -0.1399
 7409SOL    HW123126   3.754   0.995   6.366 -2.2546  1.1634 -1.9993
 7409SOL    HW223127   3.776   1.152   6.327  1.0704  1.5556  0.9946
 7410SOL     OW23128   1.078   3.900   4.860  0.3963 -0.4104 -0.3296
 7410SOL    HW123129   1.142   3.836   4.901  1.1786 -0.7957 -2.0932
 7410SOL    HW223130   1.106   3.922   4.767 -0.9095  1.0228 -0.4378
 7411SOL     OW23131   1.555   5.477   6.777 -0.3125 -0.3453 -0.2805
 7411SOL    HW123132   1.594   5.514   6.861  1.6374 -1.5676 -0.5947
 7411SOL    HW223133   1.490   5.543   6.739 -1.2665  0.2291  2.1479
 7412SOL     OW23134   6.748   3.864   1.616  0.6041 -0.2972  0.4358
 7412SOL    HW123135   6.826   3.914   1.580  0.7106 -0.0164  1.0479
 7412SOL    HW223136   6.668   3.924   1.618  0.0040 -0.9610 -1.4625
 7413SOL     OW23137   3.979   1.172   1.339 -0.1047 -0.5236  0.6173
 7413SOL    HW123138   4.023   1.239   1.280 -0.0652  1.2299  2.5538
 7413SOL    HW223139   4.020   1.174   1.430 -1.7021 -1.4953  1.4152
 7414SOL     OW23140   0.709   3.099   2.605 -0.2535 -0.2912 -0.4207
 7414SOL    HW123141   0.698   3.171   2.536 -0.0362  0.8515  0.6882
 7414SOL    HW223142   0.794   3.050   2.588  0.7394  1.1842  0.0458
 7415SOL     OW23143   0.541   0.970   4.788 -0.1645  0.3500 -0.0367
 7415SOL    HW123144   0.544   1.068   4.770  0.8170  0.2279 -0.6659
 7415SOL    HW223145   0.634   0.936   4.803 -0.5169 -0.4378  0.4445
 7416SOL     OW23146   0.455   0.541   5.329  0.1251 -0.7957  0.0708
 7416SOL    HW123147   0.490   0.546   5.423 -2.8946 -0.5976  1.2859
 7416SOL    HW223148   0.413   0.627   5.304 -0.9259 -1.5063 -0.6991
 7417SOL     OW23149   2.769   4.817   3.023  0.0477 -0.0121 -0.4202
 7417SOL    HW123150   2.748   4.795   2.927 -0.2804 -1.2874 -0.0809
 7417SOL    HW223151   2.684   4.826   3.074  0.2306  0.2154 -0.1555
 7418SOL     OW23152   2.540   1.017   5.858  0.1319 -0.6909  0.2343
 7418SOL    HW123153   2.605   0.968   5.800  0.2936 -0.6107  0.3469
 7418SOL    HW223154   2.447   0.994   5.831  0.1721 -2.4542  1.4087
 7419SOL     OW23155   5.050   1.660   3.160  0.1380  0.0117 -0.2995
 7419SOL    HW123156   5.113   1.693   3.090  0.8618 -1.1898 -0.2429
 7419SOL    HW223157   5.092   1.669   3.250  0.3873 -1.1090 -0.2892
 7420SOL     OW23158   1.815   3.303   4.285  0.2659 -0.2005  1.0807
 7420SOL    HW123159   1.770   3.385   4.251  0.9535 -0.7020 -1.2048
 7420SOL    HW223160   1.911   3.323   4.304  0.4327 -0.4577  0.5293
 7421SOL     OW23161   3.983   5.097   3.003  0.0797  0.4010  0.4340
 7421SOL    HW123162   3.939   5.113   2.914  0.0607 -1.3377  0.0944
 7421SOL    HW223163   3.948   5.163   3.070 -0.1486  1.5306 -0.7502
 7422SOL     OW23164   2.516   0.930   3.525 -0.1544  0.0117 -0.2594
 7422SOL    HW123165   2.435   0.986   3.508  0.4146  0.9319 -0.0509
 7422SOL    HW223166   2.489   0.841   3.560 -1.0604  0.4914  0.3020
 7423SOL     OW23167   6.927   1.451   4.850 -0.0560 -0.2348 -0.0497
 7423SOL    HW123168   6.868   1.371   4.850 -0.0445 -0.3000 -2.3344
 7423SOL    HW223169   6.895   1.517   4.782  2.3390 -0.1725 -1.2215
 7424SOL     OW23170   5.481   4.217   6.021  0.3294 -0.9724 -0.0670
 7424SOL    HW123171   5.555   4.222   6.089  0.2640 -0.3672 -0.0330
 7424SOL    HW223172   5.406   4.162   6.057 -0.2574  0.3960  0.8993
 7425SOL     OW23173   1.462   1.111   4.523  0.1949  0.1339 -0.7706
 7425SOL    HW123174   1.373   1.128   4.481  0.6171  1.7209 -1.0893
 7425SOL    HW223175   1.474   1.013   4.538 -0.2937 -0.4535 -3.6573
 7426SOL     OW23176   2.974   2.025   1.248 -0.0667  0.1975  0.5587
 7426SOL    HW123177   2.901   2.089   1.273  1.1386  1.3523  1.2313
 7426SOL    HW223178   3.024   1.998   1.331 -0.9833 -2.2289  0.4062
 7427SOL     OW23179   5.259   5.733   6.910 -0.5783 -0.0934  0.3325
 7427SOL    HW123180   5.347   5.748   6.954 -1.4608  0.9661  1.8296
 7427SOL    HW223181   5.272   5.680   6.826  1.4673  0.0766  0.4963
 7428SOL     OW23182   4.540   0.708   1.280 -0.2708 -0.1494 -0.2847
 7428SOL    HW123183   4.609   0.685   1.212  0.0937  0.1366 -0.0164
 7428SOL    HW223184   4.571   0.787   1.333 -0.3548 -0.6245  0.4847
 7429SOL     OW23185   5.559   5.329   3.725 -0.2033 -0.1566 -0.2945
 7429SOL    HW123186   5.555   5.253   3.790  0.0113  0.9563  1.0870
 7429SOL    HW223187   5.502   5.404   3.759  1.2278  1.0830 -0.5374
 7430SOL     OW23188   3.335   3.828   3.777 -0.0121  0.2174 -0.1989
 7430SOL    HW123189   3.266   3.899   3.761  0.8747  0.9949 -0.6173
 7430SOL    HW223190   3.340   3.809   3.875 -0.5368  0.4426 -0.1228
 7431SOL     OW23191   4.845   4.458   6.744 -0.7095 -0.2651  0.5246
 7431SOL    HW123192   4.931   4.481   6.698 -1.1109 -0.2576 -0.2342
 7431SOL    HW223193   4.807   4.541   6.786 -0.8517 -0.0585 -0.0006
 7432SOL     OW23194   5.989   4.122   6.953 -0.4346 -0.3261  0.1728
 7432SOL    HW123195   5.939   4.192   6.901 -0.5564 -0.8765 -0.4542
 7432SOL    HW223196   5.993   4.038   6.900  1.7646 -0.1042 -0.0835
 7433SOL     OW23197   0.645   4.284   3.422 -0.2088  0.5314 -0.1185
 7433SOL    HW123198   0.705   4.221   3.471 -0.6157  0.4504  0.2786
 7433SOL    HW223199   0.697   4.363   3.390  0.4552 -0.3263 -1.2143
 7434SOL     OW23200   3.571   1.001   5.081 -0.7441 -0.2325 -0.3854
 7434SOL    HW123201   3.546   1.056   5.001 -2.9161 -0.9417 -0.2658
 7434SOL    HW223202   3.568   0.904   5.058  0.5625 -0.3954  0.0650
 7435SOL     OW23203   5.025   1.252   0.998  0.1612 -0.5884 -0.0759
 7435SOL    HW123204   5.009   1.154   1.005  0.2888 -0.5104  1.8953
 7435SOL    HW223205   5.063   1.273   0.909 -1.6468 -2.0553 -1.2798
 7436SOL     OW23206   6.719   3.732   3.847 -0.2465  0.3823 -0.2040
 7436SOL    HW123207   6.746   3.748   3.753  2.1417  0.2785  0.4120
 7436SOL    HW223208   6.761   3.648   3.881 -0.3653  0.8634  1.2104
 7437SOL     OW23209   3.297   6.078   1.706  0.1491 -0.4476 -0.1849
 7437SOL    HW123210   3.219   6.105   1.650 -0.8842 -0.9968  0.9329
 7437SOL    HW223211   3.268   6.009   1.773  0.8020  1.5694  2.3527
 7438SOL     OW23212   3.552   0.983   0.099 -0.1409 -0.3196 -0.0326
 7438SOL    HW123213   3.608   1.051   0.148 -3.2624  1.7465  0.9628
 7438SOL    HW223214   3.611   0.931   0.037  2.8627  1.5921  0.9536
 7439SOL     OW23215   4.959   3.824   4.925 -0.4481  0.1555 -0.1478
 7439SOL    HW123216   4.891   3.766   4.969 -1.0799  2.3386  1.9473
 7439SOL    HW223217   4.922   3.859   4.839 -0.9303 -0.7064 -0.3046
 7440SOL     OW23218   4.661   1.409   3.304 -0.4426 -0.2292  0.5719
 7440SOL    HW123219   4.742   1.440   3.255  0.0589 -1.3388  0.6748
 7440SOL    HW223220   4.676   1.418   3.403  0.2519 -2.0337  0.6593
 7441SOL     OW23221   4.013   3.719   4.049 -0.1873  0.6663  0.0503
 7441SOL    HW123222   4.057   3.630   4.043  0.7938  1.1419 -0.0166
 7441SOL    HW223223   4.004   3.746   4.145  1.0033  1.2037  0.0212
 7442SOL     OW23224   0.814   0.064   1.345 -0.2348  0.1599  0.2163
 7442SOL    HW123225   0.738   0.126   1.362 -0.4213 -0.2408  0.8988
 7442SOL    HW223226   0.785  -0.030   1.364 -0.1555 -0.2366 -1.4192
 7443SOL     OW23227   5.804   6.313   0.128 -0.5421 -0.2029  0.2034
 7443SOL    HW123228   5.894   6.352   0.147  0.1102 -2.3824  2.0439
 7443SOL    HW223229   5.749   6.314   0.211 -2.5429  1.6894 -1.0394
 7444SOL     OW23230   5.751   6.023   0.137  0.0404  0.4731 -0.2956
 7444SOL    HW123231   5.749   6.123   0.132  0.3449  0.5104  0.2343
 7444SOL    HW223232   5.760   5.985   0.045  1.0709  0.9709 -0.4205
 7445SOL     OW23233   1.399   1.791   0.835  0.2604  0.5500 -0.0495
 7445SOL    HW123234   1.481   1.843   0.860  2.5786 -2.6433 -0.4951
 7445SOL    HW223235   1.350   1.765   0.918 -0.7510  2.9459  0.2009
 7446SOL     OW23236   6.407   6.220   3.889 -0.0952  0.4457 -0.0473
 7446SOL    HW123237   6.474   6.151   3.919  0.4738  0.1332 -1.9095
 7446SOL    HW223238   6.345   6.179   3.822  0.2073  1.6995 -1.1338
 7447SOL     OW23239   4.430   0.135   4.868 -0.0439  0.5377  0.5105
 7447SOL    HW123240   4.515   0.082   4.879 -0.0305  0.6472  0.9465
 7447SOL    HW223241   4.428   0.175   4.776  0.3889  0.5548  0.5053
 7448SOL     OW23242   6.420   5.975   1.935 -0.3117 -0.3081 -0.5783
 7448SOL    HW123243   6.368   6.015   1.860 -0.0785  2.1875  0.4943
 7448SOL    HW223244   6.452   5.883   1.909 -1.7446 -0.2415 -2.7853
 7449SOL     OW23245   1.140   0.057   2.833 -0.3247 -0.9546 -0.1157
 7449SOL    HW123246   1.058   0.102   2.869  0.9301  2.4613 -1.1257
 7449SOL    HW223247   1.216   0.073   2.896  0.0409 -2.3716 -0.1735
 7450SOL     OW23248   3.975   1.356   3.203  0.2794 -0.3429 -0.2554
 7450SOL    HW123249   3.885   1.398   3.213  0.5918  0.8322 -2.0020
 7450SOL    HW223250   4.046   1.427   3.205  1.3769 -1.3779  2.7384
 7451SOL     OW23251   0.811   1.947   1.764  0.4762  0.0798  0.3431
 7451SOL    HW123252   0.860   1.983   1.844  0.2211 -1.1474  1.0723
 7451SOL    HW223253   0.715   1.936   1.787  0.4038 -0.3083 -0.1423
 7452SOL     OW23254   5.745   1.262   0.630 -0.1483  0.4216 -0.3147
 7452SOL    HW123255   5.691   1.178   0.634 -0.8989  0.9306  0.4579
 7452SOL    HW223256   5.804   1.267   0.711  0.2726  0.3900 -0.6180
 7453SOL     OW23257   6.539   3.111   6.414 -0.0968  0.1848 -0.0546
 7453SOL    HW123258   6.514   3.103   6.510  2.3740  1.1771  0.7759
 7453SOL    HW223259   6.568   3.205   6.395 -2.1661  0.4667 -2.2656
 7454SOL     OW23260   6.113   2.320   0.475 -0.1220 -0.4761 -0.4432
 7454SOL    HW123261   6.044   2.260   0.513  0.4348 -0.2165  1.0518
 7454SOL    HW223262   6.199   2.308   0.524  0.3134  0.7154 -0.8634
 7455SOL     OW23263   1.163   3.687   6.328  0.1062 -0.0590  0.3774
 7455SOL    HW123264   1.141   3.645   6.241  2.5549 -2.1570  0.6602
 7455SOL    HW223265   1.099   3.654   6.398  1.1088 -2.3178  0.3049
 7456SOL     OW23266   0.591   4.007   0.205 -0.1932  0.1915 -0.2768
 7456SOL    HW123267   0.608   3.909   0.191  2.2322  0.6583 -1.0957
 7456SOL    HW223268   0.591   4.027   0.303  1.0908 -0.3891 -0.1312
 7457SOL     OW23269   4.689   3.637   1.225  0.2561 -0.7076  0.1903
 7457SOL    HW123270   4.676   3.641   1.324 -0.0134  1.3936  0.1110
 7457SOL    HW223271   4.780   3.671   1.203 -0.6556  1.4469 -0.4342
 7458SOL     OW23272   1.865   3.082   0.583  0.2653 -0.3011  0.0937
 7458SOL    HW123273   1.952   3.063   0.537  0.7014 -0.2062  0.8676
 7458SOL    HW223274   1.844   3.179   0.577 -0.0728 -0.4079 -0.5736
 7459SOL     OW23275   2.684   2.112   6.243  0.1331 -0.8342 -0.5003
 7459SOL    HW123276   2.652   2.139   6.152  1.3937 -1.4433 -1.1485
 7459SOL    HW223277   2.606   2.083   6.298 -0.6275 -0.6629 -1.4600
 7460SOL     OW23278   3.224   0.120   5.101  0.1077  0.1949  0.5990
 7460SOL    HW123279   3.279   0.125   5.018 -0.8661 -0.8194 -0.1363
 7460SOL    HW223280   3.250   0.038   5.153 -0.5213 -0.1642  0.3642
 7461SOL     OW23281   4.939   6.377   2.648  0.0069 -0.0810 -0.0559
 7461SOL    HW123282   4.944   6.475   2.667  2.1056 -0.4140  1.3854
 7461SOL    HW223283   4.878   6.333   2.714 -1.0360  0.2260 -0.7809
 7462SOL     OW23284   2.692   2.072   5.577 -0.1760 -0.4333 -0.0718
 7462SOL    HW123285   2.765   2.048   5.513  1.5344  1.2348  1.1152
 7462SOL    HW223286   2.606   2.080   5.528  0.6926 -1.0524 -1.7997
 7463SOL     OW23287   1.033   4.401   6.018  0.1648  0.0593 -0.1936
 7463SOL    HW123288   0.960   4.347   5.977  0.6958 -0.4066 -0.5470
 7463SOL    HW223289   1.025   4.496   5.989  0.1941 -0.1558 -0.9218
 7464SOL     OW23290   6.540   0.468   6.061 -0.3016  0.3200  0.1717
 7464SOL    HW123291   6.557   0.420   5.975 -1.8452  0.1774 -0.0989
 7464SOL    HW223292   6.599   0.548   6.067  0.6223 -0.2951 -0.4878
 7465SOL     OW23293   1.698   0.721   2.503 -0.0447 -0.3615 -0.3541
 7465SOL    HW123294   1.634   0.782   2.456  1.0688  0.8308 -0.3810
 7465SOL    HW223295   1.755   0.774   2.566 -0.9536 -1.7939  1.8129
 7466SOL     OW23296   4.414   1.209   2.451  0.2099  0.2131 -0.3653
 7466SOL    HW123297   4.353   1.251   2.384  0.4850  1.1358 -0.0475
 7466SOL    HW223298   4.490   1.271   2.470  0.8486 -0.6091 -0.1959
 7467SOL     OW23299   6.453   0.249   3.952 -0.2681 -0.2974 -0.6377
 7467SOL    HW123300   6.481   0.160   3.917 -0.4441 -0.8168  0.5062
 7467SOL    HW223301   6.380   0.237   4.020  0.3176  0.6398  0.1867
 7468SOL     OW23302   4.252   3.202   6.930 -0.4521  0.0461 -0.1661
 7468SOL    HW123303   4.283   3.139   6.859 -2.6744 -0.1747 -1.0279
 7468SOL    HW223304   4.260   3.296   6.897  1.6349  0.2015  0.6247
 7469SOL     OW23305   6.376   1.571   3.368  0.7075  0.1085 -0.2327
 7469SOL    HW123306   6.458   1.554   3.422 -0.0713  3.4694  2.3890
 7469SOL    HW223307   6.295   1.547   3.422 -0.1764 -2.2290 -2.3943
 7470SOL     OW23308   5.752   6.291   4.284  0.1901 -0.2405  0.5334
 7470SOL    HW123309   5.710   6.261   4.370 -0.5402  2.0133  1.0404
 7470SOL    HW223310   5.687   6.347   4.233  1.6295  0.9649 -0.0315
 7471SOL     OW23311   2.690   0.398   0.965 -0.2585  0.0227 -0.1909
 7471SOL    HW123312   2.610   0.436   0.917  0.3726 -0.4239 -1.6537
 7471SOL    HW223313   2.659   0.336   1.037 -1.2514  1.2148  0.4402
 7472SOL     OW23314   5.099   6.244   2.186 -0.0801  0.4366 -0.2486
 7472SOL    HW123315   5.044   6.229   2.269 -0.3769  1.3638 -0.2703
 7472SOL    HW223316   5.179   6.299   2.209  1.0388 -1.1473 -0.1608
 7473SOL     OW23317   6.844   6.513   3.528 -0.3151 -0.3105 -0.4956
 7473SOL    HW123318   6.808   6.522   3.621  1.7624  0.0517  0.3276
 7473SOL    HW223319   6.936   6.473   3.531 -0.9205 -2.0417 -2.5652
 7474SOL     OW23320   5.127   5.948   6.152 -0.5463 -0.0658 -0.4390
 7474SOL    HW123321   5.040   5.920   6.111 -0.1843 -1.5178 -0.2571
 7474SOL    HW223322   5.109   5.989   6.242 -1.0208 -0.7508 -0.2094
 7475SOL     OW23323   1.606   1.136   1.411  0.1472  0.0903 -0.6972
 7475SOL    HW123324   1.564   1.067   1.352 -0.8959 -1.1087  1.3382
 7475SOL    HW223325   1.632   1.094   1.498  0.3702  2.0653  0.2464
 7476SOL     OW23326   0.828   1.786   2.964 -0.0313  0.3459 -0.2120
 7476SOL    HW123327   0.849   1.691   2.990 -3.0902 -0.5287 -0.5773
 7476SOL    HW223328   0.816   1.840   3.047  0.0720  0.0243  0.0183
 7477SOL     OW23329   2.739   3.516   5.332 -0.5924 -0.0993 -0.1234
 7477SOL    HW123330   2.707   3.610   5.338  0.4393  0.3212 -0.8937
 7477SOL    HW223331   2.713   3.476   5.244  2.3952  0.8636 -1.6008
 7478SOL     OW23332   6.138   1.887   6.306  0.0999  0.2668 -0.2380
 7478SOL    HW123333   6.100   1.796   6.323  1.4192 -0.0690  1.1365
 7478SOL    HW223334   6.185   1.888   6.218 -0.2674 -0.2501 -0.4441
 7479SOL     OW23335   2.539   1.690   4.356 -0.6138 -0.4045  0.2187
 7479SOL    HW123336   2.482   1.620   4.400  2.6414 -1.8760  2.5032
 7479SOL    HW223337   2.575   1.654   4.270 -2.1077  0.1053 -0.6604
 7480SOL     OW23338   3.680   6.708   0.113 -0.3956  0.2591  0.0116
 7480SOL    HW123339   3.758   6.726   0.172  0.6838 -0.1988 -1.2315
 7480SOL    HW223340   3.638   6.621   0.138  0.6039 -0.3726 -0.4462
 7481SOL     OW23341   1.167   5.469   0.593 -0.5161  0.4895  0.0359
 7481SOL    HW123342   1.156   5.392   0.530  1.0770 -0.3129  0.6914
 7481SOL    HW223343   1.104   5.457   0.670  0.0051 -0.3913  0.3400
 7482SOL     OW23344   5.468   4.323   5.752 -0.0532  0.4740 -0.7031
 7482SOL    HW123345   5.497   4.264   5.827 -1.4264 -1.1082 -1.3490
 7482SOL    HW223346   5.414   4.400   5.789  0.5208  0.5343  0.0319
 7483SOL     OW23347   2.234   3.430   5.098  0.3485 -0.3990 -0.0053
 7483SOL    HW123348   2.249   3.510   5.156  0.2995 -0.0692 -0.4419
 7483SOL    HW223349   2.261   3.347   5.148  1.1924 -0.0444  0.1489
 7484SOL     OW23350   5.343   0.859   0.196  0.0864  0.2599  0.2266
 7484SOL    HW123351   5.373   0.950   0.222  2.0602 -0.3900  0.3584
 7484SOL    HW223352   5.303   0.862   0.104  1.9742  0.9679 -0.6309
 7485SOL     OW23353   5.143   2.332   5.582 -0.4553  0.1814 -0.1514
 7485SOL    HW123354   5.066   2.349   5.520  0.2419 -0.6731 -1.3039
 7485SOL    HW223355   5.110   2.328   5.676 -1.6410  0.9285 -0.5150
 7486SOL     OW23356   2.552   0.864   4.707  0.0218 -0.2668  0.2913
 7486SOL    HW123357   2.558   0.847   4.609 -0.6536  0.9680  0.0075
 7486SOL    HW223358   2.642   0.893   4.742 -0.4318  2.6484 -0.6955
 7487SOL     OW23359   2.108   2.499   3.159  0.2212 -0.3863  0.0556
 7487SOL    HW123360   2.079   2.404   3.147 -0.3774 -0.0800 -1.0548
 7487SOL    HW223361   2.030   2.554   3.187  0.3897 -0.0839 -0.0623
 7488SOL     OW23362   5.882   4.771   4.418  0.0222  0.2929  0.5207
 7488SOL    HW123363   5.911   4.693   4.473  1.8126  0.6402  0.1431
 7488SOL    HW223364   5.805   4.817   4.462 -0.4837 -1.1544  1.1870
 7489SOL     OW23365   5.786   0.649   5.728  0.2585  0.1095  0.1347
 7489SOL    HW123366   5.704   0.621   5.779  0.9232 -0.1469  1.0968
 7489SOL    HW223367   5.832   0.568   5.693 -0.3161  0.2976 -1.1029
 7490SOL     OW23368   6.537   1.172   0.030 -0.3757  0.1062 -0.8324
 7490SOL    HW123369   6.533   1.148   0.127  1.8573 -0.2131 -0.7712
 7490SOL    HW223370   6.624   1.140  -0.009 -0.4676  1.7413 -2.5129
 7491SOL     OW23371   2.569   5.835   5.185 -0.2115 -0.3901 -0.1387
 7491SOL    HW123372   2.617   5.922   5.169 -0.6597 -0.0580  0.2921
 7491SOL    HW223373   2.537   5.832   5.280 -0.5439 -0.8511 -0.2642
 7492SOL     OW23374   5.269   3.281   4.509  0.3850  0.3356  0.5145
 7492SOL    HW123375   5.308   3.371   4.532  0.6231 -0.0835  1.8006
 7492SOL    HW223376   5.341   3.222   4.473  0.8721 -0.2537  2.3612
 7493SOL     OW23377   1.271   6.989   2.267 -0.4263 -0.4316  0.5910
 7493SOL    HW123378   1.228   6.989   2.357 -1.1372  1.4163  0.3152
 7493SOL    HW223379   1.260   7.080   2.226  1.9413 -0.5301 -0.3829
 7494SOL     OW23380   3.436   0.628   1.272  0.4490 -0.3474 -0.0079
 7494SOL    HW123381   3.415   0.571   1.351  0.7035 -0.5456 -0.0804
 7494SOL    HW223382   3.488   0.575   1.205  1.0284  0.0780  0.0964
 7495SOL     OW23383   4.973   2.212   2.834  0.4064  0.0484 -0.0315
 7495SOL    HW123384   4.945   2.140   2.771  0.3201  2.5479 -3.0555
 7495SOL    HW223385   4.892   2.260   2.868  0.5242 -0.4894  1.0663
 7496SOL     OW23386   3.972   5.532   0.849  0.8604 -0.6366  0.0632
 7496SOL    HW123387   3.883   5.572   0.870  0.4235 -0.9993 -1.0209
 7496SOL    HW223388   4.033   5.543   0.927  1.0180  2.7933 -0.3991
 7497SOL     OW23389   3.780   4.127   1.177  0.1316  0.1246 -0.3513
 7497SOL    HW123390   3.810   4.035   1.150 -2.5939 -0.7388 -0.7300
 7497SOL    HW223391   3.740   4.174   1.098 -0.6361  0.7116  0.3646
 7498SOL     OW23392   0.361   5.990   3.746  0.4690  0.0911  0.2203
 7498SOL    HW123393   0.338   6.083   3.718 -0.5994  0.0573  0.9261
 7498SOL    HW223394   0.364   5.931   3.665 -2.2265  0.0621  0.0480
 7499SOL     OW23395   4.054   0.771   6.806 -0.4058 -0.5448 -0.1419
 7499SOL    HW123396   3.969   0.723   6.830  0.6207 -1.7471  1.3160
 7499SOL    HW223397   4.116   0.708   6.759  0.1236 -0.0389 -0.1335
 7500SOL     OW23398   3.255   6.712   0.870 -0.1005 -0.3105 -0.5181
 7500SOL    HW123399   3.329   6.748   0.927 -0.9924  1.2771 -0.2833
 7500SOL    HW223400   3.170   6.759   0.894 -0.9559 -1.2534 -1.5972
 7501SOL     OW23401   0.435   0.816   1.436 -0.5145  0.4172  0.2164
 7501SOL    HW123402   0.478   0.871   1.508 -1.8986  0.0726  1.3580
 7501SOL    HW223403   0.485   0.730   1.426  0.1075  0.7654  0.2744
 7502SOL     OW23404   2.182   0.354   4.339  0.2457 -0.7146  0.0186
 7502SOL    HW123405   2.251   0.421   4.367  0.7492 -1.0461 -0.4075
 7502SOL    HW223406   2.211   0.311   4.253 -1.3903  0.5148 -1.2126
 7503SOL     OW23407   3.936   1.493   5.163 -0.1414 -0.6931 -0.3221
 7503SOL    HW123408   3.885   1.433   5.101 -1.0659 -1.0305  0.7226
 7503SOL    HW223409   3.959   1.578   5.116 -0.3315 -1.1579 -1.2905
 7504SOL     OW23410   1.595   4.920   1.098  0.2664 -0.0418 -1.2342
 7504SOL    HW123411   1.543   4.837   1.117  1.2501 -0.5114 -0.5026
 7504SOL    HW223412   1.605   4.932   0.999 -1.2990  0.1238 -1.3980
 7505SOL     OW23413   5.913   2.047   6.253 -0.0976 -0.4024 -0.1646
 7505SOL    HW123414   5.953   1.964   6.292  0.6231 -0.3094 -0.6844
 7505SOL    HW223415   5.860   2.094   6.323  0.9816 -0.3565  0.6596
 7506SOL     OW23416   0.807   3.455   3.629  0.1443  0.3681  0.2826
 7506SOL    HW123417   0.754   3.516   3.570  0.8547  0.4507 -0.2832
 7506SOL    HW223418   0.894   3.498   3.653  0.9802 -0.6932 -0.7406
 7507SOL     OW23419   0.303   1.089   3.112  0.1630  0.3622  0.4295
 7507SOL    HW123420   0.320   1.178   3.154  2.1331  0.5893 -0.7289
 7507SOL    HW223421   0.333   1.090   3.017 -2.6697 -0.6430 -0.5662
 7508SOL     OW23422   5.603   0.384   0.405  0.0753 -0.1957 -0.7717
 7508SOL    HW123423   5.646   0.422   0.487  1.2862  1.4630 -2.1087
 7508SOL    HW223424   5.504   0.387   0.415  0.1841 -0.8438  0.9473
 7509SOL     OW23425   0.161   2.283   2.139 -0.1721 -0.1601 -0.5220
 7509SOL    HW123426   0.144   2.375   2.176 -2.2503 -0.5707 -0.3365
 7509SOL    HW223427   0.139   2.215   2.208  1.4200 -0.8305 -0.6399
 7510SOL     OW23428   5.072   5.421   4.721 -0.3792 -0.1641 -0.0316
 7510SOL    HW123429   5.164   5.407   4.759  0.5867  0.0307 -2.1296
 7510SOL    HW223430   5.006   5.367   4.772  0.9594 -0.6552  1.2651
 7511SOL     OW23431   5.929   2.334   4.302 -0.0593  0.0879  0.4926
 7511SOL    HW123432   5.926   2.245   4.256  1.2299 -0.1886  0.8778
 7511SOL    HW223433   5.988   2.396   4.251 -1.2098  0.8355  0.0585
 7512SOL     OW23434   6.350   6.074   0.551  0.1916 -0.6175  0.3662
 7512SOL    HW123435   6.379   6.141   0.619  0.9419 -1.8012  1.2434
 7512SOL    HW223436   6.429   6.026   0.515 -0.2715 -0.5504 -0.7993
 7513SOL     OW23437   3.378   3.873   5.402  0.2326 -0.2577  0.3050
 7513SOL    HW123438   3.316   3.805   5.439 -0.7494  1.0363  1.1321
 7513SOL    HW223439   3.363   3.882   5.303  1.5051 -2.3265 -0.1450
 7514SOL     OW23440   1.152   4.407   4.562  0.5977 -0.1953 -0.5061
 7514SOL    HW123441   1.243   4.367   4.548  0.7862  0.3818 -0.9452
 7514SOL    HW223442   1.105   4.356   4.634  1.0754 -0.8108 -0.6161
 7515SOL     OW23443   4.573   3.505   0.001 -0.3588  0.0335  0.1924
 7515SOL    HW123444   4.551   3.409  -0.018 -0.2500 -0.5523  2.7144
 7515SOL    HW223445   4.670   3.513   0.021 -0.6812  0.3162  1.7566
 7516SOL     OW23446   1.135   5.228   0.471  0.0639 -0.1186 -0.0705
 7516SOL    HW123447   1.213   5.224   0.409  0.2460 -2.4050  0.2401
 7516SOL    HW223448   1.156   5.178   0.554 -1.7376 -0.8113  0.0015
 7517SOL     OW23449   2.637   0.957   2.124  0.2317 -0.1483 -0.0227
 7517SOL    HW123450   2.600   0.898   2.052  0.9794 -3.2743  1.9899
 7517SOL    HW223451   2.717   0.914   2.165  0.2051  1.7915  2.3040
 7518SOL     OW23452   2.780   2.033   4.843  0.0349 -0.4450 -0.1757
 7518SOL    HW123453   2.839   2.081   4.909  1.0837 -0.4865 -1.0545
 7518SOL    HW223454   2.790   1.934   4.856 -2.5320 -0.5446  1.9955
 7519SOL     OW23455   3.930   0.467   3.956 -0.4559  0.0891 -0.5273
 7519SOL    HW123456   3.850   0.408   3.944 -1.0798  0.7533  0.2761
 7519SOL    HW223457   4.013   0.410   3.954 -1.0460 -0.8392  0.3002
 7520SOL     OW23458   2.385   5.308   3.747 -0.4706 -0.1835 -0.1921
 7520SOL    HW123459   2.356   5.265   3.661 -1.6074 -0.6886  0.4132
 7520SOL    HW223460   2.309   5.361   3.784  0.5272  1.3731 -0.3023
 7521SOL     OW23461   3.032   0.709   2.427  0.0141 -0.4542 -0.1953
 7521SOL    HW123462   3.094   0.724   2.504  0.7103 -0.8015 -0.6815
 7521SOL    HW223463   3.014   0.611   2.417 -1.7743 -0.2836  0.8261
 7522SOL     OW23464   2.362   2.604   0.058  0.2270 -0.1422 -0.1742
 7522SOL    HW123465   2.287   2.606   0.124 -0.0867  0.2956 -0.5371
 7522SOL    HW223466   2.383   2.509   0.034 -1.2660 -0.2240 -1.2530
 7523SOL     OW23467   5.834   3.883   4.195  0.0089 -0.2724  0.2693
 7523SOL    HW123468   5.878   3.948   4.256 -0.1580  0.4716 -0.3827
 7523SOL    HW223469   5.904   3.836   4.140  0.2658 -1.8155  1.8189
 7524SOL     OW23470   1.995   6.030   2.950  0.1324  0.0785 -0.8501
 7524SOL    HW123471   1.957   6.016   2.859 -0.7047 -1.7969 -0.2673
 7524SOL    HW223472   2.070   5.965   2.965  0.7270  0.8416 -0.4261
 7525SOL     OW23473   4.994   3.812   0.656 -0.2853 -0.0467  0.0405
 7525SOL    HW123474   5.061   3.753   0.609 -0.8805 -0.5154 -0.2284
 7525SOL    HW223475   4.997   3.904   0.617  1.8204  0.5993  1.5435
 7526SOL     OW23476   5.374   2.203   1.764 -0.2719 -0.1140  0.3528
 7526SOL    HW123477   5.326   2.118   1.787 -0.6045 -0.0231  0.0051
 7526SOL    HW223478   5.331   2.245   1.684 -0.9886  1.0872  1.3263
 7527SOL     OW23479   0.119   0.674   4.821 -0.0985  0.2478 -0.0369
 7527SOL    HW123480   0.191   0.742   4.810  1.3448 -1.2346 -0.1393
 7527SOL    HW223481   0.159   0.583   4.824 -1.9688 -0.6246  0.1144
 7528SOL     OW23482   1.644   3.537   2.199 -0.6374  0.3632  0.3322
 7528SOL    HW123483   1.710   3.472   2.238  2.1863  1.0704 -2.7570
 7528SOL    HW223484   1.553   3.496   2.198  0.3712 -2.1227  1.6308
 7529SOL     OW23485   0.703   6.007   5.056 -0.1060 -0.7500 -0.1326
 7529SOL    HW123486   0.655   6.052   4.981  0.4708 -0.3020 -0.2374
 7529SOL    HW223487   0.681   6.053   5.142  1.6563  0.7468 -0.4150
 7530SOL     OW23488   6.115   0.153   5.480  0.0495  0.0041 -0.1438
 7530SOL    HW123489   6.148   0.131   5.572  0.1581  1.2975  0.1375
 7530SOL    HW223490   6.113   0.252   5.467 -2.8971 -0.0209 -0.4715
 7531SOL     OW23491   5.167   2.136   0.402 -0.1400  0.0766  0.0821
 7531SOL    HW123492   5.111   2.125   0.484  0.6003 -1.8721  0.3887
 7531SOL    HW223493   5.215   2.223   0.406  0.8378 -0.4806  2.3599
 7532SOL     OW23494   2.591   1.793   6.569 -0.3298 -0.1240 -0.7149
 7532SOL    HW123495   2.578   1.891   6.578  2.1505  0.0690  3.2841
 7532SOL    HW223496   2.655   1.774   6.495 -0.0132  1.3607 -0.8460
 7533SOL     OW23497   6.423   4.470   3.179 -0.0313  0.0361  0.8578
 7533SOL    HW123498   6.444   4.432   3.269  0.6165 -0.0187  0.6876
 7533SOL    HW223499   6.496   4.448   3.115 -0.8523 -0.5844  0.1150
 7534SOL     OW23500   6.821   2.106   2.356  0.5171 -0.1106 -0.2580
 7534SOL    HW123501   6.866   2.074   2.273  2.8012 -1.6709  1.4919
 7534SOL    HW223502   6.878   2.175   2.400 -1.1550  1.4571 -0.4271
 7535SOL     OW23503   0.916   0.777   5.942 -0.5391 -0.3352  0.2018
 7535SOL    HW123504   0.827   0.778   5.897  0.5160 -1.0361 -2.0914
 7535SOL    HW223505   0.910   0.824   6.030 -2.8656  0.7180 -0.4433
 7536SOL     OW23506   0.393   6.851   4.203  0.6600  0.6373 -0.3680
 7536SOL    HW123507   0.357   6.826   4.113 -1.5620 -2.3820  1.1475
 7536SOL    HW223508   0.480   6.804   4.218 -0.5476 -1.6309  0.1389
 7537SOL     OW23509   1.312   2.999   2.783  0.2621  0.1499  0.0676
 7537SOL    HW123510   1.348   2.921   2.834 -0.7955  0.0746  0.7318
 7537SOL    HW223511   1.360   3.006   2.695  1.7849 -0.0047  0.8435
 7538SOL     OW23512   5.406   2.713   3.037 -0.9745  0.5162 -0.4743
 7538SOL    HW123513   5.328   2.765   3.000 -0.2315  1.7917 -0.3282
 7538SOL    HW223514   5.491   2.761   3.013 -0.3943  0.7461  1.8414
 7539SOL     OW23515   6.192   3.908   5.161  0.5859  0.0843  0.4993
 7539SOL    HW123516   6.222   3.825   5.114  0.0804 -0.2631  0.7830
 7539SOL    HW223517   6.256   3.930   5.235  0.9784  0.2187  0.1245
 7540SOL     OW23518   3.651   5.643   0.137 -0.1973  0.5044  0.4999
 7540SOL    HW123519   3.729   5.651   0.199  0.1850 -0.5335  0.1702
 7540SOL    HW223520   3.672   5.688   0.051  0.0737  0.1551  0.3818
 7541SOL     OW23521   6.314   1.158   2.365  0.4074  0.1763 -1.0925
 7541SOL    HW123522   6.299   1.164   2.266  2.8400 -1.0521 -1.6321
 7541SOL    HW223523   6.245   1.099   2.406 -1.5337  1.8937 -1.7592
 7542SOL     OW23524   2.882   5.074   2.363  0.3614  0.0244 -0.3229
 7542SOL    HW123525   2.784   5.094   2.372  0.2190 -0.6710 -0.3040
 7542SOL    HW223526   2.935   5.149   2.403 -0.1543  0.5945 -0.6985
 7543SOL     OW23527   2.727   1.268   2.765  0.3589 -0.1101 -0.4883
 7543SOL    HW123528   2.676   1.252   2.850  0.3294 -0.8090 -0.6380
 7543SOL    HW223529   2.812   1.316   2.787  0.0470  0.3020 -0.1426
 7544SOL     OW23530   1.147   3.721   4.500  0.2247  0.5933  0.2831
 7544SOL    HW123531   1.195   3.669   4.571  1.2781 -0.3940 -1.1047
 7544SOL    HW223532   1.210   3.740   4.425 -0.8433  1.7180 -0.3580
 7545SOL     OW23533   4.040   1.762   5.163  0.4796 -0.0059  0.3342
 7545SOL    HW123534   3.971   1.828   5.189 -0.4698 -0.9899  0.3937
 7545SOL    HW223535   4.122   1.775   5.219 -0.3185  0.0164  1.5325
 7546SOL     OW23536   2.277   3.779   5.847 -0.1990 -0.3193  0.6192
 7546SOL    HW123537   2.292   3.830   5.762 -1.0132  0.2389  0.7925
 7546SOL    HW223538   2.252   3.685   5.825  4.1993 -1.6519  0.3105
 7547SOL     OW23539   6.582   3.548   4.752 -0.7525 -0.6351 -0.0858
 7547SOL    HW123540   6.587   3.540   4.852 -0.4645 -2.2611 -0.1883
 7547SOL    HW223541   6.538   3.634   4.727 -0.0263  0.2195  1.4226
 7548SOL     OW23542   4.230   4.779   0.132 -0.0394  0.2915  0.2218
 7548SOL    HW123543   4.201   4.840   0.059  0.0999  0.2229  0.1084
 7548SOL    HW223544   4.175   4.797   0.214 -1.6179 -1.0005 -0.4817
 7549SOL     OW23545   4.762   4.671   0.298  0.1365  0.3517 -0.3031
 7549SOL    HW123546   4.787   4.613   0.376  0.4602  1.3668  0.3654
 7549SOL    HW223547   4.669   4.706   0.311  0.3404  0.8467 -0.1712
 7550SOL     OW23548   3.098   5.220   2.709  0.2184  0.1837 -0.0469
 7550SOL    HW123549   3.053   5.244   2.623 -0.0769  0.9094  0.3023
 7550SOL    HW223550   3.127   5.124   2.706  1.8387  0.6557 -1.6659
 7551SOL     OW23551   2.052   5.311   1.537  0.1277  0.1118  0.1195
 7551SOL    HW123552   2.152   5.314   1.549  0.2587 -0.0547 -0.8065
 7551SOL    HW223553   2.031   5.292   1.441 -0.7888 -1.1908  0.5479
 7552SOL     OW23554   0.928   3.723   3.155 -0.1896 -0.4232 -0.3269
 7552SOL    HW123555   0.880   3.780   3.222  0.8794  0.5656 -0.3492
 7552SOL    HW223556   0.954   3.637   3.198 -0.9625 -0.4917  0.0235
 7553SOL     OW23557   2.064   5.451   5.879 -0.0625 -0.2385  0.1783
 7553SOL    HW123558   2.076   5.386   5.955  1.2035  0.4537  0.6202
 7553SOL    HW223559   1.971   5.487   5.880 -0.5406 -1.4234  0.4189
 7554SOL     OW23560   4.139   4.312   6.583  0.1575 -0.4875  0.3797
 7554SOL    HW123561   4.147   4.295   6.485  1.3437 -3.0007  0.8349
 7554SOL    HW223562   4.200   4.387   6.609  1.0647 -0.8751 -0.5704
 7555SOL     OW23563   3.273   6.962   0.698  0.2811 -0.3976  0.1849
 7555SOL    HW123564   3.315   6.872   0.691  0.1270 -0.4918  0.4725
 7555SOL    HW223565   3.326   7.028   0.645  0.9114 -0.4664  0.7255
 7556SOL     OW23566   0.482   2.365   1.803  0.2928 -0.0594 -0.3011
 7556SOL    HW123567   0.556   2.414   1.849  0.3729  0.2257 -0.7236
 7556SOL    HW223568   0.491   2.376   1.704 -0.5103  0.2740 -0.3484
 7557SOL     OW23569   1.919   5.763   0.297  0.1072  0.3195  0.4212
 7557SOL    HW123570   1.840   5.731   0.351  0.0102 -0.1558  0.0022
 7557SOL    HW223571   1.886   5.814   0.218  0.2081 -0.1997  0.0424
 7558SOL     OW23572   0.306   6.375   3.428  0.0117  0.2652 -0.1384
 7558SOL    HW123573   0.286   6.308   3.499 -0.6202  0.1943 -0.3677
 7558SOL    HW223574   0.402   6.368   3.400 -0.3715 -1.5789 -1.1893
 7559SOL     OW23575   2.016   3.402   2.315  0.1061 -0.1128 -0.0937
 7559SOL    HW123576   2.053   3.398   2.408  1.9398 -0.0596 -0.7765
 7559SOL    HW223577   1.932   3.347   2.310  0.5576 -0.9888  1.3496
 7560SOL     OW23578   4.134   5.530   6.194  0.2084  0.0687  0.9217
 7560SOL    HW123579   4.234   5.524   6.196  0.1924 -1.2018 -0.4236
 7560SOL    HW223580   4.098   5.496   6.281  0.9117 -0.4517  1.0232
 7561SOL     OW23581   6.850   2.051   0.597 -0.0708 -0.6304  0.1303
 7561SOL    HW123582   6.863   1.958   0.561 -3.2429 -0.4743 -1.7889
 7561SOL    HW223583   6.863   2.117   0.523 -1.9498  0.0783  0.3818
 7562SOL     OW23584   6.161   6.163   4.835  0.3966  0.7141 -0.0781
 7562SOL    HW123585   6.133   6.216   4.755 -1.3822 -1.0005 -0.6571
 7562SOL    HW223586   6.239   6.105   4.811  0.5152  0.9543 -0.2728
 7563SOL     OW23587   2.494   4.989   4.645  0.0957  0.6414  0.1777
 7563SOL    HW123588   2.532   5.034   4.726  2.1278  1.2376 -1.0400
 7563SOL    HW223589   2.475   5.057   4.574  0.5751 -0.0925 -0.6793
 7564SOL     OW23590   0.374   3.090   4.864 -0.0966  0.2869 -0.4318
 7564SOL    HW123591   0.367   2.996   4.830 -0.3366  0.8718 -2.0666
 7564SOL    HW223592   0.317   3.100   4.946  0.3785 -1.1167  0.1075
 7565SOL     OW23593   0.350   3.208   4.623  0.3804  0.1149 -0.0636
 7565SOL    HW123594   0.438   3.249   4.598  0.5396 -0.0314  0.2579
 7565SOL    HW223595   0.358   3.161   4.711 -0.8566  3.0200  1.7530
 7566SOL     OW23596   0.672   1.691   0.067 -0.0348  0.0455 -0.3694
 7566SOL    HW123597   0.648   1.723   0.158  0.9050 -3.1127  1.1194
 7566SOL    HW223598   0.589   1.662   0.019 -0.3209 -0.5126  0.4461
 7567SOL     OW23599   4.350   3.871   6.144  0.1176 -0.0305 -0.2336
 7567SOL    HW123600   4.389   3.812   6.074 -1.3999 -0.9699 -0.3322
 7567SOL    HW223601   4.387   3.964   6.134  0.9064 -0.4567 -1.4502
 7568SOL     OW23602   4.537   2.155   6.650  0.0101 -0.0557 -0.0572
 7568SOL    HW123603   4.474   2.230   6.670  1.0891  0.3814  2.0693
 7568SOL    HW223604   4.504   2.103   6.571 -0.4657  2.9424 -1.9640
 7569SOL     OW23605   5.240   6.691   5.039  0.4466 -0.4909  0.2069
 7569SOL    HW123606   5.149   6.654   5.019  0.2085  0.4857 -0.5665
 7569SOL    HW223607   5.308   6.619   5.025  0.0363 -0.5540 -1.7666
 7570SOL     OW23608   6.976   6.934   4.979 -0.3095 -0.3142  0.2181
 7570SOL    HW123609   6.925   6.981   4.906 -0.2555  0.1651  0.4829
 7570SOL    HW223610   6.922   6.934   5.063  0.6365  1.3926  0.8817
 7571SOL     OW23611   1.736   6.504   4.498 -0.3284 -0.1681  0.0715
 7571SOL    HW123612   1.659   6.502   4.434 -1.8587 -0.7751  1.8600
 7571SOL    HW223613   1.740   6.594   4.542 -0.3485 -0.3102  0.3652
 7572SOL     OW23614   0.276   6.505   0.938 -0.3185  0.4015 -0.4081
 7572SOL    HW123615   0.355   6.491   0.999  0.1424  1.3082 -0.7808
 7572SOL    HW223616   0.204   6.554   0.987 -1.0655 -1.2549  0.2306
 7573SOL     OW23617   6.426   2.194   3.050 -0.4765 -0.3212  0.1949
 7573SOL    HW123618   6.395   2.244   2.969  1.0303 -2.3349 -1.7277
 7573SOL    HW223619   6.524   2.206   3.061 -0.5688 -0.5589  1.4202
 7574SOL     OW23620   0.546   1.611   4.455 -0.0423  0.1283 -0.1258
 7574SOL    HW123621   0.455   1.572   4.446 -0.2214  0.4501  0.2543
 7574SOL    HW223622   0.566   1.668   4.375 -1.6638  3.0619  1.4229
 7575SOL     OW23623   5.099   2.770   0.301  0.7422  0.7393 -0.3740
 7575SOL    HW123624   5.130   2.838   0.368  0.2375  0.2607  0.3517
 7575SOL    HW223625   5.110   2.678   0.338  0.1201  0.4829 -0.8118
 7576SOL     OW23626   2.433   1.870   5.492  0.5283  0.0255 -0.2584
 7576SOL    HW123627   2.452   1.792   5.434  1.6605 -1.1738  1.6232
 7576SOL    HW223628   2.459   1.955   5.445  2.0453 -0.9415 -1.2235
 7577SOL     OW23629   2.267   6.956   6.434 -0.1723  0.9793  0.1426
 7577SOL    HW123630   2.347   6.909   6.470 -0.2842  2.0347  1.8829
 7577SOL    HW223631   2.295   7.027   6.370  0.1643  0.3907 -0.3746
 7578SOL     OW23632   6.461   1.861   3.411  0.5611  0.1196  0.4458
 7578SOL    HW123633   6.423   1.900   3.328 -1.0031 -1.0968  0.5276
 7578SOL    HW223634   6.432   1.765   3.419  0.2157  0.3374  2.6174
 7579SOL     OW23635   4.039   6.921   2.213 -0.6023 -1.3201  0.3564
 7579SOL    HW123636   4.116   6.978   2.185 -0.1644 -1.2362  1.6436
 7579SOL    HW223637   3.962   6.980   2.239  0.0991 -1.2171  2.4046
 7580SOL     OW23638   3.374   6.000   0.270 -0.0076  0.8494 -0.0342
 7580SOL    HW123639   3.397   5.903   0.272  1.4151  1.1761  0.2288
 7580SOL    HW223640   3.329   6.025   0.356 -0.6927  0.3637 -0.2401
 7581SOL     OW23641   6.252   2.374   2.236 -0.2931  0.0201  0.0051
 7581SOL    HW123642   6.165   2.422   2.252  0.8670  2.6808 -0.9618
 7581SOL    HW223643   6.281   2.330   2.321 -0.9871  1.9306  1.3341
 7582SOL     OW23644   5.144   3.118   4.730 -0.3640  0.4281  0.1453
 7582SOL    HW123645   5.178   3.171   4.808  1.1763 -0.3153  0.0107
 7582SOL    HW223646   5.204   3.131   4.651 -0.9351 -0.1793 -0.4034
 7583SOL     OW23647   5.218   4.293   3.458 -0.0550 -0.2444  0.1406
 7583SOL    HW123648   5.201   4.375   3.513  1.7467  2.0269 -2.3661
 7583SOL    HW223649   5.306   4.303   3.411  0.0361 -3.5122 -0.5797
 7584SOL     OW23650   2.120   3.628   2.831  0.5101 -0.5419  0.2882
 7584SOL    HW123651   2.101   3.626   2.929  0.6480 -2.3014  0.3055
 7584SOL    HW223652   2.160   3.541   2.802  4.8681  1.4378 -0.4979
 7585SOL     OW23653   0.167   1.444   5.013  0.2741 -0.3416  0.0762
 7585SOL    HW123654   0.072   1.442   4.983 -0.0760 -1.3869  1.1888
 7585SOL    HW223655   0.211   1.527   4.977 -1.7511  1.5446  1.6143
 7586SOL     OW23656   1.420   4.729   2.295  0.0627 -0.4753  0.2772
 7586SOL    HW123657   1.447   4.678   2.376  0.7500 -0.7454 -0.1112
 7586SOL    HW223658   1.472   4.696   2.216 -0.4290 -0.0623 -0.2285
 7587SOL     OW23659   6.271   3.311   1.622 -0.6271 -0.3607 -0.0943
 7587SOL    HW123660   6.290   3.358   1.536  0.0413  0.1103  0.2983
 7587SOL    HW223661   6.323   3.226   1.626  0.0620  0.0684  0.2294
 7588SOL     OW23662   2.327   2.089   1.159 -0.5656 -0.0185  0.2299
 7588SOL    HW123663   2.385   2.091   1.077 -1.8269 -0.2623 -0.6870
 7588SOL    HW223664   2.315   1.994   1.188 -0.9564 -0.0134  0.0873
 7589SOL     OW23665   3.857   5.193   2.763 -0.2645 -0.7487 -0.0470
 7589SOL    HW123666   3.812   5.157   2.682 -0.0446 -1.8763  0.3185
 7589SOL    HW223667   3.858   5.293   2.759  1.1719 -0.7744 -2.2226
 7590SOL     OW23668   4.233   2.564   1.613 -0.2140  0.2803 -0.4930
 7590SOL    HW123669   4.241   2.471   1.577  1.1579  0.4857 -0.7983
 7590SOL    HW223670   4.145   2.603   1.587 -0.4017 -0.5826 -1.1930
 7591SOL     OW23671   6.102   2.548   6.554 -0.3230 -0.2065 -0.2316
 7591SOL    HW123672   6.171   2.484   6.522  0.6072 -0.0483  1.3593
 7591SOL    HW223673   6.140   2.604   6.627 -1.5289  1.2789 -0.6985
 7592SOL     OW23674   1.487   1.852   3.482  0.3977 -0.0250  0.3593
 7592SOL    HW123675   1.435   1.860   3.567  1.3925 -0.4404  1.0241
 7592SOL    HW223676   1.566   1.914   3.485 -0.9507  1.9686 -1.3760
 7593SOL     OW23677   1.119   5.940   0.431 -0.3902  0.1439  0.5366
 7593SOL    HW123678   1.087   5.907   0.520 -1.0820 -0.7093 -0.0116
 7593SOL    HW223679   1.043   5.937   0.366 -0.0520  1.3394  0.0559
 7594SOL     OW23680   1.886   1.608   4.506 -0.3375  0.3259 -0.2488
 7594SOL    HW123681   1.820   1.660   4.453 -1.4883  0.0255  0.8461
 7594SOL    HW223682   1.958   1.669   4.539  0.0244  0.6317 -1.5535
 7595SOL     OW23683   6.991   3.047   2.766 -0.4114 -0.0543 -0.0778
 7595SOL    HW123684   7.009   3.073   2.860 -1.0332 -0.3066  0.1203
 7595SOL    HW223685   7.077   3.037   2.716 -0.1066  0.5916  0.3202
 7596SOL     OW23686   2.896   3.519   4.607  0.4785 -0.1213 -0.0963
 7596SOL    HW123687   2.981   3.481   4.571  0.2082 -1.5517  0.6915
 7596SOL    HW223688   2.819   3.473   4.564  0.1219  0.2306  0.1620
 7597SOL     OW23689   3.615   3.993   4.690  0.0272 -0.1067 -0.1722
 7597SOL    HW123690   3.555   3.985   4.610  0.6773  0.3982 -0.7244
 7597SOL    HW223691   3.595   4.077   4.739 -0.3832 -0.4245  0.2125
 7598SOL     OW23692   5.943   2.560   4.484  0.1732  0.3384  0.0381
 7598SOL    HW123693   5.912   2.512   4.403 -0.2230  0.4168  0.1413
 7598SOL    HW223694   5.901   2.651   4.487  2.9735  1.8543 -1.6215
 7599SOL     OW23695   4.082   1.781   5.539 -0.5056 -0.1889  0.2276
 7599SOL    HW123696   4.142   1.861   5.551  0.5479 -1.1962  2.1199
 7599SOL    HW223697   4.125   1.717   5.476 -0.5605 -0.0037  0.0007
 7600SOL     OW23698   2.055   2.885   6.363 -0.1181  0.4148 -0.1554
 7600SOL    HW123699   1.992   2.811   6.337  3.3786 -2.4204 -1.4045
 7600SOL    HW223700   2.086   2.870   6.457 -1.3426  1.9654  0.5550
 7601SOL     OW23701   6.922   0.372   3.197  0.0202  0.3007 -0.5901
 7601SOL    HW123702   7.011   0.353   3.240 -0.4772  1.0805  0.8441
 7601SOL    HW223703   6.853   0.312   3.236 -0.4365  0.9929 -0.3321
 7602SOL     OW23704   1.858   4.971   6.583  0.5544 -0.1733 -0.3795
 7602SOL    HW123705   1.927   4.951   6.653  0.2832  1.5113  0.4081
 7602SOL    HW223706   1.897   5.033   6.515 -0.2358  1.0080  0.2172
 7603SOL     OW23707   3.737   0.193   3.340  0.1769 -0.6354  0.2251
 7603SOL    HW123708   3.789   0.249   3.405  0.0880  0.2111 -0.4092
 7603SOL    HW223709   3.798   0.160   3.268  0.0742 -0.6606  0.1485
 7604SOL     OW23710   0.990   2.121   6.709 -0.6967 -0.1207 -0.1261
 7604SOL    HW123711   1.020   2.066   6.787 -0.6665  0.1304  0.0377
 7604SOL    HW223712   0.993   2.218   6.733 -0.9143 -0.0562 -0.3601
 7605SOL     OW23713   2.008   5.307   5.417 -0.4245 -0.5356 -0.5654
 7605SOL    HW123714   1.945   5.349   5.352 -0.7943 -0.8230 -0.3976
 7605SOL    HW223715   1.956   5.264   5.491  0.0177  1.5866  1.0921
 7606SOL     OW23716   4.638   2.568   6.822 -0.4043 -0.1345 -0.0927
 7606SOL    HW123717   4.716   2.631   6.830  0.5554 -1.1732 -0.8963
 7606SOL    HW223718   4.625   2.545   6.725 -2.3445  0.7626 -0.0935
 7607SOL     OW23719   7.003   3.966   1.609 -0.7621  0.3985 -0.2931
 7607SOL    HW123720   7.009   3.982   1.511 -0.1314  0.4130 -0.2576
 7607SOL    HW223721   7.095   3.958   1.647 -0.9966  0.5325  0.3182
 7608SOL     OW23722   2.457   2.598   2.370 -0.0071  0.5255  0.2351
 7608SOL    HW123723   2.357   2.601   2.373  0.0196  0.6108  1.5991
 7608SOL    HW223724   2.492   2.685   2.336 -0.4248 -0.3369 -2.6936
 7609SOL     OW23725   0.857   1.679   1.303 -0.3735 -0.0814 -0.4061
 7609SOL    HW123726   0.787   1.671   1.232 -0.4354  3.6867 -0.9493
 7609SOL    HW223727   0.916   1.598   1.300 -0.0320  0.0747 -5.1338
 7610SOL     OW23728   3.497   2.135   6.208 -0.2195  0.7705  0.0134
 7610SOL    HW123729   3.569   2.070   6.233 -0.5133  0.6919  0.6613
 7610SOL    HW223730   3.508   2.220   6.259 -0.0439  1.1048 -0.5735
 7611SOL     OW23731   5.532   6.584   3.173  0.6487 -0.2912 -0.1987
 7611SOL    HW123732   5.552   6.515   3.242 -2.3676  0.3023  1.4358
 7611SOL    HW223733   5.525   6.541   3.083  0.0127 -1.9373  0.5964
 7612SOL     OW23734   4.630   5.444   1.828 -0.3348 -0.0731  0.5958
 7612SOL    HW123735   4.645   5.383   1.905 -0.0663 -0.6964  0.0622
 7612SOL    HW223736   4.682   5.529   1.841  2.6896 -1.5915 -0.5227
 7613SOL     OW23737   3.469   4.799   1.615 -0.2877  0.6601  0.4292
 7613SOL    HW123738   3.396   4.734   1.596  1.0390 -0.6699 -0.2846
 7613SOL    HW223739   3.533   4.760   1.681  0.2478  1.4610  0.4066
 7614SOL     OW23740   0.297   4.571   2.984 -0.1382 -0.0973 -0.2215
 7614SOL    HW123741   0.225   4.504   2.966 -0.8885  0.6705 -0.1478
 7614SOL    HW223742   0.312   4.627   2.902  0.9831 -0.7981 -0.5171
 7615SOL     OW23743   5.647   6.609   6.985 -0.2204  0.4439  0.1899
 7615SOL    HW123744   5.653   6.593   6.886  2.5557 -0.2111  0.4021
 7615SOL    HW223745   5.585   6.541   7.025  2.6849 -2.8490 -0.4660
 7616SOL     OW23746   4.175   2.235   4.857 -0.0076  0.2100 -0.0663
 7616SOL    HW123747   4.163   2.285   4.943  1.2583 -0.5070  0.5605
 7616SOL    HW223748   4.234   2.288   4.796 -0.2842  0.3694 -0.1987
 7617SOL     OW23749   7.004   0.307   4.628  0.3125  0.2927 -0.1592
 7617SOL    HW123750   7.002   0.266   4.537 -0.2154  1.4101 -0.6654
 7617SOL    HW223751   7.099   0.326   4.654  0.5284 -0.7711 -0.1148
 7618SOL     OW23752   4.172   5.147   1.071 -0.5216  0.0009  0.1220
 7618SOL    HW123753   4.117   5.149   1.154 -1.0068 -0.6339 -0.1818
 7618SOL    HW223754   4.127   5.091   1.002  0.8910 -1.2028  0.1323
 7619SOL     OW23755   2.123   3.814   2.630  0.1250 -0.2737  0.0583
 7619SOL    HW123756   2.153   3.767   2.547 -0.1724 -0.2672 -0.0545
 7619SOL    HW223757   2.111   3.748   2.704  2.6980  0.0062  0.7849
 7620SOL     OW23758   0.857   5.517   3.459 -0.4389 -0.2354  0.3891
 7620SOL    HW123759   0.840   5.606   3.502  1.4125  1.0063 -1.2901
 7620SOL    HW223760   0.947   5.484   3.485 -0.4690 -0.8582 -0.2656
 7621SOL     OW23761   0.319   1.921   2.966 -0.2959 -0.2542 -0.1368
 7621SOL    HW123762   0.292   1.923   2.870 -1.3705  0.8513  0.1524
 7621SOL    HW223763   0.411   1.958   2.976 -0.4619  0.3220 -0.6720
 7622SOL     OW23764   1.589   1.271   2.984 -0.2570 -0.3566 -0.2047
 7622SOL    HW123765   1.519   1.237   3.047  0.0183 -1.5812 -0.5296
 7622SOL    HW223766   1.678   1.231   3.008  0.1728  0.5056 -0.3259
 7623SOL     OW23767   3.302   2.888   3.623  0.0289 -0.3506 -0.3719
 7623SOL    HW123768   3.245   2.901   3.543  0.4110  1.2837 -0.4118
 7623SOL    HW223769   3.245   2.884   3.705 -0.2057  0.5301 -0.4843
 7624SOL     OW23770   0.196   0.517   1.087 -0.1052  0.1469 -0.4236
 7624SOL    HW123771   0.122   0.452   1.106 -0.5451  0.4513 -1.0611
 7624SOL    HW223772   0.268   0.505   1.155 -0.7598 -0.1223  0.2476
 7625SOL     OW23773   1.865   3.616   0.557 -0.1650  0.1508 -0.2716
 7625SOL    HW123774   1.899   3.692   0.502 -0.7114  0.7529  0.1971
 7625SOL    HW223775   1.870   3.640   0.654 -2.2426  0.4616 -0.1756
 7626SOL     OW23776   5.503   3.729   6.229  0.6938  0.3619 -0.0928
 7626SOL    HW123777   5.573   3.767   6.290 -0.3874 -0.5072  1.7673
 7626SOL    HW223778   5.413   3.762   6.258  0.2167  0.7755 -1.9200
 7627SOL     OW23779   1.379   4.811   4.561 -0.5043 -0.0067  0.5047
 7627SOL    HW123780   1.394   4.753   4.481 -0.7779  0.9764 -0.2908
 7627SOL    HW223781   1.343   4.899   4.531  0.0597  0.6383  1.6564
 7628SOL     OW23782   4.735   0.048   6.965  0.0195 -0.1320  0.1023
 7628SOL    HW123783   4.712  -0.009   7.044  0.3518  0.0778  0.3527
 7628SOL    HW223784   4.671   0.125   6.959  0.1172 -0.0355  0.2877
 7629SOL     OW23785   6.163   2.408   4.766  0.2460  0.3264  0.4895
 7629SOL    HW123786   6.072   2.396   4.806  1.7415 -3.2511  3.4250
 7629SOL    HW223787   6.224   2.449   4.834  1.3052  0.9336 -0.7747
 7630SOL     OW23788   6.565   3.847   5.518  0.3093 -0.8821 -0.3990
 7630SOL    HW123789   6.644   3.787   5.523  1.0411  0.1019  0.2726
 7630SOL    HW223790   6.488   3.805   5.567  0.1296 -2.2155 -1.7640
 7631SOL     OW23791   2.622   6.401   6.371  0.3577  0.0613 -0.0918
 7631SOL    HW123792   2.707   6.428   6.325  2.1440 -0.3883  2.7335
 7631SOL    HW223793   2.622   6.434   6.465 -2.6577  0.0191  0.0494
 7632SOL     OW23794   5.858   5.712   3.638  0.0406  0.0589  0.1880
 7632SOL    HW123795   5.934   5.718   3.573 -0.2087  1.0039 -0.0270
 7632SOL    HW223796   5.888   5.661   3.719  1.0617  0.8262  0.3214
 7633SOL     OW23797   4.432   1.536   1.060 -0.4253 -0.0296  0.5453
 7633SOL    HW123798   4.394   1.621   1.025  0.9833  0.2801 -0.3116
 7633SOL    HW223799   4.494   1.556   1.136 -1.8998 -0.5270  1.9337
 7634SOL     OW23800   3.791   2.547   1.701 -0.1870 -0.3204  0.0215
 7634SOL    HW123801   3.756   2.466   1.749  0.7059 -0.4172  0.5357
 7634SOL    HW223802   3.773   2.629   1.756 -0.8937 -0.1899 -0.3957
 7635SOL     OW23803   6.573   4.612   3.977  0.0419  0.3757 -0.2873
 7635SOL    HW123804   6.491   4.631   3.924 -0.4791  0.6889  0.6027
 7635SOL    HW223805   6.555   4.629   4.074  0.6102 -1.2782  0.1539
 7636SOL     OW23806   3.110   5.582   0.044 -0.4694 -0.2084  0.0685
 7636SOL    HW123807   3.107   5.482   0.048  0.7297 -0.2567 -0.0450
 7636SOL    HW223808   3.141   5.611  -0.047  0.1872  0.2388  0.4269
 7637SOL     OW23809   6.680   5.352   2.455  0.6068  0.3950 -0.2463
 7637SOL    HW123810   6.659   5.259   2.486 -0.4034  0.6061 -0.2599
 7637SOL    HW223811   6.639   5.367   2.364  0.1502  1.0708  0.0596
 7638SOL     OW23812   5.469   4.782   6.895  0.3124 -0.4571  0.0314
 7638SOL    HW123813   5.523   4.774   6.812  1.1591 -1.2495  0.6484
 7638SOL    HW223814   5.392   4.844   6.879 -0.7999 -2.2415 -1.9903
 7639SOL     OW23815   1.432   5.770   6.817 -0.4217 -0.3631 -0.3144
 7639SOL    HW123816   1.341   5.798   6.849 -1.1402 -2.0441 -0.7456
 7639SOL    HW223817   1.428   5.749   6.720  0.8620  1.1501 -0.7164
 7640SOL     OW23818   1.834   1.782   3.096 -0.1293 -0.1472 -0.3488
 7640SOL    HW123819   1.757   1.841   3.122  0.4375  1.6517 -2.4237
 7640SOL    HW223820   1.896   1.833   3.037  0.8386 -2.6257 -1.6152
 7641SOL     OW23821   1.617   5.163   1.214 -0.2880  0.3557  0.1232
 7641SOL    HW123822   1.697   5.196   1.164  1.7136  0.1504  2.9268
 7641SOL    HW223823   1.588   5.075   1.177  2.4932 -0.8553  0.5652
 7642SOL     OW23824   5.415   1.939   6.611 -0.5525 -0.4959  0.2024
 7642SOL    HW123825   5.342   1.960   6.676 -2.0706 -0.8778 -1.3044
 7642SOL    HW223826   5.385   1.963   6.518  1.2597 -0.6486 -0.4699
 7643SOL     OW23827   2.937   6.245   1.228  0.2078 -0.1858  0.4183
 7643SOL    HW123828   2.944   6.173   1.159  0.3178 -0.7361  0.9811
 7643SOL    HW223829   2.886   6.322   1.192  1.0848 -0.0668 -0.5852
 7644SOL     OW23830   5.579   3.339   6.666  0.2474 -0.0113 -0.6709
 7644SOL    HW123831   5.493   3.291   6.677  0.2985 -0.1197 -0.7415
 7644SOL    HW223832   5.655   3.274   6.672  0.4855  0.4067  1.8727
 7645SOL     OW23833   1.247   6.333   2.904  0.0098 -0.4899 -0.3777
 7645SOL    HW123834   1.205   6.285   2.980  1.2748  0.5692  1.0415
 7645SOL    HW223835   1.253   6.431   2.924  2.9083 -0.5407 -0.5518
 7646SOL     OW23836   1.117   6.061   5.525  0.0316 -0.0708  0.4783
 7646SOL    HW123837   1.102   6.004   5.444 -2.3344 -1.1862  1.5732
 7646SOL    HW223838   1.033   6.061   5.581  1.6855  0.3037  3.1347
 7647SOL     OW23839   3.296   1.819   1.984 -0.1085 -0.3499 -0.1866
 7647SOL    HW123840   3.359   1.896   1.971 -2.0514  1.5316  1.0018
 7647SOL    HW223841   3.342   1.735   1.956  3.1873  0.7828  1.2844
 7648SOL     OW23842   0.416   0.776   5.615 -0.9373  0.2236 -0.8111
 7648SOL    HW123843   0.510   0.745   5.603 -0.7026  0.0472  1.1171
 7648SOL    HW223844   0.404   0.865   5.571  1.3229  2.2036  2.2002
 7649SOL     OW23845   1.738   1.765   3.927  0.3568 -0.1204  0.0924
 7649SOL    HW123846   1.816   1.757   3.989 -0.5835  0.0193  1.3272
 7649SOL    HW223847   1.740   1.855   3.883 -0.1629  0.6938  1.6373
 7650SOL     OW23848   0.241   1.604   6.155 -0.0166 -0.1571  0.2142
 7650SOL    HW123849   0.264   1.541   6.081  0.7591 -1.5088  1.5488
 7650SOL    HW223850   0.142   1.603   6.170 -0.0123 -1.0616  0.2259
 7651SOL     OW23851   6.358   1.732   2.773  0.1424  0.0208 -0.5361
 7651SOL    HW123852   6.444   1.780   2.760  0.3324  0.3639  1.5914
 7651SOL    HW223853   6.375   1.635   2.788  0.0753 -0.0715 -1.0499
 7652SOL     OW23854   3.007   0.659   3.051 -0.1226 -0.2148  0.2396
 7652SOL    HW123855   3.063   0.720   3.107  0.9973 -1.6403  0.7293
 7652SOL    HW223856   3.066   0.602   2.994 -1.0761 -1.4017  0.3925
 7653SOL     OW23857   6.994   1.847   2.505  0.0166 -0.1511 -0.4184
 7653SOL    HW123858   6.936   1.776   2.544  0.4385  0.3856  1.2592
 7653SOL    HW223859   6.988   1.930   2.560  1.9045  0.1179 -0.5291
 7654SOL     OW23860   0.856   3.008   5.982 -0.3478 -0.1216  0.0881
 7654SOL    HW123861   0.813   3.053   5.905 -0.2682  1.9161  1.1700
 7654SOL    HW223862   0.821   3.046   6.068  1.1635 -0.7501  1.0377
 7655SOL     OW23863   5.052   2.900   3.252  0.1023  0.4039  0.2626
 7655SOL    HW123864   5.131   2.938   3.301 -1.5294 -0.4544  3.8489
 7655SOL    HW223865   4.985   2.972   3.236  0.4083  0.5722 -0.3159
 7656SOL     OW23866   6.423   4.968   0.800  0.1804  0.2945 -0.1270
 7656SOL    HW123867   6.420   5.057   0.846 -0.4809  0.4826 -0.5132
 7656SOL    HW223868   6.397   4.980   0.704 -0.0498 -0.3349 -0.1483
 7657SOL     OW23869   4.518   5.889   2.743  0.1861  0.8160 -0.3516
 7657SOL    HW123870   4.588   5.818   2.754  2.3963  2.8800 -0.1258
 7657SOL    HW223871   4.485   5.916   2.834 -0.2580  0.4584 -0.4050
 7658SOL     OW23872   2.662   4.215   0.632 -0.2006  0.8458  0.4316
 7658SOL    HW123873   2.568   4.248   0.620 -0.3048  0.1860 -0.6062
 7658SOL    HW223874   2.661   4.125   0.676 -0.1976 -0.2045 -1.6120
 7659SOL     OW23875   6.029   2.450   0.259 -0.0706  0.0459  0.2203
 7659SOL    HW123876   5.989   2.539   0.279 -0.5164 -0.1241  0.0988
 7659SOL    HW223877   6.070   2.411   0.342 -0.7054 -0.0546  0.4900
 7660SOL     OW23878   3.110   1.906   6.561  0.2845  0.3143  0.1366
 7660SOL    HW123879   3.201   1.932   6.528  0.2901  1.8483  1.2281
 7660SOL    HW223880   3.067   1.845   6.495  1.8850 -0.0125 -0.6636
 7661SOL     OW23881   1.813   1.441   2.370 -0.1796  0.2174 -0.0046
 7661SOL    HW123882   1.748   1.367   2.354  1.2876 -1.1339  0.0166
 7661SOL    HW223883   1.767   1.516   2.418 -1.8747 -0.3707 -0.6552
 7662SOL     OW23884   4.902   2.280   5.429 -0.1555 -0.1897 -0.5493
 7662SOL    HW123885   4.953   2.204   5.390 -1.2025 -0.3076 -1.7260
 7662SOL    HW223886   4.842   2.320   5.360  1.1417  2.4188 -0.3112
 7663SOL     OW23887   6.553   2.398   0.421  0.7884 -0.1396 -0.3310
 7663SOL    HW123888   6.572   2.488   0.383 -1.4040  0.3143 -0.4838
 7663SOL    HW223889   6.519   2.337   0.349  0.1168 -0.3862  0.1817
 7664SOL     OW23890   5.748   2.745   6.740  0.5443  1.2712  0.0416
 7664SOL    HW123891   5.801   2.797   6.674  0.9281  2.1162  0.9849
 7664SOL    HW223892   5.653   2.777   6.740 -0.1064 -0.4392 -1.8557
 7665SOL     OW23893   2.536   6.747   0.628 -0.8254  0.5719 -0.2106
 7665SOL    HW123894   2.615   6.687   0.623 -1.0748  0.1967  0.1991
 7665SOL    HW223895   2.556   6.834   0.583 -0.6139  0.0140 -1.2173
 7666SOL     OW23896   4.391   5.753   3.228 -0.2155  0.2337  0.6697
 7666SOL    HW123897   4.293   5.773   3.222 -0.4729 -1.3747 -2.1115
 7666SOL    HW223898   4.405   5.655   3.234  1.2327  0.3588 -0.1533
 7667SOL     OW23899   0.639   4.572   0.011  0.1120  0.6506  0.5195
 7667SOL    HW123900   0.552   4.527  -0.005 -1.4067  2.3364  3.2410
 7667SOL    HW223901   0.644   4.655  -0.043  0.9459 -0.3813 -1.0740
 7668SOL     OW23902   2.304   0.727   0.456 -0.0814 -0.0279  0.3823
 7668SOL    HW123903   2.366   0.648   0.455 -1.9610 -1.5906 -1.0566
 7668SOL    HW223904   2.322   0.785   0.377  1.8020  1.5100  1.8313
 7669SOL     OW23905   4.912   1.004   3.884 -0.1513  0.0132 -0.0122
 7669SOL    HW123906   4.927   0.990   3.982  1.4466  1.6260  0.0128
 7669SOL    HW223907   4.946   1.094   3.857 -1.7425  0.1416 -1.8328
 7670SOL     OW23908   4.379   1.584   4.131  0.0624  0.2567 -0.0235
 7670SOL    HW123909   4.456   1.647   4.119  0.3913 -0.1244  0.0684
 7670SOL    HW223910   4.367   1.563   4.228  0.5273 -0.5185 -0.1206
 7671SOL     OW23911   4.627   0.566   2.510  0.0112  0.1990 -0.7546
 7671SOL    HW123912   4.577   0.525   2.586  0.7685  1.4268  0.4372
 7671SOL    HW223913   4.572   0.558   2.427 -0.7315 -1.3760 -0.1551
 7672SOL     OW23914   3.852   3.564   4.229 -0.3435  0.0787  0.4713
 7672SOL    HW123915   3.892   3.585   4.318  0.7099  2.7405 -0.5214
 7672SOL    HW223916   3.918   3.510   4.175 -0.2143  0.0539  0.6530
 7673SOL     OW23917   2.146   1.859   5.949  0.1513  0.1327  0.1066
 7673SOL    HW123918   2.135   1.956   5.969 -2.0263  0.1333 -0.8215
 7673SOL    HW223919   2.166   1.847   5.852 -0.2794 -0.3681  0.0733
 7674SOL     OW23920   4.239   5.550   5.679 -0.3959  0.4955  0.4767
 7674SOL    HW123921   4.260   5.501   5.594  0.2457 -0.8810  1.3942
 7674SOL    HW223922   4.282   5.640   5.677  1.3598 -0.3014  0.1734
 7675SOL     OW23923   3.472   6.261   2.332  0.2716 -0.3611 -0.2363
 7675SOL    HW123924   3.463   6.162   2.330 -0.3848 -0.3630 -3.9302
 7675SOL    HW223925   3.382   6.303   2.342  0.4701 -0.0974  0.5451
 7676SOL     OW23926   5.752   1.908   0.038 -0.0407  0.3068  0.4092
 7676SOL    HW123927   5.726   1.963  -0.042  0.9034  0.7656  0.4074
 7676SOL    HW223928   5.819   1.958   0.092  0.1129 -0.4513  0.9287
 7677SOL     OW23929   4.261   2.287   1.532  0.2285 -0.2519  0.2179
 7677SOL    HW123930   4.222   2.242   1.613  1.6502 -0.7851  0.6316
 7677SOL    HW223931   4.218   2.251   1.450  0.6946 -1.7257  0.6008
 7678SOL     OW23932   2.923   3.084   0.233 -0.1458 -0.1543  0.0314
 7678SOL    HW123933   2.904   3.182   0.231 -0.7799 -0.2770 -0.1745
 7678SOL    HW223934   2.944   3.056   0.327 -0.7131  0.0406  0.2169
 7679SOL     OW23935   0.323   5.135   5.484  0.6689  0.1642  0.4601
 7679SOL    HW123936   0.253   5.197   5.449 -1.4998 -1.1676  2.1764
 7679SOL    HW223937   0.350   5.163   5.576  1.8812  0.2346  0.1012
 7680SOL     OW23938   2.558   5.942   2.370  0.4247  0.3536 -0.4222
 7680SOL    HW123939   2.561   5.943   2.270 -0.0055  0.1214 -0.4401
 7680SOL    HW223940   2.595   6.028   2.406 -0.4149  0.8971 -0.8148
 7681SOL     OW23941   0.283   1.307   5.914 -0.1711 -0.2555 -0.3040
 7681SOL    HW123942   0.191   1.311   5.953 -0.4123  0.9001 -0.9426
 7681SOL    HW223943   0.314   1.400   5.892  0.9867 -0.6660 -0.4670
 7682SOL     OW23944   4.441   3.391   6.161  0.0324  0.4174  0.4834
 7682SOL    HW123945   4.494   3.447   6.224 -0.0769  0.0706  0.8873
 7682SOL    HW223946   4.410   3.308   6.208 -0.2078  0.2465  0.0288
 7683SOL     OW23947   1.810   4.954   3.494  0.5274 -0.1953  0.5626
 7683SOL    HW123948   1.750   4.876   3.480 -3.1581  2.3858  0.4421
 7683SOL    HW223949   1.883   4.930   3.557 -0.4547 -3.6385  0.5730
 7684SOL     OW23950   3.855   0.039   2.984  0.3300  0.3711 -0.2542
 7684SOL    HW123951   3.883   0.113   3.045  0.7768 -0.2735  0.3364
 7684SOL    HW223952   3.909   0.043   2.899  1.6410 -0.3211  0.5036
 7685SOL     OW23953   0.878   3.694   4.153 -0.5330 -0.2582 -0.0725
 7685SOL    HW123954   0.879   3.693   4.253 -0.4935  1.2186 -0.0455
 7685SOL    HW223955   0.813   3.762   4.120  0.8080  0.6191 -1.0195
 7686SOL     OW23956   2.208   5.268   6.646  0.2124  0.4468  0.0394
 7686SOL    HW123957   2.159   5.181   6.649  1.0291 -0.0199  0.3332
 7686SOL    HW223958   2.162   5.331   6.583 -2.3251  1.0246  2.2593
 7687SOL     OW23959   6.963   1.660   6.842  0.3281  0.0457 -0.7777
 7687SOL    HW123960   6.885   1.704   6.886  0.4456  0.1654 -0.6900
 7687SOL    HW223961   7.028   1.630   6.912  0.5314  0.2684 -0.8730
 7688SOL     OW23962   2.134   6.101   4.239  0.1894  0.7576 -0.2970
 7688SOL    HW123963   2.165   6.006   4.242 -0.3686  0.5878  0.7049
 7688SOL    HW223964   2.034   6.103   4.243  0.2191  1.3877  0.3924
 7689SOL     OW23965   5.666   5.459   2.650  0.0564  0.3027 -0.1819
 7689SOL    HW123966   5.658   5.382   2.585 -0.2655  0.1343  0.0519
 7689SOL    HW223967   5.750   5.509   2.632  1.2656 -1.2558  0.9060
 7690SOL     OW23968   4.995   0.108   5.656  0.4993 -0.6500 -0.7187
 7690SOL    HW123969   5.008   0.170   5.734 -0.6725  0.5347 -1.4250
 7690SOL    HW223970   5.085   0.078   5.623  1.0389 -0.6559  0.6553
 7691SOL     OW23971   6.981   3.470   2.721  0.4686 -0.1237 -0.1088
 7691SOL    HW123972   7.059   3.533   2.730  0.5715 -0.3097  0.3244
 7691SOL    HW223973   6.910   3.512   2.665  0.4982  0.4212  0.2557
 7692SOL     OW23974   1.004   1.784   5.974 -0.3532  0.7385 -0.0731
 7692SOL    HW123975   0.931   1.777   5.906 -1.7374  1.4822  1.2722
 7692SOL    HW223976   1.003   1.876   6.014  2.0511  1.1316 -0.7762
 7693SOL     OW23977   5.702   6.312   3.620 -0.4473  0.2352 -0.0928
 7693SOL    HW123978   5.766   6.353   3.685 -0.9455  0.5224  0.2235
 7693SOL    HW223979   5.683   6.217   3.648 -0.6396  0.3496  0.1711
 7694SOL     OW23980   1.165   6.125   2.449 -0.7502  0.6686 -0.0290
 7694SOL    HW123981   1.207   6.216   2.460 -2.2723  1.1896  2.1911
 7694SOL    HW223982   1.071   6.127   2.482 -0.9280 -1.6792 -0.1975
 7695SOL     OW23983   4.911   4.362   3.749  0.2256 -0.0078  0.9972
 7695SOL    HW123984   4.938   4.396   3.839 -0.2715 -1.3982  1.7182
 7695SOL    HW223985   4.818   4.325   3.754  0.5701 -1.0347  0.1779
 7696SOL     OW23986   2.460   6.492   3.756  0.7435  0.2289  0.3135
 7696SOL    HW123987   2.414   6.502   3.844 -2.3686  1.3846 -1.2976
 7696SOL    HW223988   2.410   6.426   3.699  1.5835  0.8537 -1.2239
 7697SOL     OW23989   3.273   4.548   0.094 -0.3319  0.7916  0.4398
 7697SOL    HW123990   3.340   4.620   0.110 -0.8310  1.1425  0.9848
 7697SOL    HW223991   3.305   4.462   0.135 -0.7659  1.2514  1.8022
 7698SOL     OW23992   6.062   3.711   3.006  0.4301  0.2363  0.1140
 7698SOL    HW123993   5.991   3.779   3.024  0.5758  0.2149  0.8106
 7698SOL    HW223994   6.130   3.749   2.943 -1.0877 -0.3303 -2.0011
 7699SOL     OW23995   1.600   6.950   6.094 -0.4951  0.3318  0.5812
 7699SOL    HW123996   1.623   6.917   6.185 -0.2578 -1.8802 -0.2126
 7699SOL    HW223997   1.527   6.893   6.055  0.1541  0.5139 -1.0059
 7700SOL     OW23998   6.592   1.039   6.728 -0.1523  0.3623  0.2090
 7700SOL    HW123999   6.657   0.968   6.755 -1.8738 -1.1585  0.5244
 7700SOL    HW224000   6.508   0.997   6.694 -0.6672  2.2678 -1.0740
 7701SOL     OW24001   4.931   3.136   4.570  0.1793 -0.1071 -0.6452
 7701SOL    HW124002   5.016   3.119   4.621  0.7084 -1.1481 -1.8163
 7701SOL    HW224003   4.895   3.226   4.595 -0.1540 -0.9457  2.3082
 7702SOL     OW24004   6.729   6.485   6.231  1.2455  0.7666  0.0038
 7702SOL    HW124005   6.825   6.464   6.211  0.8364 -0.4868 -0.7454
 7702SOL    HW224006   6.690   6.541   6.158  0.7578 -0.7686 -0.9555
 7703SOL     OW24007   3.700   5.755   6.916 -0.1666  0.5404  0.8175
 7703SOL    HW124008   3.621   5.816   6.906 -0.4563  0.3716  1.9211
 7703SOL    HW224009   3.784   5.806   6.898 -0.5264  0.6967 -0.4836
 7704SOL     OW24010   6.066   4.587   2.720  0.5239  0.3035 -0.0018
 7704SOL    HW124011   6.106   4.676   2.739 -1.3048  1.5129 -1.4571
 7704SOL    HW224012   6.073   4.567   2.622 -1.4291  0.0945 -0.1330
 7705SOL     OW24013   1.715   2.665   1.533 -0.0117 -0.3535  0.5302
 7705SOL    HW124014   1.670   2.754   1.536  0.4765 -0.1146  0.9819
 7705SOL    HW224015   1.814   2.677   1.539  0.0806 -0.9101  0.2381
 7706SOL     OW24016   6.078   3.158   4.108 -0.7196 -0.4127  0.3310
 7706SOL    HW124017   6.045   3.087   4.169 -1.6761  0.2344  0.5964
 7706SOL    HW224018   6.000   3.208   4.070 -0.2211 -1.3969 -2.1976
 7707SOL     OW24019   4.289   1.298   2.001 -0.1911 -0.3552  0.0455
 7707SOL    HW124020   4.273   1.389   1.963  1.7263 -0.8139 -2.0939
 7707SOL    HW224021   4.202   1.256   2.027 -1.2294  1.4874 -0.3081
 7708SOL     OW24022   2.283   2.957   3.112  0.3512  0.2693 -0.3979
 7708SOL    HW124023   2.283   2.862   3.083  2.1997  0.7931 -2.3178
 7708SOL    HW224024   2.363   2.974   3.171 -0.1594  0.5743  0.2216
 7709SOL     OW24025   0.933   0.302   4.862 -0.6906  0.4635 -0.4942
 7709SOL    HW124026   1.016   0.349   4.891  0.7240 -1.4167 -1.3079
 7709SOL    HW224027   0.853   0.350   4.898  0.5760  3.7461 -1.6491
 7710SOL     OW24028   2.400   0.534   2.376 -0.6358 -0.0496 -0.3513
 7710SOL    HW124029   2.420   0.519   2.473  2.1044 -0.0536 -0.8466
 7710SOL    HW224030   2.374   0.630   2.362  0.1251  0.2532  0.2347
 7711SOL     OW24031   5.444   2.667   1.776 -0.2382  0.2967  0.7007
 7711SOL    HW124032   5.453   2.581   1.827 -0.0723  0.1091  0.3544
 7711SOL    HW224033   5.368   2.719   1.814 -0.8131 -0.3352  0.4473
 7712SOL     OW24034   2.544   1.541   3.549 -0.7742  0.3193 -0.2873
 7712SOL    HW124035   2.515   1.447   3.533 -0.8102  0.3449 -0.3721
 7712SOL    HW224036   2.471   1.590   3.599 -0.0239 -0.2015  1.4001
 7713SOL     OW24037   2.786   5.288   2.043  0.4166 -0.3131  0.4522
 7713SOL    HW124038   2.826   5.302   1.953 -2.1731 -0.6680 -0.8374
 7713SOL    HW224039   2.815   5.362   2.104  1.7236  0.2645 -0.8121
 7714SOL     OW24040   5.306   4.005   0.700 -0.0813 -0.0306  0.0269
 7714SOL    HW124041   5.241   4.079   0.684 -1.2000 -1.1197 -0.6356
 7714SOL    HW224042   5.319   3.953   0.616 -0.4959 -1.4872  0.8148
 7715SOL     OW24043   4.412   6.590   3.214 -0.4132 -0.0054 -0.3141
 7715SOL    HW124044   4.414   6.682   3.253  1.5000  0.4780 -1.4214
 7715SOL    HW224045   4.479   6.584   3.140  0.1256 -2.5409  0.2852
 7716SOL     OW24046   1.255   3.581   4.716  0.8941 -0.2936  0.2106
 7716SOL    HW124047   1.251   3.616   4.810  1.8071  6.7319 -1.7848
 7716SOL    HW224048   1.351   3.572   4.688  0.8540  2.6504 -1.2479
 7717SOL     OW24049   6.160   5.458   6.214  0.3873  0.4742  0.7979
 7717SOL    HW124050   6.216   5.511   6.278 -0.1270  2.0537 -0.0021
 7717SOL    HW224051   6.067   5.495   6.213 -0.2545 -1.0482  0.8604
 7718SOL     OW24052   4.890   4.205   1.383 -0.5503 -0.3134 -0.0824
 7718SOL    HW124053   4.868   4.301   1.402  0.7698  0.2385 -1.2099
 7718SOL    HW224054   4.860   4.149   1.460  0.7651  1.2851  1.7121
 7719SOL     OW24055   2.364   0.121   6.723 -0.6186  0.2441  0.3098
 7719SOL    HW124056   2.403   0.039   6.682  0.3825  0.5090  0.6885
 7719SOL    HW224057   2.421   0.200   6.701 -1.2806  0.7536  0.3823
 7720SOL     OW24058   2.646   0.476   6.385  0.2904  0.6544  0.2591
 7720SOL    HW124059   2.659   0.560   6.436  2.0849  2.0446 -2.2609
 7720SOL    HW224060   2.611   0.497   6.294  1.6986 -1.1838 -0.7839
 7721SOL     OW24061   3.501   1.451   0.856  0.1060 -0.7776  0.1652
 7721SOL    HW124062   3.540   1.381   0.796  1.8130  0.6663 -0.4941
 7721SOL    HW224063   3.515   1.425   0.951  1.0758 -1.1370 -0.0707
 7722SOL     OW24064   4.663   5.667   0.899  0.7501 -0.2582 -0.2378
 7722SOL    HW124065   4.687   5.727   0.975  0.4611 -0.2152 -0.1772
 7722SOL    HW224066   4.712   5.695   0.817 -1.1301  1.5658 -0.8320
 7723SOL     OW24067   0.722   0.144   1.655  0.3202 -0.9095 -0.0635
 7723SOL    HW124068   0.778   0.217   1.695 -1.3076  0.0675  0.5750
 7723SOL    HW224069   0.779   0.066   1.631  1.9323  0.0744  0.4582
 7724SOL     OW24070   5.998   5.350   2.844  0.3326 -0.2504  0.1666
 7724SOL    HW124071   5.965   5.257   2.828  1.2176 -0.7363  1.0179
 7724SOL    HW224072   6.098   5.351   2.839  0.3371  0.6174  0.3409
 7725SOL     OW24073   2.736   2.370   2.734 -0.8315 -0.1859 -0.3716
 7725SOL    HW124074   2.795   2.354   2.654  0.7216  1.5206  0.3656
 7725SOL    HW224075   2.749   2.296   2.800  0.5130  0.1788 -0.2130
 7726SOL     OW24076   2.683   4.837   6.669  0.1608 -0.2970 -0.0393
 7726SOL    HW124077   2.730   4.915   6.628  1.0838 -0.7310  0.1672
 7726SOL    HW224078   2.606   4.869   6.725  0.4717  0.4527 -0.0354
 7727SOL     OW24079   5.666   5.886   0.352  0.0711  0.7050 -0.7437
 7727SOL    HW124080   5.687   5.935   0.268 -0.2250  0.0182 -1.2253
 7727SOL    HW224081   5.741   5.897   0.417  0.6709  0.5658 -1.4015
 7728SOL     OW24082   0.065   4.948   3.882  0.4623  0.1495 -0.1087
 7728SOL    HW124083   0.079   5.008   3.804  1.7391  0.3468  0.2518
 7728SOL    HW224084   0.075   4.852   3.853  1.3059  0.2359 -0.1291
 7729SOL     OW24085   0.755   1.737   6.613  0.3480 -0.3081  0.5604
 7729SOL    HW124086   0.658   1.759   6.623 -0.1676 -1.6601 -1.0203
 7729SOL    HW224087   0.778   1.659   6.671 -0.3123 -1.9520 -1.2591
 7730SOL     OW24088   1.871   6.243   3.411 -0.1408  0.0119  0.3806
 7730SOL    HW124089   1.783   6.241   3.365  0.3361  2.5623 -0.7724
 7730SOL    HW224090   1.917   6.155   3.398 -1.3381 -0.4025 -1.3550
 7731SOL     OW24091   5.853   1.971   5.297 -0.0222 -0.1328  0.2206
 7731SOL    HW124092   5.789   1.911   5.345 -1.1500  1.4463  0.7804
 7731SOL    HW224093   5.941   1.970   5.344 -0.9101  0.8890  2.0445
 7732SOL     OW24094   5.371   5.142   1.574 -0.2287 -0.3129  0.4449
 7732SOL    HW124095   5.310   5.155   1.496 -1.0894  1.4839  1.3463
 7732SOL    HW224096   5.317   5.131   1.657  0.6415 -3.3909  0.7229
 7733SOL     OW24097   0.581   0.713   0.618 -0.2922  0.0281 -0.1323
 7733SOL    HW124098   0.552   0.665   0.700 -0.5527 -0.6767 -0.6213
 7733SOL    HW224099   0.550   0.663   0.537 -3.7399  2.7830 -0.7580
 7734SOL     OW24100   0.714   5.507   4.873  0.1640 -0.2336  0.2662
 7734SOL    HW124101   0.675   5.485   4.783  2.7285 -1.3151 -0.7006
 7734SOL    HW224102   0.646   5.491   4.944 -1.1766 -1.8967 -1.2946
 7735SOL     OW24103   1.680   3.833   3.517 -0.1225 -0.5622  0.1598
 7735SOL    HW124104   1.767   3.785   3.530 -1.2392 -2.9668 -0.6866
 7735SOL    HW224105   1.605   3.767   3.517 -1.6785  1.0377 -2.2006
 7736SOL     OW24106   0.204   1.109   2.359  0.0086 -0.5990 -0.0887
 7736SOL    HW124107   0.221   1.100   2.261 -0.5778 -0.3405 -0.2156
 7736SOL    HW224108   0.127   1.171   2.375 -1.7581 -2.7737  0.3988
 7737SOL     OW24109   3.568   3.939   5.612 -0.4648 -0.5110 -0.1348
 7737SOL    HW124110   3.589   3.846   5.644 -0.7906 -0.3755  0.5036
 7737SOL    HW224111   3.493   3.935   5.545 -1.3509 -0.6160  0.8266
 7738SOL     OW24112   0.301   2.561   0.410 -0.3101  0.5128  0.8943
 7738SOL    HW124113   0.225   2.595   0.466 -2.2211 -3.0828  0.7398
 7738SOL    HW224114   0.297   2.602   0.319 -1.5767  0.9574  1.1360
 7739SOL     OW24115   4.069   1.043   6.720  0.0679  0.6466 -0.1260
 7739SOL    HW124116   4.050   1.049   6.622  0.5771  1.1189 -0.2021
 7739SOL    HW224117   4.064   0.948   6.749  0.8830  0.3735 -0.8267
 7740SOL     OW24118   6.591   5.301   0.826 -0.0611  0.5795 -0.4398
 7740SOL    HW124119   6.594   5.371   0.897 -0.4757  0.0960  0.0704
 7740SOL    HW224120   6.515   5.238   0.845  0.6282 -0.3218 -0.5747
 7741SOL     OW24121   3.734   6.434   3.918 -0.1332  0.3675  0.1083
 7741SOL    HW124122   3.730   6.466   4.012 -1.7557 -2.0334  0.9211
 7741SOL    HW224123   3.827   6.449   3.882  0.4122  1.6611  1.9086
 7742SOL     OW24124   0.334   1.059   6.600  0.2782  0.0661  0.1910
 7742SOL    HW124125   0.418   1.099   6.564  0.0945  0.0420 -0.2715
 7742SOL    HW224126   0.316   0.972   6.553  0.4452 -0.3496  0.8840
 7743SOL     OW24127   1.408   2.186   2.813 -0.2429  0.3541 -0.2434
 7743SOL    HW124128   1.448   2.270   2.777  0.0745 -0.2982 -1.4771
 7743SOL    HW224129   1.342   2.150   2.748 -0.2178 -0.4706  0.1700
 7744SOL     OW24130   0.767   1.230   3.369 -0.0733 -0.0688  0.7451
 7744SOL    HW124131   0.787   1.176   3.287 -0.8900 -0.0801  0.5513
 7744SOL    HW224132   0.703   1.180   3.427 -0.5692  0.5395  0.7313
 7745SOL     OW24133   6.255   6.264   5.939 -0.6860  0.1807  0.6580
 7745SOL    HW124134   6.278   6.326   5.864  0.0078 -0.3982  0.3756
 7745SOL    HW224135   6.172   6.213   5.916 -0.0011 -0.6233 -0.1271
 7746SOL     OW24136   6.490   6.120   4.353 -0.1742 -0.7510  0.0894
 7746SOL    HW124137   6.440   6.132   4.267  0.8132  0.8623 -0.3051
 7746SOL    HW224138   6.453   6.181   4.422  0.1823 -0.7386  0.2747
 7747SOL     OW24139   0.109   5.910   5.587 -0.6717 -0.2875  0.1907
 7747SOL    HW124140   0.177   5.851   5.632 -1.0254  0.5658  1.9466
 7747SOL    HW224141   0.098   5.882   5.492  2.0020 -0.5958 -0.1199
 7748SOL     OW24142   3.391   6.871   4.997  0.1017 -0.1192  0.1857
 7748SOL    HW124143   3.441   6.954   4.973  0.4155 -0.2381  0.4210
 7748SOL    HW224144   3.454   6.805   5.039 -0.2258 -0.3157  0.3733
 7749SOL     OW24145   6.285   0.145   6.136  0.1561  0.1513 -0.8132
 7749SOL    HW124146   6.330   0.063   6.171  0.7311  0.7752 -0.0447
 7749SOL    HW224147   6.187   0.138   6.151  0.4593  1.0520  2.5768
 7750SOL     OW24148   1.854   6.234   1.916 -0.5636  0.2138  0.3494
 7750SOL    HW124149   1.892   6.170   1.848 -0.4112 -0.1665  0.7892
 7750SOL    HW224150   1.871   6.328   1.886  2.0077  0.0895  1.1841
 7751SOL     OW24151   4.259   1.231   4.688 -0.2173  0.4100 -0.3761
 7751SOL    HW124152   4.342   1.282   4.666  0.9704 -0.5979  1.5003
 7751SOL    HW224153   4.237   1.244   4.785  0.4744 -3.0133  0.3477
 7752SOL     OW24154   0.813   0.321   5.298 -0.1456 -0.0820  0.0234
 7752SOL    HW124155   0.760   0.375   5.363 -1.4533  0.0454 -1.1146
 7752SOL    HW224156   0.831   0.231   5.337 -2.4457 -0.6505 -0.0661
 7753SOL     OW24157   2.991   2.224   3.851 -0.3861  0.1861  0.2792
 7753SOL    HW124158   2.899   2.200   3.881 -0.9650  1.2016 -0.6228
 7753SOL    HW224159   3.008   2.182   3.761  0.2777 -0.5043  0.7107
 7754SOL     OW24160   2.168   5.106   0.048  0.0126 -0.4959 -0.1299
 7754SOL    HW124161   2.077   5.126   0.011 -1.1394 -2.2312  1.5839
 7754SOL    HW224162   2.207   5.029  -0.001  1.1361  0.9699 -1.6473
 7755SOL     OW24163   2.785   6.800   5.296  0.0207  0.1364 -0.3721
 7755SOL    HW124164   2.734   6.783   5.212 -1.0311 -1.5178  0.5420
 7755SOL    HW224165   2.724   6.791   5.374  0.7044  2.8140  0.5708
 7756SOL     OW24166   0.365   2.808   6.371 -0.1095 -0.1129  0.0341
 7756SOL    HW124167   0.303   2.869   6.420 -1.5837 -0.8325 -0.8654
 7756SOL    HW224168   0.413   2.749   6.436  0.3041  1.0399  0.8052
 7757SOL     OW24169   0.297   2.565   0.138 -0.4241  0.4385  0.1774
 7757SOL    HW124170   0.243   2.586   0.056 -0.9705 -1.6520 -0.0477
 7757SOL    HW224171   0.392   2.593   0.123 -0.4380 -0.2075 -1.3397
 7758SOL     OW24172   5.409   5.213   4.781 -0.1768  0.4142 -0.1826
 7758SOL    HW124173   5.394   5.306   4.749  0.1716  0.1986 -0.9983
 7758SOL    HW224174   5.321   5.173   4.808 -0.3993  0.7992 -0.3284
 7759SOL     OW24175   0.724   4.273   0.621  0.2841 -0.2565  0.2911
 7759SOL    HW124176   0.702   4.322   0.706  1.4714 -0.0224  0.4688
 7759SOL    HW224177   0.798   4.208   0.638 -0.6027 -1.4265 -0.1832
 7760SOL     OW24178   1.724   3.912   4.026  0.4988 -0.4854  0.2832
 7760SOL    HW124179   1.731   3.953   3.935 -0.4579  0.2857  0.5448
 7760SOL    HW224180   1.631   3.923   4.061  0.9384 -0.4849  1.4923
 7761SOL     OW24181   3.312   6.307   6.161  0.0587  0.5877 -0.1454
 7761SOL    HW124182   3.259   6.283   6.243 -2.1933  1.8220 -1.1489
 7761SOL    HW224183   3.301   6.236   6.092  0.5572  0.3681 -0.0031
 7762SOL     OW24184   4.156   6.604   6.357  0.1468  0.7033 -0.1449
 7762SOL    HW124185   4.247   6.574   6.388 -0.4312 -0.4564  0.4641
 7762SOL    HW224186   4.136   6.694   6.396  0.7597  0.6727  0.2571
 7763SOL     OW24187   3.524   4.906   2.694  0.2197 -0.4658  0.0994
 7763SOL    HW124188   3.533   4.930   2.597 -0.5526  1.2653  0.4266
 7763SOL    HW224189   3.611   4.868   2.727  0.8062 -0.1399 -1.0129
 7764SOL     OW24190   2.190   0.293   1.660  0.3301  0.1320 -0.4367
 7764SOL    HW124191   2.221   0.198   1.656  0.6711  0.2653 -1.2564
 7764SOL    HW224192   2.109   0.300   1.718  2.2222 -0.1227  2.4478
 7765SOL     OW24193   1.367   5.985   4.666 -0.0531 -0.7149 -0.1878
 7765SOL    HW124194   1.307   6.055   4.707  0.7305  0.4521 -0.9579
 7765SOL    HW224195   1.460   5.997   4.700 -0.1534 -2.2771  0.7093
 7766SOL     OW24196   0.482   1.595   6.288  0.0291 -0.3161 -0.0408
 7766SOL    HW124197   0.393   1.606   6.244 -0.4430  1.3077  1.2313
 7766SOL    HW224198   0.545   1.665   6.255 -0.3493  0.9732  1.7876
 7767SOL     OW24199   3.200   5.395   1.026  0.1691  0.0604  0.0159
 7767SOL    HW124200   3.136   5.335   1.074  0.6298  0.0154  0.5885
 7767SOL    HW224201   3.156   5.484   1.009 -0.2275 -0.1525 -0.0809
 7768SOL     OW24202   0.409   1.911   5.026 -0.3321  0.2186 -0.5009
 7768SOL    HW124203   0.394   1.988   5.088  0.6508  1.5112 -1.7963
 7768SOL    HW224204   0.355   1.924   4.944  0.4646 -0.0385 -1.0791
 7769SOL     OW24205   6.314   6.591   0.249 -0.5607  0.0478  0.3579
 7769SOL    HW124206   6.389   6.648   0.215 -1.2615  0.4281 -0.5820
 7769SOL    HW224207   6.349   6.500   0.270  0.1119  0.1326 -0.3441
 7770SOL     OW24208   0.704   0.634   2.275 -0.7709 -0.3587  0.2509
 7770SOL    HW124209   0.638   0.597   2.341  1.5491 -2.3196  1.6457
 7770SOL    HW224210   0.739   0.560   2.217  0.3860  0.5583 -0.2621
 7771SOL     OW24211   2.555   3.674   0.585 -0.5036  0.3659 -0.0129
 7771SOL    HW124212   2.522   3.591   0.539 -0.8918  0.5595 -0.0876
 7771SOL    HW224213   2.504   3.687   0.670 -0.9432  0.9179 -0.3569
 7772SOL     OW24214   6.003   4.833   2.198  0.5211 -0.0922 -0.1710
 7772SOL    HW124215   5.956   4.748   2.172 -1.3595  1.4315 -2.1027
 7772SOL    HW224216   5.953   4.877   2.272  2.5884 -1.5247  2.2109
 7773SOL     OW24217   5.896   6.232   2.623 -0.3681  0.7696 -0.2535
 7773SOL    HW124218   5.892   6.230   2.723 -0.7182 -0.1477 -0.2801
 7773SOL    HW224219   5.940   6.148   2.590  3.1802  2.6017 -0.7379
 7774SOL     OW24220   3.879   1.234   5.452 -0.7425 -0.4261 -0.1426
 7774SOL    HW124221   3.960   1.175   5.451 -0.4490 -0.0833  1.3145
 7774SOL    HW224222   3.834   1.230   5.363  0.1191 -1.6696 -0.5544
 7775SOL     OW24223   6.197   2.403   6.113  0.0887  0.0609  0.0656
 7775SOL    HW124224   6.250   2.403   6.198  1.7312 -1.4158 -0.8989
 7775SOL    HW224225   6.162   2.311   6.096 -0.5651  0.4365 -0.6568
 7776SOL     OW24226   4.834   0.180   4.276 -0.3339  0.5572  0.8812
 7776SOL    HW124227   4.818   0.197   4.179  0.0598  0.0779  0.7312
 7776SOL    HW224228   4.871   0.088   4.288 -0.7679  0.4611  1.5216
 7777SOL     OW24229   4.530   2.196   2.105  0.1386 -0.7454 -0.3894
 7777SOL    HW124230   4.466   2.243   2.166  0.8446 -0.3656  0.0702
 7777SOL    HW224231   4.602   2.260   2.076  1.0582 -1.5161  0.1691
 7778SOL     OW24232   3.486   0.349   5.591  0.3517 -0.4990  0.2016
 7778SOL    HW124233   3.558   0.308   5.534  1.4199  0.1837  1.0050
 7778SOL    HW224234   3.528   0.412   5.657 -1.1812  1.5023 -0.6345
 7779SOL     OW24235   4.458   3.016   6.465  0.7426  0.1450 -0.3671
 7779SOL    HW124236   4.427   2.926   6.434 -0.3047 -0.4834  2.2364
 7779SOL    HW224237   4.439   3.084   6.394 -0.3254 -1.3508 -1.5867
 7780SOL     OW24238   2.637   4.540   6.074 -0.0904 -0.6429  0.6311
 7780SOL    HW124239   2.675   4.605   6.009  1.3684 -0.1915  1.8918
 7780SOL    HW224240   2.664   4.447   6.049 -0.7888 -0.6231 -0.2295
 7781SOL     OW24241   3.241   0.287   4.801 -0.8426  0.0239 -0.3340
 7781SOL    HW124242   3.275   0.381   4.808 -2.0187  0.4077  0.5854
 7781SOL    HW224243   3.145   0.284   4.830 -0.1076 -1.8887  2.2565
 7782SOL     OW24244   1.744   0.922   5.552 -0.5904 -0.0471  0.3250
 7782SOL    HW124245   1.742   0.850   5.483 -0.2378 -0.2627  0.5365
 7782SOL    HW224246   1.682   0.996   5.525 -0.2211  0.0140 -0.3667
 7783SOL     OW24247   0.119   1.609   2.030  0.3035 -0.1171 -0.0862
 7783SOL    HW124248   0.167   1.685   1.987  0.0797  0.4644  0.6871
 7783SOL    HW224249   0.080   1.638   2.117 -0.7961 -0.7919 -0.3350
 7784SOL     OW24250   1.333   2.938   4.500 -0.0408  0.2045  0.4856
 7784SOL    HW124251   1.297   3.031   4.489  0.6271  0.3491 -0.6513
 7784SOL    HW224252   1.351   2.899   4.410  3.6059  0.5430  0.9112
 7785SOL     OW24253   4.888   0.218   0.869 -0.5079  0.0598 -0.0935
 7785SOL    HW124254   4.847   0.308   0.855 -0.1470  0.1395 -0.6667
 7785SOL    HW224255   4.817   0.147   0.858 -1.0406  0.3129  1.4711
 7786SOL     OW24256   6.681   4.949   3.957  0.0608 -0.3797  0.2739
 7786SOL    HW124257   6.644   4.937   3.864  0.8273  0.1695 -0.1171
 7786SOL    HW224258   6.667   4.865   4.009 -0.8211 -0.5338 -0.1759
 7787SOL     OW24259   1.193   1.220   1.256  0.5812  0.0246 -0.0117
 7787SOL    HW124260   1.264   1.208   1.185 -0.4410  0.3978 -1.1360
 7787SOL    HW224261   1.236   1.251   1.341  1.7690  0.2807 -0.6757
 7788SOL     OW24262   0.618   3.630   1.951 -0.0241 -0.2097 -0.0700
 7788SOL    HW124263   0.687   3.649   2.021  1.9181  2.7022 -2.5466
 7788SOL    HW224264   0.537   3.685   1.968 -0.6205 -1.4136  1.1927
 7789SOL     OW24265   6.701   3.373   4.014 -0.2541  0.2847  0.2423
 7789SOL    HW124266   6.667   3.441   4.079 -0.2418 -0.5310  1.1137
 7789SOL    HW224267   6.799   3.360   4.028 -0.3309 -0.1904  0.3292
 7790SOL     OW24268   2.610   4.621   0.128 -0.0983  0.0811  0.6995
 7790SOL    HW124269   2.694   4.567   0.122 -0.4256 -0.7807  2.9503
 7790SOL    HW224270   2.604   4.682   0.048  1.7321 -1.1088 -0.4241
 7791SOL     OW24271   6.040   3.676   1.093  0.3102 -0.2060 -0.7264
 7791SOL    HW124272   5.988   3.752   1.053 -0.1924 -0.0158  0.2618
 7791SOL    HW224273   6.137   3.697   1.089  0.0941  1.6717  1.7654
 7792SOL     OW24274   4.896   0.982   1.287 -0.5601 -0.0443 -0.2891
 7792SOL    HW124275   4.926   0.920   1.360 -1.2098  0.8320  0.7483
 7792SOL    HW224276   4.950   1.066   1.290 -0.8305  0.1436 -0.5950
 7793SOL     OW24277   1.694   3.331   0.276  0.0491  0.0087 -0.3308
 7793SOL    HW124278   1.673   3.328   0.374 -2.5104 -0.0286 -0.8000
 7793SOL    HW224279   1.785   3.369   0.262  0.4933 -0.0292  2.0509
 7794SOL     OW24280   2.274   0.577   1.832  0.6568  0.6476  0.4377
 7794SOL    HW124281   2.283   0.673   1.860 -0.0760  0.7015  0.4964
 7794SOL    HW224282   2.335   0.559   1.755  0.0598  1.4204 -0.2232
 7795SOL     OW24283   5.165   4.493   2.918 -0.2910  0.3070  0.1817
 7795SOL    HW124284   5.117   4.580   2.923  0.9945  0.9707  2.1163
 7795SOL    HW224285   5.207   4.472   3.007  2.1219 -0.6997 -1.0922
 7796SOL     OW24286   4.503   2.935   0.304 -0.1297 -0.5819  0.1572
 7796SOL    HW124287   4.578   2.925   0.369  0.0694 -0.5294 -0.0610
 7796SOL    HW224288   4.522   2.879   0.223 -0.3611 -0.6257  0.1334
 7797SOL     OW24289   6.342   0.103   3.127  0.5582  0.1948  0.2860
 7797SOL    HW124290   6.249   0.136   3.144  0.7323  0.2470  1.1862
 7797SOL    HW224291   6.341   0.003   3.119  0.1835  0.2929 -1.4450
 7798SOL     OW24292   3.390   4.074   6.092  0.0886  0.6184  0.1607
 7798SOL    HW124293   3.426   4.132   6.018 -0.9705  0.9156 -0.1303
 7798SOL    HW224294   3.342   3.996   6.053  0.9883 -0.1541  0.5561
 7799SOL     OW24295   6.163   3.363   4.283 -0.0122  0.0204 -0.3981
 7799SOL    HW124296   6.185   3.455   4.250 -1.4760  1.9758  3.4693
 7799SOL    HW224297   6.152   3.301   4.205  0.7213  3.1464 -3.1916
 7800SOL     OW24298   0.432   4.800   1.258  0.1790  0.2186 -0.0699
 7800SOL    HW124299   0.364   4.833   1.192 -0.0613 -0.7040 -0.2869
 7800SOL    HW224300   0.520   4.789   1.213  0.0831 -0.1380 -0.1719
 7801SOL     OW24301   1.853   3.877   1.701  0.5164  0.2736  0.7335
 7801SOL    HW124302   1.912   3.930   1.763  1.4248  1.8190 -1.3512
 7801SOL    HW224303   1.765   3.924   1.692 -0.2781 -0.8628  2.1076
 7802SOL     OW24304   5.728   4.646   3.928 -0.3279 -0.2635 -0.9181
 7802SOL    HW124305   5.702   4.597   4.011 -0.2057  0.5118 -0.4160
 7802SOL    HW224306   5.657   4.714   3.906  1.2874  2.0589  0.6105
 7803SOL     OW24307   4.701   4.166   3.417 -0.3331 -0.0937 -0.1752
 7803SOL    HW124308   4.683   4.202   3.325  0.1585  0.7386  0.0423
 7803SOL    HW224309   4.752   4.080   3.410 -1.8927 -1.0055 -0.7191
 7804SOL     OW24310   5.935   1.600   5.804 -0.6663  0.2107  0.2648
 7804SOL    HW124311   6.014   1.545   5.779 -0.0367  0.9480  0.5912
 7804SOL    HW224312   5.924   1.674   5.738 -1.6220 -0.3989 -0.2834
 7805SOL     OW24313   5.671   2.328   4.317  0.5168  0.3816 -0.6118
 7805SOL    HW124314   5.768   2.352   4.315  0.9293 -0.8871  1.4885
 7805SOL    HW224315   5.621   2.394   4.373  0.2517  0.6995 -1.2113
 7806SOL     OW24316   5.887   0.059   4.595 -0.3606  0.4052  0.0026
 7806SOL    HW124317   5.798   0.062   4.549 -0.9274 -0.8194  0.9391
 7806SOL    HW224318   5.947  -0.005   4.548 -0.8545 -0.6574  0.7793
 7807SOL     OW24319   4.683   0.854   5.578  0.0872  0.2410  0.1090
 7807SOL    HW124320   4.697   0.902   5.492 -0.6281  0.7992  0.3003
 7807SOL    HW224321   4.733   0.767   5.576  0.2159  0.3304 -0.7961
 7808SOL     OW24322   4.170   4.531   1.744  0.0525  0.1766  0.2258
 7808SOL    HW124323   4.079   4.569   1.762 -0.1048  0.8990 -1.8227
 7808SOL    HW224324   4.236   4.605   1.734  0.1106 -0.0926 -1.9234
 7809SOL     OW24325   1.351   2.772   6.112 -0.7130  0.1284 -0.4108
 7809SOL    HW124326   1.273   2.825   6.077  0.4491  2.3661  0.1609
 7809SOL    HW224327   1.435   2.804   6.068  0.0753 -1.1992  0.0690
 7810SOL     OW24328   5.051   1.104   4.511  0.4314  0.2685  0.1526
 7810SOL    HW124329   4.969   1.109   4.454  0.7004  1.5746 -0.1478
 7810SOL    HW224330   5.132   1.090   4.453  0.4203 -1.4684  0.4769
 7811SOL     OW24331   1.348   2.594   0.686  0.3502 -0.8901 -0.3535
 7811SOL    HW124332   1.378   2.661   0.617  2.8121 -0.9164  0.5871
 7811SOL    HW224333   1.313   2.513   0.639  0.0474 -0.1134 -1.5398
 7812SOL     OW24334   2.544   4.075   5.849  0.9963  0.0996  0.0870
 7812SOL    HW124335   2.529   3.976   5.846  1.6007  0.0228 -2.4193
 7812SOL    HW224336   2.639   4.093   5.876  0.8737  0.0040  0.5892
 7813SOL     OW24337   0.262   3.557   3.665  0.3062  0.6430 -0.7615
 7813SOL    HW124338   0.177   3.568   3.612  0.5509  0.8696 -1.1140
 7813SOL    HW224339   0.340   3.561   3.603  0.6142  1.2307 -0.3485
 7814SOL     OW24340   3.170   3.803   0.229 -0.1974  0.5316  0.5245
 7814SOL    HW124341   3.165   3.883   0.289 -2.1733 -0.9289  2.4828
 7814SOL    HW224342   3.104   3.812   0.155  1.4221  1.8076 -0.8496
 7815SOL     OW24343   5.813   5.159   0.527  0.2490 -0.0007 -0.2839
 7815SOL    HW124344   5.726   5.144   0.480 -0.4180  1.3984  0.4465
 7815SOL    HW224345   5.815   5.252   0.564  2.9782  0.8513 -2.2498
 7816SOL     OW24346   6.255   3.863   2.106 -0.4571 -0.4676 -0.2244
 7816SOL    HW124347   6.337   3.875   2.162 -0.2836 -0.1129 -0.5513
 7816SOL    HW224348   6.185   3.816   2.160 -0.2378 -0.2722  0.2356
 7817SOL     OW24349   5.072   3.984   6.220  0.5680 -0.1809 -0.2206
 7817SOL    HW124350   4.985   3.999   6.267 -0.6509 -0.0282 -2.4217
 7817SOL    HW224351   5.131   3.927   6.278 -0.3629  0.9576  1.9702
 7818SOL     OW24352   1.869   2.223   3.806 -0.0141 -0.0343 -0.0793
 7818SOL    HW124353   1.785   2.272   3.786  0.5796  0.7350 -0.7667
 7818SOL    HW224354   1.946   2.286   3.802  0.5171 -0.5333  1.4005
 7819SOL     OW24355   1.784   0.491   0.878 -0.3494 -0.0354 -0.0414
 7819SOL    HW124356   1.842   0.413   0.900 -1.6835 -1.0209  0.0939
 7819SOL    HW224357   1.716   0.503   0.949 -0.5737  0.8509 -0.3941
 7820SOL     OW24358   6.934   6.283   5.588  0.8053 -0.5867 -0.0547
 7820SOL    HW124359   6.877   6.359   5.618  1.6245  0.6395 -1.4752
 7820SOL    HW224360   6.988   6.311   5.508  0.3882 -2.9552 -1.2584
 7821SOL     OW24361   1.905   0.602   2.185  0.5091  0.5003 -0.7854
 7821SOL    HW124362   1.973   0.553   2.131 -2.2854 -2.7636 -1.6848
 7821SOL    HW224363   1.925   0.590   2.282  1.0442 -0.7032 -1.0254
 7822SOL     OW24364   2.741   4.251   6.875  0.1115  0.7856  0.4895
 7822SOL    HW124365   2.764   4.290   6.786  0.8679  1.6649  1.0519
 7822SOL    HW224366   2.758   4.318   6.947 -1.3213  0.3976  1.2375
 7823SOL     OW24367   4.556   4.507   3.703 -0.5564 -0.4992 -0.4228
 7823SOL    HW124368   4.581   4.410   3.711 -0.2324 -0.2489  2.1398
 7823SOL    HW224369   4.635   4.559   3.671 -0.0268 -0.7639  0.4402
 7824SOL     OW24370   6.447   0.279   3.306 -0.1910  0.6337  0.1269
 7824SOL    HW124371   6.453   0.223   3.389  0.2627  0.1850 -0.1977
 7824SOL    HW224372   6.415   0.222   3.230  0.1876  0.8335 -0.1883
 7825SOL     OW24373   6.166   6.555   4.168  0.4763  0.1144  0.5728
 7825SOL    HW124374   6.120   6.520   4.250 -1.5455  1.0793 -0.0793
 7825SOL    HW224375   6.234   6.623   4.194  0.8795 -0.6441  1.5286
 7826SOL     OW24376   0.715   5.371   1.430  0.3597 -0.4943  1.0126
 7826SOL    HW124377   0.717   5.433   1.353  0.3693 -1.5330  0.1548
 7826SOL    HW224378   0.776   5.404   1.502 -0.8668  1.3367  1.2706
 7827SOL     OW24379   1.919   2.979   4.756  0.7254  0.3020 -0.4227
 7827SOL    HW124380   1.984   2.927   4.812 -0.2306 -0.3860  0.0662
 7827SOL    HW224381   1.912   2.937   4.666  0.2541 -0.1880 -0.1613
 7828SOL     OW24382   2.248   5.159   2.463  0.7216 -0.0495 -0.3157
 7828SOL    HW124383   2.154   5.190   2.478  0.1562 -1.2932 -1.1576
 7828SOL    HW224384   2.308   5.239   2.458 -0.2937  0.7739  0.1358
 7829SOL     OW24385   4.565   6.509   0.818 -0.3363 -0.4600 -0.6642
 7829SOL    HW124386   4.520   6.491   0.730 -0.6131 -0.5002 -0.5127
 7829SOL    HW224387   4.656   6.467   0.817 -0.1146  0.0256 -1.1460
 7830SOL     OW24388   2.657   6.082   3.212  0.4140  0.3746 -0.1820
 7830SOL    HW124389   2.693   5.999   3.168 -0.3646 -0.2848  0.4157
 7830SOL    HW224390   2.732   6.146   3.227  0.7227  0.6651 -2.5217
 7831SOL     OW24391   0.621   3.745   0.189  0.3305 -0.2409  0.1503
 7831SOL    HW124392   0.563   3.677   0.144  0.4434 -0.4624  0.3373
 7831SOL    HW224393   0.592   3.755   0.285  0.0603  0.2617  0.0184
 7832SOL     OW24394   2.729   6.992   5.752 -0.2094  0.6410  0.0382
 7832SOL    HW124395   2.759   6.924   5.685 -0.0436 -0.4609  1.2047
 7832SOL    HW224396   2.778   7.078   5.736  0.0514  0.3029 -1.0539
 7833SOL     OW24397   3.838   3.125   6.072 -0.3758  0.5616 -0.0668
 7833SOL    HW124398   3.778   3.046   6.084 -0.9770  0.9649 -0.3684
 7833SOL    HW224399   3.808   3.199   6.133  0.2797  0.5053  0.3278
 7834SOL     OW24400   5.756   5.466   2.913 -0.0814 -0.4072 -0.6922
 7834SOL    HW124401   5.697   5.457   2.833 -0.0927  0.0981 -0.7484
 7834SOL    HW224402   5.846   5.427   2.894 -0.3798 -1.1293 -0.6242
 7835SOL     OW24403   6.523   1.504   1.257 -0.1523  0.1529 -0.0609
 7835SOL    HW124404   6.460   1.449   1.312 -1.3350  1.7423  0.2564
 7835SOL    HW224405   6.616   1.468   1.267 -0.8126 -1.5094  0.4393
 7836SOL     OW24406   0.543   4.030   1.744  0.8335 -0.0995  0.2938
 7836SOL    HW124407   0.463   4.075   1.783  1.4701  0.3177  1.1287
 7836SOL    HW224408   0.604   4.098   1.704 -0.0243 -0.5355 -1.9271
 7837SOL     OW24409   3.929   6.432   5.023 -0.3305  0.1455  0.6453
 7837SOL    HW124410   3.996   6.383   4.966 -0.5810  1.4424 -0.8312
 7837SOL    HW224411   3.967   6.520   5.051 -1.4943  1.0655 -0.5227
 7838SOL     OW24412   6.573   0.579   1.722 -0.0717  0.1272  1.0548
 7838SOL    HW124413   6.578   0.668   1.678 -2.6619 -0.0420  0.2255
 7838SOL    HW224414   6.606   0.508   1.660 -3.5248 -0.0879 -0.8216
 7839SOL     OW24415   4.281   4.664   2.898 -0.5989 -0.4026 -0.4632
 7839SOL    HW124416   4.278   4.644   2.996  0.2807 -1.2422 -0.5884
 7839SOL    HW224417   4.365   4.625   2.859 -0.2868  1.0588 -1.3079
 7840SOL     OW24418   5.130   3.286   6.422  0.1149  0.0207 -0.1376
 7840SOL    HW124419   5.206   3.291   6.357  0.2693 -1.8066 -0.1308
 7840SOL    HW224420   5.114   3.191   6.448 -0.9121  0.5710  1.3768
 7841SOL     OW24421   3.549   2.899   3.304  0.1959  0.3078  0.4988
 7841SOL    HW124422   3.534   2.874   3.208 -0.1342 -1.6497  1.0222
 7841SOL    HW224423   3.494   2.840   3.363  1.4195  0.5706  1.9568
 7842SOL     OW24424   6.057   2.447   1.234 -0.6121 -0.1322 -0.1410
 7842SOL    HW124425   6.069   2.527   1.293  0.4749 -0.0150 -0.4990
 7842SOL    HW224426   5.998   2.381   1.280  0.2865 -0.0823  1.1392
 7843SOL     OW24427   1.109   0.512   5.902 -0.4466 -0.0221 -0.1590
 7843SOL    HW124428   1.049   0.590   5.920 -0.1154  0.0989  0.4368
 7843SOL    HW224429   1.149   0.479   5.988  1.3694  0.7345 -0.6475
 7844SOL     OW24430   4.049   3.810   1.330  0.1180 -0.3181 -0.2523
 7844SOL    HW124431   4.141   3.849   1.334  2.1778 -4.6675  2.8586
 7844SOL    HW224432   3.992   3.852   1.400  0.8425  0.1461  0.0716
 7845SOL     OW24433   4.125   6.018   5.734 -0.0993 -0.2361 -0.4435
 7845SOL    HW124434   4.220   6.019   5.701  0.3451 -1.8030  0.6423
 7845SOL    HW224435   4.097   5.924   5.750 -1.3234  0.2914  0.6905
 7846SOL     OW24436   3.290   2.051   2.957 -0.0108  0.5041 -0.1268
 7846SOL    HW124437   3.381   2.060   2.916 -0.0402  1.3965 -0.0166
 7846SOL    HW224438   3.297   2.072   3.055  0.1429 -2.0041  0.4560
 7847SOL     OW24439   5.683   3.663   3.912 -0.3520  0.3263 -0.0337
 7847SOL    HW124440   5.683   3.734   3.982 -1.1498 -0.8078  1.1676
 7847SOL    HW224441   5.621   3.589   3.940  1.5033 -1.5182 -0.5336
 7848SOL     OW24442   4.502   0.572   2.255 -0.5148 -0.2238  0.1696
 7848SOL    HW124443   4.429   0.617   2.307 -0.4636 -0.7464  0.7023
 7848SOL    HW224444   4.540   0.636   2.189  1.4406  1.4589  2.7574
 7849SOL     OW24445   3.835   5.636   3.142  0.0569 -0.0746  0.3360
 7849SOL    HW124446   3.757   5.579   3.169  0.2622 -0.5661 -0.1029
 7849SOL    HW224447   3.867   5.609   3.051  0.4364  0.4457  0.3106
 7850SOL     OW24448   4.348   4.950   4.248 -0.0764 -0.3706 -0.0174
 7850SOL    HW124449   4.444   4.948   4.276 -0.3802  1.0286  1.2511
 7850SOL    HW224450   4.310   5.041   4.264 -1.9121 -1.1734  0.5291
 7851SOL     OW24451   4.502   2.435   0.023  0.1828  0.1802  0.0325
 7851SOL    HW124452   4.543   2.442  -0.068 -2.3000  1.8507 -1.0817
 7851SOL    HW224453   4.410   2.474   0.021 -0.7833 -1.6389  2.7862
 7852SOL     OW24454   4.130   1.795   3.827  0.5966  0.2803  0.5907
 7852SOL    HW124455   4.211   1.765   3.775 -0.0664 -0.0928 -0.2444
 7852SOL    HW224456   4.112   1.730   3.900  0.0222 -0.6102 -0.3164
 7853SOL     OW24457   2.894   6.210   5.377 -0.0299  0.1661 -0.3996
 7853SOL    HW124458   2.917   6.162   5.292 -0.0693  0.2587 -0.4625
 7853SOL    HW224459   2.798   6.191   5.401  0.2722 -0.7163  0.1889
 7854SOL     OW24460   1.288   5.607   3.353 -0.2977 -0.3985  0.2468
 7854SOL    HW124461   1.268   5.633   3.448 -0.9984 -1.1474  0.3144
 7854SOL    HW224462   1.386   5.593   3.342  0.0591  1.6292  0.3579
 7855SOL     OW24463   4.499   3.714   0.691  0.1391 -0.2931 -0.0802
 7855SOL    HW124464   4.544   3.751   0.773  0.0076 -0.4191  0.0502
 7855SOL    HW224465   4.518   3.616   0.685  0.1915 -0.2730 -0.2295
 7856SOL     OW24466   3.077   5.150   5.074  0.4116  0.0343  0.1684
 7856SOL    HW124467   3.122   5.075   5.123 -0.6678 -0.7827 -0.0429
 7856SOL    HW224468   3.111   5.238   5.108 -0.4373 -0.4829  2.5478
 7857SOL     OW24469   1.638   1.629   2.473 -0.0010  0.0564  0.0663
 7857SOL    HW124470   1.682   1.710   2.435  1.0626 -1.2369 -1.6052
 7857SOL    HW224471   1.540   1.645   2.480  0.0330  1.0880 -1.3435
 7858SOL     OW24472   5.680   5.720   4.682 -0.2394 -0.2629  0.3065
 7858SOL    HW124473   5.707   5.709   4.777  0.1968 -2.5962 -0.0227
 7858SOL    HW224474   5.752   5.681   4.623  1.1006  3.9851 -1.2238
 7859SOL     OW24475   4.417   4.801   5.441  0.1897 -0.3522  0.3092
 7859SOL    HW124476   4.318   4.814   5.428  0.5527  2.2888 -0.3549
 7859SOL    HW224477   4.453   4.746   5.366 -0.6527 -0.6015  0.0778
 7860SOL     OW24478   3.096   0.851   1.452  0.1822  0.2085  0.4926
 7860SOL    HW124479   3.192   0.826   1.467 -0.2317 -2.0890 -0.3219
 7860SOL    HW224480   3.048   0.852   1.540  0.4810 -0.7655  0.6704
 7861SOL     OW24481   6.667   5.513   5.439 -0.4576  0.4198 -0.2866
 7861SOL    HW124482   6.657   5.498   5.341 -0.6493 -2.0177  0.0432
 7861SOL    HW224483   6.586   5.560   5.475 -1.1240 -0.1378 -1.0331
 7862SOL     OW24484   4.722   3.123   0.894 -0.3151  0.3061 -0.1520
 7862SOL    HW124485   4.804   3.108   0.838 -0.2880  1.1152 -0.3444
 7862SOL    HW224486   4.750   3.151   0.986 -0.3759 -0.0017 -0.0368
 7863SOL     OW24487   0.289   2.244   2.976 -0.2391 -0.6598 -0.1980
 7863SOL    HW124488   0.306   2.275   3.069 -0.5187  0.0054 -0.3586
 7863SOL    HW224489   0.332   2.306   2.911 -0.3147 -0.9365 -0.5189
 7864SOL     OW24490   5.388   2.050   1.409 -0.0459  0.4027  0.3249
 7864SOL    HW124491   5.419   1.980   1.473  0.4323  1.9314  1.8525
 7864SOL    HW224492   5.361   2.007   1.323  1.8496 -1.4892  0.5779
 7865SOL     OW24493   2.559   4.655   1.452 -0.8136 -0.0527  0.4090
 7865SOL    HW124494   2.595   4.592   1.521 -1.2862  0.1369  0.8356
 7865SOL    HW224495   2.634   4.688   1.395 -0.5487 -0.9260  0.2398
 7866SOL     OW24496   0.073   4.386   2.888 -0.2242  0.4707 -0.5583
 7866SOL    HW124497   0.075   4.442   2.805  1.2995 -0.8748 -1.4842
 7866SOL    HW224498   0.063   4.290   2.864 -4.0933  0.2561  1.0386
 7867SOL     OW24499   4.931   2.294   3.525 -0.0756 -0.1761 -0.0548
 7867SOL    HW124500   4.841   2.329   3.500  0.6236  0.1774 -2.2180
 7867SOL    HW224501   4.969   2.349   3.599 -0.7480  1.0009 -0.5674
 7868SOL     OW24502   2.540   5.553   5.123 -0.0465  0.0861  0.2532
 7868SOL    HW124503   2.501   5.514   5.039 -1.3551  0.4591  0.6659
 7868SOL    HW224504   2.571   5.646   5.106  0.1490 -0.0171  0.0520
 7869SOL     OW24505   2.495   1.853   0.041 -0.0844 -0.3192  0.2897
 7869SOL    HW124506   2.417   1.868   0.101 -1.1207 -0.5987 -0.9458
 7869SOL    HW224507   2.490   1.916  -0.036  2.2094  1.3256  1.3423
 7870SOL     OW24508   2.181   6.135   2.223 -0.2656 -0.5212  0.1204
 7870SOL    HW124509   2.245   6.065   2.190 -1.4902 -1.4705 -0.3136
 7870SOL    HW224510   2.088   6.104   2.208 -0.8415  1.1134  0.1828
 7871SOL     OW24511   3.551   0.374   6.044  0.1069  0.5674  0.2053
 7871SOL    HW124512   3.648   0.350   6.045 -0.0027 -0.1194  3.1471
 7871SOL    HW224513   3.534   0.446   6.111 -1.4969  0.4404 -0.0263
 7872SOL     OW24514   6.758   4.306   3.124 -0.7924  0.4796 -0.1937
 7872SOL    HW124515   6.838   4.291   3.065  0.1872 -0.6195  1.3352
 7872SOL    HW224516   6.702   4.224   3.125 -0.3315  0.1521  1.0433
 7873SOL     OW24517   6.698   3.643   0.500  0.5567 -0.4589  0.3507
 7873SOL    HW124518   6.609   3.666   0.539  0.0385  0.3668 -1.2188
 7873SOL    HW224519   6.715   3.545   0.512  0.4082 -0.2783  2.4932
 7874SOL     OW24520   6.350   4.996   1.346 -0.5809  0.0625 -0.2961
 7874SOL    HW124521   6.334   5.091   1.370 -0.6588 -0.5593  2.3537
 7874SOL    HW224522   6.429   4.991   1.284 -1.3952  1.9080 -1.5620
 7875SOL     OW24523   2.270   4.723   0.877  0.5024 -0.6960  0.1088
 7875SOL    HW124524   2.361   4.697   0.847  0.7651 -0.5061  0.7382
 7875SOL    HW224525   2.275   4.803   0.937 -0.2915  1.0079 -1.9568
 7876SOL     OW24526   1.558   1.480   3.586 -0.3406 -0.2493  0.9164
 7876SOL    HW124527   1.544   1.524   3.498  0.4325 -0.3278  0.7478
 7876SOL    HW224528   1.474   1.432   3.613 -0.1865 -1.2738 -0.3608
 7877SOL     OW24529   5.175   0.782   1.898 -0.3601 -0.5968 -0.0818
 7877SOL    HW124530   5.206   0.771   1.803 -1.6105 -0.9701 -0.4705
 7877SOL    HW224531   5.204   0.703   1.952 -3.4474 -2.7611 -1.2651
 7878SOL     OW24532   1.335   4.053   1.516  0.2735  0.1996  0.3873
 7878SOL    HW124533   1.375   4.141   1.543  1.4664 -0.9694  2.7473
 7878SOL    HW224534   1.244   4.044   1.555 -1.0152  1.4096 -2.0960
 7879SOL     OW24535   0.437   1.676   4.018 -0.7413 -0.2912 -0.2584
 7879SOL    HW124536   0.440   1.588   4.065 -2.6359 -0.1317  0.2366
 7879SOL    HW224537   0.353   1.683   3.965 -0.5957  1.2122 -0.3378
 7880SOL     OW24538   1.919   6.008   1.754 -0.6160 -0.1249  0.3690
 7880SOL    HW124539   1.971   6.066   1.692 -1.1016 -1.1534 -1.0484
 7880SOL    HW224540   1.901   5.919   1.711 -3.4580  0.1284  0.7927
 7881SOL     OW24541   3.678   1.157   0.283  0.3665  0.8175  0.4917
 7881SOL    HW124542   3.696   1.250   0.312  0.6886  0.8650  0.1482
 7881SOL    HW224543   3.715   1.093   0.350 -2.1790  0.9208  2.1323
 7882SOL     OW24544   0.597   1.124   6.515  0.0344 -0.3089 -0.0806
 7882SOL    HW124545   0.585   1.216   6.551  1.6262  0.3087 -1.0154
 7882SOL    HW224546   0.563   1.119   6.421  0.0635 -0.6341 -0.0782
 7883SOL     OW24547   5.972   1.680   2.009 -0.3126  0.7738  0.4525
 7883SOL    HW124548   5.924   1.673   1.922  1.3850  1.2489 -0.5763
 7883SOL    HW224549   5.934   1.756   2.063 -0.2409  1.6375 -0.6730
 7884SOL     OW24550   4.415   0.228   6.494  0.2688  0.1192  0.0325
 7884SOL    HW124551   4.506   0.235   6.535  0.2461 -0.1669  0.1394
 7884SOL    HW224552   4.380   0.319   6.472  0.6128  0.2240 -0.0800
 7885SOL     OW24553   5.933   4.312   3.424 -0.3826  0.0578 -0.0940
 7885SOL    HW124554   5.946   4.213   3.423 -2.0102 -0.2431 -2.7413
 7885SOL    HW224555   5.922   4.345   3.330 -0.7261  2.6502  0.7640
 7886SOL     OW24556   0.417   5.515   6.727 -0.3922  0.1574 -0.2162
 7886SOL    HW124557   0.356   5.439   6.703  0.3058 -0.5851  0.2934
 7886SOL    HW224558   0.404   5.590   6.664 -0.3836 -0.7819 -1.3657
 7887SOL     OW24559   4.211   5.318   2.681 -0.0144 -0.3021  0.2963
 7887SOL    HW124560   4.238   5.228   2.715 -0.3984 -0.5672 -0.0904
 7887SOL    HW224561   4.129   5.309   2.625  0.8072  0.0609 -1.0135
 7888SOL     OW24562   0.974   5.937   6.018  0.2839  0.5194 -0.0228
 7888SOL    HW124563   0.973   5.897   6.110  0.4040  2.4310  0.8552
 7888SOL    HW224564   0.884   5.976   5.998 -0.0384 -0.7174 -1.1398
 7889SOL     OW24565   4.146   4.130   6.808  0.3856 -0.1110 -0.5885
 7889SOL    HW124566   4.134   4.170   6.899 -0.9901 -1.3096 -0.2028
 7889SOL    HW224567   4.155   4.204   6.741  0.1866  0.8143  0.3634
 7890SOL     OW24568   6.869   6.483   5.376 -0.4412 -0.1656  0.0814
 7890SOL    HW124569   6.849   6.545   5.300  0.5416 -0.4682 -0.4498
 7890SOL    HW224570   6.798   6.491   5.446 -0.4438  1.4171 -0.0605
 7891SOL     OW24571   0.638   1.353   2.553  0.1545 -0.2416  0.6042
 7891SOL    HW124572   0.692   1.426   2.596  1.4293 -1.2397  0.7626
 7891SOL    HW224573   0.573   1.394   2.489  0.8293  1.0395  0.6926
 7892SOL     OW24574   4.487   0.048   0.480 -0.5015  0.2789  0.2083
 7892SOL    HW124575   4.424   0.023   0.407 -1.0172 -1.4493  1.1879
 7892SOL    HW224576   4.535  -0.034   0.512  1.1253  1.3098  0.5320
 7893SOL     OW24577   4.934   3.196   2.988  0.0980 -0.0209 -0.5125
 7893SOL    HW124578   4.865   3.164   3.053 -1.7960  1.5579 -1.6551
 7893SOL    HW224579   4.935   3.296   2.986  2.3732  0.0082 -0.6256
 7894SOL     OW24580   2.861   0.116   1.492  0.2284 -0.1393 -0.3269
 7894SOL    HW124581   2.827   0.123   1.586 -0.4643 -1.3452 -0.4614
 7894SOL    HW224582   2.937   0.179   1.479 -1.9880  2.7994 -0.0573
 7895SOL     OW24583   4.627   0.907   1.417  0.2079 -0.1624 -0.0772
 7895SOL    HW124584   4.605   1.003   1.436 -1.0312 -0.3988 -0.2215
 7895SOL    HW224585   4.714   0.884   1.460  1.3278  1.4457 -1.3562
 7896SOL     OW24586   6.401   1.299   1.071 -0.1761 -0.0496 -0.5132
 7896SOL    HW124587   6.437   1.368   1.135  0.3993 -1.3194  0.5883
 7896SOL    HW224588   6.429   1.322   0.978  1.2308  0.4473  0.0041
 7897SOL     OW24589   4.728   4.141   3.965  0.2745 -0.0138  0.0885
 7897SOL    HW124590   4.725   4.241   3.967 -0.5578  0.0412 -1.5886
 7897SOL    HW224591   4.642   4.104   4.001 -0.4873 -0.0095 -1.6204
 7898SOL     OW24592   6.906   1.488   5.894 -0.1334  0.2379 -0.7924
 7898SOL    HW124593   6.861   1.423   5.832  0.2238 -2.2721  1.3969
 7898SOL    HW224594   6.965   1.438   5.957  2.1409  3.0133 -0.5467
 7899SOL     OW24595   1.877   0.691   0.155  0.0286  0.0089 -0.4325
 7899SOL    HW124596   1.918   0.781   0.141  1.1747 -0.2828  0.8612
 7899SOL    HW224597   1.797   0.681   0.096  0.0083  1.7799 -0.7415
 7900SOL     OW24598   0.442   6.456   5.478 -0.0845  0.2613 -0.0126
 7900SOL    HW124599   0.540   6.474   5.480 -0.1259  0.4747  1.8670
 7900SOL    HW224600   0.404   6.469   5.569 -1.5672 -1.4513 -0.3208
 7901SOL     OW24601   3.880   3.247   1.408  0.8191  0.2352  0.1232
 7901SOL    HW124602   3.832   3.321   1.456  0.7158 -0.0971  0.5368
 7901SOL    HW224603   3.966   3.229   1.455 -0.4679 -1.9117  1.8534
 7902SOL     OW24604   0.061   0.409   0.465 -0.0437 -0.2272 -0.2992
 7902SOL    HW124605   0.138   0.393   0.527 -0.4684  0.4129  0.4059
 7902SOL    HW224606   0.088   0.473   0.393 -0.3092  1.1190  0.7605
 7903SOL     OW24607   2.083   4.462   1.780  0.4130 -0.3229  0.0505
 7903SOL    HW124608   2.164   4.515   1.805 -0.9110  1.6177  0.3965
 7903SOL    HW224609   2.031   4.440   1.862 -0.5141  0.3026 -0.3587
 7904SOL     OW24610   5.421   5.055   2.442 -0.6194 -0.8094 -0.1467
 7904SOL    HW124611   5.456   4.961   2.444 -0.6307 -0.9523 -2.7664
 7904SOL    HW224612   5.321   5.053   2.445 -0.6326 -0.6160  3.1649
 7905SOL     OW24613   1.883   6.786   4.934 -0.2331 -0.1853 -0.9006
 7905SOL    HW124614   1.868   6.690   4.910 -1.3717 -0.1671 -0.3420
 7905SOL    HW224615   1.981   6.804   4.939  0.0080 -1.6039  0.1018
 7906SOL     OW24616   0.061   3.155   4.755 -0.2593 -0.4401  0.1923
 7906SOL    HW124617   0.074   3.071   4.808  1.2818  0.6586  1.6475
 7906SOL    HW224618   0.150   3.189   4.725 -0.9772 -0.0998 -1.7126
 7907SOL     OW24619   3.617   3.772   4.464  0.0107 -0.1296  0.1901
 7907SOL    HW124620   3.668   3.781   4.378 -0.1545 -2.6390 -0.2669
 7907SOL    HW224621   3.554   3.849   4.474 -1.8602 -0.9548 -3.3267
 7908SOL     OW24622   2.232   2.524   1.471 -0.3903 -0.2807 -0.1431
 7908SOL    HW124623   2.273   2.573   1.394 -1.4333 -0.3169 -0.7441
 7908SOL    HW224624   2.157   2.579   1.509  2.2957  1.4427  3.2190
 7909SOL     OW24625   0.944   0.729   0.538  0.4322 -0.3778 -0.1528
 7909SOL    HW124626   0.877   0.693   0.473  0.1149  0.4491 -0.2996
 7909SOL    HW224627   0.979   0.816   0.504 -0.3439  0.4793  1.1587
 7910SOL     OW24628   0.880   5.027   7.005 -0.2372  0.2396 -0.6455
 7910SOL    HW124629   0.902   5.025   7.103  0.8344 -0.4458 -0.8937
 7910SOL    HW224630   0.960   5.059   6.954  0.1278 -1.9946 -1.5384
 7911SOL     OW24631   6.617   3.859   0.852 -0.4603  0.1689  0.0584
 7911SOL    HW124632   6.569   3.906   0.927 -3.3789  1.2103 -2.2377
 7911SOL    HW224633   6.590   3.762   0.851 -0.7455  0.2466  0.1139
 7912SOL     OW24634   6.178   1.369   6.453 -0.9474  0.6055 -0.5191
 7912SOL    HW124635   6.270   1.330   6.454 -1.6859 -1.2482 -1.1652
 7912SOL    HW224636   6.119   1.317   6.515 -2.0065  0.5895 -1.5213
 7913SOL     OW24637   5.051   0.207   1.654 -0.5439  0.4312  0.1735
 7913SOL    HW124638   5.038   0.302   1.680  0.7598  0.5507  0.4283
 7913SOL    HW224639   5.080   0.201   1.559  2.1699  0.5257  0.9161
 7914SOL     OW24640   3.089   1.691   4.169  0.3984 -0.6311  0.5052
 7914SOL    HW124641   3.129   1.756   4.233 -0.2614  0.8541 -0.5279
 7914SOL    HW224642   3.131   1.703   4.079  0.7836 -2.1684  0.4570
 7915SOL     OW24643   1.860   5.792   1.591 -0.0512 -0.2377  0.3090
 7915SOL    HW124644   1.932   5.725   1.571  1.2026  1.6276 -2.0879
 7915SOL    HW224645   1.772   5.755   1.563  0.4424 -1.3535  0.1774
 7916SOL     OW24646   1.401   2.427   2.331 -0.2096  0.1015 -0.5281
 7916SOL    HW124647   1.361   2.378   2.254 -0.6345 -0.1770 -0.1341
 7916SOL    HW224648   1.495   2.396   2.346 -1.0044 -1.8477  0.7705
 7917SOL     OW24649   2.431   4.392   1.653  0.0991 -0.4849 -0.1698
 7917SOL    HW124650   2.381   4.326   1.597  0.5050 -0.2533 -0.8123
 7917SOL    HW224651   2.373   4.472   1.670 -0.0976 -0.6440 -0.0851
 7918SOL     OW24652   6.231   6.299   2.961  0.2806  0.2531  0.5543
 7918SOL    HW124653   6.306   6.346   2.915  0.4118 -0.4170  0.0709
 7918SOL    HW224654   6.145   6.347   2.942  0.4180  0.3225  0.1020
 7919SOL     OW24655   6.039   5.253   5.834 -0.2542 -0.4118 -0.1787
 7919SOL    HW124656   6.073   5.186   5.899 -0.4962 -0.8893 -0.5390
 7919SOL    HW224657   6.096   5.251   5.751  0.9226  1.1626  0.5324
 7920SOL     OW24658   2.702   4.720   2.774 -0.0308  0.3849  0.5601
 7920SOL    HW124659   2.627   4.660   2.800 -0.8741  2.0008  2.1182
 7920SOL    HW224660   2.699   4.737   2.676 -0.7132 -0.8368  0.3517
 7921SOL     OW24661   2.073   2.795   4.910  0.1414 -0.3026  0.5680
 7921SOL    HW124662   2.151   2.836   4.956 -0.1587 -0.0605  0.8732
 7921SOL    HW224663   2.099   2.707   4.871  0.7700  0.1332 -0.0163
 7922SOL     OW24664   5.726   3.570   0.276  0.2150 -1.0053  0.4026
 7922SOL    HW124665   5.748   3.657   0.231  0.1729 -1.0200  0.3536
 7922SOL    HW224666   5.810   3.524   0.303  0.2503 -1.1319  0.0832
 7923SOL     OW24667   0.182   3.454   5.957 -0.5400 -0.2158 -0.7508
 7923SOL    HW124668   0.087   3.429   5.976 -0.0116 -1.1238  0.8446
 7923SOL    HW224669   0.222   3.388   5.894 -0.4430 -0.8957  0.0133
 7924SOL     OW24670   4.614   0.983   3.888 -0.2139 -0.1238 -0.7259
 7924SOL    HW124671   4.604   1.074   3.927  1.9477 -0.3437  0.4576
 7924SOL    HW224672   4.710   0.966   3.865 -0.5158 -2.1779 -0.7080
 7925SOL     OW24673   6.374   2.339   0.627  0.2477  0.4503  0.2767
 7925SOL    HW124674   6.430   2.368   0.550 -0.6571  0.9332 -0.2199
 7925SOL    HW224675   6.366   2.415   0.692  0.8158  0.1212  0.7379
 7926SOL     OW24676   5.844   4.926   2.402  0.6069  0.1328  0.0011
 7926SOL    HW124677   5.807   4.986   2.332 -0.7306  0.0409  0.6043
 7926SOL    HW224678   5.770   4.874   2.444  1.6898 -1.6720 -0.2463
 7927SOL     OW24679   2.096   6.906   0.110  0.3222 -0.3255  0.0569
 7927SOL    HW124680   2.061   6.983   0.163 -0.2050 -1.0857  0.8396
 7927SOL    HW224681   2.023   6.870   0.051  1.0565  0.8658 -1.6402
 7928SOL     OW24682   1.088   6.673   2.601 -0.3692  0.0943 -0.1465
 7928SOL    HW124683   1.128   6.582   2.594 -0.8500 -0.2488  1.2751
 7928SOL    HW224684   1.003   6.677   2.548 -1.3992 -0.9203  1.3652
 7929SOL     OW24685   6.932   3.656   1.615  0.0930  0.5256  0.4323
 7929SOL    HW124686   6.874   3.737   1.608 -0.6786  0.0853  1.4476
 7929SOL    HW224687   7.018   3.672   1.567  1.3520  3.2100  3.2383
 7930SOL     OW24688   5.733   2.588   2.663  1.2067 -0.0108 -0.0454
 7930SOL    HW124689   5.803   2.567   2.731 -1.6614  0.1599  3.2176
 7930SOL    HW224690   5.714   2.507   2.608  2.3486 -0.7032  0.5559
 7931SOL     OW24691   5.675   2.238   6.351  0.5166 -0.0703  0.5351
 7931SOL    HW124692   5.633   2.237   6.260  1.9244 -0.6782 -0.1514
 7931SOL    HW224693   5.645   2.319   6.401 -1.1115 -0.2693 -0.0498
 7932SOL     OW24694   6.231   0.402   6.708  0.2183 -0.4072  0.0453
 7932SOL    HW124695   6.239   0.363   6.800 -0.9928  2.1132  1.3087
 7932SOL    HW224696   6.141   0.444   6.697 -0.1464 -1.6994 -2.7903
 7933SOL     OW24697   3.399   0.434   0.614 -0.4096 -0.5280 -0.3800
 7933SOL    HW124698   3.390   0.394   0.705 -2.1466  0.4316 -0.0955
 7933SOL    HW224699   3.495   0.455   0.597  0.0735 -1.5930  0.8358
 7934SOL     OW24700   5.124   6.079   4.777 -0.9251  0.1554 -0.9473
 7934SOL    HW124701   5.217   6.117   4.780 -0.7828 -0.1827 -1.0340
 7934SOL    HW224702   5.126   5.984   4.807 -1.2445  0.1457 -0.9529
 7935SOL     OW24703   1.519   6.031   6.967 -0.2558 -0.2018  0.3000
 7935SOL    HW124704   1.493   5.944   6.925 -0.8280 -0.2160  0.6697
 7935SOL    HW224705   1.573   6.085   6.902  1.5110 -1.5027  0.6151
 7936SOL     OW24706   6.243   1.158   2.089  0.2582 -0.5975 -0.4638
 7936SOL    HW124707   6.177   1.083   2.089  0.7080 -1.0149  0.6832
 7936SOL    HW224708   6.197   1.244   2.112  0.1903 -0.9950  1.0229
 7937SOL     OW24709   1.995   1.738   0.317  0.7186 -0.7383 -0.0512
 7937SOL    HW124710   1.998   1.712   0.220  1.2343 -0.2612 -0.1665
 7937SOL    HW224711   2.087   1.732   0.356  0.1549 -3.2695  1.0539
 7938SOL     OW24712   2.043   6.050   4.665 -0.2572 -0.1116  0.1230
 7938SOL    HW124713   2.125   6.044   4.607  0.4272 -1.6277  1.1870
 7938SOL    HW224714   1.974   5.987   4.631 -0.0948 -0.5324  0.5565
 7939SOL     OW24715   6.114   5.183   6.254  0.0802  0.1563 -0.6225
 7939SOL    HW124716   6.156   5.273   6.242 -0.3309  0.3288 -0.7995
 7939SOL    HW224717   6.015   5.192   6.249  0.0315 -0.2933 -0.5274
 7940SOL     OW24718   6.989   1.295   1.116  0.1579  0.7192  0.5767
 7940SOL    HW124719   7.018   1.199   1.115  1.0889  0.9827  0.9710
 7940SOL    HW224720   7.025   1.341   1.035  0.0544  0.8300  0.5943
 7941SOL     OW24721   4.404   2.369   2.291  0.0576 -0.0487 -0.2386
 7941SOL    HW124722   4.474   2.431   2.327 -1.9257  0.5521  2.9492
 7941SOL    HW224723   4.329   2.423   2.253 -1.1380 -0.4100  1.4769
 7942SOL     OW24724   5.234   0.821   3.628 -0.2278 -0.1871 -0.3406
 7942SOL    HW124725   5.310   0.794   3.570  0.7558  1.0500  0.3241
 7942SOL    HW224726   5.159   0.756   3.617  0.7780 -1.2332 -1.2743
 7943SOL     OW24727   4.017   1.388   1.960 -0.3258 -0.3874  0.2473
 7943SOL    HW124728   4.045   1.473   2.004 -1.2023 -0.2739  0.6129
 7943SOL    HW224729   3.956   1.409   1.883  0.3822 -0.6348 -0.3887
 7944SOL     OW24730   4.264   3.088   0.752  0.2944  0.4876  0.0384
 7944SOL    HW124731   4.358   3.110   0.727  0.6434 -1.3756 -0.4017
 7944SOL    HW224732   4.263   3.033   0.836 -0.4840  1.2736  0.5718
 7945SOL     OW24733   5.648   2.513   5.722  0.0670 -0.0310 -0.0279
 7945SOL    HW124734   5.661   2.441   5.654 -0.5977 -1.3473  1.1803
 7945SOL    HW224735   5.552   2.518   5.747  0.1825  0.9669  0.2610
 7946SOL     OW24736   2.295   5.762   3.834  0.0127  0.5826 -0.4502
 7946SOL    HW124737   2.302   5.821   3.753 -0.1761  1.8024  0.3901
 7946SOL    HW224738   2.202   5.769   3.872 -0.4764 -1.4205 -1.1620
 7947SOL     OW24739   4.635   5.009   6.584 -0.3944 -0.2238  0.3883
 7947SOL    HW124740   4.597   4.926   6.542  1.4163 -0.4035 -1.0385
 7947SOL    HW224741   4.567   5.082   6.582 -0.5822 -0.3819 -2.5057
 7948SOL     OW24742   0.168   1.686   5.335  0.8092 -0.0178  0.1019
 7948SOL    HW124743   0.195   1.613   5.398 -3.1207  0.2145  2.3701
 7948SOL    HW224744   0.131   1.646   5.251  2.1259 -0.4365 -0.3108
 7949SOL     OW24745   0.143   5.958   1.390  0.1885  0.3480  0.1766
 7949SOL    HW124746   0.094   5.976   1.304  0.9837  1.8937  0.0197
 7949SOL    HW224747   0.226   6.012   1.393  0.8423 -0.6736  1.3748
 7950SOL     OW24748   5.834   2.161   0.873  0.6786 -0.0736 -0.2884
 7950SOL    HW124749   5.864   2.070   0.903 -0.7185 -0.3884  0.2459
 7950SOL    HW224750   5.880   2.231   0.927  2.9732 -0.3544 -1.7626
 7951SOL     OW24751   0.588   5.006   1.850 -0.3566 -0.1574  0.2712
 7951SOL    HW124752   0.547   4.980   1.762 -0.2054 -0.7232  0.3640
 7951SOL    HW224753   0.516   5.017   1.918 -0.9637  4.0770 -0.7638
 7952SOL     OW24754   6.653   0.452   0.732  0.0056  0.0154 -0.1874
 7952SOL    HW124755   6.555   0.463   0.715 -0.3411 -2.5196 -0.1745
 7952SOL    HW224756   6.668   0.371   0.789  2.0926  0.7131  0.3421
 7953SOL     OW24757   0.118   0.095   6.984 -0.6056  0.1326  0.3688
 7953SOL    HW124758   0.089   0.047   6.902 -0.5908 -0.7876  0.8915
 7953SOL    HW224759   0.062   0.177   6.997 -0.2602  0.5845 -0.8338
 7954SOL     OW24760   2.997   5.625   1.016  0.1544  0.8591  0.0449
 7954SOL    HW124761   2.982   5.715   0.975  0.5307  1.3524  0.9656
 7954SOL    HW224762   2.916   5.568   1.001 -0.4081  1.6205  0.1425
 7955SOL     OW24763   4.390   6.969   1.813  0.1355  0.2369  0.6833
 7955SOL    HW124764   4.416   7.039   1.880  0.0261  1.6161 -0.6652
 7955SOL    HW224765   4.318   7.004   1.754  0.5049 -0.7856 -0.4251
 7956SOL     OW24766   0.849   5.200   2.790  0.3799  0.4716  0.0941
 7956SOL    HW124767   0.798   5.120   2.759  0.4677 -0.4247  2.0808
 7956SOL    HW224768   0.791   5.282   2.783 -0.7661 -0.2588  0.7473
 7957SOL     OW24769   3.483   3.834   4.038  0.7402 -0.0465 -0.3863
 7957SOL    HW124770   3.439   3.919   4.010  1.0318  0.4083  0.4847
 7957SOL    HW224771   3.570   3.855   4.084 -0.4217 -0.6144  2.2471
 7958SOL     OW24772   1.164   1.052   3.264  0.0509 -0.1108  0.6776
 7958SOL    HW124773   1.206   0.986   3.327  1.1138 -0.2430 -0.1327
 7958SOL    HW224774   1.144   1.137   3.312  0.2864 -0.4263  1.3389
 7959SOL     OW24775   5.895   4.243   5.497 -0.0567  0.3184 -0.2689
 7959SOL    HW124776   5.980   4.287   5.469 -0.5140  0.8476 -0.8557
 7959SOL    HW224777   5.822   4.311   5.499 -0.3329  0.0058  0.8670
 7960SOL     OW24778   5.940   4.679   4.156 -0.0789  0.2072 -0.3444
 7960SOL    HW124779   5.934   4.743   4.233 -1.9849 -0.8042  0.4083
 7960SOL    HW224780   5.848   4.651   4.128  0.6291 -0.6084 -2.0407
 7961SOL     OW24781   0.853   3.151   2.092 -0.1495  0.7161  0.5224
 7961SOL    HW124782   0.918   3.077   2.108  0.0557  1.3616  3.1220
 7961SOL    HW224783   0.784   3.121   2.026  0.6469 -1.3389  0.5536
 7962SOL     OW24784   1.391   3.469   0.267  0.0808 -0.2732 -1.1020
 7962SOL    HW124785   1.377   3.550   0.324 -0.6072 -0.9544 -0.2803
 7962SOL    HW224786   1.455   3.408   0.314 -2.0688 -1.7929 -0.0205
 7963SOL     OW24787   4.771   6.949   2.376  0.4102  0.2952 -0.6193
 7963SOL    HW124788   4.673   6.957   2.356 -0.1047 -0.8792  1.1408
 7963SOL    HW224789   4.800   7.026   2.432  0.0173 -0.2654  0.3922
 7964SOL     OW24790   2.908   1.177   4.362 -0.8009  0.0883 -0.0758
 7964SOL    HW124791   2.842   1.195   4.435  1.2832  1.0881  1.6546
 7964SOL    HW224792   2.937   1.081   4.367 -0.7663  0.1172  0.3368
 7965SOL     OW24793   1.316   1.763   0.275 -0.5783  0.5199  0.2538
 7965SOL    HW124794   1.392   1.773   0.210 -1.9889  1.5714 -1.3408
 7965SOL    HW224795   1.314   1.842   0.337  0.7620 -0.4781  1.6354
 7966SOL     OW24796   1.716   3.642   1.098 -0.2177  0.3273 -0.0863
 7966SOL    HW124797   1.809   3.617   1.124  0.0796  0.6189 -0.8436
 7966SOL    HW224798   1.654   3.566   1.116  0.0745  0.3019  0.8765
 7967SOL     OW24799   5.182   6.255   2.614 -0.2984  0.3895 -0.1390
 7967SOL    HW124800   5.161   6.181   2.550  0.2386  1.8931 -2.2050
 7967SOL    HW224801   5.099   6.306   2.636 -0.5215 -0.2672  0.5671
 7968SOL     OW24802   3.151   3.350   3.615  0.1144 -0.3014  0.1057
 7968SOL    HW124803   3.138   3.449   3.610 -0.4103 -0.1861  2.4665
 7968SOL    HW224804   3.165   3.313   3.523  0.6600  1.9871 -0.7850
 7969SOL     OW24805   2.183   3.066   2.883  0.2751  0.4417 -0.1998
 7969SOL    HW124806   2.244   3.042   2.959  3.3509  1.5292 -2.1249
 7969SOL    HW224807   2.193   2.999   2.810  3.1051  3.0927 -2.5100
 7970SOL     OW24808   0.955   0.585   0.094  0.4855  0.1293  0.0332
 7970SOL    HW124809   0.902   0.516   0.144 -0.4431  0.2524 -0.7501
 7970SOL    HW224810   0.979   0.660   0.155 -1.0709  0.5261  0.1972
 7971SOL     OW24811   1.775   1.518   2.940 -0.6668  0.4721 -0.7818
 7971SOL    HW124812   1.817   1.600   2.980 -0.0385  0.1739 -0.8098
 7971SOL    HW224813   1.765   1.449   3.011 -3.8210  1.5210 -0.0730
 7972SOL     OW24814   0.097   6.679   6.169  0.1729  0.0397  0.6163
 7972SOL    HW124815   0.175   6.698   6.229 -0.9767  0.8491  1.9081
 7972SOL    HW224816   0.059   6.764   6.134  1.0866 -0.4402 -1.6793
 7973SOL     OW24817   5.324   5.157   6.542 -0.4543  0.8560  0.4288
 7973SOL    HW124818   5.249   5.104   6.583 -0.5802  0.1097 -0.7483
 7973SOL    HW224819   5.285   5.224   6.478 -0.0959  0.0341 -0.6704
 7974SOL     OW24820   5.585   5.146   5.090  0.1688  0.7122  0.2397
 7974SOL    HW124821   5.658   5.113   5.150 -0.1883 -1.9390 -0.6695
 7974SOL    HW224822   5.591   5.099   5.002 -2.2072  0.9897 -0.1222
 7975SOL     OW24823   2.074   2.552   4.785  0.4651 -0.0394  0.4451
 7975SOL    HW124824   1.988   2.523   4.742  0.1312  0.7717  0.5325
 7975SOL    HW224825   2.151   2.511   4.738  0.0222 -1.0013  0.5326
 7976SOL     OW24826   6.623   0.313   0.383  0.6440  0.1849 -0.8427
 7976SOL    HW124827   6.595   0.332   0.289  1.3614  0.6094 -0.9792
 7976SOL    HW224828   6.690   0.381   0.412  1.2943 -0.6073 -0.4226
 7977SOL     OW24829   5.963   2.937   2.383  0.5570  0.2835  0.2183
 7977SOL    HW124830   5.962   3.037   2.389 -1.9584  0.3282  0.1338
 7977SOL    HW224831   5.932   2.908   2.293  2.8480 -0.6237 -0.3453
 7978SOL     OW24832   2.971   4.756   0.120  0.0841 -0.1149 -0.4545
 7978SOL    HW124833   2.920   4.671   0.104 -0.2815 -0.1263  0.7163
 7978SOL    HW224834   3.058   4.735   0.164  1.2248 -0.1092 -2.5762
 7979SOL     OW24835   6.532   4.024   1.043 -0.5467 -0.2723  0.0084
 7979SOL    HW124836   6.582   4.094   1.095  0.0909 -1.8700  1.6560
 7979SOL    HW224837   6.439   4.056   1.025 -0.1819  1.1054  0.4401
 7980SOL     OW24838   3.299   1.180   5.648  0.5280  0.2311  0.7406
 7980SOL    HW124839   3.273   1.246   5.718 -0.8349 -1.9935  2.4578
 7980SOL    HW224840   3.242   1.193   5.567  0.3947  1.2503  0.9853
 7981SOL     OW24841   4.438   4.208   5.738 -0.5222  0.0119  0.2080
 7981SOL    HW124842   4.398   4.186   5.649 -1.0328  0.8493  0.2177
 7981SOL    HW224843   4.381   4.276   5.785 -0.0173 -0.0771  0.9815
 7982SOL     OW24844   0.983   2.399   0.416 -0.5431  0.3988  0.3085
 7982SOL    HW124845   1.014   2.470   0.352 -0.1181  0.6899  0.8288
 7982SOL    HW224846   0.925   2.441   0.486 -1.3451  0.0134 -0.1128
 7983SOL     OW24847   1.452   3.756   1.003 -0.0940 -0.0874  0.3122
 7983SOL    HW124848   1.495   3.687   1.061  1.1194 -0.0195 -0.4498
 7983SOL    HW224849   1.448   3.843   1.052 -0.4343 -0.3837  0.8152
 7984SOL     OW24850   6.717   0.745   5.097  0.2824 -0.3107  0.2035
 7984SOL    HW124851   6.626   0.747   5.054  0.3498 -0.2769  0.0608
 7984SOL    HW224852   6.784   0.712   5.031  0.5475  0.6386 -0.0105
 7985SOL     OW24853   2.523   1.634   6.227 -0.1003  0.2903 -0.2763
 7985SOL    HW124854   2.501   1.690   6.148 -1.7824  2.4110  1.5497
 7985SOL    HW224855   2.606   1.668   6.270  0.8355 -0.8846 -1.0780
 7986SOL     OW24856   4.212   5.036   1.357  0.1048  0.1237  0.4513
 7986SOL    HW124857   4.191   4.987   1.272  0.4898 -1.5673  1.2757
 7986SOL    HW224858   4.305   5.074   1.351 -0.3061  1.0263 -0.3149
 7987SOL     OW24859   3.133   2.230   0.134 -0.2106  0.1398  0.2335
 7987SOL    HW124860   3.164   2.290   0.207  0.7111 -1.7063  1.4405
 7987SOL    HW224861   3.212   2.184   0.093 -0.8119  0.3515 -1.2412
 7988SOL     OW24862   6.336   1.303   6.175  0.1830 -0.0184 -0.9119
 7988SOL    HW124863   6.296   1.309   6.266  1.2184 -0.1727 -0.4406
 7988SOL    HW224864   6.401   1.378   6.161  0.9399 -0.6876 -1.0657
 7989SOL     OW24865   5.319   2.013   6.860 -0.0303  0.1674  0.4428
 7989SOL    HW124866   5.334   2.029   6.957  0.0188 -1.0723  0.6508
 7989SOL    HW224867   5.230   1.970   6.846  0.5049 -0.8727  0.0838
 7990SOL     OW24868   2.306   2.554   5.035 -0.8855  0.1629  0.8014
 7990SOL    HW124869   2.280   2.460   5.010  0.9461  0.1100 -1.1514
 7990SOL    HW224870   2.397   2.553   5.075 -0.7905  1.1369  0.6242
 7991SOL     OW24871   6.811   6.935   4.382 -0.3259 -0.1862 -0.6340
 7991SOL    HW124872   6.823   6.839   4.358 -3.7623 -0.4476 -1.9483
 7991SOL    HW224873   6.736   6.944   4.447  1.3318  1.5242  1.1813
 7992SOL     OW24874   4.122   6.775   3.158 -0.4738  0.0160 -0.1555
 7992SOL    HW124875   4.189   6.757   3.231 -0.2932  0.2932 -0.2501
 7992SOL    HW224876   4.038   6.811   3.198 -0.6983 -0.6642 -0.0022
 7993SOL     OW24877   3.556   5.827   6.624 -0.2830 -0.3414 -0.2553
 7993SOL    HW124878   3.542   5.804   6.528  2.1741 -2.1749 -0.2791
 7993SOL    HW224879   3.595   5.919   6.631 -1.9140  0.4305 -0.8457
 7994SOL     OW24880   6.689   2.831   1.167  0.0081  0.9885  0.1659
 7994SOL    HW124881   6.779   2.859   1.199  0.3148  0.1087  0.1091
 7994SOL    HW224882   6.671   2.737   1.196  0.3394  0.0969 -2.2508
 7995SOL     OW24883   1.141   1.369   6.617 -0.0653  0.4912  0.2559
 7995SOL    HW124884   1.150   1.461   6.580 -1.6748  0.1842 -1.0306
 7995SOL    HW224885   1.204   1.357   6.694  1.6961  1.9577 -0.8776
 7996SOL     OW24886   1.207   0.880   3.499  0.0178 -0.0875 -0.4818
 7996SOL    HW124887   1.270   0.939   3.549 -0.1530  0.7049 -1.1819
 7996SOL    HW224888   1.115   0.889   3.537  0.5314 -2.3603  1.5147
 7997SOL     OW24889   6.270   2.361   2.890  0.2440 -0.0695  0.8721
 7997SOL    HW124890   6.252   2.437   2.951 -1.5292 -1.2291  1.8757
 7997SOL    HW224891   6.184   2.325   2.854  1.2009  0.3747 -2.1250
 7998SOL     OW24892   3.553   3.372   7.008  0.3648 -0.5757 -0.4024
 7998SOL    HW124893   3.636   3.361   6.953 -1.7568  1.9429 -4.5847
 7998SOL    HW224894   3.552   3.462   7.051 -0.4446 -0.3541 -0.8703
 7999SOL     OW24895   0.379   6.471   2.434 -0.1469  0.0654  1.0015
 7999SOL    HW124896   0.372   6.422   2.347 -0.3985  1.0519  0.4427
 7999SOL    HW224897   0.354   6.567   2.419 -1.7255 -0.0684  2.4772
 8000SOL     OW24898   0.215   1.083   2.054  0.2202 -0.4968  0.3675
 8000SOL    HW124899   0.264   1.143   1.990 -0.8153 -0.2664 -0.2358
 8000SOL    HW224900   0.138   1.040   2.007 -1.2763  0.5805  1.7206
 8001SOL     OW24901   3.294   2.630   5.300 -0.5578 -0.0147  0.1442
 8001SOL    HW124902   3.231   2.667   5.368 -0.6740 -0.9586  0.5576
 8001SOL    HW224903   3.256   2.547   5.260  0.0967 -0.1850 -0.1350
 8002SOL     OW24904   3.283   2.088   6.749 -0.4657  0.1973  0.3992
 8002SOL    HW124905   3.306   2.119   6.841 -1.4592  1.2681  0.3270
 8002SOL    HW224906   3.187   2.058   6.747 -0.1582 -0.7826 -0.0611
 8003SOL     OW24907   5.055   5.518   4.024 -0.3957 -0.2238  0.1573
 8003SOL    HW124908   5.040   5.506   3.926 -0.1946 -0.1387  0.1179
 8003SOL    HW224909   5.111   5.443   4.059 -0.0297  0.0248  0.1091
 8004SOL     OW24910   5.178   5.685   0.792 -0.4289  0.4972  0.2771
 8004SOL    HW124911   5.106   5.639   0.740  1.1017 -0.4521 -1.0812
 8004SOL    HW224912   5.249   5.718   0.730  0.2272  1.6126  1.5614
 8005SOL     OW24913   2.356   3.748   6.169 -0.2550 -0.1505  0.2348
 8005SOL    HW124914   2.387   3.757   6.263  1.1079 -0.0228 -0.2047
 8005SOL    HW224915   2.291   3.821   6.147  0.4954  0.6547  0.6577
 8006SOL     OW24916   6.211   2.980   6.758  0.3476  0.4354 -0.5277
 8006SOL    HW124917   6.152   3.045   6.711 -0.2594 -0.1351 -0.5677
 8006SOL    HW224918   6.261   3.027   6.831 -1.0778  0.6796  0.3184
 8007SOL     OW24919   2.560   5.819   6.698 -0.0179  0.4254 -0.2660
 8007SOL    HW124920   2.606   5.887   6.755 -3.0215  1.8435  0.6945
 8007SOL    HW224921   2.494   5.866   6.638 -0.7569 -1.5030 -1.0356
 8008SOL     OW24922   1.897   2.929   3.639 -0.3999 -0.0953  0.0806
 8008SOL    HW124923   1.799   2.916   3.654 -0.4418 -0.1072 -0.1895
 8008SOL    HW224924   1.917   2.919   3.541 -0.1123 -0.2053  0.1487
 8009SOL     OW24925   2.110   3.589   3.352 -0.2168 -0.5549  0.7157
 8009SOL    HW124926   2.012   3.589   3.335  0.0036 -0.4374 -0.6821
 8009SOL    HW224927   2.136   3.509   3.406 -1.2026 -0.0681  1.9486
 8010SOL     OW24928   2.659   0.762   0.794 -0.5578 -0.2658 -0.0772
 8010SOL    HW124929   2.590   0.697   0.825  0.3676 -0.6569  1.2618
 8010SOL    HW224930   2.711   0.722   0.718  0.6046 -1.5369  1.3142
 8011SOL     OW24931   2.510   6.611   2.200 -0.3069 -0.1519 -0.0785
 8011SOL    HW124932   2.468   6.693   2.238 -2.0522 -1.0294 -0.0151
 8011SOL    HW224933   2.473   6.530   2.244 -0.5652 -1.0945 -1.9071
 8012SOL     OW24934   6.516   4.186   2.124 -0.0447  0.2916 -0.1536
 8012SOL    HW124935   6.551   4.109   2.069  2.2160  1.2217 -0.1192
 8012SOL    HW224936   6.453   4.151   2.193 -1.7446 -1.1078 -2.2706
 8013SOL     OW24937   2.100   5.467   6.456 -0.4869  0.0063  0.2675
 8013SOL    HW124938   2.105   5.558   6.497  1.8155 -0.1152  0.3903
 8013SOL    HW224939   2.086   5.476   6.358 -2.7419  0.3727  0.5567
 8014SOL     OW24940   2.053   2.635   5.161  0.0227 -0.3153 -0.2373
 8014SOL    HW124941   2.019   2.728   5.148 -1.5407 -0.9251 -0.7070
 8014SOL    HW224942   2.129   2.618   5.098  0.0742  0.5127 -0.4029
 8015SOL     OW24943   0.539   0.475   1.596  0.6325 -0.6269 -0.1257
 8015SOL    HW124944   0.532   0.538   1.673  1.1791 -1.0716  0.3014
 8015SOL    HW224945   0.633   0.475   1.561  0.0257  0.8049 -1.8711
 8016SOL     OW24946   1.804   5.547   1.106 -0.2765 -0.1470  0.1384
 8016SOL    HW124947   1.768   5.639   1.092  0.6661  0.0177 -1.4342
 8016SOL    HW224948   1.768   5.510   1.192 -0.0907  1.9594  1.2092
 8017SOL     OW24949   4.281   6.526   5.408 -0.1261 -0.4959 -0.2545
 8017SOL    HW124950   4.303   6.534   5.505  0.9140 -2.3097 -0.2959
 8017SOL    HW224951   4.257   6.431   5.387  0.8056 -0.3950 -1.9790
 8018SOL     OW24952   2.188   0.196   6.536 -0.1368  0.0894  0.4877
 8018SOL    HW124953   2.200   0.140   6.454  1.1179  0.2920  0.5100
 8018SOL    HW224954   2.260   0.176   6.602 -1.5744 -0.6194  1.8957
 8019SOL     OW24955   3.108   6.777   1.716  0.4060  0.4887  0.7695
 8019SOL    HW124956   3.091   6.839   1.640  1.6087 -0.9060 -0.7260
 8019SOL    HW224957   3.139   6.829   1.795  2.6428  1.7850 -0.8190
 8020SOL     OW24958   1.537   6.583   6.639  0.4304  0.7945 -0.0474
 8020SOL    HW124959   1.549   6.543   6.730  0.6605  1.0795  0.0496
 8020SOL    HW224960   1.471   6.658   6.644  0.0886  0.5081 -0.2072
 8021SOL     OW24961   6.916   2.067   5.719 -0.2274 -0.7022  0.0677
 8021SOL    HW124962   6.968   2.061   5.634  0.4442  0.4256  0.3811
 8021SOL    HW224963   6.961   2.131   5.782 -1.1755 -0.8613  0.9392
 8022SOL     OW24964   5.496   4.705   3.174 -0.5194  0.5643 -0.6073
 8022SOL    HW124965   5.577   4.756   3.201 -2.1342  1.9782  1.9366
 8022SOL    HW224966   5.517   4.649   3.094  2.2328  2.7756 -1.5961
 8023SOL     OW24967   4.178   5.227   3.742  0.3857  0.5783 -0.4406
 8023SOL    HW124968   4.178   5.326   3.736  1.1313  0.5189 -1.8557
 8023SOL    HW224969   4.097   5.190   3.697  0.3871  0.5200 -0.3962
 8024SOL     OW24970   7.017   1.859   3.454  0.3123  0.0616 -0.4699
 8024SOL    HW124971   7.114   1.847   3.435  0.4244 -0.4159  0.3592
 8024SOL    HW224972   7.005   1.891   3.548 -0.3761 -0.9559 -0.1905
 8025SOL     OW24973   3.942   4.755   5.684  0.3110  0.5559  0.5997
 8025SOL    HW124974   4.005   4.829   5.660  0.7807  0.0634  0.2895
 8025SOL    HW224975   3.897   4.775   5.771  0.3364  1.2639  0.4498
 8026SOL     OW24976   5.101   3.844   1.346 -0.2330  0.2751 -0.0142
 8026SOL    HW124977   5.175   3.786   1.313  0.9891  1.7209  0.0564
 8026SOL    HW224978   5.034   3.859   1.273  1.1797  1.4648 -1.1400
 8027SOL     OW24979   4.933   6.557   5.284 -0.4114 -0.4537 -0.2001
 8027SOL    HW124980   4.950   6.650   5.251  1.8188 -0.9311 -0.5183
 8027SOL    HW224981   4.836   6.536   5.274 -0.8382  1.5795 -0.7753
 8028SOL     OW24982   3.245   6.412   4.098  0.1682 -0.0777 -0.4435
 8028SOL    HW124983   3.293   6.473   4.161  0.2398  0.3743 -0.9277
 8028SOL    HW224984   3.311   6.372   4.034 -0.3108  2.0963 -2.4042
 8029SOL     OW24985   3.604   6.686   5.058  0.0548 -0.0560  0.4657
 8029SOL    HW124986   3.613   6.669   4.959 -0.6107 -0.6441  0.5018
 8029SOL    HW224987   3.685   6.648   5.104  1.1958  1.6950 -0.0017
 8030SOL     OW24988   5.796   3.340   2.179  0.0854 -0.2920 -0.2071
 8030SOL    HW124989   5.738   3.287   2.118  1.1561  1.8988 -3.4170
 8030SOL    HW224990   5.865   3.390   2.125  1.4881  1.4353  2.8894
 8031SOL     OW24991   3.231   1.069   4.134  0.1116  0.0414  0.1823
 8031SOL    HW124992   3.287   0.990   4.160  1.0532  0.3265 -0.9320
 8031SOL    HW224993   3.163   1.041   4.066  1.2441  0.4034 -1.1447
 8032SOL     OW24994   4.152   6.486   6.795  0.8173  0.1337  0.7476
 8032SOL    HW124995   4.065   6.486   6.746  0.9765 -1.0397  0.4546
 8032SOL    HW224996   4.155   6.409   6.858  0.6291  1.5844  2.6248
 8033SOL     OW24997   3.006   2.678   0.379  0.8017 -0.3141  0.0258
 8033SOL    HW124998   2.991   2.763   0.428  1.7433 -0.1906  0.1254
 8033SOL    HW224999   2.933   2.613   0.401 -0.3512  0.7150 -0.6491
 8034SOL     OW25000   6.634   3.233   1.678 -0.3014 -0.1426  0.4391
 8034SOL    HW125001   6.589   3.186   1.602 -0.1144  1.3050 -0.6151
 8034SOL    HW225002   6.604   3.194   1.764 -2.0831 -0.4994 -0.3048
 8035SOL     OW25003   5.303   0.099   6.275 -0.3809 -0.5504  0.0481
 8035SOL    HW125004   5.356   0.034   6.220 -1.2488 -1.4190  0.2129
 8035SOL    HW225005   5.278   0.178   6.219  1.8567  0.3504  0.2076
 8036SOL     OW25006   4.509   2.021   1.493  0.1179 -0.4976 -0.0639
 8036SOL    HW125007   4.436   2.001   1.427  1.1036 -1.0850 -1.0299
 8036SOL    HW225008   4.488   2.104   1.543 -1.9390 -1.4763  0.7782
 8037SOL     OW25009   3.971   6.788   4.789  0.4121 -0.0636  0.3954
 8037SOL    HW125010   3.966   6.883   4.759  0.2691  0.2626  1.4174
 8037SOL    HW225011   3.879   6.748   4.790  0.2567  0.2893  1.4983
 8038SOL     OW25012   4.182   5.974   6.489 -0.5121 -0.5256  0.3126
 8038SOL    HW125013   4.102   5.953   6.544 -0.5911  0.3103  0.5151
 8038SOL    HW225014   4.156   6.030   6.411  0.0323  0.6953  0.9833
 8039SOL     OW25015   0.199   0.570   0.298  0.6323 -0.7546 -0.4241
 8039SOL    HW125016   0.230   0.557   0.204 -0.5596 -2.3214 -0.6574
 8039SOL    HW225017   0.234   0.656   0.334  1.6570 -0.4483 -2.0691
 8040SOL     OW25018   3.788   6.611   2.407  0.1291  0.3744  0.4485
 8040SOL    HW125019   3.713   6.674   2.428 -1.1610 -0.2677 -1.9078
 8040SOL    HW225020   3.817   6.565   2.491 -1.7312  1.0530  1.5247
 8041SOL     OW25021   0.891   3.743   1.249  0.0313  0.0589 -0.2668
 8041SOL    HW125022   0.898   3.712   1.344  0.2486  1.2343  0.1195
 8041SOL    HW225023   0.875   3.664   1.189  0.5094 -0.7665  0.6665
 8042SOL     OW25024   6.201   5.903   3.300  0.2246 -0.2468 -0.0854
 8042SOL    HW125025   6.238   5.828   3.244 -1.9219 -2.2311  0.9546
 8042SOL    HW225026   6.276   5.953   3.342  1.7812 -1.2390 -1.5264
 8043SOL     OW25027   3.975   3.546   0.461 -0.0145  0.1166 -0.0640
 8043SOL    HW125028   4.045   3.578   0.525  0.4839  0.0576 -0.5657
 8043SOL    HW225029   3.937   3.459   0.494  2.2122 -1.3752 -1.1943
 8044SOL     OW25030   2.507   3.637   1.657 -0.3764  0.8943  1.2588
 8044SOL    HW125031   2.499   3.567   1.728 -0.2596 -0.1074  0.3107
 8044SOL    HW225032   2.603   3.664   1.647  0.2604 -1.7511 -1.0499
 8045SOL     OW25033   4.893   3.460   2.976  0.0271 -0.1590 -0.0196
 8045SOL    HW125034   4.899   3.545   3.028 -0.9339 -0.7353  1.0654
 8045SOL    HW225035   4.875   3.481   2.880 -1.6841  0.8358  0.4824
 8046SOL     OW25036   5.022   6.140   4.143 -0.2783  0.2083  0.1410
 8046SOL    HW125037   5.093   6.169   4.079  0.2033 -3.1137 -1.0058
 8046SOL    HW225038   5.062   6.126   4.234 -0.6040  3.1188  0.8595
 8047SOL     OW25039   3.620   2.669   1.467 -0.1531 -0.2345  0.4973
 8047SOL    HW125040   3.524   2.695   1.475 -0.7742 -2.2042 -0.1003
 8047SOL    HW225041   3.648   2.621   1.550  0.1645 -0.1977  0.4141
 8048SOL     OW25042   4.264   1.320   5.456 -0.0286 -0.2123  0.1574
 8048SOL    HW125043   4.279   1.246   5.392 -1.1390 -0.2899 -0.0380
 8048SOL    HW225044   4.352   1.355   5.489  0.5152 -2.0569  0.7841
 8049SOL     OW25045   6.077   2.638   2.199  0.2129 -0.8619 -0.1076
 8049SOL    HW125046   6.024   2.644   2.283 -0.9583 -0.8849 -0.8186
 8049SOL    HW225047   6.174   2.651   2.219 -0.2355  1.3370  0.9642
 8050SOL     OW25048   6.195   3.511   6.449 -0.6908 -0.6942 -0.0377
 8050SOL    HW125049   6.106   3.529   6.406 -1.1378 -1.6275  0.4574
 8050SOL    HW225050   6.265   3.504   6.378 -1.0407 -0.1103 -0.4492
 8051SOL     OW25051   6.142   6.294   4.595 -0.2531 -0.4329 -0.1060
 8051SOL    HW125052   6.129   6.393   4.590 -1.9804 -0.5394  1.4313
 8051SOL    HW225053   6.099   6.250   4.516 -0.3029 -0.0408 -0.2967
 8052SOL     OW25054   1.654   2.926   1.495 -0.4128 -0.1554 -0.2196
 8052SOL    HW125055   1.706   2.928   1.410 -1.5188  1.5924 -0.9215
 8052SOL    HW225056   1.700   2.982   1.563  0.3324 -1.3370  0.2757
 8053SOL     OW25057   3.360   4.074   3.985  0.2892  0.2271 -0.1283
 8053SOL    HW125058   3.265   4.081   4.013  0.1444 -0.2667 -0.4764
 8053SOL    HW225059   3.368   4.096   3.888  0.6193  0.8397  0.0316
 8054SOL     OW25060   5.521   1.288   6.400  0.1420  0.0824  0.5444
 8054SOL    HW125061   5.501   1.260   6.494  0.2381 -0.3099  0.4502
 8054SOL    HW225062   5.516   1.388   6.393 -0.4721  0.0763  0.8284
 8055SOL     OW25063   1.743   4.585   0.905  0.3922  0.3903 -0.1814
 8055SOL    HW125064   1.824   4.530   0.889  0.1412  0.1707 -0.7393
 8055SOL    HW225065   1.754   4.637   0.989  0.3140 -1.0824  0.7727
 8056SOL     OW25066   3.209   4.549   6.191 -0.2663  0.1156 -0.1843
 8056SOL    HW125067   3.129   4.490   6.181 -1.4953  1.9547 -2.1810
 8056SOL    HW225068   3.192   4.616   6.263  0.2767 -0.6052  0.6417
 8057SOL     OW25069   2.174   0.326   5.183  0.3789  0.1120 -0.4686
 8057SOL    HW125070   2.103   0.256   5.172  2.9211 -2.8778  0.6871
 8057SOL    HW225071   2.200   0.332   5.279  0.5411  2.4868 -0.5938
 8058SOL     OW25072   6.469   2.317   5.867  0.3425 -0.2748  0.1805
 8058SOL    HW125073   6.448   2.220   5.879  1.5524 -0.6445 -0.5019
 8058SOL    HW225074   6.384   2.369   5.863 -0.2991 -1.0966  2.0698
 8059SOL     OW25075   4.096   6.108   1.114 -0.4439 -0.1424 -0.1241
 8059SOL    HW125076   4.060   6.014   1.115 -1.8617  0.3737 -0.3590
 8059SOL    HW225077   4.195   6.105   1.099 -0.6486 -1.5543 -1.5154
 8060SOL     OW25078   6.831   6.621   4.507 -0.1683  0.8579 -0.2603
 8060SOL    HW125079   6.888   6.659   4.580 -1.5373  0.9600  0.8112
 8060SOL    HW225080   6.879   6.629   4.420  1.7968  0.1611  0.6902
 8061SOL     OW25081   3.244   6.932   0.150  0.3499 -0.4781  0.3043
 8061SOL    HW125082   3.155   6.888   0.138  1.5795 -3.1423  0.2369
 8061SOL    HW225083   3.287   6.945   0.061 -0.2303  1.5698  0.2631
 8062SOL     OW25084   2.200   4.684   2.909 -0.5271 -0.0003  0.0612
 8062SOL    HW125085   2.116   4.673   2.962 -0.9133 -2.5059 -0.9300
 8062SOL    HW225086   2.257   4.602   2.918  0.4627  0.4503 -1.5552
 8063SOL     OW25087   0.021   2.743   5.992 -0.6584  0.0949 -0.2824
 8063SOL    HW125088  -0.018   2.705   6.076 -2.2732  0.0052 -1.0536
 8063SOL    HW225089   0.008   2.679   5.917 -1.7736  1.3640 -1.2097
 8064SOL     OW25090   4.745   4.252   4.378 -0.1841 -0.3774  0.2492
 8064SOL    HW125091   4.739   4.273   4.475 -0.0793 -3.1079  0.9396
 8064SOL    HW225092   4.762   4.154   4.366  1.1945  0.0916 -2.5077
 8065SOL     OW25093   0.873   2.086   4.435  0.2288  0.1540  0.1298
 8065SOL    HW125094   0.919   2.112   4.350 -0.6459 -2.5646 -1.3387
 8065SOL    HW225095   0.781   2.127   4.437 -0.0030 -0.3084 -0.6114
 8066SOL     OW25096   6.067   5.758   2.427 -0.4660  0.0114  0.0505
 8066SOL    HW125097   6.088   5.760   2.329 -0.0832  0.7045  0.1388
 8066SOL    HW225098   6.152   5.750   2.479 -0.7606 -1.8801  0.3019
 8067SOL     OW25099   4.248   3.990   5.615  0.4692 -0.2065  0.2960
 8067SOL    HW125100   4.285   3.899   5.630  0.0504 -0.1587  1.6932
 8067SOL    HW225101   4.155   3.995   5.651  0.3737  0.6837 -0.0517
 8068SOL     OW25102   4.477   5.823   4.514  0.3197 -0.2054 -0.3470
 8068SOL    HW125103   4.388   5.786   4.538  0.3893  0.3125  0.7361
 8068SOL    HW225104   4.542   5.747   4.502  0.3240 -0.5032  1.3008
 8069SOL     OW25105   3.226   6.267   4.677  0.0569  0.2739  0.3985
 8069SOL    HW125106   3.289   6.227   4.610 -0.9493  0.7826 -0.9006
 8069SOL    HW225107   3.270   6.346   4.721  0.6546  0.0747  0.1701
 8070SOL     OW25108   3.554   5.909   5.327 -0.2320  0.1886 -0.0370
 8070SOL    HW125109   3.490   5.833   5.336 -0.0795 -0.3486 -2.6585
 8070SOL    HW225110   3.517   5.990   5.372 -0.9712 -1.0708  1.7358
 8071SOL     OW25111   2.828   2.329   1.227 -0.4172  0.4514 -0.0335
 8071SOL    HW125112   2.788   2.268   1.159  0.6030  0.0573 -0.3052
 8071SOL    HW225113   2.926   2.338   1.209 -0.3942  1.4722  0.5406
 8072SOL     OW25114   3.621   3.489   0.480  0.1978 -0.4875 -0.0855
 8072SOL    HW125115   3.711   3.458   0.510 -0.2869 -0.8715  1.0209
 8072SOL    HW225116   3.612   3.588   0.496  0.1626 -0.5815  0.4806
 8073SOL     OW25117   4.974   1.187   3.410  0.0515  0.0710  1.0834
 8073SOL    HW125118   5.047   1.136   3.456 -1.3720 -1.8718  1.3504
 8073SOL    HW225119   4.940   1.134   3.332 -0.1301  1.5877  0.0990
 8074SOL     OW25120   3.415   6.131   0.031  0.5248 -0.6321 -0.5422
 8074SOL    HW125121   3.513   6.128   0.011  0.6189  0.0376 -0.2028
 8074SOL    HW225122   3.398   6.086   0.119 -0.0167 -4.5188 -2.4135
 8075SOL     OW25123   6.296   4.147   3.153 -0.2819  0.1810  0.2028
 8075SOL    HW125124   6.364   4.085   3.115  0.9967  0.6995  1.5711
 8075SOL    HW225125   6.223   4.161   3.086  1.7614  0.9374 -1.9795
 8076SOL     OW25126   3.118   0.712   5.599  0.7747 -0.6574  0.1522
 8076SOL    HW125127   3.212   0.677   5.608  1.3297  0.7545  0.1372
 8076SOL    HW225128   3.121   0.812   5.588 -0.7069 -0.6648 -0.4735
 8077SOL     OW25129   0.437   3.035   2.697  0.4229  0.1517  0.0610
 8077SOL    HW125130   0.433   3.018   2.796  2.6027 -1.4304 -0.0520
 8077SOL    HW225131   0.514   3.097   2.678  1.6370 -1.5586 -0.8182
 8078SOL     OW25132   1.210   3.162   3.314 -0.2589 -0.2894 -0.5712
 8078SOL    HW125133   1.305   3.186   3.291 -0.2836  0.7338  0.2769
 8078SOL    HW225134   1.158   3.246   3.330 -0.7671 -0.8844  1.0649
 8079SOL     OW25135   6.213   6.552   4.909  0.0058 -0.4530  0.0148
 8079SOL    HW125136   6.223   6.647   4.879  1.5201 -0.0616  1.5948
 8079SOL    HW225137   6.179   6.497   4.834 -0.7172  1.3043 -0.9977
 8080SOL     OW25138   0.795   4.003   2.963  0.3212  0.7737  0.0584
 8080SOL    HW125139   0.816   3.980   2.868  0.0529 -1.3402  0.4641
 8080SOL    HW225140   0.816   3.925   3.021  1.8518  2.4861  1.9788
 8081SOL     OW25141   0.622   2.967   4.991 -0.7927  0.4875  0.1674
 8081SOL    HW125142   0.549   3.026   4.955 -0.3013  1.6384  1.0206
 8081SOL    HW225143   0.664   3.010   5.071 -1.0037 -1.4297  1.3753
 8082SOL     OW25144   6.574   3.250   2.621  0.0530  0.5183  0.3063
 8082SOL    HW125145   6.552   3.152   2.616  1.4770  0.1419  0.7270
 8082SOL    HW225146   6.663   3.261   2.665  0.4319  1.9404 -0.7468
 8083SOL     OW25147   6.906   6.164   3.025 -0.1932 -0.4957  0.2528
 8083SOL    HW125148   6.973   6.163   3.100  1.4514 -2.5269 -1.1060
 8083SOL    HW225149   6.838   6.093   3.040 -1.9198  1.3172  1.4360
 8084SOL     OW25150   5.820   1.778   6.368 -0.4512  0.1602 -0.5300
 8084SOL    HW125151   5.900   1.725   6.337 -0.8458  0.2386 -1.7396
 8084SOL    HW225152   5.843   1.825   6.453  0.1238 -1.4269  0.2386
 8085SOL     OW25153   6.673   5.683   6.379  0.0528 -0.0483 -0.4872
 8085SOL    HW125154   6.629   5.637   6.456  0.3728 -0.7117 -0.6877
 8085SOL    HW225155   6.604   5.725   6.320 -0.3547 -1.2950 -0.9427
 8086SOL     OW25156   0.718   4.429   2.400 -0.3135  1.0196  0.1869
 8086SOL    HW125157   0.691   4.514   2.445 -1.7324 -0.1817  1.7201
 8086SOL    HW225158   0.664   4.354   2.436  2.0004 -0.8210  0.0502
 8087SOL     OW25159   5.583   2.511   1.567 -0.1104 -0.0453  0.0697
 8087SOL    HW125160   5.530   2.584   1.611  0.4563  0.8249 -0.6348
 8087SOL    HW225161   5.529   2.471   1.493 -0.2194  0.0479  0.0981
 8088SOL     OW25162   1.791   0.651   1.496  0.0121  0.2381  0.1874
 8088SOL    HW125163   1.798   0.584   1.571 -1.2765 -0.8018 -0.5837
 8088SOL    HW225164   1.868   0.638   1.433  0.4744  0.3601  0.7143
 8089SOL     OW25165   6.516   6.967   4.177 -0.3447  0.1964  0.3036
 8089SOL    HW125166   6.536   7.028   4.101 -2.1422 -0.9913 -1.1951
 8089SOL    HW225167   6.536   7.013   4.264  0.9352  1.8723 -0.8297
 8090SOL     OW25168   2.081   0.179   2.596 -0.2838  0.2454 -0.2208
 8090SOL    HW125169   2.069   0.245   2.671  1.6156 -0.5382  0.8378
 8090SOL    HW225170   2.178   0.160   2.584 -0.7359 -1.6788 -1.1138
 8091SOL     OW25171   3.681   2.241   5.911  0.5988  0.0440  0.2198
 8091SOL    HW125172   3.638   2.327   5.884 -0.4648 -0.2917  0.7882
 8091SOL    HW225173   3.746   2.213   5.841  0.1053  0.7192 -0.5304
 8092SOL     OW25174   1.979   7.009   1.276  0.2995  0.1910 -0.4987
 8092SOL    HW125175   2.044   7.067   1.227  0.4740  1.1683  0.8128
 8092SOL    HW225176   1.923   7.066   1.336 -0.3125 -0.8843 -0.0250
 8093SOL     OW25177   1.205   1.222   4.855 -0.0500  0.0882  0.2522
 8093SOL    HW125178   1.251   1.307   4.829  0.4696  0.7780  3.1271
 8093SOL    HW225179   1.122   1.243   4.906 -0.2124 -1.1310  0.5178
 8094SOL     OW25180   5.925   5.429   3.219 -0.4015  0.1402  0.5873
 8094SOL    HW125181   5.916   5.341   3.266  0.5385 -1.3377 -1.8262
 8094SOL    HW225182   6.008   5.475   3.249 -0.3748 -0.2579  1.1336
 8095SOL     OW25183   3.768   2.981   4.867 -0.0716 -0.0978  0.2293
 8095SOL    HW125184   3.756   2.955   4.962  0.2015  1.6401  0.7774
 8095SOL    HW225185   3.818   2.910   4.818  0.8935 -0.4547  1.7042
 8096SOL     OW25186   3.186   2.028   5.141 -0.6836  0.2731  0.2591
 8096SOL    HW125187   3.176   2.038   5.240 -0.3255  0.5463  0.2701
 8096SOL    HW225188   3.195   2.119   5.100  1.0306  0.1059  0.1763
 8097SOL     OW25189   0.127   4.354   4.028 -0.0128  0.1613 -0.3190
 8097SOL    HW125190   0.135   4.265   4.073 -1.9279  1.6761  3.4604
 8097SOL    HW225191   0.215   4.402   4.032  0.4313 -0.6385 -0.2821
 8098SOL     OW25192   6.728   6.970   1.579  0.8385  0.1217  0.5687
 8098SOL    HW125193   6.733   6.991   1.677  0.5457 -1.0505  0.8499
 8098SOL    HW225194   6.665   7.034   1.535 -0.7378 -0.6826  1.5638
 8099SOL     OW25195   3.375   5.864   4.021  0.2028  0.3085  0.6720
 8099SOL    HW125196   3.330   5.777   4.003  2.1556 -1.0982  2.1796
 8099SOL    HW225197   3.471   5.858   3.996  0.0103  2.7470 -1.0688
 8100SOL     OW25198   0.301   3.489   6.198 -0.3126 -1.0949  0.1186
 8100SOL    HW125199   0.393   3.523   6.174 -0.3263 -2.4221 -2.0722
 8100SOL    HW225200   0.255   3.458   6.115 -3.5447  1.2712  0.8464
 8101SOL     OW25201   1.836   3.892   6.666 -0.0721 -0.2885 -0.2539
 8101SOL    HW125202   1.870   3.873   6.758  0.6274 -0.8537 -0.6142
 8101SOL    HW225203   1.908   3.871   6.600 -0.7959 -0.5274 -0.9750
 8102SOL     OW25204   6.569   1.731   1.031  0.3756  0.0659  0.4338
 8102SOL    HW125205   6.533   1.770   0.946  1.0619 -0.5927 -0.1732
 8102SOL    HW225206   6.546   1.634   1.036  3.9243 -1.0135 -1.1403
 8103SOL     OW25207   5.234   1.947   3.379 -0.2225  0.2919 -0.0147
 8103SOL    HW125208   5.179   1.867   3.401  0.9234 -0.2189  1.0849
 8103SOL    HW225209   5.300   1.925   3.308  0.7742 -0.0529  0.9941
 8104SOL     OW25210   2.946   5.002   0.537  0.1769 -0.4693  0.2692
 8104SOL    HW125211   3.037   5.042   0.536  0.5147 -1.1074  1.8997
 8104SOL    HW225212   2.927   4.959   0.449  0.9120  0.7888 -0.5368
 8105SOL     OW25213   0.792   3.399   2.766 -0.0256 -0.1412 -0.1111
 8105SOL    HW125214   0.827   3.413   2.858  0.1972  1.2891 -0.3896
 8105SOL    HW225215   0.847   3.330   2.719  0.0267 -0.6753  0.7322
 8106SOL     OW25216   5.197   3.798   2.768  0.2421  1.4431  0.2870
 8106SOL    HW125217   5.282   3.744   2.767  0.0795  1.0931  1.8141
 8106SOL    HW225218   5.212   3.884   2.720  0.9482  0.6774 -0.9300
 8107SOL     OW25219   3.600   0.046   5.884 -0.7442 -0.2039  0.3845
 8107SOL    HW125220   3.520   0.104   5.901 -0.2586 -0.1260  2.6897
 8107SOL    HW225221   3.581  -0.047   5.916 -0.0871 -0.2921  0.5264
 8108SOL     OW25222   0.708   4.667   4.199  0.5037 -0.0889  0.3532
 8108SOL    HW125223   0.738   4.672   4.295  0.3401  0.7707  0.3612
 8108SOL    HW225224   0.786   4.641   4.142  0.9738  0.8587  0.5383
 8109SOL     OW25225   1.263   6.043   6.619  0.4911  0.4256  0.0705
 8109SOL    HW125226   1.337   6.110   6.613 -0.4538  1.4829 -0.3681
 8109SOL    HW225227   1.194   6.064   6.549 -0.8830  0.3252  1.3473
 8110SOL     OW25228   2.201   3.099   4.791 -0.5056 -0.5041 -0.2260
 8110SOL    HW125229   2.255   3.035   4.846 -0.4314 -0.3568 -0.1277
 8110SOL    HW225230   2.201   3.069   4.695  2.4658  1.2219 -0.8774
 8111SOL     OW25231   2.160   3.065   4.050 -0.6610  0.6179  0.3590
 8111SOL    HW125232   2.074   3.032   4.009 -0.5047 -1.4896  1.5905
 8111SOL    HW225233   2.187   3.003   4.124  1.9391  1.2429  0.0088
 8112SOL     OW25234   5.941   2.692   0.350  0.2872 -0.5948 -0.3988
 8112SOL    HW125235   5.972   2.749   0.274 -0.7721  1.0925  0.3705
 8112SOL    HW225236   5.871   2.741   0.403  0.4817 -1.9841  1.2566
 8113SOL     OW25237   4.156   5.449   1.054 -0.2158  0.4779 -0.0962
 8113SOL    HW125238   4.240   5.502   1.068  0.0777  0.4729 -1.6472
 8113SOL    HW225239   4.176   5.352   1.066  0.1635  0.4268 -1.0383
 8114SOL     OW25240   7.000   3.099   1.658  0.3250  0.0036  0.3811
 8114SOL    HW125241   7.063   3.105   1.736 -0.0174 -1.6873  0.8100
 8114SOL    HW225242   6.944   3.182   1.655  1.9708  1.1765  0.4784
 8115SOL     OW25243   1.064   0.256   5.804  0.6745 -0.0081  0.9342
 8115SOL    HW125244   1.069   0.345   5.848  1.7316  1.3930 -1.7861
 8115SOL    HW225245   1.151   0.234   5.761 -0.8742 -0.0065 -2.5935
 8116SOL     OW25246   3.251   1.979   6.303  0.5095  0.6604  0.0713
 8116SOL    HW125247   3.313   1.901   6.312 -0.3687 -0.0612  0.1076
 8116SOL    HW225248   3.294   2.051   6.250  0.6757 -0.5800 -1.5424
 8117SOL     OW25249   6.704   5.042   4.577 -1.2704  0.0923  0.8771
 8117SOL    HW125250   6.707   4.946   4.605  3.7242 -0.1156  0.5877
 8117SOL    HW225251   6.728   5.049   4.480 -0.9641  1.6385  1.0433
 8118SOL     OW25252   6.281   3.903   0.065  0.8056  0.1738  0.6836
 8118SOL    HW125253   6.294   4.002   0.076 -0.1923  0.3750  0.1433
 8118SOL    HW225254   6.306   3.877  -0.029  0.1676  0.0813  0.5335
 8119SOL     OW25255   6.505   1.034   3.323  0.1672  0.0457  0.6826
 8119SOL    HW125256   6.494   0.943   3.283 -0.4157  0.3846  0.0452
 8119SOL    HW225257   6.520   1.101   3.250  0.2712  0.5110  1.1233
 8120SOL     OW25258   5.558   3.753   0.134 -0.3848  0.2832 -0.0083
 8120SOL    HW125259   5.477   3.810   0.148 -0.1832  0.0174  2.7554
 8120SOL    HW225260   5.550   3.705   0.047 -3.4960 -0.2213  0.4401
 8121SOL     OW25261   3.802   0.148   1.094 -0.3837  0.2332  0.5383
 8121SOL    HW125262   3.734   0.078   1.070 -1.3727  0.7138  1.8600
 8121SOL    HW225263   3.756   0.232   1.123  0.7451  0.4019  1.9754
 8122SOL     OW25264   0.003   2.982   5.614 -0.8093  0.4429 -0.2392
 8122SOL    HW125265  -0.009   2.917   5.539  3.0883  1.6353 -2.1817
 8122SOL    HW225266   0.038   2.935   5.695 -0.9875 -0.2568 -0.5629
 8123SOL     OW25267   5.903   1.949   6.573 -0.0451  0.2236  0.0765
 8123SOL    HW125268   5.852   2.033   6.591 -1.7986 -0.9721  0.8981
 8123SOL    HW225269   5.936   1.910   6.659  0.6279 -0.0352 -0.2841
 8124SOL     OW25270   5.287   3.355   3.866  0.1211 -0.3886 -0.2111
 8124SOL    HW125271   5.210   3.382   3.924  0.4006 -2.0911  1.0095
 8124SOL    HW225272   5.268   3.380   3.771 -2.1268 -1.1453 -0.0085
 8125SOL     OW25273   1.284   4.763   2.822 -0.3914 -0.0932  0.0456
 8125SOL    HW125274   1.222   4.833   2.788 -0.0711  0.2362  0.1362
 8125SOL    HW225275   1.236   4.676   2.828 -0.5490 -0.0846 -0.9226
 8126SOL     OW25276   1.531   1.721   2.039  0.0404 -0.3867  0.1364
 8126SOL    HW125277   1.605   1.675   2.089  0.6019 -0.9867 -1.1852
 8126SOL    HW225278   1.568   1.800   1.990 -0.4600  0.0751  0.4929
 8127SOL     OW25279   0.108   2.838   5.242  0.6005 -0.2745  0.1797
 8127SOL    HW125280   0.060   2.762   5.197  1.0867 -0.7683  0.4879
 8127SOL    HW225281   0.056   2.922   5.229 -0.9281 -0.9786  1.4262
 8128SOL     OW25282   4.080   4.511   0.726  0.0099  0.2499  0.2166
 8128SOL    HW125283   4.021   4.431   0.715  0.1827  0.2005 -0.3505
 8128SOL    HW225284   4.035   4.576   0.788  0.6051 -1.0048  2.0727
 8129SOL     OW25285   3.036   1.044   0.053 -0.4947 -0.3545 -0.3743
 8129SOL    HW125286   3.042   0.971   0.121  0.2675  0.8253  0.8733
 8129SOL    HW225287   3.127   1.064   0.017 -0.9334 -1.1879 -2.0219
 8130SOL     OW25288   2.599   6.324   0.035 -0.3710 -0.2091 -0.3505
 8130SOL    HW125289   2.666   6.394   0.014  0.3783 -0.6252  0.5752
 8130SOL    HW225290   2.608   6.296   0.131 -2.4026  0.2967  0.0375
 8131SOL     OW25291   4.765   6.279   3.406  0.2530 -0.1409 -1.0752
 8131SOL    HW125292   4.703   6.355   3.388 -0.2323 -0.4773 -0.8585
 8131SOL    HW225293   4.834   6.307   3.473 -0.8722 -0.3388  0.2273
 8132SOL     OW25294   0.025   3.524   6.871  0.0746  0.5357 -0.1832
 8132SOL    HW125295   0.097   3.460   6.896  0.8676  1.6833  0.5689
 8132SOL    HW225296   0.017   3.529   6.772  2.6452  2.1017 -0.3785
 8133SOL     OW25297   4.335   7.006   6.115 -0.3922 -0.0624  0.4002
 8133SOL    HW125298   4.354   6.908   6.127  1.6021  0.3145  0.7136
 8133SOL    HW225299   4.347   7.053   6.203  0.4200  0.6851 -0.0891
 8134SOL     OW25300   5.302   3.482   0.420  0.7772 -0.6897  0.0865
 8134SOL    HW125301   5.297   3.454   0.324  1.3976 -0.5272  0.0019
 8134SOL    HW225302   5.392   3.458   0.457  1.1273  0.6854  0.1726
 8135SOL     OW25303   1.077   1.293   6.972  0.2082  0.0429  0.1939
 8135SOL    HW125304   1.150   1.315   6.907  0.0161 -0.0019 -0.0403
 8135SOL    HW225305   1.098   1.333   7.061  1.1024 -0.9835  0.4566
 8136SOL     OW25306   1.090   4.908   5.415  0.5466  0.1856 -0.1870
 8136SOL    HW125307   1.112   5.000   5.448  0.5842  0.8108 -1.8837
 8136SOL    HW225308   1.172   4.867   5.374  0.5198 -0.6115  0.5252
 8137SOL     OW25309   1.134   1.321   5.322 -0.0673 -0.4394  0.0988
 8137SOL    HW125310   1.206   1.271   5.275  0.6642 -0.0308  0.7662
 8137SOL    HW225311   1.111   1.274   5.407 -1.2146 -1.0466 -0.5300
 8138SOL     OW25312   0.774   2.287   2.950  0.7534 -0.4404 -0.0228
 8138SOL    HW125313   0.833   2.323   2.877  0.5351  0.1526  0.0895
 8138SOL    HW225314   0.745   2.362   3.009  1.3408 -0.9754  0.9811
 8139SOL     OW25315   0.550   2.844   0.458 -0.1839  0.4483  0.0985
 8139SOL    HW125316   0.497   2.881   0.381 -1.4654 -0.6772  0.3976
 8139SOL    HW225317   0.538   2.745   0.461  3.9519 -0.2999 -1.3182
 8140SOL     OW25318   4.680   1.100   4.764  0.0090 -0.2638 -0.1792
 8140SOL    HW125319   4.635   1.039   4.699  0.7219 -0.7253 -0.2433
 8140SOL    HW225320   4.731   1.047   4.831  1.4730  0.2529 -0.8376
 8141SOL     OW25321   2.964   3.082   5.943  0.2612  0.1369  0.9661
 8141SOL    HW125322   2.907   3.018   5.995  0.5067  0.9854  2.3179
 8141SOL    HW225323   3.058   3.048   5.938  0.0137 -0.4757  0.1022
 8142SOL     OW25324   5.346   0.360   0.506  0.1376 -0.2861 -0.5141
 8142SOL    HW125325   5.335   0.373   0.604  0.5109  2.4578 -0.7355
 8142SOL    HW225326   5.261   0.383   0.459  0.3433 -0.2627 -0.8855
 8143SOL     OW25327   1.909   3.004   0.222 -0.5772  0.0518 -0.3490
 8143SOL    HW125328   1.979   3.069   0.192 -0.2727  0.1738  0.5956
 8143SOL    HW225329   1.894   2.936   0.150 -0.2377  0.6244 -0.9784
 8144SOL     OW25330   1.846   6.707   4.139 -0.0276  0.5197  0.5086
 8144SOL    HW125331   1.919   6.712   4.208  0.1572  2.1272  0.2437
 8144SOL    HW225332   1.758   6.694   4.185  0.3597 -1.0153  0.8599
 8145SOL     OW25333   2.211   4.722   3.249 -0.1207  0.4704 -0.3635
 8145SOL    HW125334   2.137   4.657   3.260  1.6391 -1.7848 -1.1411
 8145SOL    HW225335   2.198   4.774   3.165 -0.8595  0.2206 -0.4107
 8146SOL     OW25336   5.080   4.808   5.327  0.2657 -0.3550  0.4143
 8146SOL    HW125337   5.084   4.773   5.233 -0.8158  3.3248 -1.1567
 8146SOL    HW225338   5.122   4.898   5.331  1.3689 -0.8876  3.8263
 8147SOL     OW25339   5.819   6.462   3.824  0.4895  0.4661 -0.0458
 8147SOL    HW125340   5.884   6.516   3.771  1.7075 -0.0647  0.8650
 8147SOL    HW225341   5.732   6.511   3.828  0.2276  0.3662 -2.7653
 8148SOL     OW25342   0.792   4.130   0.981 -0.1305 -0.4162  0.2382
 8148SOL    HW125343   0.892   4.134   0.973 -0.1418  0.2399  0.3804
 8148SOL    HW225344   0.767   4.106   1.075 -0.1184  0.6419  0.5201
 8149SOL     OW25345   3.715   5.436   1.678  0.1106  0.3257  0.3012
 8149SOL    HW125346   3.625   5.458   1.639  0.9142  0.9542 -1.3047
 8149SOL    HW225347   3.772   5.518   1.680  0.1463  0.2962  2.8426
 8150SOL     OW25348   3.725   6.261   1.090 -0.1999  0.1030 -0.2296
 8150SOL    HW125349   3.694   6.250   0.995  1.4255  1.8081 -1.0043
 8150SOL    HW225350   3.652   6.304   1.143 -0.3463  1.1519 -1.2415
 8151SOL     OW25351   3.807   6.204   6.405  0.4111  0.2910 -0.2243
 8151SOL    HW125352   3.824   6.294   6.446  1.9316 -0.8195  1.7660
 8151SOL    HW225353   3.878   6.185   6.337  1.1944 -0.1102  0.6752
 8152SOL     OW25354   4.933   4.666   1.033 -0.4777 -0.1839  0.4606
 8152SOL    HW125355   4.902   4.660   1.127  0.0800  2.3439  0.8840
 8152SOL    HW225356   4.864   4.713   0.978 -1.7933 -3.5152 -0.9959
 8153SOL     OW25357   0.982   0.282   2.765  0.0144 -0.3783  0.2990
 8153SOL    HW125358   1.078   0.274   2.739  0.1909 -1.2901  1.1974
 8153SOL    HW225359   0.967   0.372   2.808  0.8463 -0.8395  1.6295
 8154SOL     OW25360   2.634   4.688   5.687 -0.2754 -0.2542  0.0860
 8154SOL    HW125361   2.668   4.716   5.777  0.9344 -0.0310 -0.4151
 8154SOL    HW225362   2.550   4.635   5.698  1.0295 -2.1541  1.5268
 8155SOL     OW25363   4.937   1.122   5.590  0.2985 -0.5401  0.6801
 8155SOL    HW125364   4.904   1.031   5.564  2.7186 -0.7246 -2.2287
 8155SOL    HW225365   5.032   1.117   5.619  0.1618  0.9707  1.5150
 8156SOL     OW25366   3.201   3.733   6.462  0.0605 -0.4294  0.0109
 8156SOL    HW125367   3.215   3.802   6.391 -0.8320  1.3484  1.4790
 8156SOL    HW225368   3.103   3.715   6.471  0.0194  0.4829  1.7469
 8157SOL     OW25369   1.103   0.711   6.333  0.0504 -0.5562 -0.5819
 8157SOL    HW125370   1.186   0.660   6.355  0.9210  0.5985 -1.1494
 8157SOL    HW225371   1.025   0.667   6.378  0.6695 -2.7050 -1.4635
 8158SOL     OW25372   2.726   5.246   1.109 -0.0278  0.6758  0.0593
 8158SOL    HW125373   2.822   5.232   1.131  0.0810 -0.1687 -0.8563
 8158SOL    HW225374   2.678   5.159   1.114 -0.6673  1.0273  0.1322
 8159SOL     OW25375   1.698   4.302   3.976  0.6039  0.2428  0.1245
 8159SOL    HW125376   1.674   4.397   3.997  1.9352  0.3056  1.4585
 8159SOL    HW225377   1.792   4.297   3.942 -0.1305 -0.3828 -2.0263
 8160SOL     OW25378   3.493   5.806   3.004 -0.4532 -0.1001 -0.1119
 8160SOL    HW125379   3.563   5.876   3.005 -0.4540 -0.0611 -1.4896
 8160SOL    HW225380   3.418   5.833   3.064  1.3853 -0.9143  2.7486
 8161SOL     OW25381   5.000   0.594   4.492 -0.0279 -0.0111  0.1238
 8161SOL    HW125382   4.930   0.662   4.515  1.5012  1.1725  1.5000
 8161SOL    HW225383   5.054   0.572   4.573  0.9422 -1.2056 -0.8041
 8162SOL     OW25384   6.226   1.729   0.640 -0.3727 -0.5787 -0.0776
 8162SOL    HW125385   6.301   1.766   0.696 -0.7816 -1.1073  0.8507
 8162SOL    HW225386   6.263   1.684   0.560  0.4918 -2.6914  1.4262
 8163SOL     OW25387   0.586   3.598   4.519  0.3850  0.4246 -0.7503
 8163SOL    HW125388   0.510   3.611   4.455 -0.8885 -0.7495  0.4586
 8163SOL    HW225389   0.555   3.616   4.612  1.2163 -1.3130 -0.0930
 8164SOL     OW25390   1.518   4.437   4.219  0.2089  0.8167  0.1172
 8164SOL    HW125391   1.478   4.381   4.146 -1.4437 -0.6362  2.0312
 8164SOL    HW225392   1.608   4.400   4.243  0.0306  0.2656 -0.0524
 8165SOL     OW25393   2.013   6.799   6.415  0.3760  0.0990 -1.0893
 8165SOL    HW125394   2.104   6.840   6.408 -0.8367  2.8910 -1.8777
 8165SOL    HW225395   2.004   6.754   6.504  2.0761  0.9338 -0.4337
 8166SOL     OW25396   3.128   5.663   6.806 -0.6187  0.3472 -0.1913
 8166SOL    HW125397   3.039   5.693   6.774 -1.1330  1.9669  2.4326
 8166SOL    HW225398   3.198   5.727   6.776 -0.3248 -0.7108 -1.9155
 8167SOL     OW25399   5.339   3.591   0.830  0.0725 -0.5895 -0.6241
 8167SOL    HW125400   5.318   3.641   0.915 -0.4997 -1.6719 -0.1142
 8167SOL    HW225401   5.425   3.626   0.793 -0.7338  1.3865 -0.7751
 8168SOL     OW25402   5.223   6.211   3.970  0.0889 -0.5457 -0.2562
 8168SOL    HW125403   5.310   6.205   4.017 -0.5230  0.6040  1.1156
 8168SOL    HW225404   5.204   6.126   3.921  1.0956 -1.5026  0.9859
 8169SOL     OW25405   0.713   6.560   0.900  0.3961 -0.5206  0.2339
 8169SOL    HW125406   0.749   6.644   0.940  1.3438  0.7206 -2.9179
 8169SOL    HW225407   0.639   6.525   0.958  0.6671  1.8739  2.2093
 8170SOL     OW25408   3.074   6.154   1.933 -0.2997 -0.0629  0.2623
 8170SOL    HW125409   3.049   6.067   1.976  1.5244  0.3461  2.3599
 8170SOL    HW225410   3.061   6.148   1.834  0.5098 -2.9954  0.2336
 8171SOL     OW25411   2.316   1.510   0.554  0.3869 -0.1450  0.0767
 8171SOL    HW125412   2.382   1.495   0.481  1.4683  1.8351  0.5750
 8171SOL    HW225413   2.353   1.576   0.619 -0.8812 -1.2451  2.0001
 8172SOL     OW25414   5.236   7.014   5.595 -0.0033 -0.3170  0.5780
 8172SOL    HW125415   5.264   6.924   5.630 -0.8530 -0.5516  0.6716
 8172SOL    HW225416   5.247   7.016   5.496 -0.1948 -0.6017  0.5506
 8173SOL     OW25417   1.455   0.584   2.377  0.1095 -0.2219 -0.3326
 8173SOL    HW125418   1.452   0.598   2.476  1.0544  0.8161 -0.4301
 8173SOL    HW225419   1.380   0.634   2.334  0.5561  0.5254 -0.2544
 8174SOL     OW25420   6.972   2.717   0.106 -0.4170  0.3925 -0.9805
 8174SOL    HW125421   6.903   2.774   0.060 -1.3022 -0.2946 -0.5426
 8174SOL    HW225422   7.035   2.679   0.038 -0.5442  0.9355 -1.4038
 8175SOL     OW25423   5.402   1.885   2.792  0.0297 -0.0482 -0.3700
 8175SOL    HW125424   5.364   1.940   2.718  0.9516 -1.2988 -1.8322
 8175SOL    HW225425   5.493   1.852   2.766  0.4368 -0.4191  1.3805
 8176SOL     OW25426   1.067   3.239   4.239 -0.4710 -0.4237 -0.1653
 8176SOL    HW125427   1.124   3.301   4.184 -0.4790 -1.4605 -1.4120
 8176SOL    HW225428   1.051   3.279   4.329  0.1681  1.0137 -0.6530
 8177SOL     OW25429   2.764   1.726   6.377  0.2290  0.4847  0.5663
 8177SOL    HW125430   2.850   1.768   6.348  0.7063  1.3590  3.0004
 8177SOL    HW225431   2.774   1.626   6.378  0.4077  0.4489 -1.3846
 8178SOL     OW25432   5.833   2.303   0.145  0.0665 -0.0837  0.2826
 8178SOL    HW125433   5.858   2.209   0.167  1.6931  0.4283  0.8144
 8178SOL    HW225434   5.913   2.362   0.158 -0.6922  1.2489 -0.8564
 8179SOL     OW25435   2.464   0.199   3.811 -0.0052  0.3095  0.3063
 8179SOL    HW125436   2.545   0.172   3.758  0.1161  2.0313 -0.4758
 8179SOL    HW225437   2.419   0.118   3.847  1.3038 -0.7731 -0.3856
 8180SOL     OW25438   3.711   2.069   0.658  0.5162 -0.0815 -0.1737
 8180SOL    HW125439   3.705   2.008   0.579 -1.2057  0.8819 -0.8518
 8180SOL    HW225440   3.633   2.052   0.719 -1.1892  2.6527 -1.3777
 8181SOL     OW25441   3.926   2.194   3.025  0.8332  0.1408 -0.3674
 8181SOL    HW125442   3.867   2.188   3.106  0.2964  1.1056 -0.6695
 8181SOL    HW225443   3.877   2.156   2.946  0.9313  0.2102 -0.4607
 8182SOL     OW25444   3.791   2.896   4.137 -0.5221  0.2394 -0.3811
 8182SOL    HW125445   3.723   2.889   4.210 -0.1492  1.4508  0.1082
 8182SOL    HW225446   3.749   2.868   4.050 -1.4006  0.1785  0.0481
 8183SOL     OW25447   6.990   6.582   0.293 -0.5170  0.4029 -0.3056
 8183SOL    HW125448   7.041   6.563   0.209 -0.8422 -0.8018 -0.2430
 8183SOL    HW225449   6.955   6.497   0.331 -0.0904  0.8887  1.2517
 8184SOL     OW25450   3.224   3.095   0.639 -0.0449 -0.4970  0.3184
 8184SOL    HW125451   3.318   3.119   0.614  1.0132 -2.2646  2.3172
 8184SOL    HW225452   3.191   3.159   0.707 -0.7278  0.7566 -1.1424
 8185SOL     OW25453   0.840   5.434   2.235  0.2022 -0.1446 -0.3275
 8185SOL    HW125454   0.834   5.410   2.332  1.3478  0.8650  0.0294
 8185SOL    HW225455   0.749   5.451   2.199 -0.1832  0.3918  0.8356
 8186SOL     OW25456   0.507   1.300   6.996  0.3794  0.1462 -0.4194
 8186SOL    HW125457   0.603   1.300   7.025 -0.2367 -1.7999  1.9046
 8186SOL    HW225458   0.481   1.209   6.965 -1.0785  0.2854  0.3159
 8187SOL     OW25459   2.774   4.252   5.339 -0.5508  0.1530 -0.1031
 8187SOL    HW125460   2.701   4.184   5.349 -0.5367 -0.0900 -1.4795
 8187SOL    HW225461   2.860   4.206   5.317 -0.9173  0.6647 -2.9162
 8188SOL     OW25462   2.371   4.062   0.125  0.1692 -0.2393 -0.5830
 8188SOL    HW125463   2.429   4.000   0.071  0.5588  0.2365 -0.7173
 8188SOL    HW225464   2.275   4.035   0.113  0.3497 -1.0055 -0.3950
 8189SOL     OW25465   2.758   0.784   1.875 -0.0453  0.2390  0.1490
 8189SOL    HW125466   2.779   0.881   1.884 -2.3262  0.6124  2.8081
 8189SOL    HW225467   2.727   0.764   1.782  0.0471  2.1312 -0.3199
 8190SOL     OW25468   4.318   2.767   6.397 -0.5729 -0.8168 -0.0935
 8190SOL    HW125469   4.221   2.767   6.422 -0.1562  0.1794  1.7431
 8190SOL    HW225470   4.363   2.686   6.436 -0.2460 -0.1048  1.0633
 8191SOL     OW25471   0.052   6.497   1.714  0.4414  0.6402  0.3994
 8191SOL    HW125472   0.086   6.441   1.790 -1.6612 -0.2535  0.7630
 8191SOL    HW225473   0.005   6.438   1.648  0.9930  1.5990 -0.9014
 8192SOL     OW25474   3.672   4.991   5.201  0.3898 -0.4878  0.0236
 8192SOL    HW125475   3.663   5.090   5.208  0.1505 -0.4195 -1.1070
 8192SOL    HW225476   3.682   4.952   5.293 -1.5315  0.3696  0.6358
 8193SOL     OW25477   0.360   3.268   5.827  0.3213 -0.2921  0.3968
 8193SOL    HW125478   0.424   3.297   5.898  0.1767 -0.2767  0.5203
 8193SOL    HW225479   0.302   3.195   5.862  0.3240 -0.3602  0.2587
 8194SOL     OW25480   0.383   7.012   0.839 -0.0450 -0.1306  0.4480
 8194SOL    HW125481   0.361   6.952   0.916 -1.0674  0.3559  0.5535
 8194SOL    HW225482   0.479   7.001   0.815  0.1011 -0.8546  1.2933
 8195SOL     OW25483   6.209   0.057   2.521 -0.0904  0.0748  0.3468
 8195SOL    HW125484   6.250   0.135   2.569 -1.1244  1.2464 -0.6406
 8195SOL    HW225485   6.111   0.071   2.512  0.1970  0.6117 -3.3116
 8196SOL     OW25486   4.436   1.580   6.803  0.9189  0.6615 -0.0722
 8196SOL    HW125487   4.372   1.516   6.845 -0.0859  1.0917 -0.8842
 8196SOL    HW225488   4.502   1.531   6.747 -0.1765  0.3390 -1.1289
 8197SOL     OW25489   1.775   5.085   0.561 -0.1072 -0.0126 -0.5957
 8197SOL    HW125490   1.818   5.168   0.524 -0.7891  0.2857 -0.7256
 8197SOL    HW225491   1.679   5.083   0.535  0.1634 -1.4297 -1.5681
 8198SOL     OW25492   0.029   1.320   2.461  0.4037  0.1518 -0.5784
 8198SOL    HW125493   0.104   1.311   2.526  0.3041  2.2601 -0.0815
 8198SOL    HW225494  -0.058   1.322   2.511  0.1181 -0.7729 -1.0212
 8199SOL     OW25495   1.121   2.868   6.025 -0.3518 -0.0407 -0.2898
 8199SOL    HW125496   1.028   2.900   6.007 -0.5635 -0.5020 -0.0330
 8199SOL    HW225497   1.152   2.812   5.948  0.4083  1.6047 -1.2171
 8200SOL     OW25498   2.956   6.991   4.900 -0.0684  0.6769 -0.2959
 8200SOL    HW125499   2.936   6.904   4.855  0.2968  0.7522 -0.6088
 8200SOL    HW225500   3.027   6.977   4.969  0.9877  0.9618 -1.2815
 8201SOL     OW25501   6.618   0.578   5.466  0.2252 -0.1362 -0.4114
 8201SOL    HW125502   6.626   0.676   5.449 -0.7884  0.2063  0.9408
 8201SOL    HW225503   6.688   0.529   5.413  1.6494  1.4257 -0.0530
 8202SOL     OW25504   4.182   5.872   4.252  0.0401 -0.2440  0.2875
 8202SOL    HW125505   4.083   5.876   4.263 -0.2246 -1.3696 -1.4079
 8202SOL    HW225506   4.216   5.964   4.230 -0.7189  0.0209  0.1792
 8203SOL     OW25507   7.013   0.403   2.736 -0.4287  0.3175  0.0013
 8203SOL    HW125508   6.947   0.432   2.805  0.4390  0.9556  0.5784
 8203SOL    HW225509   7.021   0.473   2.666  0.4443  0.7643  0.5250
 8204SOL     OW25510   4.101   3.683   5.348  0.3665 -0.5848 -0.6561
 8204SOL    HW125511   4.058   3.700   5.259  1.2649 -0.5840 -1.1043
 8204SOL    HW225512   4.200   3.688   5.338  0.6266 -3.3263 -0.2366
 8205SOL     OW25513   6.852   5.615   1.113  0.2237 -0.1327  0.3700
 8205SOL    HW125514   6.888   5.692   1.166  0.9781  0.4414 -0.9507
 8205SOL    HW225515   6.854   5.533   1.169  0.0478  0.6585  1.5770
 8206SOL     OW25516   1.650   3.063   0.209  0.0647 -0.2959 -0.8531
 8206SOL    HW125517   1.746   3.042   0.226 -0.2989  0.2092  2.3607
 8206SOL    HW225518   1.636   3.162   0.220 -1.0839 -0.5708  0.2015
 8207SOL     OW25519   6.836   0.020   0.820  0.0025  0.2321 -0.1280
 8207SOL    HW125520   6.780   0.099   0.846  0.4239  0.4041  0.2536
 8207SOL    HW225521   6.892  -0.008   0.897  1.2319  0.7174 -0.8097
 8208SOL     OW25522   5.481   3.704   2.807 -0.3168  0.0468  0.2926
 8208SOL    HW125523   5.498   3.615   2.850 -0.0163 -0.0613 -0.0478
 8208SOL    HW225524   5.551   3.769   2.837 -0.1122 -0.0263 -0.0218
 8209SOL     OW25525   6.417   3.567   5.833 -0.1675  0.5213 -0.4610
 8209SOL    HW125526   6.327   3.538   5.864 -0.7600  1.1843 -1.5204
 8209SOL    HW225527   6.484   3.551   5.906 -1.0274 -0.4983  0.1382
 8210SOL     OW25528   5.263   2.116   5.785  0.2189 -0.5064  0.2234
 8210SOL    HW125529   5.328   2.151   5.718 -0.5974  1.8785  0.5967
 8210SOL    HW225530   5.198   2.055   5.739 -0.4062  1.1680 -1.2680
 8211SOL     OW25531   3.302   5.929   1.328  0.1809 -0.0654  0.2799
 8211SOL    HW125532   3.345   6.016   1.304 -0.3571  0.0041 -0.4567
 8211SOL    HW225533   3.211   5.947   1.367  0.4023 -0.2596  0.8961
 8212SOL     OW25534   4.292   4.144   1.465  0.4040 -0.2902  0.2757
 8212SOL    HW125535   4.207   4.137   1.413  0.4181  0.1891  0.1806
 8212SOL    HW225536   4.276   4.115   1.559  0.5088 -1.6883 -0.1224
 8213SOL     OW25537   3.952   5.006   6.810  0.8245  0.0356 -0.5527
 8213SOL    HW125538   3.896   5.088   6.820  1.7994  0.6119  0.3816
 8213SOL    HW225539   4.012   5.016   6.730  1.7177  0.7354  0.1776
 8214SOL     OW25540   3.314   5.849   6.733 -0.3524  0.0684 -0.1030
 8214SOL    HW125541   3.278   5.934   6.770 -0.3160  0.6106 -1.2688
 8214SOL    HW225542   3.411   5.859   6.711 -0.1692 -0.5033  0.4215
 8215SOL     OW25543   4.662   4.178   6.356  0.0823 -0.9177 -0.5336
 8215SOL    HW125544   4.661   4.097   6.298 -0.3642 -0.8712 -0.5869
 8215SOL    HW225545   4.747   4.179   6.409  0.2953 -1.1818 -0.8680
 8216SOL     OW25546   5.559   2.201   0.142 -0.1115 -0.6451  0.4742
 8216SOL    HW125547   5.494   2.240   0.077  0.5831  0.2082  0.2806
 8216SOL    HW225548   5.651   2.209   0.105  0.1683 -1.2718  1.0310
 8217SOL     OW25549   3.482   5.171   2.573 -1.0035  0.0173 -0.3083
 8217SOL    HW125550   3.497   5.096   2.509 -0.0158 -0.1535  0.1016
 8217SOL    HW225551   3.434   5.137   2.654  0.4010 -0.4507  0.3711
 8218SOL     OW25552   2.224   3.987   6.185  0.3574  0.5060  0.8533
 8218SOL    HW125553   2.173   4.055   6.239 -0.7300  0.6300 -0.2786
 8218SOL    HW225554   2.266   4.032   6.106  1.9218  0.3224  1.5600
 8219SOL     OW25555   5.850   5.313   6.150 -0.0092  0.1566  0.7883
 8219SOL    HW125556   5.852   5.359   6.061 -0.2631  1.2648  1.3393
 8219SOL    HW225557   5.831   5.380   6.222  0.6056 -0.6476  1.7273
 8220SOL     OW25558   3.923   4.084   5.076 -0.4465  0.6969 -0.2339
 8220SOL    HW125559   3.989   4.135   5.131 -1.3456 -0.8059  2.4313
 8220SOL    HW225560   3.831   4.116   5.097 -0.8069  0.2445 -1.0739
 8221SOL     OW25561   1.374   4.614   0.299 -0.0533  0.0453 -0.2234
 8221SOL    HW125562   1.443   4.604   0.228  0.8842 -1.9031  0.8554
 8221SOL    HW225563   1.404   4.683   0.365  0.8379 -0.6522  0.1361
 8222SOL     OW25564   0.865   4.411   2.155 -0.1775  0.2908 -0.0172
 8222SOL    HW125565   0.898   4.503   2.173 -1.9186  0.7815  0.8384
 8222SOL    HW225566   0.822   4.373   2.237  1.8768 -1.9396  0.1521
 8223SOL     OW25567   2.737   0.836   3.908  0.0906  0.3795 -0.3305
 8223SOL    HW125568   2.745   0.923   3.858 -0.6057  0.5668 -0.1291
 8223SOL    HW225569   2.725   0.855   4.005  1.0778  0.0218 -0.1244
 8224SOL     OW25570   2.467   0.512   0.850  0.6413 -0.4087  0.0631
 8224SOL    HW125571   2.409   0.592   0.833  2.2460  0.6625 -0.5640
 8224SOL    HW225572   2.410   0.429   0.850 -0.8369  0.5634 -0.7868
 8225SOL     OW25573   4.000   1.373   2.404 -0.0179 -0.3439  0.1324
 8225SOL    HW125574   4.089   1.395   2.366 -0.2904 -1.0101 -0.9324
 8225SOL    HW225575   3.998   1.398   2.501  1.1330  0.1666  0.0415
 8226SOL     OW25576   5.467   5.861   3.833  0.4955  0.1823  0.1606
 8226SOL    HW125577   5.510   5.786   3.784  0.4507  0.3866 -0.1958
 8226SOL    HW225578   5.389   5.826   3.885 -0.1454  0.1360 -0.8027
 8227SOL     OW25579   1.442   5.765   5.463  0.1116 -0.3192  0.0427
 8227SOL    HW125580   1.410   5.859   5.473 -0.7041 -0.4746 -0.8767
 8227SOL    HW225581   1.378   5.703   5.509  1.7811 -0.3163  2.5463
 8228SOL     OW25582   1.285   4.821   0.772 -0.4316  0.3959  0.1545
 8228SOL    HW125583   1.280   4.737   0.718 -0.6711  0.7880 -0.4428
 8228SOL    HW225584   1.300   4.797   0.868 -1.6201 -0.3849  0.1760
 8229SOL     OW25585   2.706   2.982   0.075 -0.0196 -0.2186 -0.0102
 8229SOL    HW125586   2.714   3.053   0.005 -0.1105 -0.2572 -0.0589
 8229SOL    HW225587   2.795   2.969   0.119 -0.5169  1.7400  1.7559
 8230SOL     OW25588   5.551   4.878   1.256 -0.0215 -0.0902 -0.5141
 8230SOL    HW125589   5.480   4.833   1.311 -0.2708 -0.0052 -0.7582
 8230SOL    HW225590   5.510   4.911   1.171  0.6314 -1.3988 -1.3673
 8231SOL     OW25591   5.564   4.008   2.942 -0.0928  0.5334  0.4455
 8231SOL    HW125592   5.487   4.012   2.878  1.5486  0.1269 -1.6544
 8231SOL    HW225593   5.531   3.976   3.031 -2.3471  0.4806 -0.3263
 8232SOL     OW25594   2.993   5.456   3.488  0.2984 -0.0963 -0.1242
 8232SOL    HW125595   2.990   5.411   3.399  1.2200 -0.1947 -0.1147
 8232SOL    HW225596   3.033   5.394   3.555  1.5113  0.6890 -0.0972
 8233SOL     OW25597   5.289   4.448   1.589  0.0459  0.2167 -0.1996
 8233SOL    HW125598   5.245   4.360   1.605  1.8569 -0.8360 -0.7413
 8233SOL    HW225599   5.234   4.502   1.525 -2.1268  0.3801  1.6772
 8234SOL     OW25600   4.007   3.755   4.796  0.2071 -0.1556 -0.0216
 8234SOL    HW125601   3.990   3.851   4.774  2.0059 -0.5403 -4.0271
 8234SOL    HW225602   3.921   3.705   4.797 -0.5708  1.1342  0.1543
 8235SOL     OW25603   1.384   5.261   6.772 -0.6238 -0.5556  0.4163
 8235SOL    HW125604   1.455   5.332   6.771  0.4714 -1.6124  0.2031
 8235SOL    HW225605   1.329   5.271   6.855 -1.4199  1.3815 -0.2698
 8236SOL     OW25606   4.388   1.432   3.490  0.5380 -0.1649 -0.0730
 8236SOL    HW125607   4.440   1.385   3.561  0.1131 -1.9207 -0.8724
 8236SOL    HW225608   4.388   1.377   3.407 -0.8521  0.7955 -0.7410
 8237SOL     OW25609   6.408   5.765   2.859 -0.2638  0.1181 -0.7836
 8237SOL    HW125610   6.493   5.762   2.913 -1.4612 -0.0599  1.1647
 8237SOL    HW225611   6.340   5.820   2.907 -1.7324 -0.9002 -1.6378
 8238SOL     OW25612   4.082   6.605   4.606 -0.7101 -0.0943 -0.4434
 8238SOL    HW125613   3.995   6.647   4.634 -0.7428  0.0472 -0.7483
 8238SOL    HW225614   4.157   6.670   4.623 -0.8836  0.5507 -1.9368
 8239SOL     OW25615   6.585   6.591   2.293 -0.0323 -0.3400 -0.8852
 8239SOL    HW125616   6.528   6.651   2.237  0.5256 -0.5508 -1.7010
 8239SOL    HW225617   6.627   6.521   2.235  0.9744 -0.2464 -0.2982
 8240SOL     OW25618   4.133   3.555   4.651  0.2632  0.0665  0.4461
 8240SOL    HW125619   4.116   3.632   4.712  0.8989 -0.3580  1.1855
 8240SOL    HW225620   4.089   3.473   4.688 -1.1986  0.2466 -0.8155
 8241SOL     OW25621   6.642   0.650   0.096 -0.8850  0.1947  0.2950
 8241SOL    HW125622   6.737   0.655   0.129  0.6368  0.5926 -3.6601
 8241SOL    HW225623   6.610   0.742   0.073 -2.1611  0.0093  1.1998
 8242SOL     OW25624   1.605   3.963   5.954 -0.0399  0.1815  1.1431
 8242SOL    HW125625   1.559   3.888   5.907 -0.0151  0.3560  0.8394
 8242SOL    HW225626   1.559   4.049   5.934  2.2163  0.8673 -1.7709
 8243SOL     OW25627   4.439   3.200   1.495 -0.3439 -0.1341  0.0460
 8243SOL    HW125628   4.386   3.160   1.570 -1.9341  2.2309  0.2942
 8243SOL    HW225629   4.533   3.215   1.525 -0.1527 -2.0293  0.4895
 8244SOL     OW25630   4.124   0.607   1.096  0.5823 -0.8331  0.3124
 8244SOL    HW125631   4.097   0.599   1.000 -0.0223  0.8733  0.3043
 8244SOL    HW225632   4.058   0.664   1.144  1.4029 -0.8720  1.5184
 8245SOL     OW25633   0.397   0.178   5.012 -0.6095  0.7050  1.1325
 8245SOL    HW125634   0.468   0.244   5.037 -1.9022  2.8920 -0.5864
 8245SOL    HW225635   0.390   0.172   4.912 -0.9754 -1.6250  1.2339
 8246SOL     OW25636   3.803   1.404   1.375 -0.0956  0.7130 -0.4448
 8246SOL    HW125637   3.749   1.485   1.353 -0.5014  0.7509  0.6583
 8246SOL    HW225638   3.877   1.395   1.309  2.0899  3.9069  1.3133
 8247SOL     OW25639   5.330   0.779   3.385  0.2207  0.5279 -0.5981
 8247SOL    HW125640   5.279   0.704   3.344  0.7461  0.0370 -0.3739
 8247SOL    HW225641   5.301   0.866   3.345 -1.3691  0.3498  0.0986
 8248SOL     OW25642   2.319   6.124   0.578  0.0103 -0.3965  0.1569
 8248SOL    HW125643   2.338   6.058   0.650  1.0681  0.8577  1.0706
 8248SOL    HW225644   2.332   6.081   0.489  2.2913 -1.0261  0.7296
 8249SOL     OW25645   0.694   1.812   0.328  0.0794  0.4630  0.1042
 8249SOL    HW125646   0.749   1.855   0.400  0.5076  0.4568 -0.2110
 8249SOL    HW225647   0.613   1.868   0.310  1.6510  2.2996 -1.7297
 8250SOL     OW25648   4.791   4.959   6.300 -0.3068 -0.5014 -0.0026
 8250SOL    HW125649   4.798   5.011   6.385  1.0888 -0.5268 -0.0872
 8250SOL    HW225650   4.880   4.956   6.254 -1.1624  0.0648 -1.8067
 8251SOL     OW25651   3.159   3.014   1.653  0.5250 -0.3250  0.0885
 8251SOL    HW125652   3.133   3.026   1.557 -0.4742  0.1228  0.4076
 8251SOL    HW225653   3.257   3.029   1.662  0.4895  0.5091 -0.7271
 8252SOL     OW25654   3.705   3.452   1.069 -0.1165  0.3111  0.4628
 8252SOL    HW125655   3.649   3.414   1.143  0.5055 -0.8565  0.3637
 8252SOL    HW225656   3.785   3.497   1.108 -0.6966  1.2785  0.5665
 8253SOL     OW25657   3.851   5.729   6.590  0.4137 -0.2719  0.6494
 8253SOL    HW125658   3.823   5.745   6.495 -1.2061  0.8519  1.2711
 8253SOL    HW225659   3.788   5.777   6.652 -0.1141 -2.9984  2.4164
 8254SOL     OW25660   0.275   2.792   3.688  0.5871  0.4352 -0.1628
 8254SOL    HW125661   0.203   2.854   3.718  0.4505  0.9091 -1.3745
 8254SOL    HW225662   0.250   2.753   3.599  1.4504 -0.0250 -0.2133
 8255SOL     OW25663   3.167   2.814   6.579 -0.0450 -0.2530 -0.3314
 8255SOL    HW125664   3.228   2.814   6.500 -0.8065  1.9005 -1.0066
 8255SOL    HW225665   3.138   2.720   6.600  1.3930 -1.0176 -1.6175
 8256SOL     OW25666   5.804   6.960   6.613 -0.6744  0.0061  0.2720
 8256SOL    HW125667   5.735   6.985   6.544 -0.0674  2.0445  0.3218
 8256SOL    HW225668   5.760   6.953   6.703 -1.3484 -1.9842 -0.1582
 8257SOL     OW25669   3.637   6.842   1.375  0.1962 -0.3746 -0.0727
 8257SOL    HW125670   3.639   6.916   1.308  1.0482 -1.0574 -0.8348
 8257SOL    HW225671   3.575   6.770   1.343  1.9290 -1.5024 -1.0586
 8258SOL     OW25672   0.224   0.826   2.433  0.7833 -0.0472  0.2743
 8258SOL    HW125673   0.234   0.794   2.339  1.2938 -1.2173  0.7205
 8258SOL    HW225674   0.184   0.918   2.432  0.9281  0.0231 -1.0860
 8259SOL     OW25675   5.088   0.075   0.443 -0.2227 -0.2992 -0.8922
 8259SOL    HW125676   5.082   0.004   0.514 -0.8536  0.2165 -0.4285
 8259SOL    HW225677   5.002   0.125   0.438  1.0932  2.3858  0.8302
 8260SOL     OW25678   6.021   1.793   4.871 -0.2212 -0.3294 -0.0017
 8260SOL    HW125679   5.935   1.836   4.899 -0.7571 -2.2153  1.4642
 8260SOL    HW225680   6.093   1.816   4.937 -0.6240 -1.9411  1.0586
 8261SOL     OW25681   5.416   6.815   6.515 -0.3128 -0.1914  0.0452
 8261SOL    HW125682   5.366   6.889   6.561 -1.0882 -0.1978 -0.7496
 8261SOL    HW225683   5.493   6.853   6.465 -0.8739  0.1246 -0.5903
 8262SOL     OW25684   5.247   0.455   3.777 -0.2215 -0.2235 -0.5901
 8262SOL    HW125685   5.253   0.489   3.683 -1.9662  0.5391 -0.4728
 8262SOL    HW225686   5.338   0.444   3.815  0.4635  1.8956 -1.5112
 8263SOL     OW25687   4.420   2.449   4.306  0.5361  0.2457  0.6584
 8263SOL    HW125688   4.356   2.459   4.230  0.0307 -1.3685  0.8508
 8263SOL    HW225689   4.505   2.409   4.273  0.3318 -0.4193  0.9290
 8264SOL     OW25690   3.226   1.806   2.286 -0.0493 -0.2166  0.1028
 8264SOL    HW125691   3.234   1.809   2.186 -1.0244 -2.2280 -0.0798
 8264SOL    HW225692   3.150   1.865   2.314 -0.1907 -0.1492 -0.4066
 8265SOL     OW25693   4.572   2.982   6.032 -0.3024 -0.0818 -0.6547
 8265SOL    HW125694   4.558   2.945   5.940 -0.8528 -1.0783 -0.1852
 8265SOL    HW225695   4.496   2.956   6.091  0.1936  0.2772  0.1706
 8266SOL     OW25696   0.683   0.884   5.366 -0.2798  0.2630 -0.6524
 8266SOL    HW125697   0.724   0.952   5.428 -0.2242 -1.0712  0.8352
 8266SOL    HW225698   0.667   0.926   5.277  2.5838  1.3708 -0.7377
 8267SOL     OW25699   6.777   1.394   0.946 -0.0349  0.2010  0.0944
 8267SOL    HW125700   6.810   1.483   0.915  0.2294  0.7864  1.9613
 8267SOL    HW225701   6.787   1.387   1.045 -1.4423 -1.3395  0.1734
 8268SOL     OW25702   5.422   4.182   6.520 -0.1011  0.0394 -0.1524
 8268SOL    HW125703   5.461   4.103   6.473 -2.5791 -0.9868 -0.6940
 8268SOL    HW225704   5.488   4.257   6.522  0.9335 -0.6379 -3.2873
 8269SOL     OW25705   6.026   2.723   3.920 -0.4917  0.0897  0.3753
 8269SOL    HW125706   6.033   2.786   3.843 -0.7388 -0.5178 -0.1573
 8269SOL    HW225707   5.969   2.764   3.991  0.9958  1.2962  0.9163
 8270SOL     OW25708   4.768   6.750   4.891 -0.0689  0.5091 -0.1265
 8270SOL    HW125709   4.750   6.737   4.988  1.0655  1.0244  0.1694
 8270SOL    HW225710   4.720   6.679   4.838  0.6989 -0.8565  0.9324
 8271SOL     OW25711   2.363   3.475   0.462  0.1414 -0.3275 -0.7997
 8271SOL    HW125712   2.343   3.421   0.544 -0.5931 -0.8799 -1.3267
 8271SOL    HW225713   2.367   3.415   0.383  0.5235  0.2442 -1.2204
 8272SOL     OW25714   2.452   0.768   1.564 -0.1335 -0.4295  0.1497
 8272SOL    HW125715   2.427   0.834   1.493 -1.1955 -1.3425 -0.3679
 8272SOL    HW225716   2.396   0.685   1.553 -0.1021 -0.7148  1.8713
 8273SOL     OW25717   6.564   1.062   1.069  0.2909  0.0539  0.3690
 8273SOL    HW125718   6.501   1.140   1.068  0.3122  0.0805 -0.9243
 8273SOL    HW225719   6.619   1.064   1.153 -1.9451 -0.4274  1.9242
 8274SOL     OW25720   3.325   1.852   0.673 -0.4281 -0.3971 -0.6102
 8274SOL    HW125721   3.383   1.783   0.715  0.1256  0.3344 -0.1497
 8274SOL    HW225722   3.285   1.816   0.589 -2.9503 -2.5597  1.3311
 8275SOL     OW25723   2.567   6.622   4.266  0.1047  0.7049  0.1120
 8275SOL    HW125724   2.569   6.639   4.364  1.0725  1.8032 -0.0765
 8275SOL    HW225725   2.501   6.550   4.246 -2.1762  2.3805  1.2732
 8276SOL     OW25726   2.824   4.732   0.619  0.0575  0.2903  0.4685
 8276SOL    HW125727   2.868   4.822   0.607 -1.6371  1.0579 -0.2555
 8276SOL    HW225728   2.734   4.745   0.660 -0.4515 -1.0502 -0.1947
 8277SOL     OW25729   5.196   6.047   6.908 -0.2822 -0.6532  0.5986
 8277SOL    HW125730   5.265   6.044   6.836 -0.0677 -2.7298  0.8169
 8277SOL    HW225731   5.172   5.953   6.935 -2.2542  0.0315  1.4333
 8278SOL     OW25732   6.328   2.932   0.714  0.1002  0.2128  0.1922
 8278SOL    HW125733   6.382   2.918   0.798  1.2110  0.9514 -0.3767
 8278SOL    HW225734   6.240   2.887   0.724  1.1004 -1.7043  0.8586
 8279SOL     OW25735   6.014   6.296   3.236 -0.3056 -0.0809  0.3304
 8279SOL    HW125736   6.006   6.357   3.315  1.6848  0.7560 -0.0431
 8279SOL    HW225737   6.006   6.201   3.266  2.1620  0.1122  1.8933
 8280SOL     OW25738   6.920   6.665   4.017  0.4199  0.6803 -0.0782
 8280SOL    HW125739   6.991   6.727   3.985  0.4505  1.3008  1.1104
 8280SOL    HW225740   6.931   6.650   4.116 -1.9622  2.0103  0.4771
 8281SOL     OW25741   3.710   2.464   6.140 -0.0670  0.6331 -0.6579
 8281SOL    HW125742   3.621   2.436   6.103  0.1854  1.7648 -2.2094
 8281SOL    HW225743   3.759   2.383   6.173 -0.7003 -0.3090 -1.9506
 8282SOL     OW25744   0.854   0.974   2.029 -0.6639 -0.1664  0.1441
 8282SOL    HW125745   0.946   0.954   1.996 -0.9900  0.2560 -1.0544
 8282SOL    HW225746   0.858   1.048   2.095  0.1333 -1.7707  2.0033
 8283SOL     OW25747   5.412   4.787   4.966 -0.2585 -0.0629 -0.0963
 8283SOL    HW125748   5.414   4.690   4.989  2.4732 -0.2488 -0.7278
 8283SOL    HW225749   5.425   4.842   5.048 -2.0342 -0.1971  0.2933
 8284SOL     OW25750   4.344   1.359   6.531  0.1833  0.4403  0.3493
 8284SOL    HW125751   4.261   1.334   6.579  0.0656  1.8314  0.9367
 8284SOL    HW225752   4.341   1.457   6.508  1.5136  0.4492  0.1099
 8285SOL     OW25753   3.032   1.115   6.057 -0.9066 -0.7474  0.2824
 8285SOL    HW125754   2.933   1.108   6.065 -0.7990 -1.5525  0.9841
 8285SOL    HW225755   3.069   1.029   6.024 -0.3876 -0.6399  0.5747
 8286SOL     OW25756   0.299   6.667   4.996  0.1430  0.7071  0.3113
 8286SOL    HW125757   0.265   6.750   4.950  0.5054  0.7512  0.1193
 8286SOL    HW225758   0.308   6.686   5.094  1.5049  1.3318  0.0821
 8287SOL     OW25759   5.315   5.650   1.274 -0.3301  0.0397  0.6236
 8287SOL    HW125760   5.390   5.715   1.270 -0.2031 -0.1464 -0.7890
 8287SOL    HW225761   5.338   5.570   1.218 -1.7591  0.2032 -0.2574
 8288SOL     OW25762   6.016   1.218   4.320  0.0747  0.1378 -0.4895
 8288SOL    HW125763   5.920   1.246   4.315  0.2843  1.0980  0.4456
 8288SOL    HW225764   6.075   1.297   4.303  0.6893 -0.0221  0.7824
 8289SOL     OW25765   5.340   4.068   2.817 -0.2174  0.1073 -0.3930
 8289SOL    HW125766   5.249   4.040   2.846 -0.2424  0.3199 -0.2666
 8289SOL    HW225767   5.338   4.164   2.789 -0.5580 -0.4713 -2.6040
 8290SOL     OW25768   1.033   6.606   1.481  0.1484  0.1350 -0.4181
 8290SOL    HW125769   1.100   6.589   1.554 -0.5980  2.2131  0.8448
 8290SOL    HW225770   1.074   6.667   1.413  0.6117 -1.2504 -1.4060
 8291SOL     OW25771   4.275   0.317   2.803 -1.0588  0.1190 -0.1264
 8291SOL    HW125772   4.360   0.370   2.806 -0.2307 -1.2107  0.5922
 8291SOL    HW225773   4.277   0.255   2.725 -0.9624 -0.5580  0.4039
 8292SOL     OW25774   5.381   6.473   2.962  0.0353 -0.3532  0.7290
 8292SOL    HW125775   5.311   6.521   2.909 -0.4622 -0.8523  0.9226
 8292SOL    HW225776   5.419   6.398   2.908  1.2639  0.6329  0.1922
 8293SOL     OW25777   1.474   5.072   1.901  0.0204  0.6007 -0.0677
 8293SOL    HW125778   1.546   5.127   1.859  0.7379 -0.7617 -0.6700
 8293SOL    HW225779   1.449   5.112   1.989  0.5196  1.8754 -0.4861
 8294SOL     OW25780   0.820   3.876   1.851  0.1513 -0.4399  0.5566
 8294SOL    HW125781   0.755   3.890   1.925  0.2341  0.8216  0.4065
 8294SOL    HW225782   0.789   3.925   1.769 -0.0437 -1.9794 -0.3273
 8295SOL     OW25783   1.844   4.488   1.653  0.1350 -0.4637  0.4377
 8295SOL    HW125784   1.938   4.458   1.666  0.1318  0.3008  2.4109
 8295SOL    HW225785   1.840   4.588   1.654 -0.7634 -0.4969  0.9657
 8296SOL     OW25786   0.163   1.375   1.505  0.4256  0.7425 -0.1154
 8296SOL    HW125787   0.099   1.452   1.514  0.6411  0.8659  0.3875
 8296SOL    HW225788   0.200   1.373   1.412 -0.6226  0.4180 -0.5452
 8297SOL     OW25789   4.328   0.392   4.946  0.0344 -0.2024 -0.0285
 8297SOL    HW125790   4.367   0.304   4.918 -0.6196 -1.0485  1.5970
 8297SOL    HW225791   4.336   0.402   5.045 -3.1648 -0.1570  0.3371
 8298SOL     OW25792   2.915   0.055   4.191 -0.3985  0.2504  0.2185
 8298SOL    HW125793   2.944   0.031   4.098  0.0743  0.0262  0.4253
 8298SOL    HW225794   2.816   0.041   4.199 -0.2383 -1.0335  0.1427
 8299SOL     OW25795   1.320   1.381   6.851  0.4531  0.7740  0.4319
 8299SOL    HW125796   1.410   1.338   6.840  1.0135  2.3856 -2.3664
 8299SOL    HW225797   1.332   1.472   6.892 -0.1252  0.4532  1.3657
 8300SOL     OW25798   4.934   0.466   1.230  0.3287 -1.1843 -0.1674
 8300SOL    HW125799   4.836   0.450   1.230  0.0806  0.2045  0.3739
 8300SOL    HW225800   4.978   0.409   1.161 -0.7249 -2.5439  0.2546
 8301SOL     OW25801   3.439   4.438   1.327 -0.5018 -0.2288 -0.1045
 8301SOL    HW125802   3.528   4.395   1.316 -1.2206 -1.2512 -2.3057
 8301SOL    HW225803   3.442   4.501   1.405  2.5130  0.7912 -0.9489
 8302SOL     OW25804   5.994   3.597   6.107  0.0409 -0.1760  0.3989
 8302SOL    HW125805   6.039   3.681   6.137  0.9749 -1.0212  1.4654
 8302SOL    HW225806   5.897   3.615   6.091  0.3360  1.2267  0.0271
 8303SOL     OW25807   6.090   5.414   1.983  0.4174  0.1414 -0.4200
 8303SOL    HW125808   6.016   5.475   2.012  0.2591 -0.0088 -0.5031
 8303SOL    HW225809   6.157   5.466   1.931  0.3969  0.2900 -0.2991
 8304SOL     OW25810   4.202   6.380   4.526 -0.5741 -0.2133 -0.1672
 8304SOL    HW125811   4.290   6.397   4.482 -0.6516  0.1612 -0.1799
 8304SOL    HW225812   4.165   6.466   4.561 -0.9988 -0.3464 -0.2860
 8305SOL     OW25813   6.265   3.789   0.294  0.1769 -0.4454  0.5578
 8305SOL    HW125814   6.175   3.762   0.330  0.8648 -2.5385  0.8384
 8305SOL    HW225815   6.254   3.826   0.202 -1.0071 -0.2276  0.7624
 8306SOL     OW25816   3.317   6.986   6.693  0.0223  0.2165 -0.2113
 8306SOL    HW125817   3.388   6.921   6.720 -1.3988 -1.5108 -0.4503
 8306SOL    HW225818   3.281   7.031   6.775  0.6448  0.3215  0.0140
 8307SOL     OW25819   1.788   2.366   0.401 -0.2537 -0.2408 -0.5986
 8307SOL    HW125820   1.692   2.384   0.421 -0.2593  1.8534 -2.1010
 8307SOL    HW225821   1.845   2.395   0.478 -0.7529 -0.3087 -0.2006
 8308SOL     OW25822   6.213   0.624   1.898 -0.1988 -0.1465  0.0807
 8308SOL    HW125823   6.247   0.576   1.980  0.1104  0.8293  0.5411
 8308SOL    HW225824   6.123   0.587   1.874 -0.4720 -0.1983  1.0954
 8309SOL     OW25825   6.689   6.971   3.179  0.4317  0.6417 -0.2486
 8309SOL    HW125826   6.774   6.919   3.188 -0.8295 -1.5366 -0.3191
 8309SOL    HW225827   6.682   7.008   3.087  0.0620 -1.5344 -1.1403
 8310SOL     OW25828   5.552   3.427   0.106  0.6140  0.4075 -0.4363
 8310SOL    HW125829   5.610   3.347   0.121  1.4770  1.1464  0.2589
 8310SOL    HW225830   5.586   3.504   0.161 -1.7814  0.5176  1.0564
 8311SOL     OW25831   2.967   5.269   1.266 -0.3164  0.0483 -0.5862
 8311SOL    HW125832   2.924   5.333   1.331  0.6807 -0.3217  0.4622
 8311SOL    HW225833   2.941   5.175   1.290  2.2099 -0.3237  1.0314
 8312SOL     OW25834   5.008   3.430   2.685  0.3810 -0.2492  0.2506
 8312SOL    HW125835   5.012   3.416   2.586 -2.2443 -0.1966  0.0697
 8312SOL    HW225836   5.037   3.346   2.732  0.2886 -0.7527 -0.5813
 8313SOL     OW25837   0.582   3.758   0.876 -0.3126  0.1027 -0.6750
 8313SOL    HW125838   0.543   3.850   0.868  0.7933  0.6591  0.1287
 8313SOL    HW225839   0.653   3.745   0.807  1.6598  0.9924  1.0890
 8314SOL     OW25840   5.707   2.542   4.856 -0.5727  0.6328  0.8633
 8314SOL    HW125841   5.753   2.537   4.768 -1.0206  0.8525  0.6105
 8314SOL    HW225842   5.615   2.580   4.843 -1.1766 -0.6354  1.2144
 8315SOL     OW25843   5.932   6.521   4.388  0.2732 -0.0459  0.0880
 8315SOL    HW125844   5.975   6.433   4.370 -1.4114 -0.7749 -0.6130
 8315SOL    HW225845   5.843   6.506   4.431 -0.0324  1.3278 -0.0286
 8316SOL     OW25846   5.496   4.062   4.854  0.2740 -0.1550 -0.1906
 8316SOL    HW125847   5.515   4.134   4.921  1.0369 -0.3006 -0.2422
 8316SOL    HW225848   5.570   3.995   4.854 -1.5451 -2.3196  1.6154
 8317SOL     OW25849   1.742   2.946   1.218 -0.1127  0.3801 -0.4944
 8317SOL    HW125850   1.675   2.873   1.204 -0.0240  0.3225 -0.6230
 8317SOL    HW225851   1.780   2.973   1.130  0.0293  0.4167 -0.4219
 8318SOL     OW25852   2.294   4.144   4.375  0.2356 -0.3687 -0.2363
 8318SOL    HW125853   2.195   4.150   4.358  0.2872 -0.0932 -0.4436
 8318SOL    HW225854   2.320   4.048   4.387  0.0361 -0.4849 -0.7347
 8319SOL     OW25855   3.435   0.213   1.447 -0.0506  0.3341 -0.5209
 8319SOL    HW125856   3.441   0.311   1.466 -0.2639 -0.0849  2.0929
 8319SOL    HW225857   3.525   0.171   1.460 -0.3327 -0.0671  0.2197
 8320SOL     OW25858   5.138   2.752   3.034  0.1467 -0.0543  0.6351
 8320SOL    HW125859   5.094   2.810   3.102  0.2198 -0.2971  0.8904
 8320SOL    HW225860   5.136   2.657   3.066 -2.6020 -0.6897 -1.0181
 8321SOL     OW25861   2.557   5.229   0.687  0.0121  0.0214  0.1081
 8321SOL    HW125862   2.640   5.277   0.655 -0.3845  2.9010  2.8962
 8321SOL    HW225863   2.484   5.241   0.619  0.6793  1.2417 -0.4392
 8322SOL     OW25864   0.110   3.113   5.391  0.0843  0.2233 -0.0523
 8322SOL    HW125865   0.102   3.081   5.485 -0.9645 -1.2175 -0.5973
 8322SOL    HW225866   0.024   3.096   5.343 -0.3139  3.2502 -0.6208
 8323SOL     OW25867   0.366   3.091   0.388  0.5547 -0.2235  0.4667
 8323SOL    HW125868   0.408   3.068   0.300  1.6786 -1.4692  1.2890
 8323SOL    HW225869   0.402   3.179   0.420 -1.3592  1.2813 -1.1898
 8324SOL     OW25870   2.936   0.417   3.931  0.1956  0.1334  0.2565
 8324SOL    HW125871   3.030   0.449   3.945  0.9360 -1.5503 -0.4940
 8324SOL    HW225872   2.909   0.433   3.836  0.0608 -0.1810  0.2400
 8325SOL     OW25873   3.509   2.888   3.028  0.0446 -0.3047  0.0641
 8325SOL    HW125874   3.430   2.944   3.002  0.7446  0.6102 -0.1132
 8325SOL    HW225875   3.529   2.822   2.955 -1.7346 -1.9011  0.9148
 8326SOL     OW25876   1.251   4.038   0.509  0.0434 -0.4003 -0.2317
 8326SOL    HW125877   1.317   3.982   0.559  0.5309  0.7779  0.4762
 8326SOL    HW225878   1.296   4.081   0.431 -0.0663 -0.1697 -0.1696
 8327SOL     OW25879   1.697   0.551   3.119 -0.8614  0.5852  0.1543
 8327SOL    HW125880   1.795   0.532   3.126 -0.5373  1.5381 -1.2747
 8327SOL    HW225881   1.650   0.514   3.199  0.7305  0.5652  1.1268
 8328SOL     OW25882   4.492   1.162   6.736  0.3065 -0.3182 -0.2619
 8328SOL    HW125883   4.448   1.203   6.656 -0.5352 -1.4294 -0.4076
 8328SOL    HW225884   4.422   1.138   6.804  0.9570  0.1447  0.5986
 8329SOL     OW25885   1.794   1.537   3.710 -0.0179 -0.0277 -0.4146
 8329SOL    HW125886   1.704   1.514   3.673 -0.4323  0.4143  0.2878
 8329SOL    HW225887   1.783   1.591   3.793  0.8627 -1.3496  0.6076
 8330SOL     OW25888   1.652   2.065   5.163  0.3284  0.5750  0.5769
 8330SOL    HW125889   1.664   2.003   5.240  0.1154  1.3779  1.2822
 8330SOL    HW225890   1.603   2.147   5.194 -0.3952  0.5958 -0.5784
 8331SOL     OW25891   2.007   2.154   1.626  0.0858 -0.3068  0.4419
 8331SOL    HW125892   2.063   2.185   1.549 -1.0176  0.3302 -0.1394
 8331SOL    HW225893   2.060   2.161   1.711  0.5324  1.3493  0.0677
 8332SOL     OW25894   5.251   4.237   5.160 -0.2725 -0.5468  0.2065
 8332SOL    HW125895   5.232   4.219   5.064  2.1781  2.1099 -0.8927
 8332SOL    HW225896   5.168   4.270   5.205 -0.7566  1.2349 -1.8465
 8333SOL     OW25897   3.377   5.134   0.136 -0.2861 -0.2320  0.5019
 8333SOL    HW125898   3.454   5.126   0.073 -1.5482 -1.1633 -1.0289
 8333SOL    HW225899   3.410   5.140   0.230  1.6277 -0.6320 -0.1023
 8334SOL     OW25900   3.375   6.554   5.809 -0.1973  0.0878  0.0625
 8334SOL    HW125901   3.288   6.587   5.846  0.2086 -0.0394  1.1624
 8334SOL    HW225902   3.358   6.473   5.753 -0.7423 -0.2678  0.7207
 8335SOL     OW25903   0.129   5.045   4.605 -0.3149  0.0764  0.7187
 8335SOL    HW125904   0.084   5.040   4.695 -1.5034  0.8891  0.1949
 8335SOL    HW225905   0.118   4.957   4.557  1.1663 -0.7050  1.7148
 8336SOL     OW25906   1.368   1.451   4.246  0.0313  0.0081  1.1180
 8336SOL    HW125907   1.460   1.484   4.266  1.4954 -1.4950 -2.3909
 8336SOL    HW225908   1.372   1.356   4.216 -3.0939 -0.9925  3.3621
 8337SOL     OW25909   6.994   3.407   4.506  0.5250  0.6762 -0.0619
 8337SOL    HW125910   7.049   3.466   4.565  0.5389 -1.7047  2.5369
 8337SOL    HW225911   6.914   3.375   4.556  0.3334 -1.2148 -1.4626
 8338SOL     OW25912   3.195   3.447   1.049 -0.3380 -1.2225  0.0350
 8338SOL    HW125913   3.231   3.396   0.971  0.1595  2.8828 -2.7420
 8338SOL    HW225914   3.099   3.425   1.063 -0.1613 -2.7896 -1.0244
 8339SOL     OW25915   4.396   4.919   3.543  0.3985 -0.3602  0.0018
 8339SOL    HW125916   4.414   4.892   3.449  1.2919 -0.9802  0.3348
 8339SOL    HW225917   4.304   4.890   3.570 -0.0676  0.3050 -0.8384
 8340SOL     OW25918   5.528   1.383   4.246  0.4104  0.0168 -0.3884
 8340SOL    HW125919   5.489   1.422   4.330  2.2242 -0.1060  0.5651
 8340SOL    HW225920   5.455   1.344   4.190 -0.8681  0.1887  1.0966
 8341SOL     OW25921   0.737   2.559   6.032 -0.3862 -0.2668  0.3073
 8341SOL    HW125922   0.754   2.647   6.076  0.9624 -0.8051  0.9088
 8341SOL    HW225923   0.674   2.505   6.088 -1.7034  0.5284 -0.3659
 8342SOL     OW25924   6.410   2.549   1.661  0.4384  0.8668 -0.0107
 8342SOL    HW125925   6.427   2.533   1.758  1.7077 -4.1258 -0.7267
 8342SOL    HW225926   6.333   2.492   1.631 -0.3196  2.7584 -1.8746
 8343SOL     OW25927   2.198   6.876   2.794 -0.2901 -0.0289 -0.4801
 8343SOL    HW125928   2.163   6.804   2.854 -1.4499  0.4824 -0.5151
 8343SOL    HW225929   2.227   6.955   2.848  0.5815 -0.3456 -0.4701
 8344SOL     OW25930   6.422   0.165   4.749 -0.6128 -0.1249 -0.0208
 8344SOL    HW125931   6.333   0.140   4.711 -0.6387 -0.1826  0.0785
 8344SOL    HW225932   6.413   0.188   4.846 -0.3567 -1.1398  0.2602
 8345SOL     OW25933   4.748   4.458   1.959 -0.4566  0.1560  0.7245
 8345SOL    HW125934   4.681   4.386   1.976  0.0339 -0.9980 -1.7626
 8345SOL    HW225935   4.701   4.547   1.959 -2.4624 -0.7093 -2.4067
 8346SOL     OW25936   2.053   0.163   6.133  0.3291 -0.0824 -0.1790
 8346SOL    HW125937   2.010   0.182   6.222 -1.4000 -1.6849 -0.6038
 8346SOL    HW225938   2.049   0.065   6.115  0.6867  0.2090 -2.0238
 8347SOL     OW25939   4.729   1.377   0.631 -0.3927  0.2444 -0.0231
 8347SOL    HW125940   4.692   1.403   0.542  0.4608 -0.9371 -0.7455
 8347SOL    HW225941   4.711   1.280   0.648  1.8260 -0.2440 -0.1650
 8348SOL     OW25942   4.509   3.968   1.438  0.4073 -0.5905  0.1739
 8348SOL    HW125943   4.435   4.036   1.442  0.7605 -0.2700  2.8246
 8348SOL    HW225944   4.504   3.919   1.351 -1.6792  0.7783 -0.5634
 8349SOL     OW25945   1.642   3.551   3.219 -0.4679 -0.6513 -0.0272
 8349SOL    HW125946   1.593   3.483   3.165 -0.0107 -0.9807 -0.0366
 8349SOL    HW225947   1.578   3.619   3.253 -0.6742 -0.0817 -1.4941
 8350SOL     OW25948   4.774   2.653   0.585 -0.0050 -0.3883 -0.4260
 8350SOL    HW125949   4.729   2.567   0.608 -0.6692  0.4337  1.5959
 8350SOL    HW225950   4.860   2.661   0.635  0.3247 -0.1034 -1.0226
 8351SOL     OW25951   6.942   4.558   6.777 -0.2839 -0.0890  0.5323
 8351SOL    HW125952   6.957   4.612   6.860 -1.0481  0.9356  0.0223
 8351SOL    HW225953   6.898   4.472   6.801 -0.9278  0.4060  1.1437
 8352SOL     OW25954   7.001   1.435   4.032  0.3536  0.1753  0.1366
 8352SOL    HW125955   6.978   1.411   4.126 -0.9593  0.1492 -0.1719
 8352SOL    HW225956   6.963   1.368   3.970 -0.0698  0.9837 -0.5000
 8353SOL     OW25957   2.839   0.744   2.226  0.4677 -1.0378  0.0245
 8353SOL    HW125958   2.816   0.646   2.229  2.7468 -1.6228  1.1487
 8353SOL    HW225959   2.921   0.760   2.282 -0.1288  1.6198  0.2646
 8354SOL     OW25960   4.837   1.385   1.223  0.2501  0.7159 -0.0253
 8354SOL    HW125961   4.795   1.364   1.135 -0.9329 -0.4480  0.7996
 8354SOL    HW225962   4.923   1.334   1.232  0.9593  1.6863 -0.9286
 8355SOL     OW25963   6.412   6.891   3.737 -0.0960 -0.4048 -0.1947
 8355SOL    HW125964   6.511   6.881   3.725 -0.2922 -0.8846 -1.5395
 8355SOL    HW225965   6.370   6.800   3.742 -0.6041 -0.2170 -0.9092
 8356SOL     OW25966   2.023   4.644   0.378  0.2311  0.2428  0.1231
 8356SOL    HW125967   1.984   4.722   0.427  3.1077  1.9295 -0.0365
 8356SOL    HW225968   2.056   4.576   0.443 -0.4511  0.1150  0.3392
 8357SOL     OW25969   6.072   2.243   5.688  0.6495  0.4739 -0.1172
 8357SOL    HW125970   6.009   2.204   5.755  1.2694 -0.3786 -0.0070
 8357SOL    HW225971   6.099   2.334   5.717 -0.9272  1.0757 -0.4355
 8358SOL     OW25972   1.146   6.947   3.620 -0.2494 -0.1144 -0.4061
 8358SOL    HW125973   1.143   6.952   3.720 -0.4484 -1.9674 -0.2841
 8358SOL    HW225974   1.133   7.038   3.582  0.1602  0.6775  1.2568
 8359SOL     OW25975   3.769   4.831   2.763 -0.0290  0.1217  0.2933
 8359SOL    HW125976   3.834   4.867   2.696 -2.0690  0.2984 -1.7226
 8359SOL    HW225977   3.816   4.814   2.850  2.5263  0.7807 -0.8711
 8360SOL     OW25978   1.148   1.634   6.511 -0.9053 -0.0801 -0.1653
 8360SOL    HW125979   1.192   1.681   6.435  1.3038 -1.7437 -0.0296
 8360SOL    HW225980   1.188   1.666   6.597  0.0911 -1.5541 -0.0349
 8361SOL     OW25981   6.093   4.482   4.599  0.3800 -1.0884  0.2627
 8361SOL    HW125982   6.121   4.394   4.637  0.8831 -0.7084  0.7749
 8361SOL    HW225983   6.010   4.513   4.645 -0.7834 -2.0809 -1.0672
 8362SOL     OW25984   3.433   3.014   4.969  0.5177 -0.4085  0.1740
 8362SOL    HW125985   3.525   2.976   4.979  0.0723 -1.5593 -0.0070
 8362SOL    HW225986   3.378   2.988   5.049 -0.1603 -1.2239 -0.5481
 8363SOL     OW25987   5.818   5.927   1.073  0.8292  0.4492  0.4873
 8363SOL    HW125988   5.891   5.907   1.008 -0.4687 -3.0885 -0.0855
 8363SOL    HW225989   5.734   5.880   1.045 -1.2977  3.0839  1.9589
 8364SOL     OW25990   6.502   1.897   0.483 -0.1557 -0.3393 -0.1640
 8364SOL    HW125991   6.408   1.926   0.503  0.0037  0.4445 -0.5421
 8364SOL    HW225992   6.505   1.856   0.392  0.3419  2.0564 -1.3001
 8365SOL     OW25993   5.418   3.079   4.482 -0.4387 -0.0205 -0.3111
 8365SOL    HW125994   5.360   2.998   4.473  0.5441 -0.6868 -1.0165
 8365SOL    HW225995   5.449   3.088   4.577 -2.3507  0.8411  0.2575
 8366SOL     OW25996   5.638   0.060   2.907 -0.1175  0.0511  0.1574
 8366SOL    HW125997   5.655   0.157   2.893  2.2894  0.1248  2.7478
 8366SOL    HW225998   5.708   0.006   2.861  1.3529 -0.1515  2.4716
 8367SOL     OW25999   6.747   2.644   5.961 -0.4675  0.2576 -0.1104
 8367SOL    HW126000   6.703   2.677   5.877 -0.4143  1.2073  0.2170
 8367SOL    HW226001   6.757   2.720   6.025  2.1564  0.2449 -0.3804
 8368SOL     OW26002   4.264   2.841   7.009 -0.1230 -0.1412 -0.5019
 8368SOL    HW126003   4.223   2.806   6.925  0.1815 -1.1899 -0.2267
 8368SOL    HW226004   4.197   2.842   7.082 -0.3019  0.4717 -0.6669
 8369SOL     OW26005   2.801   5.292   3.275 -0.2557  0.0641  0.5046
 8369SOL    HW126006   2.832   5.214   3.219  0.0142  0.2403  0.4043
 8369SOL    HW226007   2.834   5.377   3.235 -1.0004  0.2712  0.3217
 8370SOL     OW26008   1.241   1.817   6.312  0.3217  0.5025  0.3413
 8370SOL    HW126009   1.237   1.755   6.234  0.9177  1.5754 -0.5807
 8370SOL    HW226010   1.335   1.849   6.325 -0.0913  1.8730  0.2213
 8371SOL     OW26011   3.743   6.130   1.812 -0.2919  0.2777  0.1856
 8371SOL    HW126012   3.689   6.193   1.868 -1.5934  0.1643 -0.9139
 8371SOL    HW226013   3.731   6.037   1.845 -0.3364  0.3159  0.2773
 8372SOL     OW26014   5.575   4.334   3.469  0.2137  0.5597 -0.4841
 8372SOL    HW126015   5.576   4.384   3.556 -1.1881  1.3169 -0.8829
 8372SOL    HW226016   5.615   4.243   3.483 -1.2370  0.1484  1.2867
 8373SOL     OW26017   3.019   3.225   4.432 -0.5238 -0.2210  0.0477
 8373SOL    HW126018   2.957   3.276   4.372 -0.8247  0.0236  0.5616
 8373SOL    HW226019   3.061   3.150   4.380  0.3640  0.8693 -0.8830
 8374SOL     OW26020   6.413   3.210   3.097  0.0873  0.4250 -0.1189
 8374SOL    HW126021   6.503   3.165   3.096  0.0023  0.2267 -2.1439
 8374SOL    HW226022   6.408   3.276   3.023 -1.1016  1.1848  0.6039
 8375SOL     OW26023   6.216   0.350   2.700  0.3123 -0.1290  0.0078
 8375SOL    HW126024   6.273   0.347   2.618 -0.2508  0.9208 -0.4440
 8375SOL    HW226025   6.262   0.403   2.770 -0.7645  2.1929 -0.9380
 8376SOL     OW26026   4.164   0.214   4.708  0.0442 -0.4508 -0.1172
 8376SOL    HW126027   4.123   0.303   4.690  1.9735  0.5791  0.2811
 8376SOL    HW226028   4.258   0.213   4.673  0.0520 -2.3641 -0.1592
 8377SOL     OW26029   2.366   5.790   3.317  0.0044 -0.6716 -0.6818
 8377SOL    HW126030   2.408   5.719   3.261  1.1052 -2.1678  1.8407
 8377SOL    HW226031   2.285   5.754   3.362  1.3540 -0.8996  1.7338
 8378SOL     OW26032   4.525   4.550   3.213  0.7100 -0.4546 -0.5029
 8378SOL    HW126033   4.521   4.607   3.132  0.2267  0.9160  0.4439
 8378SOL    HW226034   4.613   4.563   3.259  1.0853 -1.4186 -0.9223
 8379SOL     OW26035   6.055   4.519   5.968  0.1325 -0.1799 -0.2458
 8379SOL    HW126036   6.020   4.600   6.015 -4.0204 -1.3684 -0.8990
 8379SOL    HW226037   6.083   4.451   6.036 -1.0253  0.0182  0.4663
 8380SOL     OW26038   1.250   6.355   3.331 -0.0323  0.4540 -0.3814
 8380SOL    HW126039   1.183   6.367   3.257  0.3237  0.8986 -0.6371
 8380SOL    HW226040   1.326   6.419   3.318  0.7154 -0.4189 -0.3926
 8381SOL     OW26041   5.992   2.815   2.869  0.4670  0.4767  0.3470
 8381SOL    HW126042   5.944   2.847   2.788  1.3346  0.0670 -0.3366
 8381SOL    HW226043   5.949   2.731   2.903 -1.5185  1.9850  1.8622
 8382SOL     OW26044   0.943   5.802   6.843 -0.3616 -0.0402 -0.8249
 8382SOL    HW126045   0.928   5.780   6.747  1.1761  1.4319 -1.4566
 8382SOL    HW226046   1.027   5.855   6.853 -1.2886  1.2014  1.1369
 8383SOL     OW26047   0.590   1.916   3.970 -0.5801  0.1686 -0.4495
 8383SOL    HW126048   0.543   1.987   3.917 -0.8188  1.0301  0.8695
 8383SOL    HW226049   0.534   1.833   3.972 -0.4936  0.0566 -1.6507
 8384SOL     OW26050   1.410   5.759   2.264  0.0676  0.1874 -0.4598
 8384SOL    HW126051   1.460   5.694   2.322 -1.0121 -1.4392 -1.2935
 8384SOL    HW226052   1.470   5.792   2.191  0.6098  0.1068 -0.0587
 8385SOL     OW26053   4.033   2.122   4.614 -0.3227  0.2593  0.2866
 8385SOL    HW126054   4.060   2.190   4.682  1.2147  0.6627 -0.6727
 8385SOL    HW226055   4.090   2.040   4.624  0.7709  0.7838 -1.2192
 8386SOL     OW26056   5.964   4.744   1.197  0.0945  0.4871 -0.3063
 8386SOL    HW126057   5.931   4.794   1.277  1.2249  0.2754  0.3107
 8386SOL    HW226058   5.916   4.776   1.116 -1.4829  0.3094  0.5193
 8387SOL     OW26059   6.756   2.648   3.910  0.2654  0.2557 -0.4489
 8387SOL    HW126060   6.717   2.588   3.840 -0.2391  0.2917 -0.2031
 8387SOL    HW226061   6.704   2.733   3.914 -0.3608 -0.1582  0.6649
 8388SOL     OW26062   1.564   5.217   5.573 -0.6255  0.0990 -0.1332
 8388SOL    HW126063   1.554   5.184   5.479  1.2402 -0.0082 -0.3275
 8388SOL    HW226064   1.480   5.199   5.624 -2.2965  1.6214 -2.1850
 8389SOL     OW26065   1.236   4.269   4.960  1.0366  0.0019  0.2350
 8389SOL    HW126066   1.280   4.179   4.954  1.4979  0.2408  0.0469
 8389SOL    HW226067   1.293   4.338   4.917 -0.7005 -0.0875 -2.4279
 8390SOL     OW26068   2.039   3.577   3.957 -0.3724  0.3632 -0.5645
 8390SOL    HW126069   2.085   3.496   3.994  1.2598  1.5645  0.1873
 8390SOL    HW226070   2.079   3.660   3.998 -0.2349  1.6799 -3.1177
 8391SOL     OW26071   5.638   6.489   4.834  0.1781  0.0852 -0.2610
 8391SOL    HW126072   5.559   6.526   4.784 -1.6567 -2.3247  0.6340
 8391SOL    HW226073   5.665   6.553   4.905 -1.5392  0.6590 -0.0655
 8392SOL     OW26074   5.818   5.679   0.020  0.7278  0.6951  0.3877
 8392SOL    HW126075   5.720   5.688   0.002 -0.0312 -3.4536  1.3527
 8392SOL    HW226076   5.867   5.665  -0.066 -0.2882 -1.5689  0.0990
 8393SOL     OW26077   6.528   3.686   6.688 -0.1103 -0.3618 -0.1007
 8393SOL    HW126078   6.535   3.748   6.609  0.6600 -0.0378  0.2059
 8393SOL    HW226079   6.619   3.675   6.729  0.0180 -2.5749 -0.8052
 8394SOL     OW26080   1.759   0.063   0.163  0.2362  0.1119  0.3216
 8394SOL    HW126081   1.709   0.143   0.129 -1.9407 -1.6657 -0.9496
 8394SOL    HW226082   1.852   0.090   0.188 -0.0799  2.8143 -1.0486
 8395SOL     OW26083   2.302   0.319   5.435  0.8445  0.2567 -0.0044
 8395SOL    HW126084   2.251   0.263   5.501 -2.4551  0.8434 -1.8493
 8395SOL    HW226085   2.305   0.413   5.468 -1.5041  0.7174 -0.9149
 8396SOL     OW26086   0.479   5.139   5.959  0.0635  0.1520  0.0742
 8396SOL    HW126087   0.406   5.167   6.021  0.7633  0.6742  0.6870
 8396SOL    HW226088   0.567   5.144   6.008  0.5919  0.2823 -0.8770
 8397SOL     OW26089   6.963   3.368   6.087 -0.1911  0.1238 -0.3328
 8397SOL    HW126090   6.865   3.382   6.072  0.2333  1.8545 -1.8427
 8397SOL    HW226091   6.978   3.277   6.126 -2.3989 -0.0680  0.2181
 8398SOL     OW26092   5.409   2.822   2.726 -0.2848 -0.2308  0.7607
 8398SOL    HW126093   5.470   2.851   2.800  0.5724  0.2749 -0.1169
 8398SOL    HW226094   5.437   2.731   2.694  1.8499  1.0687 -1.4548
 8399SOL     OW26095   5.230   1.002   0.490 -0.1516  0.1497 -0.2087
 8399SOL    HW126096   5.169   1.078   0.515 -0.9196 -0.6473  0.4229
 8399SOL    HW226097   5.298   1.034   0.424 -1.4312  0.9942 -1.1634
 8400SOL     OW26098   2.400   3.601   1.404  0.1715 -0.2639 -0.5372
 8400SOL    HW126099   2.475   3.652   1.362  0.8699  0.1016  1.0441
 8400SOL    HW226100   2.410   3.604   1.504 -1.6851 -0.6399 -0.3010
 8401SOL     OW26101   2.995   0.404   4.924  0.6234  0.3926 -0.1816
 8401SOL    HW126102   3.040   0.405   5.014 -2.2687 -1.5784  1.4529
 8401SOL    HW226103   2.970   0.497   4.898  2.3100  1.1051  0.5752
 8402SOL     OW26104   5.307   4.335   2.737 -0.3954  0.2619 -0.0647
 8402SOL    HW126105   5.381   4.398   2.712 -0.6464  0.6171  0.0790
 8402SOL    HW226106   5.234   4.386   2.783 -0.8005 -0.0616 -0.3488
 8403SOL     OW26107   5.095   3.463   0.787  0.3294  0.2477 -0.0323
 8403SOL    HW126108   5.061   3.446   0.695 -1.0194  2.1618  0.0504
 8403SOL    HW226109   5.185   3.505   0.782  1.1561 -1.4747 -0.3716
 8404SOL     OW26110   5.243   2.891   4.144 -0.0971 -0.8346  0.7650
 8404SOL    HW126111   5.335   2.930   4.141 -0.8855  1.1168 -1.0843
 8404SOL    HW226112   5.245   2.796   4.114  1.2730 -0.7003  0.3693
 8405SOL     OW26113   5.233   2.266   4.170 -0.3604  0.2073  0.6212
 8405SOL    HW126114   5.159   2.321   4.132  0.7460 -0.2263 -2.3578
 8405SOL    HW226115   5.206   2.170   4.170 -1.1632  0.3521  3.1117
 8406SOL     OW26116   5.245   2.600   4.019  0.1546  0.2885  0.3041
 8406SOL    HW126117   5.150   2.622   4.043 -0.1997 -0.0558 -0.7087
 8406SOL    HW226118   5.246   2.517   3.963  1.1881 -0.5227  1.4766
 8407SOL     OW26119   3.832   4.760   5.931  0.3164  0.0778  0.4109
 8407SOL    HW126120   3.891   4.750   6.011 -0.3779 -0.5225  0.8640
 8407SOL    HW226121   3.757   4.693   5.937  1.0250 -0.9343 -1.4330
 8408SOL     OW26122   1.180   0.330   1.723  0.5565 -0.6078  0.0019
 8408SOL    HW126123   1.237   0.310   1.643  1.4628 -1.5825  0.8569
 8408SOL    HW226124   1.190   0.426   1.748 -0.5388 -0.0203 -1.6435
 8409SOL     OW26125   2.757   1.672   3.420  0.5609  0.1151  0.1850
 8409SOL    HW126126   2.808   1.616   3.355 -0.8736  0.6690 -1.4865
 8409SOL    HW226127   2.675   1.623   3.449 -1.1823  1.5565 -1.9793
 8410SOL     OW26128   0.931   4.217   5.825  1.2820 -0.4926  1.0036
 8410SOL    HW126129   1.026   4.244   5.841  0.8197  1.2429  1.0306
 8410SOL    HW226130   0.907   4.233   5.729  0.9991 -0.8641  1.0108
 8411SOL     OW26131   4.222   1.099   3.057  0.0996 -0.5632 -0.1652
 8411SOL    HW126132   4.127   1.079   3.032 -0.6124  1.3479  0.8753
 8411SOL    HW226133   4.226   1.137   3.149  1.6965  0.8687 -0.7682
 8412SOL     OW26134   4.144   5.143   5.912  0.1613  0.3602 -0.6268
 8412SOL    HW126135   4.068   5.117   5.972  0.7076 -0.1512 -0.1494
 8412SOL    HW226136   4.222   5.084   5.930  1.4194  2.2345  0.4390
 8413SOL     OW26137   4.790   1.677   4.573 -0.3866 -0.2423  0.0786
 8413SOL    HW126138   4.806   1.606   4.505  0.8426 -0.1397  0.2274
 8413SOL    HW226139   4.876   1.699   4.619 -0.2589  2.6653 -1.2768
 8414SOL     OW26140   0.954   6.475   4.841  0.0105 -0.2663  0.2005
 8414SOL    HW126141   1.002   6.402   4.890  1.8297  1.9734  1.9694
 8414SOL    HW226142   0.997   6.489   4.751  0.7045 -0.3094  0.5195
 8415SOL     OW26143   3.833   3.516   5.247 -0.4714 -0.3223  0.2753
 8415SOL    HW126144   3.850   3.436   5.303 -0.9894 -1.8701 -1.6824
 8415SOL    HW226145   3.890   3.512   5.164 -3.1123 -0.6568 -1.6651
 8416SOL     OW26146   4.682   1.398   0.382  0.1734 -0.7636 -0.4179
 8416SOL    HW126147   4.750   1.344   0.333 -0.9076 -1.2929 -1.4080
 8416SOL    HW226148   4.626   1.448   0.315  0.2788  0.5095  0.4205
 8417SOL     OW26149   3.612   2.463   0.316 -0.0344  0.1760  0.4134
 8417SOL    HW126150   3.701   2.429   0.346  0.3740  0.9564  0.1027
 8417SOL    HW226151   3.543   2.442   0.386  0.3362 -0.6684  0.5307
 8418SOL     OW26152   6.646   7.015   5.888  0.5579  0.1005  0.0635
 8418SOL    HW126153   6.727   7.025   5.831  0.8909  0.6104  0.6123
 8418SOL    HW226154   6.646   6.924   5.930  1.0811  0.2615  0.4187
 8419SOL     OW26155   0.792   6.645   3.277  0.7808 -0.1672  0.4271
 8419SOL    HW126156   0.777   6.562   3.330 -0.9995  1.0762  1.9849
 8419SOL    HW226157   0.840   6.712   3.333  1.0440  0.3393 -0.3784
 8420SOL     OW26158   3.595   1.360   1.695  0.2599  0.1549 -0.1257
 8420SOL    HW126159   3.583   1.425   1.620  0.4273  0.8752  0.4593
 8420SOL    HW226160   3.597   1.266   1.659 -1.5111  0.3619 -0.8124
 8421SOL     OW26161   6.011   3.693   1.735 -0.3778 -0.0045 -0.0164
 8421SOL    HW126162   5.963   3.779   1.722 -1.4117 -0.4527  0.6860
 8421SOL    HW226163   6.102   3.711   1.772 -0.0881  0.8381 -1.0960
 8422SOL     OW26164   6.161   3.401   3.651 -0.5435 -0.3323 -0.5669
 8422SOL    HW126165   6.198   3.309   3.636 -2.3408 -1.0346 -0.9105
 8422SOL    HW226166   6.159   3.450   3.564  1.9343  0.6914 -0.1333
 8423SOL     OW26167   3.322   3.394   5.514  0.1501 -0.1579  0.3334
 8423SOL    HW126168   3.230   3.433   5.520 -0.7043 -2.0750  0.5404
 8423SOL    HW226169   3.375   3.442   5.444 -1.4851  0.1045 -0.7715
 8424SOL     OW26170   3.209   0.812   3.169 -0.0546 -0.6511 -0.1734
 8424SOL    HW126171   3.301   0.812   3.130 -0.4696  0.1627 -1.1950
 8424SOL    HW226172   3.210   0.856   3.259  0.4753 -0.1732 -0.4099
 8425SOL     OW26173   4.331   1.417   6.075  0.1233  0.2765  0.1850
 8425SOL    HW126174   4.315   1.514   6.096  0.1956  0.1398  0.8887
 8425SOL    HW226175   4.364   1.409   5.981 -0.1009  0.9147  0.0424
 8426SOL     OW26176   3.537   3.186   4.551 -0.1362  0.1602 -0.1573
 8426SOL    HW126177   3.458   3.244   4.530 -1.9754 -2.0093  0.3174
 8426SOL    HW226178   3.616   3.243   4.571 -1.4757  2.4386 -0.9671
 8427SOL     OW26179   4.358   5.441   6.336  0.3230  0.0980 -0.4135
 8427SOL    HW126180   4.432   5.509   6.334  0.1613  0.3548  1.2227
 8427SOL    HW226181   4.396   5.351   6.317  0.9562  0.3127 -0.1946
 8428SOL     OW26182   5.263   2.967   5.170 -0.2456 -0.3534  0.4250
 8428SOL    HW126183   5.167   2.940   5.178  0.3299 -3.7198 -1.9677
 8428SOL    HW226184   5.318   2.888   5.143  3.2251  1.5149  1.3561
 8429SOL     OW26185   4.081   6.678   5.022  0.5937  0.2341  0.1544
 8429SOL    HW126186   4.040   6.732   4.949  1.7335  0.8502 -0.0598
 8429SOL    HW226187   4.070   6.726   5.109 -0.6050 -0.4126  0.3702
 8430SOL     OW26188   0.733   4.560   3.498 -0.2702  0.4322  0.3666
 8430SOL    HW126189   0.669   4.637   3.493 -1.4841 -0.6318 -1.6308
 8430SOL    HW226190   0.727   4.518   3.589  0.2810  2.5232  1.4305
 8431SOL     OW26191   0.030   1.013   3.141  0.5853  0.6213  0.3780
 8431SOL    HW126192   0.012   1.063   3.226  2.3258  2.2640 -0.1402
 8431SOL    HW226193   0.127   1.022   3.117  1.0551 -3.1632  0.2474
 8432SOL     OW26194   4.222   3.483   6.816  0.6725 -0.3827 -0.1514
 8432SOL    HW126195   4.154   3.512   6.749  2.0774  0.3585 -1.3302
 8432SOL    HW226196   4.260   3.563   6.862 -0.2408 -0.8860  1.5335
 8433SOL     OW26197   4.531   5.417   5.650 -0.0192 -0.4942 -0.4494
 8433SOL    HW126198   4.516   5.381   5.558 -0.9850  0.5559 -0.7195
 8433SOL    HW226199   4.444   5.415   5.701  0.5657 -1.3612  0.5665
 8434SOL     OW26200   0.204   2.302   6.127  0.0172 -0.0797  0.5328
 8434SOL    HW126201   0.220   2.389   6.082  0.1788 -0.0506  0.6489
 8434SOL    HW226202   0.273   2.286   6.197  1.8804 -1.7115 -1.5274
 8435SOL     OW26203   5.366   4.987   4.316 -0.1082  0.3135 -0.3188
 8435SOL    HW126204   5.397   5.049   4.244  0.6544 -1.0347 -1.1824
 8435SOL    HW226205   5.405   4.896   4.302  0.6864  0.1709  2.2173
 8436SOL     OW26206   0.691   5.937   6.250  0.0213 -0.3041  0.4822
 8436SOL    HW126207   0.612   5.958   6.308  0.7125  1.8378  0.7350
 8436SOL    HW226208   0.771   5.920   6.307  0.4443  0.6861  0.2047
 8437SOL     OW26209   2.527   4.569   1.918 -0.0629  0.0245  0.0238
 8437SOL    HW126210   2.627   4.570   1.926  0.0916 -0.1725 -1.5589
 8437SOL    HW226211   2.489   4.504   1.984  0.9813 -1.1112 -0.4554
 8438SOL     OW26212   0.116   2.316   1.179  0.1593  0.0303  0.3500
 8438SOL    HW126213   0.050   2.242   1.161 -0.1559  0.3638  0.1355
 8438SOL    HW226214   0.148   2.308   1.274  0.0282 -0.3082  0.3686
 8439SOL     OW26215   1.161   4.514   1.467  0.4989  0.1303  0.5342
 8439SOL    HW126216   1.141   4.506   1.564  0.9907 -0.0142  0.6265
 8439SOL    HW226217   1.190   4.607   1.446 -0.6968  0.4703  0.3137
 8440SOL     OW26218   5.418   2.224   2.758  0.6186 -0.2473  0.0376
 8440SOL    HW126219   5.366   2.208   2.842 -0.2954 -0.4015 -0.5488
 8440SOL    HW226220   5.366   2.284   2.697  1.9162  1.0725  0.1757
 8441SOL     OW26221   1.924   0.061   6.566 -0.1866  0.0523 -0.6126
 8441SOL    HW126222   1.933  -0.033   6.533 -0.1310  0.8355 -2.9938
 8441SOL    HW226223   2.011   0.091   6.604 -0.1611 -0.7917  0.0287
 8442SOL     OW26224   0.291   5.255   4.495 -0.3820  0.0017 -0.0510
 8442SOL    HW126225   0.389   5.236   4.489 -0.7380 -1.9066 -0.5552
 8442SOL    HW226226   0.246   5.179   4.541 -1.1310  2.7745  4.3284
 8443SOL     OW26227   1.377   1.233   5.682 -0.0771  0.4644 -0.1222
 8443SOL    HW126228   1.440   1.311   5.683  0.4874  0.0224  0.5677
 8443SOL    HW226229   1.393   1.177   5.764 -1.9540  0.7868  0.4988
 8444SOL     OW26230   0.067   0.166   2.466 -0.1633  0.8656 -0.6327
 8444SOL    HW126231   0.001   0.105   2.509 -0.4414  1.9827  0.6019
 8444SOL    HW226232   0.107   0.121   2.386 -1.5201 -0.2927 -0.7051
 8445SOL     OW26233   3.313   4.539   6.509 -0.1573 -0.2354 -0.1988
 8445SOL    HW126234   3.262   4.624   6.498  2.0409  1.2377  0.5051
 8445SOL    HW226235   3.392   4.539   6.448  0.0544 -1.6539  0.0361
 8446SOL     OW26236   5.253   0.900   6.688 -0.6731 -0.2994  0.6256
 8446SOL    HW126237   5.217   0.808   6.674 -0.3001 -0.2012 -1.1453
 8446SOL    HW226238   5.179   0.959   6.720 -0.9989 -1.1220  1.4302
 8447SOL     OW26239   1.511   3.045   1.972 -0.7828  0.5893 -0.6433
 8447SOL    HW126240   1.513   2.987   1.890 -1.1594  0.5151 -0.6020
 8447SOL    HW226241   1.416   3.061   1.999 -0.6540  0.4283 -0.0863
 8448SOL     OW26242   6.992   2.871   2.307 -0.2335  0.1359  0.4084
 8448SOL    HW126243   6.949   2.818   2.381 -1.6954 -0.7036 -0.9855
 8448SOL    HW226244   7.074   2.823   2.276 -0.6703 -0.5035  0.2191
 8449SOL     OW26245   2.706   6.447   1.074  0.1519  0.6156 -0.4642
 8449SOL    HW126246   2.673   6.388   1.001  0.7683 -1.2722  0.6938
 8449SOL    HW226247   2.793   6.488   1.047  0.0968  0.3750 -1.0137
 8450SOL     OW26248   3.113   0.106   1.113  0.6939  0.1380  0.0807
 8450SOL    HW126249   3.079   0.060   1.032  1.0554  0.5842 -0.3318
 8450SOL    HW226250   3.071   0.197   1.119  0.2734 -0.0855  0.6804
 8451SOL     OW26251   6.210   2.911   3.694  0.1889 -0.3397 -0.2194
 8451SOL    HW126252   6.264   2.828   3.682 -0.6570 -1.2951  2.0213
 8451SOL    HW226253   6.231   2.952   3.783 -0.5639  0.9715 -0.6229
 8452SOL     OW26254   4.489   6.772   5.444 -0.0120 -0.1114  0.2590
 8452SOL    HW126255   4.523   6.796   5.535 -0.6003 -1.4095  0.8525
 8452SOL    HW226256   4.515   6.678   5.422 -0.8577 -0.1966 -0.4346
 8453SOL     OW26257   0.441   1.202   5.690  0.0647 -0.4807 -0.2453
 8453SOL    HW126258   0.535   1.208   5.726  0.2895 -0.3488 -0.8377
 8453SOL    HW226259   0.377   1.231   5.761  0.6908  2.9051 -0.8580
 8454SOL     OW26260   6.385   3.942   6.046  0.5474  0.7060 -0.4537
 8454SOL    HW126261   6.446   3.890   5.986  1.2005  1.0906 -0.1329
 8454SOL    HW226262   6.360   4.029   6.002  2.7586  1.9882  0.6642
 8455SOL     OW26263   6.418   5.592   1.307 -0.4034  0.0950 -0.5620
 8455SOL    HW126264   6.385   5.524   1.241  0.5787 -0.0041 -0.9710
 8455SOL    HW226265   6.345   5.615   1.371 -0.1717 -2.9359  0.9460
 8456SOL     OW26266   1.739   1.982   3.580 -0.2482 -0.3360 -0.3165
 8456SOL    HW126267   1.713   2.013   3.671 -0.1900 -1.8049  0.2271
 8456SOL    HW226268   1.768   1.886   3.584  0.1571 -0.3066 -1.8108
 8457SOL     OW26269   4.377   0.426   0.750  0.2953 -0.8751 -1.0861
 8457SOL    HW126270   4.328   0.396   0.832 -1.6300 -0.2682 -1.9414
 8457SOL    HW226271   4.457   0.368   0.736 -0.5053 -2.3416  0.0591
 8458SOL     OW26272   0.213   1.263   6.376  1.1229  0.1786 -0.4073
 8458SOL    HW126273   0.135   1.319   6.406  0.4889  0.3063 -2.1932
 8458SOL    HW226274   0.297   1.317   6.383  0.8428  0.5617  0.0766
 8459SOL     OW26275   6.733   3.342   4.630 -0.0335  0.0981  0.4154
 8459SOL    HW126276   6.723   3.305   4.537 -1.7416 -1.5282  1.1848
 8459SOL    HW226277   6.659   3.406   4.648  0.7484  1.0270  0.4239
 8460SOL     OW26278   3.286   2.981   2.950 -0.2022  0.6824  0.3219
 8460SOL    HW126279   3.305   3.076   2.922  0.7030  0.0227 -1.4248
 8460SOL    HW226280   3.283   2.923   2.869 -0.7983 -0.7864  1.3780
 8461SOL     OW26281   6.038   5.725   3.427 -1.1090  0.4290  0.2614
 8461SOL    HW126282   6.060   5.628   3.412 -0.0449  0.1115  3.0904
 8461SOL    HW226283   6.101   5.782   3.376 -0.5520 -0.4140 -0.0131
 8462SOL     OW26284   0.178   0.832   6.481 -0.4296  0.0879  0.2499
 8462SOL    HW126285   0.128   0.902   6.532  0.1516  0.7913 -0.1279
 8462SOL    HW226286   0.114   0.760   6.454 -0.8800  0.0382  1.3585
 8463SOL     OW26287   5.184   3.424   3.649 -0.8389 -0.1286  0.0531
 8463SOL    HW126288   5.087   3.408   3.664 -0.7698 -1.0397 -0.4542
 8463SOL    HW226289   5.195   3.500   3.584 -1.2407 -0.9985 -1.0517
 8464SOL     OW26290   1.883   1.075   3.580 -0.0123 -0.5731  0.3328
 8464SOL    HW126291   1.943   1.021   3.521 -0.5028  0.6506 -1.3583
 8464SOL    HW226292   1.855   1.158   3.532 -1.3801 -0.0925  1.8707
 8465SOL     OW26293   2.567   0.080   2.311 -0.1598 -0.0144  0.0585
 8465SOL    HW126294   2.583   0.177   2.291  0.9865 -0.5319 -1.7790
 8465SOL    HW226295   2.637   0.048   2.375  0.0715  0.1423 -0.1129
 8466SOL     OW26296   1.208   2.911   6.638 -0.1016 -0.4937 -0.9435
 8466SOL    HW126297   1.238   3.006   6.641 -0.5632 -0.3466 -1.0631
 8466SOL    HW226298   1.285   2.853   6.609  0.0683 -0.1133 -1.2574
 8467SOL     OW26299   5.937   2.960   6.295 -0.0379 -0.2133  0.1736
 8467SOL    HW126300   5.933   2.875   6.242 -1.1268  1.3224 -2.4347
 8467SOL    HW226301   5.889   2.948   6.382  0.8995 -2.5607  0.4299
 8468SOL     OW26302   5.109   0.338   3.975 -0.5177  0.0754 -0.1809
 8468SOL    HW126303   5.011   0.325   3.961 -0.4195 -0.6267 -0.2631
 8468SOL    HW226304   5.148   0.386   3.896 -0.8048  0.4026 -0.1230
 8469SOL     OW26305   4.955   5.303   2.846 -0.2141  0.3307 -0.3398
 8469SOL    HW126306   4.936   5.346   2.758  1.7686  0.6391 -0.6525
 8469SOL    HW226307   5.047   5.264   2.846 -0.3452 -0.0859  1.4341
 8470SOL     OW26308   5.577   5.361   6.532 -0.6801 -0.6682 -0.5185
 8470SOL    HW126309   5.560   5.287   6.466  1.2684 -0.1779 -1.6250
 8470SOL    HW226310   5.495   5.418   6.538 -1.4054 -1.5625 -1.4095
 8471SOL     OW26311   3.181   0.588   0.565 -0.1238  0.7257 -0.1119
 8471SOL    HW126312   3.212   0.679   0.539  0.7794  1.0186  1.8608
 8471SOL    HW226313   3.260   0.529   0.580 -0.6880 -0.6461 -2.0349
 8472SOL     OW26314   5.365   6.622   1.513  0.2186 -0.3638 -0.2503
 8472SOL    HW126315   5.426   6.558   1.465  1.3874  0.6105 -0.1210
 8472SOL    HW226316   5.350   6.702   1.455 -0.8222 -0.5200 -0.2055
 8473SOL     OW26317   1.716   6.741   4.608 -0.0497 -0.0242  0.4941
 8473SOL    HW126318   1.809   6.732   4.642  0.0851 -0.6967 -0.0339
 8473SOL    HW226319   1.701   6.836   4.578  0.1555  0.3150  1.4255
 8474SOL     OW26320   0.148   1.492   0.430  0.0766  0.4355 -0.1045
 8474SOL    HW126321   0.207   1.417   0.459 -0.3422 -0.1402 -0.7148
 8474SOL    HW226322   0.122   1.479   0.334  0.5632  1.7266 -0.4327
 8475SOL     OW26323   2.103   3.031   2.190 -0.6117  0.0370 -0.4878
 8475SOL    HW126324   2.109   3.128   2.165  0.3180  0.2288  0.3986
 8475SOL    HW226325   2.075   2.978   2.111  0.8570  0.7909 -1.5638
 8476SOL     OW26326   1.937   4.148   3.605 -0.3957 -0.2515 -0.0850
 8476SOL    HW126327   1.882   4.219   3.560 -0.6199 -1.1289 -1.2481
 8476SOL    HW226328   1.984   4.094   3.535 -0.0430 -1.0964  0.7937
 8477SOL     OW26329   6.503   0.093   0.519 -0.0846 -0.2765  0.3441
 8477SOL    HW126330   6.546   0.160   0.460  1.2312 -1.1966  0.2105
 8477SOL    HW226331   6.404   0.099   0.511  0.0488 -0.7627 -2.4073
 8478SOL     OW26332   2.222   2.163   1.865  0.5981  0.3960 -0.3546
 8478SOL    HW126333   2.162   2.094   1.905  0.7635  0.4451 -0.0182
 8478SOL    HW226334   2.305   2.172   1.921  0.6285  0.7868 -0.4591
 8479SOL     OW26335   5.375   5.968   6.041  0.0585 -0.1416  0.2021
 8479SOL    HW126336   5.291   5.957   6.094 -0.6070  0.6091 -0.6719
 8479SOL    HW226337   5.352   5.992   5.947  1.2101 -1.8411 -0.5597
 8480SOL     OW26338   2.119   4.759   6.720 -0.3425 -1.1104 -0.0858
 8480SOL    HW126339   2.070   4.722   6.641  0.1452 -0.6951 -0.5830
 8480SOL    HW226340   2.195   4.698   6.744 -1.9651 -2.5993  1.6485
 8481SOL     OW26341   4.131   3.205   6.480 -0.4249 -0.0109 -0.5527
 8481SOL    HW126342   4.092   3.115   6.501 -0.4936  0.4253  1.3706
 8481SOL    HW226343   4.115   3.227   6.384 -2.4155 -1.0821 -0.5053
 8482SOL     OW26344   6.682   2.444   5.160  0.3216 -0.1564  0.6795
 8482SOL    HW126345   6.661   2.448   5.062 -0.8175 -2.3225  0.7795
 8482SOL    HW226346   6.769   2.397   5.174  0.0408 -0.6591  0.7449
 8483SOL     OW26347   0.554   1.350   6.701 -0.8609 -0.3203 -0.2815
 8483SOL    HW126348   0.519   1.344   6.794 -1.7119 -1.3717 -0.6574
 8483SOL    HW226349   0.653   1.360   6.703 -1.0190  1.3323  0.7662
 8484SOL     OW26350   6.742   3.713   5.265 -0.5480  0.1705 -0.3507
 8484SOL    HW126351   6.741   3.623   5.222  1.7421 -1.0417  1.8617
 8484SOL    HW226352   6.836   3.745   5.272 -1.3705  3.5011 -2.3494
 8485SOL     OW26353   6.754   1.777   0.439 -0.1704 -0.4882 -0.1723
 8485SOL    HW126354   6.806   1.696   0.464 -0.8299 -1.6293 -2.2944
 8485SOL    HW226355   6.690   1.799   0.513  0.4493 -1.5134  0.6953
 8486SOL     OW26356   4.202   3.505   5.098  0.0019  0.2505 -0.1012
 8486SOL    HW126357   4.148   3.448   5.036 -1.0570  0.0148  0.9935
 8486SOL    HW226358   4.195   3.601   5.071 -0.5382  0.1594 -0.2978
 8487SOL     OW26359   4.063   6.851   1.111  0.3326  0.0466 -0.4814
 8487SOL    HW126360   4.011   6.767   1.097  1.0154 -0.9525  2.2678
 8487SOL    HW226361   4.016   6.908   1.178  1.7597  0.0172  0.5989
 8488SOL     OW26362   1.113   2.325   1.620  0.2400  0.2828 -0.0374
 8488SOL    HW126363   1.164   2.404   1.585  0.2859  0.6120  0.7567
 8488SOL    HW226364   1.022   2.324   1.578  0.2936  0.6631 -0.1745
 8489SOL     OW26365   0.647   1.599   3.704  0.2944  0.1542  0.6038
 8489SOL    HW126366   0.602   1.565   3.622 -0.0174 -1.0653  1.2564
 8489SOL    HW226367   0.608   1.688   3.729 -0.8609 -0.2891  0.4368
 8490SOL     OW26368   3.797   3.614   6.273 -0.3413  0.0160 -0.4546
 8490SOL    HW126369   3.884   3.661   6.284  0.4258 -0.9927 -1.7918
 8490SOL    HW226370   3.745   3.656   6.198 -0.2807 -0.3745 -0.7197
 8491SOL     OW26371   0.440   3.348   3.083  0.1843 -0.0714 -0.4334
 8491SOL    HW126372   0.515   3.392   3.132 -0.6968  1.3854 -0.3437
 8491SOL    HW226373   0.456   3.353   2.985  0.6186 -0.5665 -0.3958
 8492SOL     OW26374   6.046   2.970   4.305 -0.3800  0.2252  0.3505
 8492SOL    HW126375   6.004   3.036   4.368 -2.3718 -1.1561  0.5679
 8492SOL    HW226376   6.109   2.911   4.356  0.5087  1.1618  0.3746
 8493SOL     OW26377   2.654   4.636   6.445 -0.6181 -0.9050  0.0054
 8493SOL    HW126378   2.708   4.695   6.504 -1.2255  1.8855 -2.0021
 8493SOL    HW226379   2.714   4.577   6.392  0.1067 -1.1895  1.1216
 8494SOL     OW26380   2.913   6.778   4.347  0.2354  0.1947  0.5774
 8494SOL    HW126381   2.972   6.858   4.335  0.9192 -0.5167 -1.2035
 8494SOL    HW226382   2.817   6.807   4.342  0.4304  1.1187  1.7100
 8495SOL     OW26383   1.445   2.518   6.027  0.1522  1.1275 -0.3399
 8495SOL    HW126384   1.387   2.437   6.027  0.1681  1.0933 -1.5220
 8495SOL    HW226385   1.400   2.592   6.077  1.4998 -0.4773  3.6289
 8496SOL     OW26386   1.446   3.955   3.368  0.1154  0.5283 -0.1863
 8496SOL    HW126387   1.521   3.934   3.431 -0.4725 -1.9072 -0.1784
 8496SOL    HW226388   1.477   3.941   3.274 -0.6849 -2.2088 -0.1326
 8497SOL     OW26389   2.618   0.418   4.741 -0.1053 -0.1255  0.2016
 8497SOL    HW126390   2.586   0.392   4.832 -2.1275 -0.7817 -0.6572
 8497SOL    HW226391   2.653   0.337   4.694 -1.1852 -0.2526 -0.4128
 8498SOL     OW26392   2.180   6.737   1.723  0.6181 -0.6459  0.6114
 8498SOL    HW126393   2.277   6.721   1.704  0.2965 -0.2590 -1.6513
 8498SOL    HW226394   2.159   6.833   1.708  0.4847  0.0810  4.3840
 8499SOL     OW26395   0.913   5.598   4.543 -0.1530 -0.0613  0.0360
 8499SOL    HW126396   0.965   5.559   4.618  1.7132  0.0490 -1.1239
 8499SOL    HW226397   0.960   5.679   4.508 -2.1766  1.2450  0.2042
 8500SOL     OW26398   1.190   4.670   3.919 -0.3641 -0.3447 -0.2273
 8500SOL    HW126399   1.275   4.621   3.941  0.4524  1.4029  0.6547
 8500SOL    HW226400   1.161   4.645   3.827 -0.2716 -2.8459  0.3450
 8501SOL     OW26401   2.107   5.763   5.729 -0.0053 -0.0377 -0.0906
 8501SOL    HW126402   2.117   5.702   5.651 -1.1327 -0.9731  0.4595
 8501SOL    HW226403   2.016   5.752   5.768  0.1709  1.1886  0.7121
 8502SOL     OW26404   0.237   6.045   6.371 -0.6071 -0.5741 -0.8178
 8502SOL    HW126405   0.206   6.114   6.436  0.1682  0.1256 -1.1702
 8502SOL    HW226406   0.175   6.043   6.292 -0.2092  0.2503 -1.1529
 8503SOL     OW26407   5.164   1.515   4.223 -0.0431  0.4703 -0.2335
 8503SOL    HW126408   5.198   1.432   4.268  0.6391 -0.5854 -2.5601
 8503SOL    HW226409   5.207   1.524   4.134 -1.7543  2.1632 -0.9441
 8504SOL     OW26410   5.952   4.231   1.574  0.2790  0.5458  0.6026
 8504SOL    HW126411   5.902   4.176   1.508  0.5880 -0.8871  1.5297
 8504SOL    HW226412   5.960   4.325   1.539  1.1689 -0.3410 -1.7922
 8505SOL     OW26413   5.458   1.752   5.753 -0.8470 -0.0339 -0.0324
 8505SOL    HW126414   5.446   1.781   5.658 -0.6868 -0.5951 -0.2307
 8505SOL    HW226415   5.419   1.820   5.814 -0.7777  0.4273 -0.4945
 8506SOL     OW26416   1.092   0.495   4.545 -0.1440 -0.1891 -0.1769
 8506SOL    HW126417   0.997   0.515   4.569 -0.2346 -0.5179 -0.2460
 8506SOL    HW226418   1.152   0.523   4.620 -0.3144 -0.1394 -0.0589
 8507SOL     OW26419   0.511   2.412   6.133 -0.0980  0.7972  0.1009
 8507SOL    HW126420   0.444   2.482   6.107 -0.0879  0.8970  0.3415
 8507SOL    HW226421   0.513   2.404   6.233 -0.4073  0.1562  0.0584
 8508SOL     OW26422   1.745   1.270   3.444  0.1331  0.4433 -0.0276
 8508SOL    HW126423   1.679   1.335   3.482 -0.3709 -0.3995  0.5483
 8508SOL    HW226424   1.699   1.211   3.377 -0.2881 -1.6738  2.0313
 8509SOL     OW26425   4.774   1.105   0.778 -0.3158 -0.3756 -0.9143
 8509SOL    HW126426   4.732   1.027   0.824  0.5296  0.0110  0.5909
 8509SOL    HW226427   4.868   1.115   0.809 -0.6108  1.6397 -0.5281
 8510SOL     OW26428   2.937   6.161   5.916  0.2978 -0.2100 -0.1277
 8510SOL    HW126429   2.922   6.175   5.818 -1.2863 -1.8741 -0.1850
 8510SOL    HW226430   3.017   6.102   5.930  1.2067  0.9495 -0.3377
 8511SOL     OW26431   3.611   5.346   1.911 -0.1754 -0.1993 -0.1777
 8511SOL    HW126432   3.668   5.334   1.993 -0.7894 -0.8506  0.1624
 8511SOL    HW226433   3.662   5.396   1.842  0.7123 -0.5358  0.2242
 8512SOL     OW26434   0.650   2.484   3.101  0.0655  0.4139 -0.0809
 8512SOL    HW126435   0.556   2.478   3.135 -0.4477  0.2550 -1.4417
 8512SOL    HW226436   0.687   2.575   3.121 -1.0294  1.1176 -1.0447
 8513SOL     OW26437   6.668   0.004   1.853  0.3077 -0.2481  0.0144
 8513SOL    HW126438   6.759   0.032   1.884  0.0906 -1.3832  1.7977
 8513SOL    HW226439   6.600   0.070   1.886  0.4800  0.9394 -1.8286
 8514SOL     OW26440   5.130   0.750   0.400 -0.4824 -0.1922 -0.2365
 8514SOL    HW126441   5.053   0.728   0.459  0.2597 -1.3154  0.3445
 8514SOL    HW226442   5.171   0.837   0.429 -0.0576 -0.7830  0.9929
 8515SOL     OW26443   3.927   0.386   0.811 -0.2460 -0.8707 -0.0729
 8515SOL    HW126444   3.934   0.486   0.810 -0.3710 -0.5459  4.7927
 8515SOL    HW226445   3.834   0.360   0.838 -0.1002 -2.3277 -0.9096
 8516SOL     OW26446   5.297   1.158   2.705 -0.1529 -0.1694  0.3205
 8516SOL    HW126447   5.267   1.184   2.797 -1.3059  2.7937 -0.7557
 8516SOL    HW226448   5.255   1.072   2.679 -2.4429  0.5516  1.3980
 8517SOL     OW26449   4.041   6.873   5.963  0.2910 -0.2179 -0.1392
 8517SOL    HW126450   3.983   6.876   6.045 -0.3619  1.8400 -0.6360
 8517SOL    HW226451   4.075   6.780   5.951  0.0760 -0.6753  2.2342
 8518SOL     OW26452   3.026   5.313   2.440  0.0587  0.6860 -0.2272
 8518SOL    HW126453   2.993   5.408   2.441  1.2220  1.0960  0.4413
 8518SOL    HW226454   3.100   5.305   2.374  1.3075  0.7289  1.1282
 8519SOL     OW26455   6.316   5.391   0.650  0.3801  0.2258  0.1161
 8519SOL    HW126456   6.296   5.374   0.553 -0.5064  0.4564  0.2493
 8519SOL    HW226457   6.296   5.309   0.703  2.7106 -0.5701 -0.1127
 8520SOL     OW26458   6.606   5.204   3.001 -0.4376 -0.4364  0.5444
 8520SOL    HW126459   6.681   5.259   2.962  3.0275 -3.3297  2.5355
 8520SOL    HW226460   6.561   5.152   2.928  0.6211  0.1026 -0.5268
 8521SOL     OW26461   2.190   6.407   5.332 -0.3941 -0.1072 -0.5018
 8521SOL    HW126462   2.258   6.406   5.258 -0.0773 -3.3301 -0.3478
 8521SOL    HW226463   2.162   6.313   5.352 -0.9766  0.6555  3.0340
 8522SOL     OW26464   1.653   4.965   0.819 -0.3948 -0.3098  0.1548
 8522SOL    HW126465   1.745   5.004   0.810 -0.5528  0.1935  0.6318
 8522SOL    HW226466   1.642   4.891   0.753  0.8158 -1.2807  1.0059
 8523SOL     OW26467   1.293   0.207   1.233  0.3255 -0.0262  0.4873
 8523SOL    HW126468   1.288   0.259   1.148 -1.3712 -1.0785 -0.0999
 8523SOL    HW226469   1.313   0.111   1.213 -0.2946 -0.3267  1.2631
 8524SOL     OW26470   2.962   2.893   0.921 -0.1777  0.0210 -0.1454
 8524SOL    HW126471   2.959   2.991   0.901  2.1589  0.0754 -0.4154
 8524SOL    HW226472   2.953   2.879   1.020  1.9762  0.7355  0.2037
 8525SOL     OW26473   5.336   5.776   3.299  0.0447  0.1728 -0.4455
 8525SOL    HW126474   5.306   5.866   3.330  1.6365  1.0883 -1.3996
 8525SOL    HW226475   5.403   5.788   3.225  0.1363 -1.8087 -0.7153
 8526SOL     OW26476   3.737   5.846   1.887 -0.1576 -0.4771  0.3863
 8526SOL    HW126477   3.783   5.780   1.828 -2.5518 -1.2240 -0.7765
 8526SOL    HW226478   3.734   5.811   1.981  2.5784  0.1527  0.8023
 8527SOL     OW26479   0.684   0.909   6.051 -0.8745 -0.0155 -0.1738
 8527SOL    HW126480   0.693   0.989   5.992 -1.3806 -0.0377 -0.2876
 8527SOL    HW226481   0.589   0.900   6.080 -0.4850  0.5026  1.3590
 8528SOL     OW26482   6.142   4.573   0.838 -0.2999  0.4616 -0.4208
 8528SOL    HW126483   6.100   4.523   0.914  2.8945  0.1594  1.3255
 8528SOL    HW226484   6.161   4.667   0.866 -0.0615  0.6615 -1.2218
 8529SOL     OW26485   0.904   5.581   0.987  0.1866 -0.0894 -0.3587
 8529SOL    HW126486   0.930   5.658   1.044  1.3065  0.2307 -1.2662
 8529SOL    HW226487   0.986   5.540   0.946 -0.6678  1.1826 -3.6407
 8530SOL     OW26488   6.697   4.059   5.354  0.3579 -0.0372 -0.5325
 8530SOL    HW126489   6.709   3.999   5.432 -1.4867 -0.3258 -0.4261
 8530SOL    HW226490   6.708   4.006   5.269  0.6531 -0.0912 -0.4621
 8531SOL     OW26491   4.415   2.804   0.626 -0.2204 -0.0384 -0.2572
 8531SOL    HW126492   4.366   2.870   0.570  0.9869 -0.9351 -2.5133
 8531SOL    HW226493   4.408   2.713   0.584  3.5903 -0.1507 -1.0292
 8532SOL     OW26494   3.302   3.950   1.473  0.0002  0.0417  0.4360
 8532SOL    HW126495   3.277   3.853   1.475 -0.0072  0.0354  0.1365
 8532SOL    HW226496   3.292   3.985   1.379  0.0894  0.3091  0.5247
 8533SOL     OW26497   0.409   4.937   5.257 -0.0276  0.6202 -0.2479
 8533SOL    HW126498   0.478   4.916   5.326  0.7147 -0.2486 -1.2060
 8533SOL    HW226499   0.327   4.973   5.301 -0.1592 -1.3141  1.2486
 8534SOL     OW26500   4.492   2.487   0.740 -0.5324 -1.0956  0.4588
 8534SOL    HW126501   4.428   2.493   0.817 -0.4168  1.3017  0.4273
 8534SOL    HW226502   4.584   2.467   0.774 -0.3777  0.4909  1.0239
 8535SOL     OW26503   1.666   0.483   3.851 -0.5040  0.3869  0.3391
 8535SOL    HW126504   1.675   0.464   3.753  0.3938  0.7309  0.3494
 8535SOL    HW226505   1.576   0.522   3.868 -0.8509 -0.1122 -0.2731
 8536SOL     OW26506   1.037   2.816   2.917 -0.5137 -0.1595 -0.3833
 8536SOL    HW126507   1.134   2.796   2.925 -0.6068 -0.6264 -0.3967
 8536SOL    HW226508   0.997   2.757   2.847 -1.2518 -1.5599  1.1374
 8537SOL     OW26509   5.312   5.611   1.797 -0.1332  0.1470  0.0867
 8537SOL    HW126510   5.263   5.696   1.776  1.4492  1.1479  0.2680
 8537SOL    HW226511   5.250   5.534   1.787 -1.5259  1.2839 -0.4526
 8538SOL     OW26512   3.323   3.747   5.140 -0.8468  0.2384 -0.3045
 8538SOL    HW126513   3.228   3.732   5.113 -0.1353 -1.5266 -2.0889
 8538SOL    HW226514   3.376   3.780   5.062  0.2287  0.1014  0.3449
 8539SOL     OW26515   1.859   6.419   1.447  0.3874 -0.2473 -0.0914
 8539SOL    HW126516   1.821   6.485   1.383 -0.7213 -2.3345 -1.7088
 8539SOL    HW226517   1.940   6.459   1.492 -0.7698  2.4791 -0.2513
 8540SOL     OW26518   2.827   0.145   3.183 -0.4415  0.1274 -0.3976
 8540SOL    HW126519   2.896   0.204   3.141  0.0731  0.7192  1.1787
 8540SOL    HW226520   2.838   0.148   3.283 -1.0408 -1.8694 -0.2264
 8541SOL     OW26521   3.629   1.363   5.933 -0.3252  1.1383 -0.8347
 8541SOL    HW126522   3.718   1.406   5.915  0.3630  0.4852  0.8074
 8541SOL    HW226523   3.643   1.273   5.972 -1.7164  1.1881 -0.1537
 8542SOL     OW26524   3.266   1.400   2.154 -0.0939 -0.5874 -1.1086
 8542SOL    HW126525   3.180   1.442   2.125  0.2227  1.1606  0.2593
 8542SOL    HW226526   3.323   1.382   2.074 -0.5880  0.9326 -1.8526
 8543SOL     OW26527   6.507   6.393   6.367  1.1606 -0.7245 -0.0327
 8543SOL    HW126528   6.574   6.443   6.312  1.7214 -0.9661  0.4262
 8543SOL    HW226529   6.455   6.331   6.308  0.0631  0.7909 -0.7142
 8544SOL     OW26530   3.761   1.212   5.204 -0.1975 -0.0241  0.1526
 8544SOL    HW126531   3.705   1.293   5.188 -1.9053 -1.0386  0.6629
 8544SOL    HW226532   3.722   1.134   5.155  0.9157 -0.7274  0.3342
 8545SOL     OW26533   4.616   3.438   5.579 -0.2818  0.0175 -0.7397
 8545SOL    HW126534   4.665   3.410   5.662 -1.7045  1.8255  0.7931
 8545SOL    HW226535   4.517   3.426   5.594 -0.5968  1.0851 -1.8836
 8546SOL     OW26536   2.601   2.484   4.714  0.2171 -0.2670 -0.5896
 8546SOL    HW126537   2.645   2.550   4.775  0.7984 -0.3294 -0.9298
 8546SOL    HW226538   2.642   2.491   4.623  1.1180 -1.8987 -0.3388
 8547SOL     OW26539   1.530   6.900   2.979  0.5753  0.2761 -0.2871
 8547SOL    HW126540   1.618   6.925   2.939 -1.1444  1.1255 -3.8949
 8547SOL    HW226541   1.476   6.848   2.913 -1.9678  0.3974  1.5359
 8548SOL     OW26542   6.651   1.306   0.403 -0.8845 -0.0510 -0.3347
 8548SOL    HW126543   6.740   1.296   0.359 -1.0786 -0.2665 -0.6851
 8548SOL    HW226544   6.595   1.226   0.383 -1.3811  0.3640 -0.6431
 8549SOL     OW26545   3.195   0.916   3.446 -0.3994 -0.0025  0.0773
 8549SOL    HW126546   3.275   0.959   3.403  0.5433 -1.7726 -0.0550
 8549SOL    HW226547   3.154   0.980   3.511  0.8724  1.1087 -0.1490
 8550SOL     OW26548   2.778   6.920   6.471  0.3603 -0.0052 -0.0267
 8550SOL    HW126549   2.848   6.932   6.542  1.2908 -1.0729 -0.7138
 8550SOL    HW226550   2.791   6.989   6.400  1.5393 -0.9216 -0.7537
 8551SOL     OW26551   3.623   1.852   6.461  0.1587  0.5931  0.5136
 8551SOL    HW126552   3.586   1.882   6.548 -0.6796  0.1973  0.3068
 8551SOL    HW226553   3.648   1.755   6.467 -1.9033 -0.0532 -0.2651
 8552SOL     OW26554   2.527   2.815   0.165 -0.2003 -0.4538  0.5194
 8552SOL    HW126555   2.600   2.857   0.112  0.0172 -0.8106  0.5265
 8552SOL    HW226556   2.464   2.766   0.104  0.8425 -2.0737  0.6708
 8553SOL     OW26557   2.867   3.745   1.248 -0.9441 -0.0611  0.0075
 8553SOL    HW126558   2.909   3.740   1.157  1.0142  0.7796  0.8031
 8553SOL    HW226559   2.881   3.836   1.286 -1.5010 -0.4753  1.2451
 8554SOL     OW26560   3.115   4.389   1.087  0.1263 -0.3896  0.3666
 8554SOL    HW126561   3.120   4.487   1.105 -0.9892 -0.1678 -0.4272
 8554SOL    HW226562   3.089   4.341   1.171 -1.5293  0.2428  0.2386
 8555SOL     OW26563   1.147   0.464   1.460 -0.0799  0.1119 -0.4207
 8555SOL    HW126564   1.219   0.482   1.393  0.9203 -0.5567  0.4494
 8555SOL    HW226565   1.093   0.386   1.429 -0.1114  0.2888 -0.8232
 8556SOL     OW26566   5.118   0.429   0.288  0.3581 -0.5974  0.4092
 8556SOL    HW126567   5.152   0.351   0.235  1.8729 -0.8016  1.6337
 8556SOL    HW226568   5.020   0.417   0.305  0.1203 -1.1834 -1.1574
 8557SOL     OW26569   5.529   6.469   1.371  0.3734 -0.1966 -0.2176
 8557SOL    HW126570   5.554   6.391   1.428 -1.4643  0.1957  1.1979
 8557SOL    HW226571   5.519   6.438   1.276  0.1928 -1.5632  0.2263
 8558SOL     OW26572   1.937   5.251   2.046  0.2309  0.6577 -0.6654
 8558SOL    HW126573   1.958   5.277   1.952 -3.3868  2.9011 -1.0702
 8558SOL    HW226574   1.903   5.157   2.048  1.8442  0.0225 -1.2608
 8559SOL     OW26575   0.902   5.385   6.601 -0.1845 -0.2419 -0.1242
 8559SOL    HW126576   0.901   5.356   6.697 -2.3765  0.6405  0.1738
 8559SOL    HW226577   0.814   5.428   6.578  0.1015 -0.8578 -2.6660
 8560SOL     OW26578   4.877   3.020   5.157  0.1706 -0.1340 -0.1123
 8560SOL    HW126579   4.911   2.989   5.068  0.8480  0.0507  0.0702
 8560SOL    HW226580   4.803   2.960   5.188 -0.1711 -0.1083 -0.8674
 8561SOL     OW26581   4.644   6.518   3.442  0.2089 -0.4571 -0.1128
 8561SOL    HW126582   4.680   6.572   3.518  0.7656 -2.0567  0.8253
 8561SOL    HW226583   4.544   6.518   3.446  0.1172  1.7292 -1.0742
 8562SOL     OW26584   1.774   6.878   1.145  0.7007  0.1276 -0.5005
 8562SOL    HW126585   1.847   6.937   1.180  0.6137  0.5118 -0.9626
 8562SOL    HW226586   1.799   6.845   1.054  1.1368 -1.2441  0.0887
 8563SOL     OW26587   5.459   3.136   6.465  0.8130 -0.3553  0.4087
 8563SOL    HW126588   5.494   3.229   6.455  1.3892 -0.3867  1.9760
 8563SOL    HW226589   5.493   3.080   6.389  1.8950  0.2878  0.3938
 8564SOL     OW26590   5.199   4.778   0.648  0.3775  0.0347 -0.0585
 8564SOL    HW126591   5.251   4.771   0.733  0.6455 -1.8812 -0.3254
 8564SOL    HW226592   5.255   4.743   0.573  0.2169  1.8681 -1.0965
 8565SOL     OW26593   2.578   0.055   1.461 -0.3960 -0.6679  0.4613
 8565SOL    HW126594   2.671   0.081   1.487 -0.7297  0.0228  0.9721
 8565SOL    HW226595   2.583  -0.011   1.385  0.4860  1.5430 -1.5391
 8566SOL     OW26596   0.997   3.990   4.495 -0.1712  0.6743  0.2455
 8566SOL    HW126597   1.058   3.916   4.522 -0.8904 -0.3241 -0.7677
 8566SOL    HW226598   0.936   4.013   4.571 -2.0968 -2.0153 -0.3043
 8567SOL     OW26599   4.949   5.342   3.242  0.2530  0.2065 -0.5550
 8567SOL    HW126600   5.024   5.335   3.175  2.2455  0.5721  1.4999
 8567SOL    HW226601   4.928   5.439   3.257  1.3900  0.2534  0.9222
 8568SOL     OW26602   5.954   1.686   0.377 -0.3719  0.4855 -0.3305
 8568SOL    HW126603   5.981   1.608   0.434  0.1801  0.3149 -0.8186
 8568SOL    HW226604   5.874   1.661   0.322  1.0179 -0.4802 -2.0252
 8569SOL     OW26605   5.805   6.905   2.794  0.8462 -0.5096 -0.1607
 8569SOL    HW126606   5.850   6.939   2.712  0.8120 -0.2836 -0.0861
 8569SOL    HW226607   5.865   6.841   2.841  0.9835 -0.4107 -0.2028
 8570SOL     OW26608   3.930   0.098   4.442  0.1728 -0.0374 -0.8815
 8570SOL    HW126609   3.887   0.186   4.425 -1.1128 -0.4166  0.2440
 8570SOL    HW226610   4.026   0.102   4.415 -0.3527  1.0575 -2.7761
 8571SOL     OW26611   0.554   1.509   5.662  0.2549  0.2534 -0.0804
 8571SOL    HW126612   0.616   1.506   5.741 -2.4524 -0.4467  2.1678
 8571SOL    HW226613   0.567   1.596   5.613  0.8321  1.5184  2.1779
 8572SOL     OW26614   5.318   4.990   0.510  0.2967  0.3917  0.2663
 8572SOL    HW126615   5.293   4.944   0.595  0.7021 -1.2728 -0.4804
 8572SOL    HW226616   5.235   5.018   0.461  0.0458  0.5765  0.7938
 8573SOL     OW26617   6.147   2.278   5.422 -0.1274 -0.2466  0.2453
 8573SOL    HW126618   6.122   2.202   5.362 -0.6287  0.6873 -0.7687
 8573SOL    HW226619   6.117   2.259   5.515 -1.2283 -0.8162 -0.2047
 8574SOL     OW26620   6.481   5.673   4.585  0.3191  0.2742 -0.4292
 8574SOL    HW126621   6.495   5.574   4.586 -3.7704 -0.4571 -0.4686
 8574SOL    HW226622   6.471   5.704   4.490 -0.6081  0.3265 -0.3174
 8575SOL     OW26623   3.500   4.342   5.421  0.0369  0.1901  0.9979
 8575SOL    HW126624   3.585   4.331   5.371 -0.7405 -0.6340 -0.1866
 8575SOL    HW226625   3.520   4.368   5.516  1.5481  1.4576  0.3780
 8576SOL     OW26626   1.756   0.085   3.422  0.0434 -0.2952 -0.2092
 8576SOL    HW126627   1.718   0.013   3.480  0.1151  0.5349  0.9095
 8576SOL    HW226628   1.855   0.076   3.417  0.0773 -0.1326  0.1398
 8577SOL     OW26629   4.523   5.280   4.236  0.1129  0.1036 -0.4001
 8577SOL    HW126630   4.573   5.271   4.322 -1.3634  0.6538  0.5486
 8577SOL    HW226631   4.552   5.207   4.173  0.8045 -0.6608  0.7584
 8578SOL     OW26632   5.932   2.410   6.308  0.0013  0.1196 -0.2657
 8578SOL    HW126633   5.950   2.508   6.320  0.4960  0.0483 -0.4292
 8578SOL    HW226634   6.000   2.357   6.358 -0.4764 -0.1433  0.1155
 8579SOL     OW26635   2.541   2.543   3.889  0.0281  0.2620 -0.2261
 8579SOL    HW126636   2.476   2.531   3.814  1.2608 -1.6809 -1.0522
 8579SOL    HW226637   2.580   2.455   3.913  1.4845  1.2166  1.0636
 8580SOL     OW26638   0.044   6.713   3.416 -0.6993  0.0228 -0.8286
 8580SOL    HW126639  -0.003   6.753   3.338 -2.5635  1.5986  0.9905
 8580SOL    HW226640  -0.013   6.642   3.457  1.6735 -3.3104 -2.7275
 8581SOL     OW26641   6.121   2.176   6.901 -0.3197  0.0028 -0.2925
 8581SOL    HW126642   6.132   2.176   6.802 -2.0900  0.6839 -0.5089
 8581SOL    HW226643   6.057   2.247   6.929 -1.1134 -1.2113  1.1861
 8582SOL     OW26644   4.882   5.074   3.179 -0.1644 -0.1817 -0.0812
 8582SOL    HW126645   4.908   5.159   3.225  1.8721 -1.6807  1.7506
 8582SOL    HW226646   4.803   5.034   3.226 -0.4450  0.1394 -0.2704
 8583SOL     OW26647   3.261   6.315   5.666  0.3403  0.7343 -0.1336
 8583SOL    HW126648   3.282   6.241   5.729  1.2531  0.5837 -0.6020
 8583SOL    HW226649   3.202   6.280   5.592 -0.8864  0.9545  0.7016
 8584SOL     OW26650   4.796   1.300   2.475 -0.8393  0.2567  0.0151
 8584SOL    HW126651   4.886   1.329   2.445 -1.1121  1.0679 -0.0407
 8584SOL    HW226652   4.805   1.233   2.549 -0.1373 -1.9952 -1.9883
 8585SOL     OW26653   1.827   2.886   0.773  0.2482  0.1265  0.2907
 8585SOL    HW126654   1.823   2.975   0.726 -2.9039  0.3707  0.7771
 8585SOL    HW226655   1.792   2.815   0.712  3.1262 -0.9383 -0.2356
 8586SOL     OW26656   1.205   4.820   6.756 -0.1001 -0.2697  1.2514
 8586SOL    HW126657   1.229   4.725   6.736  1.4008 -0.2002  2.4678
 8586SOL    HW226658   1.110   4.837   6.731  0.1493 -1.5354 -0.7955
 8587SOL     OW26659   4.558   1.986   6.028  0.3993  0.4963  0.3517
 8587SOL    HW126660   4.608   1.916   5.977 -1.5126 -1.0563  0.4730
 8587SOL    HW226661   4.506   1.943   6.102 -2.3551  1.7033 -0.7244
 8588SOL     OW26662   1.327   2.692   4.629  0.5560  0.4556  0.8075
 8588SOL    HW126663   1.385   2.619   4.590  0.2173 -0.0519  1.2441
 8588SOL    HW226664   1.335   2.774   4.572 -0.4058 -0.4571 -0.7094
 8589SOL     OW26665   1.952   4.949   3.267 -0.3386 -0.3368  0.1773
 8589SOL    HW126666   1.899   4.993   3.340  2.3480  2.7054  0.5177
 8589SOL    HW226667   1.937   4.998   3.181 -0.0493 -1.0749 -0.2954
 8590SOL     OW26668   0.627   6.957   0.770 -0.2791  0.4568 -0.2420
 8590SOL    HW126669   0.632   6.948   0.671 -4.3254 -1.0934 -0.5050
 8590SOL    HW226670   0.649   6.869   0.813 -2.3942 -0.1091 -0.1624
 8591SOL     OW26671   5.646   1.854   0.433 -0.4066  0.0177  0.3897
 8591SOL    HW126672   5.651   1.787   0.358  0.7805 -0.3705  0.7752
 8591SOL    HW226673   5.572   1.918   0.416 -0.9665 -0.8245 -0.4815
 8592SOL     OW26674   2.149   3.344   3.500  0.0274 -0.3174 -0.4897
 8592SOL    HW126675   2.180   3.295   3.419  1.0488 -1.8862  0.7760
 8592SOL    HW226676   2.126   3.279   3.572 -1.2400  1.0103  0.3828
 8593SOL     OW26677   3.975   6.355   1.129  0.4287 -0.0364 -0.0608
 8593SOL    HW126678   4.036   6.278   1.109  0.5706 -0.1465  0.7918
 8593SOL    HW226679   3.881   6.329   1.105  0.8273  0.6119 -2.6999
 8594SOL     OW26680   2.982   3.506   3.867 -0.1274 -0.1731  0.6217
 8594SOL    HW126681   3.076   3.508   3.902  0.2591 -1.0896 -0.2959
 8594SOL    HW226682   2.964   3.417   3.825 -1.7512 -0.3628  1.6589
 8595SOL     OW26683   3.809   6.918   5.124  0.3786  0.1717  0.9787
 8595SOL    HW126684   3.852   6.846   5.179 -0.3613 -1.5466 -0.5820
 8595SOL    HW226685   3.746   6.877   5.058 -0.8745  2.3587  0.7192
 8596SOL     OW26686   0.473   2.566   2.453 -0.0190 -0.0919  0.2968
 8596SOL    HW126687   0.478   2.666   2.458  0.1701 -0.1504  1.3660
 8596SOL    HW226688   0.438   2.530   2.539  0.9192 -1.0136  0.3074
 8597SOL     OW26689   0.638   2.211   5.958 -0.2573 -0.1933  0.4396
 8597SOL    HW126690   0.609   2.276   5.888  0.3969  1.2522  1.4709
 8597SOL    HW226691   0.597   2.236   6.046  2.1716  0.5067  1.4370
 8598SOL     OW26692   4.540   0.241   1.020  0.4741  0.2473 -0.2208
 8598SOL    HW126693   4.566   0.175   0.950 -1.4511  0.1733 -0.9155
 8598SOL    HW226694   4.449   0.278   0.999 -0.7080 -0.6421  2.8316
 8599SOL     OW26695   6.209   6.982   3.949  0.1018 -0.1383  0.6154
 8599SOL    HW126696   6.178   7.063   3.900 -0.5776 -0.8561 -0.1602
 8599SOL    HW226697   6.297   6.952   3.911  1.9447  1.9277  2.8499
 8600SOL     OW26698   6.785   6.126   4.429  0.2582  0.0967  0.1219
 8600SOL    HW126699   6.725   6.064   4.480  0.7866  0.5210  1.2968
 8600SOL    HW226700   6.756   6.128   4.334 -0.2810 -1.3162  0.2225
 8601SOL     OW26701   0.302   0.561   5.060  0.2178 -0.2221 -0.1634
 8601SOL    HW126702   0.302   0.661   5.062  0.2422 -0.1970 -1.0939
 8601SOL    HW226703   0.380   0.527   5.113  0.7329  0.2786 -0.5814
 8602SOL     OW26704   1.058   3.258   6.895  0.0411 -0.2657 -0.3283
 8602SOL    HW126705   1.013   3.332   6.844 -0.8395 -0.5310  0.0549
 8602SOL    HW226706   1.115   3.297   6.967  0.8315  0.0910 -1.1200
 8603SOL     OW26707   2.715   3.029   1.195 -0.6670 -0.0823 -0.6580
 8603SOL    HW126708   2.726   3.081   1.110 -0.7815  0.1752 -0.5170
 8603SOL    HW226709   2.796   2.973   1.211 -0.9244 -0.6459 -1.2827
 8604SOL     OW26710   6.275   6.640   0.989  0.3701 -0.1529  0.7960
 8604SOL    HW126711   6.257   6.676   1.080  0.5021  0.2429  0.6643
 8604SOL    HW226712   6.188   6.626   0.941  0.2684 -0.8838  1.1806
 8605SOL     OW26713   2.364   1.992   4.764  0.3569 -0.0401  0.5166
 8605SOL    HW126714   2.438   2.058   4.773  1.9847 -1.5543 -0.8710
 8605SOL    HW226715   2.396   1.902   4.792 -2.1047 -0.2041  3.3852
 8606SOL     OW26716   1.561   6.965   4.004 -0.3875  0.3711  0.4483
 8606SOL    HW126717   1.491   6.949   4.074 -0.4335 -2.3879 -0.1308
 8606SOL    HW226718   1.551   6.898   3.930  2.4626  0.2969  0.0222
 8607SOL     OW26719   3.214   6.394   0.397 -0.5507 -0.3285 -0.5861
 8607SOL    HW126720   3.218   6.426   0.302 -2.2292 -1.6097 -1.1553
 8607SOL    HW226721   3.126   6.420   0.437 -0.5961 -1.3229  0.0025
 8608SOL     OW26722   1.726   3.529   4.917  0.4598  0.1724  0.2868
 8608SOL    HW126723   1.825   3.537   4.928  0.3542  0.3457  1.1582
 8608SOL    HW226724   1.704   3.440   4.877  0.9219 -0.1479  0.7395
 8609SOL     OW26725   2.090   3.667   6.970 -0.5356 -0.1884  0.5066
 8609SOL    HW126726   2.086   3.569   6.990  0.0668 -0.0030  1.6634
 8609SOL    HW226727   2.163   3.708   7.026 -0.1559  0.7539 -0.6593
 8610SOL     OW26728   3.468   1.722   0.846  0.4112 -0.2261  0.0336
 8610SOL    HW126729   3.497   1.633   0.811 -2.2613 -1.7716  1.3880
 8610SOL    HW226730   3.428   1.710   0.937 -0.3499  2.3177  0.1096
 8611SOL     OW26731   4.437   6.606   6.874 -0.1944 -0.2925  0.3245
 8611SOL    HW126732   4.367   6.551   6.918 -0.3093  1.3317  2.3223
 8611SOL    HW226733   4.517   6.612   6.934 -0.2435  1.7526  0.2637
 8612SOL     OW26734   6.780   1.893   0.849 -1.1115 -0.1131 -0.6728
 8612SOL    HW126735   6.706   1.948   0.887  0.9774  1.8696  0.7782
 8612SOL    HW226736   6.835   1.949   0.788 -0.0224 -1.1486 -0.6768
 8613SOL     OW26737   1.140   4.525   2.846 -0.1159  0.7475 -0.1794
 8613SOL    HW126738   1.097   4.511   2.757 -2.4334  1.7030  0.7136
 8613SOL    HW226739   1.070   4.537   2.916  1.6106 -0.6220  1.9414
 8614SOL     OW26740   6.336   0.592   5.479 -0.0235 -0.2023  0.1133
 8614SOL    HW126741   6.427   0.584   5.437 -0.0711  1.5923 -0.4208
 8614SOL    HW226742   6.345   0.615   5.576  0.1287  1.4030 -0.2595
 8615SOL     OW26743   4.626   5.870   6.983  0.3666 -0.7509  0.0010
 8615SOL    HW126744   4.713   5.822   6.971  0.5931 -0.1002 -1.1341
 8615SOL    HW226745   4.557   5.806   7.018  1.4174 -1.1438  1.4382
 8616SOL     OW26746   0.822   2.786   6.133  0.6051  0.2438  0.5100
 8616SOL    HW126747   0.829   2.875   6.088  1.0669  0.4532  0.9860
 8616SOL    HW226748   0.856   2.793   6.227  2.3217 -0.8372  0.0203
 8617SOL     OW26749   4.825   1.999   0.271 -0.1894  0.4345 -0.0858
 8617SOL    HW126750   4.858   1.999   0.365 -0.3914  1.9872  0.0201
 8617SOL    HW226751   4.737   1.952   0.267  0.7945 -1.5258  0.0783
 8618SOL     OW26752   3.035   6.907   1.476  0.6363  0.1267  0.5736
 8618SOL    HW126753   2.952   6.961   1.461 -0.1180 -0.9874  0.6341
 8618SOL    HW226754   3.114   6.959   1.446 -0.2953  0.2523 -1.8736
 8619SOL     OW26755   4.258   2.015   4.014  0.3548 -0.3290 -0.0295
 8619SOL    HW126756   4.181   1.950   4.012 -0.7725  0.8879  1.4135
 8619SOL    HW226757   4.225   2.105   3.985  1.1360  0.3098  1.0443
 8620SOL     OW26758   0.956   0.917   3.630  0.5150 -0.5371  0.8279
 8620SOL    HW126759   0.981   0.951   3.721  0.5250  1.1666  0.2173
 8620SOL    HW226760   0.868   0.870   3.634  0.5568 -0.5502  1.7216
 8621SOL     OW26761   1.395   4.281   4.449  0.0989  0.7344  0.0333
 8621SOL    HW126762   1.376   4.322   4.360  1.0572 -1.1082 -1.0946
 8621SOL    HW226763   1.492   4.256   4.454 -0.5762 -2.2083  0.2109
 8622SOL     OW26764   3.951   5.623   2.258 -0.0687 -0.2173  0.4986
 8622SOL    HW126765   4.051   5.630   2.255 -0.1088  1.0754  1.6085
 8622SOL    HW226766   3.922   5.606   2.352 -0.8924 -1.0186  0.1170
 8623SOL     OW26767   1.534   6.219   2.984 -0.3611  0.4365 -0.3731
 8623SOL    HW126768   1.541   6.128   2.943 -1.4535 -0.1387  0.6657
 8623SOL    HW226769   1.469   6.274   2.932 -0.5645  0.2345 -0.3327
 8624SOL     OW26770   0.518   0.017   3.981 -0.2154  0.2077  0.3747
 8624SOL    HW126771   0.568   0.096   4.017  1.3130 -0.5558 -0.0006
 8624SOL    HW226772   0.459  -0.020   4.052  1.7400 -0.4604  1.7311
 8625SOL     OW26773   4.635   2.357   4.183 -0.1631 -0.0109  0.2158
 8625SOL    HW126774   4.657   2.280   4.123 -0.1731  0.0781  0.0966
 8625SOL    HW226775   4.709   2.372   4.248 -0.5220 -0.6391  0.7723
 8626SOL     OW26776   6.038   2.291   2.765 -0.4371 -0.0139  0.0817
 8626SOL    HW126777   6.042   2.339   2.677 -1.2551  2.6174  1.3561
 8626SOL    HW226778   5.980   2.211   2.757 -0.8467  0.4193 -1.6834
 8627SOL     OW26779   2.326   4.700   0.542 -0.5520 -0.2057 -0.3069
 8627SOL    HW126780   2.398   4.706   0.612 -2.0441  0.1697  1.2439
 8627SOL    HW226781   2.283   4.611   0.547 -1.3168  0.1715 -0.0692
 8628SOL     OW26782   1.944   2.808   4.499  0.4053 -0.0956 -0.3564
 8628SOL    HW126783   2.003   2.728   4.488 -0.1344 -0.5704  0.1744
 8628SOL    HW226784   1.857   2.780   4.539 -1.0603  0.2327 -3.0386
 8629SOL     OW26785   0.632   4.039   6.700 -0.2960  0.2765 -0.3238
 8629SOL    HW126786   0.613   4.122   6.754 -0.2806  0.1932 -0.1896
 8629SOL    HW226787   0.640   4.064   6.604  0.1390  0.5008 -0.2336
 8630SOL     OW26788   1.634   6.018   3.332 -0.2597  0.2379 -0.0761
 8630SOL    HW126789   1.603   5.963   3.255  0.7574  1.6451 -1.5575
 8630SOL    HW226790   1.637   6.114   3.305 -0.2749  0.8208  1.8652
 8631SOL     OW26791   6.854   0.051   5.693 -0.6986 -0.9680  0.3986
 8631SOL    HW126792   6.918   0.124   5.668  1.2605 -2.6771  0.1634
 8631SOL    HW226793   6.776   0.054   5.631 -1.3938  1.7468  1.2710
 8632SOL     OW26794   0.671   3.061   2.873 -0.0122  0.0508 -0.1452
 8632SOL    HW126795   0.619   3.140   2.907  0.5093  0.4509 -0.2682
 8632SOL    HW226796   0.685   3.070   2.775  1.1779  0.4821  0.0419
 8633SOL     OW26797   3.692   2.956   0.754 -0.4044  0.2144 -0.3159
 8633SOL    HW126798   3.632   3.023   0.708 -3.0731 -0.5647  1.7488
 8633SOL    HW226799   3.686   2.970   0.853  0.8509 -1.5976  0.0429
 8634SOL     OW26800   6.263   6.630   2.806  0.3624  0.4272  0.1345
 8634SOL    HW126801   6.303   6.720   2.791 -1.5846  1.1361 -1.2067
 8634SOL    HW226802   6.163   6.636   2.796  0.2180 -1.9375 -0.2776
 8635SOL     OW26803   0.188   5.869   4.418  0.0391  0.7448 -0.2638
 8635SOL    HW126804   0.178   5.844   4.322 -0.0737 -0.7743  0.1194
 8635SOL    HW226805   0.112   5.831   4.470  0.6874  0.5954  0.5937
 8636SOL     OW26806   5.662   5.910   1.719  0.0790  0.3810 -0.2696
 8636SOL    HW126807   5.693   5.830   1.667 -0.8679  0.5275 -1.0945
 8636SOL    HW226808   5.624   5.880   1.806  1.6990  0.1288  0.3778
 8637SOL     OW26809   2.381   5.471   0.173  0.2492 -0.2863 -0.0217
 8637SOL    HW126810   2.363   5.432   0.083  0.1640 -0.2476 -0.0216
 8637SOL    HW226811   2.475   5.504   0.177 -0.2923  1.5145 -0.7744
 8638SOL     OW26812   0.813   2.071   1.073  0.3123  0.0810 -0.4361
 8638SOL    HW126813   0.812   2.043   1.168  0.8722  1.7505  0.1031
 8638SOL    HW226814   0.797   2.170   1.067  0.4724  0.0386 -2.0463
 8639SOL     OW26815   0.885   2.350   1.430 -0.4936  0.3896  0.4402
 8639SOL    HW126816   0.839   2.270   1.466  2.2493  0.2845  4.2584
 8639SOL    HW226817   0.940   2.324   1.350  0.7095 -1.7609  1.8674
 8640SOL     OW26818   1.281   5.353   1.025  0.2668 -0.5841  0.0391
 8640SOL    HW126819   1.369   5.395   1.050 -0.5618  0.7913  0.7496
 8640SOL    HW226820   1.285   5.255   1.043  2.0288 -0.7596 -1.0070
 8641SOL     OW26821   6.311   6.766   5.947  0.0454  0.7157  0.1969
 8641SOL    HW126822   6.332   6.690   6.008  0.0572 -0.5398 -1.2898
 8641SOL    HW226823   6.370   6.843   5.967  2.7932 -0.9939 -0.6873
 8642SOL     OW26824   0.890   6.460   2.080 -0.1647  0.5150 -0.3072
 8642SOL    HW126825   0.917   6.461   1.984  0.8322 -0.8951 -0.0757
 8642SOL    HW226826   0.800   6.503   2.090  0.3275  1.9469 -1.6506
 8643SOL     OW26827   4.285   5.190   2.232 -0.3353  0.4153  0.7894
 8643SOL    HW126828   4.349   5.265   2.249 -0.2135 -0.1506  3.1931
 8643SOL    HW226829   4.320   5.107   2.275 -1.6119 -0.4379  0.2248
 8644SOL     OW26830   5.230   2.364   3.834  0.1700  0.2337  0.2510
 8644SOL    HW126831   5.305   2.363   3.767 -0.5048 -1.9996 -0.5703
 8644SOL    HW226832   5.198   2.270   3.849 -3.6213  1.1721 -0.8087
 8645SOL     OW26833   6.645   3.334   1.389  0.3938 -0.4250 -0.3598
 8645SOL    HW126834   6.626   3.244   1.349  1.3381 -1.3266  1.1375
 8645SOL    HW226835   6.655   3.325   1.488  0.2536  1.3886 -0.1562
 8646SOL     OW26836   4.623   5.752   6.528  0.0850 -0.5345 -0.5848
 8646SOL    HW126837   4.580   5.724   6.442  0.4705 -0.0233 -0.9478
 8646SOL    HW226838   4.722   5.749   6.519  0.1419  0.6031 -0.5382
 8647SOL     OW26839   2.102   2.758   2.474  0.5480 -0.4832  0.2286
 8647SOL    HW126840   2.169   2.782   2.404  0.4619  1.3775  0.7158
 8647SOL    HW226841   2.086   2.660   2.473  0.6094 -0.5386 -2.2863
 8648SOL     OW26842   4.602   2.517   5.361  0.1897  0.1750  0.3334
 8648SOL    HW126843   4.566   2.545   5.450 -0.5037 -0.6765  0.3333
 8648SOL    HW226844   4.541   2.549   5.289 -0.1340 -0.5469  0.2785
 8649SOL     OW26845   4.251   1.092   6.024  0.0005 -0.0582 -0.4530
 8649SOL    HW126846   4.340   1.113   6.064 -0.5391 -0.7790  1.2478
 8649SOL    HW226847   4.247   0.994   6.002 -0.1702  0.0817 -1.0402
 8650SOL     OW26848   5.658   6.643   2.728  0.0561  0.2262  0.0581
 8650SOL    HW126849   5.585   6.711   2.722  0.8567  0.9761 -2.0187
 8650SOL    HW226850   5.620   6.552   2.707 -0.6257  0.3203  0.8537
 8651SOL     OW26851   0.289   4.077   3.795 -0.0863  0.1156 -0.5038
 8651SOL    HW126852   0.268   4.092   3.891 -0.1403 -1.4743 -0.2361
 8651SOL    HW226853   0.356   4.003   3.786  0.1731  0.4681 -1.6739
 8652SOL     OW26854   0.319   6.890   3.220 -0.3601  0.2320  0.2482
 8652SOL    HW126855   0.258   6.941   3.281 -0.1094  0.9033 -0.0518
 8652SOL    HW226856   0.277   6.882   3.130  0.5876  1.9490 -0.3783
 8653SOL     OW26857   0.959   5.581   4.814 -0.5011  0.0213 -0.1323
 8653SOL    HW126858   1.010   5.647   4.870 -0.2149  0.2589 -0.6665
 8653SOL    HW226859   0.871   5.561   4.857 -0.2174  0.0783  0.4861
 8654SOL     OW26860   2.159   2.237   0.768 -0.1851  0.4036  0.1327
 8654SOL    HW126861   2.114   2.254   0.856 -0.0059  0.7337  0.1656
 8654SOL    HW226862   2.183   2.325   0.726 -2.1193  0.3554 -1.2250
 8655SOL     OW26863   2.222   5.483   2.763 -0.3224  0.0769  0.1820
 8655SOL    HW126864   2.204   5.582   2.759 -0.4486  0.0170 -1.5326
 8655SOL    HW226865   2.188   5.440   2.680  2.3027 -0.9743 -0.4414
 8656SOL     OW26866   5.929   2.034   4.264 -0.1640 -0.6651 -0.6657
 8656SOL    HW126867   6.005   1.971   4.278  1.7223  1.9077  1.8232
 8656SOL    HW226868   5.863   2.025   4.339 -0.5834 -0.5882 -1.0197
 8657SOL     OW26869   3.825   6.454   2.166  0.6055  0.0203  0.2677
 8657SOL    HW126870   3.875   6.514   2.104  2.1696 -1.2106  0.2704
 8657SOL    HW226871   3.808   6.502   2.253 -1.0389  1.5283 -0.8202
 8658SOL     OW26872   0.378   1.028   5.495  0.2878 -0.4623  0.0367
 8658SOL    HW126873   0.393   1.049   5.398  0.6495  0.7079  0.3283
 8658SOL    HW226874   0.409   1.105   5.551 -0.1385 -1.0244  1.0756
 8659SOL     OW26875   6.237   4.857   6.209  0.1987  0.3673 -0.0019
 8659SOL    HW126876   6.306   4.927   6.228  0.6917  0.2242 -1.1338
 8659SOL    HW226877   6.283   4.772   6.184 -0.3477 -0.9570  3.0569
 8660SOL     OW26878   0.803   1.782   3.864  0.0778 -0.4542 -0.0854
 8660SOL    HW126879   0.741   1.845   3.819 -0.5582 -0.9372  0.1053
 8660SOL    HW226880   0.801   1.797   3.963  0.3868 -0.3634 -0.0907
 8661SOL     OW26881   0.038   0.549   1.978 -0.0653  0.2384 -0.2206
 8661SOL    HW126882  -0.027   0.522   2.049 -0.0600 -1.7394 -0.9063
 8661SOL    HW226883   0.130   0.548   2.016 -0.2421  1.1232  0.2452
 8662SOL     OW26884   5.961   1.703   2.367 -0.0307  0.1596 -0.1911
 8662SOL    HW126885   5.861   1.699   2.356 -0.2988  2.1353  1.1721
 8662SOL    HW226886   6.000   1.759   2.294 -0.0775  0.5621  0.0934
 8663SOL     OW26887   3.530   3.583   1.442 -0.0302 -0.6227  0.0400
 8663SOL    HW126888   3.442   3.549   1.474 -0.4595  0.1807 -0.2786
 8663SOL    HW226889   3.591   3.596   1.520  0.2270 -2.3044  0.1636
 8664SOL     OW26890   1.920   3.082   3.070 -0.4784 -0.1558 -0.1344
 8664SOL    HW126891   1.879   3.163   3.028 -0.9843  0.4480  1.4220
 8664SOL    HW226892   2.000   3.053   3.018 -0.8524  0.7683 -1.2566
 8665SOL     OW26893   2.352   4.477   5.231 -0.0084 -0.3081 -0.1574
 8665SOL    HW126894   2.314   4.480   5.323  2.5432 -4.9165  1.3644
 8665SOL    HW226895   2.450   4.461   5.235 -0.0567 -2.7314 -3.5189
 8666SOL     OW26896   4.908   3.689   3.616  0.3402  0.0215  0.5311
 8666SOL    HW126897   4.994   3.710   3.661  0.9683 -0.6689 -0.3137
 8666SOL    HW226898   4.843   3.764   3.630  1.8710  1.6772 -0.8578
 8667SOL     OW26899   3.959   0.640   2.437  0.2820  0.0005 -0.1990
 8667SOL    HW126900   4.048   0.620   2.479 -0.8359 -1.4704  1.6292
 8667SOL    HW226901   3.926   0.729   2.467 -0.3885 -0.9203  2.0351
 8668SOL     OW26902   6.476   0.196   5.366 -0.3016 -0.1110 -0.0335
 8668SOL    HW126903   6.453   0.249   5.448  0.8346 -0.0606  0.2710
 8668SOL    HW226904   6.513   0.258   5.296  0.6907 -0.4372  0.1908
 8669SOL     OW26905   0.719   0.194   2.936  0.2778  0.1036 -0.2153
 8669SOL    HW126906   0.739   0.263   3.006 -1.7903  1.2630 -0.6586
 8669SOL    HW226907   0.643   0.138   2.966 -0.4325  0.4131 -1.3640
 8670SOL     OW26908   1.688   5.931   6.537  0.3355 -0.4853  0.6174
 8670SOL    HW126909   1.724   5.900   6.449  0.4432 -0.7217  0.7417
 8670SOL    HW226910   1.613   5.995   6.523  0.8137  0.0268  0.3532
 8671SOL     OW26911   4.691   0.642   2.920 -0.2814  0.1715  0.3838
 8671SOL    HW126912   4.700   0.674   2.826 -0.5160  0.1453  0.3528
 8671SOL    HW226913   4.680   0.720   2.982  1.5680  0.3125  0.5969
 8672SOL     OW26914   5.523   3.311   2.576 -0.0055  0.0722 -0.8347
 8672SOL    HW126915   5.474   3.227   2.600  2.0293 -1.0718 -0.4472
 8672SOL    HW226916   5.458   3.379   2.542 -1.5851 -2.0887 -2.4089
 8673SOL     OW26917   6.977   4.568   2.473  0.1564 -0.1291  0.5624
 8673SOL    HW126918   6.909   4.495   2.460  0.9845 -0.3714 -4.4217
 8673SOL    HW226919   6.935   4.656   2.449  0.7731  0.1334  0.4368
 8674SOL     OW26920   5.329   4.791   5.535  0.4578  0.0542  0.0244
 8674SOL    HW126921   5.292   4.878   5.567 -0.2786 -0.5877  1.0110
 8674SOL    HW226922   5.294   4.717   5.594  2.5952 -0.6948  0.4333
 8675SOL     OW26923   1.569   4.607   5.614 -0.0993 -0.3072 -0.4283
 8675SOL    HW126924   1.575   4.580   5.710  1.7593  0.5779 -0.2420
 8675SOL    HW226925   1.600   4.532   5.556  2.0916  0.2670 -0.0929
 8676SOL     OW26926   2.104   1.798   3.735 -0.1568 -0.7320 -0.2754
 8676SOL    HW126927   2.066   1.869   3.794 -1.6384 -1.0751 -0.8000
 8676SOL    HW226928   2.038   1.772   3.666  0.6959 -2.0083 -0.6479
 8677SOL     OW26929   5.502   5.174   6.252  0.1791  0.0834 -0.1083
 8677SOL    HW126930   5.588   5.136   6.220  0.3164  1.5119 -1.5594
 8677SOL    HW226931   5.429   5.152   6.187 -0.1476  0.5727  0.0845
 8678SOL     OW26932   3.673   5.222   0.470 -0.3179 -0.5510  0.3199
 8678SOL    HW126933   3.610   5.197   0.543  0.3775 -0.6664  0.8958
 8678SOL    HW226934   3.751   5.270   0.509 -0.6193  0.6674 -0.5200
 8679SOL     OW26935   3.252   5.276   2.275 -0.4158 -0.0203 -0.3525
 8679SOL    HW126936   3.252   5.231   2.185 -0.1611  0.4895 -0.6141
 8679SOL    HW226937   3.293   5.367   2.266  2.0508 -0.9308  0.7550
 8680SOL     OW26938   6.084   5.604   1.043  0.0931  0.6419 -0.3191
 8680SOL    HW126939   6.151   5.541   1.083  0.1749  0.0642 -1.3162
 8680SOL    HW226940   5.992   5.570   1.061  0.1162  0.5909 -0.2957
 8681SOL     OW26941   4.867   5.906   1.291  0.3724 -0.0498 -0.3622
 8681SOL    HW126942   4.943   5.842   1.306  0.6563 -0.0927 -1.8374
 8681SOL    HW226943   4.902   5.999   1.297  0.2971 -0.0450  0.0869
 8682SOL     OW26944   5.549   4.523   1.456  0.0494  0.3655 -0.5331
 8682SOL    HW126945   5.469   4.487   1.504  0.1411 -1.4303 -1.6444
 8682SOL    HW226946   5.592   4.595   1.512 -0.9858 -0.2444  1.1158
 8683SOL     OW26947   3.046   4.823   2.969  0.0650 -0.3037 -0.2309
 8683SOL    HW126948   2.972   4.765   3.002 -1.6945  1.6308 -0.6186
 8683SOL    HW226949   3.050   4.818   2.869  0.1195 -0.0024 -0.2444
 8684SOL     OW26950   4.688   1.255   4.451  0.2391  0.3328 -0.1798
 8684SOL    HW126951   4.707   1.187   4.522  0.3706 -0.8975 -1.3441
 8684SOL    HW226952   4.660   1.208   4.367 -0.2443  1.7613 -0.8508
 8685SOL     OW26953   1.064   1.681   6.860 -0.8027 -0.0914  0.0494
 8685SOL    HW126954   1.146   1.699   6.805 -0.9698 -1.0549 -0.5443
 8685SOL    HW226955   1.090   1.675   6.957 -0.1889 -0.2648 -0.1176
 8686SOL     OW26956   6.077   1.193   5.679  0.0583  0.2428  0.1008
 8686SOL    HW126957   6.025   1.253   5.618 -1.0762  1.0698  1.8080
 8686SOL    HW226958   6.025   1.109   5.694  2.0487 -1.7535 -3.0310
 8687SOL     OW26959   1.087   3.974   3.637  0.4496  0.4877 -0.2657
 8687SOL    HW126960   1.136   4.021   3.564  0.8998  0.3540 -0.0530
 8687SOL    HW226961   1.095   4.026   3.722  1.8854 -0.4850  0.2449
 8688SOL     OW26962   3.763   0.444   2.752  0.4093 -0.2102  0.3955
 8688SOL    HW126963   3.691   0.488   2.698  0.4440 -0.4219  0.1747
 8688SOL    HW226964   3.728   0.423   2.843  0.8567  1.6864  1.0566
 8689SOL     OW26965   3.015   3.910   3.993 -0.3195  0.1408 -0.3678
 8689SOL    HW126966   3.102   3.933   4.036 -1.2830 -0.2523  1.9225
 8689SOL    HW226967   3.015   3.942   3.898  1.9125  1.0358 -0.1177
 8690SOL     OW26968   0.998   1.441   1.805  0.6098  0.0949 -0.3272
 8690SOL    HW126969   1.063   1.507   1.767  0.0948  0.6798 -0.2067
 8690SOL    HW226970   1.048   1.361   1.837  1.3229  0.6997  0.1206
 8691SOL     OW26971   6.366   2.797   0.482 -0.3617 -0.4029  0.3350
 8691SOL    HW126972   6.361   2.853   0.564 -0.3452  0.1293 -0.0211
 8691SOL    HW226973   6.319   2.843   0.407 -2.6189 -2.0437  0.6582
 8692SOL     OW26974   1.300   0.559   5.187 -0.1478  0.0696  0.4682
 8692SOL    HW126975   1.247   0.571   5.271 -0.5585 -1.6383  0.4838
 8692SOL    HW226976   1.338   0.467   5.184  1.5099  0.7460 -0.3175
 8693SOL     OW26977   0.557   3.272   0.782 -0.0896 -0.0014  0.2945
 8693SOL    HW126978   0.642   3.244   0.828 -0.3303 -0.8830  0.2192
 8693SOL    HW226979   0.487   3.202   0.798 -0.2446 -0.2253 -1.2426
 8694SOL     OW26980   6.411   6.017   3.443 -0.3504  0.3284 -0.1851
 8694SOL    HW126981   6.478   6.063   3.385 -0.7737  1.6767  0.3479
 8694SOL    HW226982   6.383   6.078   3.517  0.2462 -1.3752  1.5353
 8695SOL     OW26983   1.854   3.605   5.774  0.1978  0.0052 -0.2539
 8695SOL    HW126984   1.832   3.701   5.754  2.1692  0.6286  0.2995
 8695SOL    HW226985   1.787   3.567   5.837 -0.7336  0.9524 -0.6517
 8696SOL     OW26986   2.555   0.381   3.997  0.1603 -1.1283  0.7506
 8696SOL    HW126987   2.649   0.372   4.029  0.9283  2.4644 -0.0575
 8696SOL    HW226988   2.540   0.320   3.920  2.7247 -0.0489 -0.7228
 8697SOL     OW26989   5.620   1.001   5.581 -0.0736 -0.5308  0.3518
 8697SOL    HW126990   5.710   0.963   5.560  1.8807  3.6566  0.2912
 8697SOL    HW226991   5.599   0.985   5.677  1.2875 -0.6023  0.6635
 8698SOL     OW26992   6.107   1.404   0.345 -0.6112  0.5306  0.2566
 8698SOL    HW126993   6.143   1.365   0.430 -1.8183 -0.0611  0.5233
 8698SOL    HW226994   6.044   1.338   0.303 -0.4002  1.0222 -0.8436
 8699SOL     OW26995   0.262   3.273   0.923  0.1715  0.7665  0.2024
 8699SOL    HW126996   0.314   3.188   0.915  2.5658  2.3070 -1.8523
 8699SOL    HW226997   0.241   3.289   1.019  0.2036 -1.7774  0.7229
 8700SOL     OW26998   5.384   6.456   0.918  0.2016  0.0748  0.1412
 8700SOL    HW126999   5.382   6.377   0.857 -0.1525  0.7425 -0.7356
 8700SOL    HW227000   5.404   6.426   1.011  0.3212 -1.0121 -0.2236
 8701SOL     OW27001   2.496   2.249   1.972 -0.4699  0.1886  0.4514
 8701SOL    HW127002   2.508   2.305   2.054  3.8160  0.9946 -0.4968
 8701SOL    HW227003   2.544   2.291   1.895 -2.4648 -1.6725 -1.9806
 8702SOL     OW27004   5.461   1.769   0.061  0.1877 -0.6544 -0.1099
 8702SOL    HW127005   5.438   1.830   0.137  0.4822  0.2599 -0.7457
 8702SOL    HW227006   5.501   1.822  -0.014 -0.3156 -1.5170 -1.0035
 8703SOL     OW27007   3.488   2.108   5.511 -0.3439  0.4266  0.4757
 8703SOL    HW127008   3.543   2.024   5.509  1.1003  1.3110 -2.1330
 8703SOL    HW227009   3.542   2.182   5.551 -0.2829  0.8799 -0.4188
 8704SOL     OW27010   4.912   1.407   5.066 -0.1556  0.2692  0.3926
 8704SOL    HW127011   4.975   1.334   5.095 -0.4290 -0.2066 -0.1786
 8704SOL    HW227012   4.837   1.366   5.014 -0.6312  0.8989  0.5831
 8705SOL     OW27013   5.759   6.905   2.437 -0.3190 -0.3177  0.1220
 8705SOL    HW127014   5.685   6.846   2.469  0.8508 -1.5167  0.6477
 8705SOL    HW227015   5.836   6.901   2.500 -0.5265  2.5399  0.7266
 8706SOL     OW27016   6.372   3.980   5.359  0.1631  0.2574 -0.3024
 8706SOL    HW127017   6.443   3.931   5.410  0.6725 -0.2782 -1.4848
 8706SOL    HW227018   6.361   4.072   5.398  0.8021  0.0033  0.5201
 8707SOL     OW27019   5.726   3.675   6.054  0.6860  0.2324  0.0951
 8707SOL    HW127020   5.641   3.623   6.054  1.0852 -0.4367  0.1532
 8707SOL    HW227021   5.711   3.765   6.095 -0.0652  0.2510 -0.2059
 8708SOL     OW27022   5.979   0.775   3.740  0.2323 -0.5929 -0.0043
 8708SOL    HW127023   6.063   0.736   3.701  0.5139  0.3068 -0.3274
 8708SOL    HW227024   5.998   0.866   3.776  0.0116 -1.4165  2.3883
 8709SOL     OW27025   5.584   5.319   4.312  0.0467 -0.7183  0.2891
 8709SOL    HW127026   5.611   5.243   4.252 -1.9391 -0.3843 -1.1104
 8709SOL    HW227027   5.576   5.403   4.258  0.5157  0.1431  1.4990
 8710SOL     OW27028   4.718   6.212   4.185 -0.0474  0.3331 -0.4097
 8710SOL    HW127029   4.817   6.199   4.187  0.2131  1.9810  2.2473
 8710SOL    HW227030   4.685   6.231   4.277 -2.6343  1.2733 -1.4387
 8711SOL     OW27031   0.318   0.419   0.587  0.2913  0.3779 -0.0234
 8711SOL    HW127032   0.331   0.418   0.686  0.0035 -0.4085  0.0104
 8711SOL    HW227033   0.335   0.328   0.550 -0.3236  0.4900 -0.6015
 8712SOL     OW27034   3.588   1.402   4.566  0.1743  0.2188  0.5954
 8712SOL    HW127035   3.548   1.492   4.583  2.2355  1.2426  0.2491
 8712SOL    HW227036   3.687   1.409   4.564  0.3666 -1.9696 -0.0948
 8713SOL     OW27037   5.917   1.401   4.997 -0.1763  0.0660 -0.6497
 8713SOL    HW127038   5.977   1.481   5.002 -0.2757  0.1681 -1.0693
 8713SOL    HW227039   5.822   1.430   4.984 -0.5200 -0.0416  1.2994
 8714SOL     OW27040   6.839   4.875   2.175  0.2534 -0.3886  0.1543
 8714SOL    HW127041   6.765   4.897   2.111  0.9917 -1.0590 -0.9621
 8714SOL    HW227042   6.895   4.802   2.137  1.7716  0.4188  0.7638
 8715SOL     OW27043   6.123   5.810   5.154  0.1211  0.0775 -0.4748
 8715SOL    HW127044   6.199   5.762   5.108 -1.0778 -2.3225 -0.0980
 8715SOL    HW227045   6.160   5.887   5.207  2.0277  0.2654 -1.9426
 8716SOL     OW27046   1.699   0.912   1.593 -0.2435 -0.2441 -0.2006
 8716SOL    HW127047   1.715   0.814   1.596  1.1451 -0.0624 -0.9129
 8716SOL    HW227048   1.607   0.932   1.626  0.2179 -1.5814  2.0907
 8717SOL     OW27049   4.535   0.468   3.116  0.2807 -0.0918 -0.1895
 8717SOL    HW127050   4.522   0.464   3.017  0.1221 -2.3044 -0.1433
 8717SOL    HW227051   4.620   0.516   3.137  1.3286 -1.2835 -1.5245
 8718SOL     OW27052   5.122   6.460   4.326 -0.0110  0.2848  0.1551
 8718SOL    HW127053   5.081   6.468   4.235  1.1188  1.0461 -0.3077
 8718SOL    HW227054   5.050   6.461   4.395 -1.0873 -2.5154 -0.7839
 8719SOL     OW27055   3.004   5.180   6.284  0.5004 -0.4998  0.3896
 8719SOL    HW127056   2.958   5.256   6.238 -0.4200 -1.7078 -0.7862
 8719SOL    HW227057   2.969   5.170   6.377 -0.2420 -0.2079  0.1486
 8720SOL     OW27058   1.838   5.896   6.791  0.2296 -0.1615  0.3319
 8720SOL    HW127059   1.933   5.926   6.777  0.0022  0.8340  0.8468
 8720SOL    HW227060   1.790   5.898   6.703  0.4455  0.1751  0.2183
 8721SOL     OW27061   3.299   6.094   3.859 -0.7493  0.2292  0.3703
 8721SOL    HW127062   3.368   6.157   3.894 -1.1596  0.7759  0.2096
 8721SOL    HW227063   3.280   6.024   3.928  1.5615 -1.2662 -0.3967
 8722SOL     OW27064   0.486   2.558   4.983  0.1271 -0.5895 -0.1194
 8722SOL    HW127065   0.527   2.564   4.892  0.9030 -0.7436  0.2177
 8722SOL    HW227066   0.493   2.647   5.028 -0.6541 -0.3889 -0.3653
 8723SOL     OW27067   3.033   0.824   6.005 -0.2233 -0.8193  0.2344
 8723SOL    HW127068   3.056   0.753   6.072 -0.0352  0.4909  1.6181
 8723SOL    HW227069   2.953   0.796   5.953 -0.3814 -1.8795  1.0137
 8724SOL     OW27070   1.472   0.853   3.272 -0.1871 -0.3843  0.7082
 8724SOL    HW127071   1.457   0.852   3.173 -0.9272 -2.0292  0.8090
 8724SOL    HW227072   1.453   0.763   3.310  0.4371  0.1188  2.3193
 8725SOL     OW27073   1.099   5.305   2.165 -0.6039  0.3090  0.1993
 8725SOL    HW127074   1.006   5.337   2.182 -0.1650  0.5331  2.3920
 8725SOL    HW227075   1.154   5.315   2.248  1.1465 -0.6740 -0.7817
 8726SOL     OW27076   5.840   5.154   2.583  0.3544 -0.5239 -0.3498
 8726SOL    HW127077   5.836   5.072   2.526  0.6608 -0.2417 -0.7826
 8726SOL    HW227078   5.878   5.132   2.672  0.2210 -0.8956 -0.3844
 8727SOL     OW27079   3.228   5.341   5.174  0.2032  0.0373 -0.6324
 8727SOL    HW127080   3.315   5.316   5.219  0.3810  0.9944 -0.4371
 8727SOL    HW227081   3.165   5.378   5.242 -1.3131 -2.8902 -0.2675
 8728SOL     OW27082   4.098   6.544   0.562 -0.6978 -0.0347 -0.1133
 8728SOL    HW127083   4.134   6.582   0.477  1.4289 -2.6975 -0.5262
 8728SOL    HW227084   4.109   6.612   0.636  0.4189  1.1579 -1.3154
 8729SOL     OW27085   1.802   5.240   6.795 -0.1374  0.9163 -0.9700
 8729SOL    HW127086   1.796   5.335   6.825  0.8151  0.7899 -0.3254
 8729SOL    HW227087   1.846   5.236   6.705  0.2929  1.0581 -0.7708
 8730SOL     OW27088   2.620   6.216   0.317 -0.8378 -0.5407 -0.4132
 8730SOL    HW127089   2.527   6.250   0.335  0.3034  3.5548 -1.0783
 8730SOL    HW227090   2.650   6.159   0.393 -3.1873 -0.2696  0.8113
 8731SOL     OW27091   4.759   5.375   0.227  0.3253  0.0050 -0.3047
 8731SOL    HW127092   4.685   5.370   0.294 -0.7454  1.6056 -1.3045
 8731SOL    HW227093   4.762   5.290   0.174 -0.7339 -0.1157 -0.1959
 8732SOL     OW27094   2.939   5.578   4.802 -0.5771 -0.4462 -0.5239
 8732SOL    HW127095   2.948   5.609   4.897  0.5490 -0.9767 -0.4365
 8732SOL    HW227096   2.931   5.478   4.801 -0.7103 -0.4332 -0.9766
 8733SOL     OW27097   4.589   0.299   0.195 -0.4300 -0.6705 -0.1580
 8733SOL    HW127098   4.500   0.254   0.202 -1.7203  1.7959  0.5909
 8733SOL    HW227099   4.606   0.324   0.099 -0.9429 -0.4592 -0.1983
 8734SOL     OW27100   5.745   3.544   2.990  0.3717  0.0792  0.0167
 8734SOL    HW127101   5.785   3.601   2.918 -2.6827  0.0573 -1.8514
 8734SOL    HW227102   5.697   3.467   2.948 -2.8611  0.8925  1.9274
 8735SOL     OW27103   4.783   5.431   6.520 -0.5528 -0.3179  0.4489
 8735SOL    HW127104   4.727   5.428   6.438  1.0053 -0.2992 -0.6450
 8735SOL    HW227105   4.744   5.498   6.584 -0.3324  1.6966 -1.4014
 8736SOL     OW27106   1.518   4.761   2.658  0.7734  0.4321  0.5447
 8736SOL    HW127107   1.541   4.690   2.591 -0.2804  0.3056  0.2933
 8736SOL    HW227108   1.440   4.732   2.712 -0.4502  1.8723 -0.3698
 8737SOL     OW27109   0.385   0.024   1.897  0.3793  0.1138 -0.0890
 8737SOL    HW127110   0.428   0.110   1.922  0.0951  0.4328 -0.6751
 8737SOL    HW227111   0.453  -0.036   1.855  0.4746  0.2360 -0.1101
 8738SOL     OW27112   2.953   2.903   1.215  0.0443  0.2102 -0.4163
 8738SOL    HW127113   2.987   2.873   1.304 -1.1532  0.9837  0.3297
 8738SOL    HW227114   3.021   2.961   1.171  1.3768 -1.5453 -0.8063
 8739SOL     OW27115   3.852   1.215   6.172  0.2746  0.0809  0.5662
 8739SOL    HW127116   3.865   1.135   6.115  0.7780  0.6949 -0.2111
 8739SOL    HW227117   3.893   1.295   6.127  0.2840  0.6649  1.5778
 8740SOL     OW27118   0.429   6.910   3.532 -0.5697  0.6247 -0.1483
 8740SOL    HW127119   0.482   6.892   3.615 -0.9430 -0.8624 -0.2001
 8740SOL    HW227120   0.382   6.826   3.504 -1.5246  1.4526 -1.1126
 8741SOL     OW27121   0.676   2.061   2.211  0.0127  0.0735  0.4505
 8741SOL    HW127122   0.752   2.111   2.253  0.0819 -0.3398  0.8279
 8741SOL    HW227123   0.713   1.989   2.153 -0.0897  0.3026  0.0967
 8742SOL     OW27124   6.575   4.031   4.246 -0.2514 -0.6734 -0.4274
 8742SOL    HW127125   6.537   4.123   4.238 -0.1482 -0.4897  0.9653
 8742SOL    HW227126   6.621   4.007   4.160 -0.5496  0.4394 -0.9257
 8743SOL     OW27127   3.341   2.710   1.470 -0.1618  0.0204  0.1017
 8743SOL    HW127128   3.289   2.642   1.418  0.8615 -0.1852 -0.6889
 8743SOL    HW227129   3.307   2.714   1.564 -0.1552 -1.6882  0.1988
 8744SOL     OW27130   5.465   6.246   5.380  0.4758 -0.3772  0.2822
 8744SOL    HW127131   5.498   6.304   5.306  0.9581 -0.1728  0.6502
 8744SOL    HW227132   5.474   6.150   5.354  1.5829 -0.3345  0.4549
 8745SOL     OW27133   6.833   1.146   0.865 -0.5734 -0.4203 -0.6173
 8745SOL    HW127134   6.773   1.082   0.913  1.1169 -0.7734  1.1302
 8745SOL    HW227135   6.811   1.240   0.893 -0.0535 -0.5795  0.3642
 8746SOL     OW27136   1.832   3.246   3.562 -0.2029  0.0913 -0.1182
 8746SOL    HW127137   1.835   3.331   3.509 -1.2870 -0.1739 -0.6299
 8746SOL    HW227138   1.923   3.225   3.596  0.1869  1.1623 -0.4633
 8747SOL     OW27139   6.125   4.307   6.128  0.4974  0.1850  0.2773
 8747SOL    HW127140   6.165   4.309   6.220  1.2039  0.2527 -0.0228
 8747SOL    HW227141   6.191   4.266   6.065 -1.0752 -2.6350  0.3227
 8748SOL     OW27142   0.516   5.826   1.248  0.0448 -0.4220 -0.0523
 8748SOL    HW127143   0.571   5.893   1.297 -1.9403  2.2006 -1.1783
 8748SOL    HW227144   0.554   5.813   1.156  0.1518 -0.4903  0.0007
 8749SOL     OW27145   4.869   0.816   1.568  0.9058  0.0855 -0.1748
 8749SOL    HW127146   4.824   0.900   1.598  1.1298  0.3574 -0.5899
 8749SOL    HW227147   4.853   0.744   1.635 -3.4616 -0.9925 -2.0615
 8750SOL     OW27148   3.906   1.920   4.024 -0.2969 -0.3919 -0.1786
 8750SOL    HW127149   3.896   1.858   4.102  0.2899 -0.9287 -0.5216
 8750SOL    HW227150   3.938   2.009   4.056 -0.2474 -0.5485  0.2142
 8751SOL     OW27151   1.892   6.603   5.651 -0.4257 -0.1656 -0.6133
 8751SOL    HW127152   1.935   6.601   5.561  0.1247 -1.5895 -0.3464
 8751SOL    HW227153   1.935   6.673   5.707 -1.2130  1.1883 -1.6370
 8752SOL     OW27154   2.937   6.436   6.754 -0.0565 -0.0188 -0.7852
 8752SOL    HW127155   3.011   6.418   6.688  0.6379  0.1802 -0.0799
 8752SOL    HW227156   2.924   6.356   6.812  1.0245  0.6509  0.4308
 8753SOL     OW27157   6.246   2.814   4.432  0.1425 -0.2590 -0.2320
 8753SOL    HW127158   6.237   2.756   4.513  0.4748 -0.6091 -0.4458
 8753SOL    HW227159   6.315   2.776   4.371  1.2905  1.0060  0.2097
 8754SOL     OW27160   0.455   0.535   6.572  0.5040  0.0918 -0.7608
 8754SOL    HW127161   0.474   0.551   6.475  0.4316 -2.2961 -1.2391
 8754SOL    HW227162   0.481   0.441   6.596  1.4779  0.9272  1.8051
 8755SOL     OW27163   0.004   6.756   5.456  0.5214 -0.1933 -0.2584
 8755SOL    HW127164  -0.044   6.678   5.416  0.0238  0.3272 -0.6857
 8755SOL    HW227165   0.032   6.733   5.550  0.8120 -1.0527 -0.5404
 8756SOL     OW27166   6.666   0.787   0.815  0.7321 -0.3232  0.6094
 8756SOL    HW127167   6.614   0.721   0.869  0.1807  0.1194  0.6286
 8756SOL    HW227168   6.603   0.846   0.765  1.2356 -0.3820 -0.1025
 8757SOL     OW27169   5.596   2.920   0.766 -0.2812 -0.4998  0.6045
 8757SOL    HW127170   5.634   2.968   0.845 -1.3948  2.2922 -0.4233
 8757SOL    HW227171   5.497   2.924   0.769 -0.3436 -0.1744 -1.0141
 8758SOL     OW27172   0.980   1.044   0.850 -0.1187  0.0815  0.2501
 8758SOL    HW127173   0.910   0.972   0.856  0.6209 -0.5314  3.1902
 8758SOL    HW227174   1.067   1.008   0.882  0.5860  1.9381  0.5229
 8759SOL     OW27175   6.148   5.866   6.094  0.8272 -0.2141 -0.0623
 8759SOL    HW127176   6.087   5.824   6.027  0.7513  0.2311 -0.2798
 8759SOL    HW227177   6.105   5.867   6.184  0.9932 -0.9581  0.0270
 8760SOL     OW27178   0.058   2.552   5.219  0.1593 -0.5477 -0.2959
 8760SOL    HW127179   0.032   2.503   5.303  1.0572 -0.1969  0.2046
 8760SOL    HW227180   0.122   2.496   5.167 -0.7961 -0.9916 -1.0348
 8761SOL     OW27181   6.166   3.329   1.963  0.2561 -0.8519 -0.4183
 8761SOL    HW127182   6.259   3.316   1.930  0.5878 -0.8432  0.4853
 8761SOL    HW227183   6.130   3.243   1.998  0.8662 -0.3463  1.5587
 8762SOL     OW27184   4.070   3.350   4.913 -0.0931 -0.7771 -0.0355
 8762SOL    HW127185   4.101   3.304   4.829  1.2658 -3.8991  1.9957
 8762SOL    HW227186   3.970   3.348   4.916 -0.2054  0.1473 -1.9248
 8763SOL     OW27187   4.926   0.949   2.850  0.3992  0.3870 -0.3615
 8763SOL    HW127188   4.840   0.909   2.819 -0.8721  2.8398 -0.2166
 8763SOL    HW227189   4.975   0.883   2.907 -1.2854 -1.1029 -0.5454
 8764SOL     OW27190   6.650   2.511   4.901  0.0923  0.1840 -0.0625
 8764SOL    HW127191   6.603   2.600   4.898  1.4932  1.1171  2.3648
 8764SOL    HW227192   6.620   2.455   4.824 -2.6255  1.8477 -0.3582
 8765SOL     OW27193   1.761   2.849   5.385 -0.3917 -0.4093 -0.4049
 8765SOL    HW127194   1.829   2.876   5.453 -0.5150  0.9770 -0.7920
 8765SOL    HW227195   1.704   2.776   5.421 -0.2291  0.0607  0.8408
 8766SOL     OW27196   5.545   3.407   4.958 -0.3167  0.1022  0.1087
 8766SOL    HW127197   5.504   3.498   4.952 -0.5017 -0.0143 -0.5049
 8766SOL    HW227198   5.613   3.396   4.886 -0.4350 -0.3171  0.0600
 8767SOL     OW27199   0.807   1.500   3.293 -0.1752  0.0031  0.2891
 8767SOL    HW127200   0.787   1.411   3.332 -0.8770  1.6882  4.2333
 8767SOL    HW227201   0.748   1.569   3.335  1.8523  2.6708 -0.9238
 8768SOL     OW27202   1.036   4.152   2.328  0.4952 -0.6688  0.8339
 8768SOL    HW127203   1.122   4.157   2.276  0.0724  0.3663  0.2073
 8768SOL    HW227204   0.965   4.113   2.270 -0.4714  2.2372 -0.1327
 8769SOL     OW27205   0.629   1.423   4.195 -0.1308  0.5302  0.0588
 8769SOL    HW127206   0.677   1.346   4.237  0.5667  0.4015 -0.9310
 8769SOL    HW227207   0.554   1.388   4.139  1.0397  0.4197 -1.5229
 8770SOL     OW27208   0.708   2.763   4.853  0.3242  0.5653 -0.2262
 8770SOL    HW127209   0.778   2.737   4.921 -0.2431  0.3587  0.2858
 8770SOL    HW227210   0.659   2.843   4.886  0.8317  1.1735 -0.9458
 8771SOL     OW27211   5.395   6.477   5.034  0.0113  0.2206 -0.1021
 8771SOL    HW127212   5.373   6.395   4.981  1.0755 -0.6178  0.6915
 8771SOL    HW227213   5.484   6.465   5.078  0.3425  1.9511 -0.2290
 8772SOL     OW27214   0.746   2.145   1.545  0.8637  0.1616  0.4529
 8772SOL    HW127215   0.654   2.180   1.528  1.1833  1.7435  1.7707
 8772SOL    HW227216   0.747   2.094   1.631  1.2818  0.4023  0.5907
 8773SOL     OW27217   2.022   1.009   4.882  0.4751  0.1826  0.2470
 8773SOL    HW127218   1.992   1.073   4.812  2.3660 -1.9879 -2.7753
 8773SOL    HW227219   2.096   1.049   4.935 -1.3666  2.0700  1.5627
 8774SOL     OW27220   4.955   4.473   5.127  0.0823  0.0660 -0.6168
 8774SOL    HW127221   4.916   4.397   5.178  3.1686  0.4605  2.7308
 8774SOL    HW227222   4.903   4.556   5.146 -1.1466 -0.5103 -1.3718
 8775SOL     OW27223   3.514   3.092   1.328 -0.3762 -0.3344 -0.4258
 8775SOL    HW127224   3.443   3.025   1.306  0.8950 -1.9140  0.0821
 8775SOL    HW227225   3.602   3.046   1.336  0.0679  0.7684  3.2540
 8776SOL     OW27226   2.203   0.347   4.908  0.0663  0.5498  0.1735
 8776SOL    HW127227   2.202   0.341   5.008  2.0200 -0.9499  0.1616
 8776SOL    HW227228   2.266   0.418   4.880 -1.0563  1.4949 -0.0173
 8777SOL     OW27229   5.198   5.408   0.481  0.4415  0.3669 -0.4696
 8777SOL    HW127230   5.292   5.379   0.498  0.2270 -0.8802 -1.3031
 8777SOL    HW227231   5.194   5.465   0.400  0.3975 -0.1422 -0.8307
 8778SOL     OW27232   5.818   4.911   5.659  0.1496 -0.2045  0.7876
 8778SOL    HW127233   5.730   4.873   5.630  0.4638 -0.6863  0.4474
 8778SOL    HW227234   5.869   4.842   5.710 -0.6708  0.8474  3.1457
 8779SOL     OW27235   4.783   4.214   1.106 -0.1198 -0.3531 -0.3949
 8779SOL    HW127236   4.748   4.127   1.071 -0.2205 -0.8386  0.8936
 8779SOL    HW227237   4.820   4.202   1.197 -1.0227  1.1500  0.2206
 8780SOL     OW27238   2.185   4.268   5.623 -0.5162  0.6835  0.1642
 8780SOL    HW127239   2.130   4.301   5.699  0.0253 -1.1481  1.4246
 8780SOL    HW227240   2.127   4.214   5.561 -0.5112  0.2051  0.5660
 8781SOL     OW27241   6.623   3.022   4.586  0.1456  0.3049  0.5469
 8781SOL    HW127242   6.566   2.979   4.516 -0.3993  1.1435  0.4496
 8781SOL    HW227243   6.599   2.986   4.676 -0.4011  0.4929  0.4826
 8782SOL     OW27244   3.152   0.222   6.373 -0.0704 -0.1681 -0.5010
 8782SOL    HW127245   3.082   0.210   6.444  1.5681 -0.3513  1.1427
 8782SOL    HW227246   3.226   0.157   6.388  1.4574  1.3985 -0.9431
 8783SOL     OW27247   5.589   2.122   1.979 -0.4103  0.5262  0.0184
 8783SOL    HW127248   5.620   2.169   1.897  0.6154  0.3663  0.2986
 8783SOL    HW227249   5.541   2.187   2.039 -0.6217  0.7814 -0.4248
 8784SOL     OW27250   1.938   3.486   1.017  0.5265 -0.2495  0.7308
 8784SOL    HW127251   1.973   3.535   0.938  1.8553 -0.8826  0.9041
 8784SOL    HW227252   2.014   3.461   1.078  0.5189 -5.2954 -0.8652
 8785SOL     OW27253   6.566   2.804   2.218  0.4221  0.2265 -0.0493
 8785SOL    HW127254   6.652   2.801   2.167  0.8770 -1.0232  0.7358
 8785SOL    HW227255   6.539   2.899   2.234  2.4657  0.6688  1.0430
 8786SOL     OW27256   0.065   6.749   0.501  0.6890 -0.6101 -0.2781
 8786SOL    HW127257   0.025   6.692   0.429 -0.5740 -1.1801  0.8218
 8786SOL    HW227258   0.093   6.691   0.578  0.0949  0.1632  0.5488
 8787SOL     OW27259   3.314   2.129   4.883  0.1546 -0.1510 -0.0079
 8787SOL    HW127260   3.269   2.214   4.910 -0.3032 -0.6679  0.9246
 8787SOL    HW227261   3.245   2.064   4.849  0.7689  0.6556 -3.0341
 8788SOL     OW27262   2.742   5.848   6.952 -0.1764 -0.4165 -0.7775
 8788SOL    HW127263   2.739   5.941   6.916 -0.3640 -0.6283 -1.3089
 8788SOL    HW227264   2.649   5.812   6.960 -0.2977  0.2531  1.5806
 8789SOL     OW27265   2.246   0.010   4.713 -0.1279  0.6604 -0.8881
 8789SOL    HW127266   2.267   0.046   4.803  0.9372 -0.6225 -0.5958
 8789SOL    HW227267   2.200   0.080   4.659  1.3284  2.2435 -0.1652
 8790SOL     OW27268   6.739   1.545   3.064 -0.3635 -0.3334 -0.0247
 8790SOL    HW127269   6.811   1.578   3.126 -0.5418  2.4905 -1.1703
 8790SOL    HW227270   6.781   1.501   2.985 -0.0840 -2.3449  1.1905
 8791SOL     OW27271   6.794   3.672   5.566  0.3388 -0.1653  0.2308
 8791SOL    HW127272   6.753   3.581   5.572 -1.3624  0.5741  0.4339
 8791SOL    HW227273   6.842   3.692   5.651  0.5509 -0.7958  0.2638
 8792SOL     OW27274   1.692   5.362   2.107 -0.1773 -0.0122  0.1639
 8792SOL    HW127275   1.639   5.297   2.160  0.6700 -0.3636  0.6047
 8792SOL    HW227276   1.788   5.332   2.103 -0.1225  0.2513 -1.1653
 8793SOL     OW27277   3.543   5.976   5.985 -0.0317  0.2625  0.1848
 8793SOL    HW127278   3.593   6.022   5.912 -0.1801  0.1642  0.0196
 8793SOL    HW227279   3.577   5.882   5.994  0.1174  0.3347  0.3707
 8794SOL     OW27280   4.424   1.900   1.203 -0.0693  0.1004  0.9921
 8794SOL    HW127281   4.357   1.827   1.215  0.3302 -0.5375 -0.3968
 8794SOL    HW227282   4.510   1.874   1.248 -0.2810  0.2504  1.4924
 8795SOL     OW27283   0.682   5.566   6.587 -0.1073 -0.3072 -0.0197
 8795SOL    HW127284   0.677   5.600   6.493  1.1983 -0.0303 -0.0075
 8795SOL    HW227285   0.596   5.521   6.611 -2.4843  3.8898  0.3128
 8796SOL     OW27286   6.638   2.768   1.567  0.2574  1.1282  0.0371
 8796SOL    HW127287   6.716   2.829   1.553 -0.5627  2.3720  0.6556
 8796SOL    HW227288   6.632   2.703   1.491  2.8857 -0.1684  0.7981
 8797SOL     OW27289   1.546   2.682   0.836 -0.0568 -0.8755  0.3259
 8797SOL    HW127290   1.576   2.743   0.762  1.3947 -0.7546  0.9637
 8797SOL    HW227291   1.452   2.652   0.820 -0.3075  0.4043 -0.7377
 8798SOL     OW27292   1.058   6.651   3.704  0.1348 -0.1853  0.2553
 8798SOL    HW127293   1.116   6.730   3.723  1.9448 -0.8906 -1.8879
 8798SOL    HW227294   0.963   6.672   3.728  0.4532  2.8799 -0.7891
 8799SOL     OW27295   1.796   3.685   3.866  0.3221  0.4018 -0.0718
 8799SOL    HW127296   1.863   3.622   3.904 -1.0042 -1.4156 -0.6228
 8799SOL    HW227297   1.785   3.763   3.928 -0.2929 -1.4605  2.2844
 8800SOL     OW27298   3.534   3.065   5.583  0.2782  0.3842 -0.2545
 8800SOL    HW127299   3.528   3.057   5.484  1.7631 -2.5094 -0.2091
 8800SOL    HW227300   3.611   3.124   5.607  0.1239  0.8204 -0.8181
 8801SOL     OW27301   2.730   6.494   0.386 -0.3775 -0.1446 -0.1830
 8801SOL    HW127302   2.654   6.541   0.431 -0.8849 -2.7907  2.0911
 8801SOL    HW227303   2.697   6.407   0.348  1.2223 -0.6798 -0.4236
 8802SOL     OW27304   5.177   4.810   1.104 -0.2189  0.0400  0.3175
 8802SOL    HW127305   5.188   4.820   1.203  2.0991 -3.2583  0.5719
 8802SOL    HW227306   5.092   4.762   1.084 -0.4083  0.1876  0.7587
 8803SOL     OW27307   0.640   6.781   3.108  0.0347 -0.1009 -0.0237
 8803SOL    HW127308   0.707   6.746   3.174  0.5196  0.4763 -0.1902
 8803SOL    HW227309   0.584   6.851   3.153 -1.6646 -1.7846  0.6289
 8804SOL     OW27310   6.879   5.775   0.789  0.4659 -0.5209  0.2544
 8804SOL    HW127311   6.885   5.761   0.888  1.3470  0.1029  0.3051
 8804SOL    HW227312   6.803   5.836   0.768 -0.7821 -1.9983  0.3881
 8805SOL     OW27313   3.287   4.186   5.327 -0.2798  0.5973 -0.2822
 8805SOL    HW127314   3.310   4.175   5.230 -1.4830  0.2716 -0.5450
 8805SOL    HW227315   3.366   4.225   5.375 -0.1709  2.2390 -1.6855
 8806SOL     OW27316   4.483   6.305   1.601 -0.0185  0.1167 -0.3126
 8806SOL    HW127317   4.438   6.390   1.575  0.0192 -0.0462 -0.9119
 8806SOL    HW227318   4.497   6.305   1.700 -0.2218  0.7072 -0.2753
 8807SOL     OW27319   5.970   2.567   0.578 -0.5829  0.2538 -0.8152
 8807SOL    HW127320   5.952   2.611   0.489  1.4651  1.1967 -0.8186
 8807SOL    HW227321   6.025   2.484   0.564  1.7292  1.6129 -0.3625
 8808SOL     OW27322   6.547   3.889   5.165 -0.1963  0.3264  0.2153
 8808SOL    HW127323   6.490   3.937   5.232 -0.3681 -2.1145  1.9648
 8808SOL    HW227324   6.601   3.818   5.212  0.6435 -0.6401 -2.0710
 8809SOL     OW27325   5.700   2.716   3.633 -0.2402 -0.1510  0.3245
 8809SOL    HW127326   5.752   2.797   3.661  0.2255 -0.5829  0.7300
 8809SOL    HW227327   5.617   2.745   3.585 -0.7627  0.5860  1.6257
 8810SOL     OW27328   6.183   5.023   6.468 -0.0189 -0.5169 -0.0343
 8810SOL    HW127329   6.182   4.929   6.436  1.9100  0.0744 -2.1494
 8810SOL    HW227330   6.160   5.084   6.392 -0.6380  0.7745  1.1375
 8811SOL     OW27331   2.638   6.408   5.656  0.9432 -0.1995 -0.0506
 8811SOL    HW127332   2.715   6.344   5.659  0.4125 -0.8371  0.3193
 8811SOL    HW227333   2.567   6.371   5.595  0.1552 -0.5289  1.0380
 8812SOL     OW27334   0.156   5.008   2.731  0.2916  0.8482 -0.1296
 8812SOL    HW127335   0.116   5.039   2.645  0.7685 -0.0799 -0.6974
 8812SOL    HW227336   0.123   5.066   2.806 -1.8075  0.3774 -0.6222
 8813SOL     OW27337   1.730   0.455   5.162  0.0232  0.2563 -0.0796
 8813SOL    HW127338   1.808   0.496   5.115 -0.7647  1.0459 -0.7399
 8813SOL    HW227339   1.693   0.520   5.229  0.4300 -0.4273  0.8268
 8814SOL     OW27340   6.143   2.794   1.118 -0.2130 -0.4311 -0.7618
 8814SOL    HW127341   6.157   2.706   1.163 -1.0391  1.1335  2.9933
 8814SOL    HW227342   6.060   2.791   1.062 -1.7750 -1.4313  1.4476
 8815SOL     OW27343   0.467   4.639   1.929  0.3465  0.0902 -0.0889
 8815SOL    HW127344   0.555   4.605   1.897  0.5200  1.4775 -1.1852
 8815SOL    HW227345   0.412   4.668   1.851 -1.0483 -0.6268  0.5853
 8816SOL     OW27346   7.010   2.920   3.485  0.0459 -0.3836  0.2385
 8816SOL    HW127347   6.961   2.849   3.433  1.3915 -1.8122  0.8294
 8816SOL    HW227348   6.983   3.010   3.452 -1.9218 -1.1418 -0.3791
 8817SOL     OW27349   4.894   3.056   1.506  0.1934  0.2136  0.1729
 8817SOL    HW127350   4.866   2.991   1.435  0.8298 -0.1068  0.2146
 8817SOL    HW227351   4.944   3.132   1.464  2.0985 -0.8369  0.4430
 8818SOL     OW27352   4.855   1.017   4.347 -0.4052  0.4118  0.3731
 8818SOL    HW127353   4.930   0.993   4.286  0.4676  0.2062  1.5065
 8818SOL    HW227354   4.783   0.947   4.339  1.6294 -2.2251  2.8311
 8819SOL     OW27355   6.413   1.755   6.549 -0.2461 -0.6166 -0.2256
 8819SOL    HW127356   6.504   1.723   6.573 -0.1796 -1.5035 -1.5597
 8819SOL    HW227357   6.420   1.838   6.494 -0.3274  0.2801  1.0784
 8820SOL     OW27358   6.577   0.565   2.252 -0.3250 -0.7095 -0.3235
 8820SOL    HW127359   6.650   0.606   2.305 -1.8344  2.5006 -0.4626
 8820SOL    HW227360   6.596   0.578   2.154 -0.2283 -1.5194 -0.4171
 8821SOL     OW27361   4.798   4.160   0.597 -0.8538  0.4800  0.3933
 8821SOL    HW127362   4.750   4.240   0.632 -0.9131 -0.0520  1.5950
 8821SOL    HW227363   4.774   4.145   0.501 -0.6965  1.9888  0.0993
 8822SOL     OW27364   0.635   1.915   6.922 -0.0096 -0.3928  0.4228
 8822SOL    HW127365   0.536   1.897   6.915 -0.0445  0.3789 -1.8310
 8822SOL    HW227366   0.674   1.854   6.991 -1.5816 -2.8693 -0.6914
 8823SOL     OW27367   4.470   6.399   6.366 -0.0003 -0.5069 -0.2224
 8823SOL    HW127368   4.559   6.406   6.322 -0.9327  0.0086 -2.1040
 8823SOL    HW227369   4.482   6.368   6.461  2.1195 -0.8415 -0.5595
 8824SOL     OW27370   2.566   6.268   0.608 -1.1338  0.0240 -0.2733
 8824SOL    HW127371   2.480   6.218   0.610 -0.8290 -0.5105  1.5823
 8824SOL    HW227372   2.638   6.211   0.649 -0.6099  1.6601  1.1837
 8825SOL     OW27373   0.449   0.530   3.476  0.2006  0.0525  0.1118
 8825SOL    HW127374   0.432   0.449   3.421 -0.3778 -0.5627  1.1600
 8825SOL    HW227375   0.547   0.548   3.479  0.3907 -0.9516  0.3282
 8826SOL     OW27376   2.679   5.476   4.289  0.3842 -0.6205  0.3542
 8826SOL    HW127377   2.771   5.465   4.325  0.5132 -0.3879  0.0978
 8826SOL    HW227378   2.638   5.560   4.326  0.0322 -1.0499  0.9722
 8827SOL     OW27379   4.420   3.234   0.505 -0.3867  0.3837  0.0698
 8827SOL    HW127380   4.436   3.171   0.580  2.6260 -1.7074 -2.0828
 8827SOL    HW227381   4.507   3.263   0.465 -1.7994  1.6113 -2.4359
 8828SOL     OW27382   4.436   1.375   3.168  0.6010  0.1031 -0.1472
 8828SOL    HW127383   4.382   1.302   3.211  0.0322 -1.0599 -2.6304
 8828SOL    HW227384   4.520   1.390   3.219  0.4053 -1.8293  0.8056
 8829SOL     OW27385   5.553   0.158   2.563 -0.7390  0.2593 -0.2848
 8829SOL    HW127386   5.462   0.120   2.546 -1.0339  1.7746 -2.5110
 8829SOL    HW227387   5.609   0.149   2.481  0.7564  0.4439  0.6629
 8830SOL     OW27388   5.548   0.670   0.774  0.3155 -0.2233  0.1663
 8830SOL    HW127389   5.475   0.691   0.709 -1.5093 -1.0111  1.8723
 8830SOL    HW227390   5.568   0.572   0.770  0.5422 -0.1890  0.4333
 8831SOL     OW27391   3.773   1.009   4.457  0.0426 -0.0712 -0.3539
 8831SOL    HW127392   3.740   0.924   4.499  0.1561  0.3980  0.7171
 8831SOL    HW227393   3.715   1.033   4.380 -0.0383 -1.0804 -0.6152
 8832SOL     OW27394   2.204   4.953   3.629  0.0943  1.1678  0.5069
 8832SOL    HW127395   2.257   4.875   3.598  0.6730  1.7853 -0.1004
 8832SOL    HW227396   2.228   5.034   3.574 -0.0440  1.9149  1.5203
 8833SOL     OW27397   6.145   1.990   5.630 -0.8678 -0.3889 -0.0582
 8833SOL    HW127398   6.223   1.963   5.687 -1.2418 -2.5204 -0.4707
 8833SOL    HW227399   6.115   2.082   5.656  0.7176 -0.1934  1.2450
 8834SOL     OW27400   1.588   5.741   5.861  0.4122  0.0203  0.0254
 8834SOL    HW127401   1.527   5.774   5.933  1.3008  0.2363  0.6829
 8834SOL    HW227402   1.618   5.818   5.805 -1.1977 -0.2764 -1.3371
 8835SOL     OW27403   1.414   1.386   5.257 -0.4439 -0.1985  0.1139
 8835SOL    HW127404   1.484   1.383   5.185 -0.7192 -0.1728 -0.1574
 8835SOL    HW227405   1.451   1.434   5.337 -0.1651 -0.1464 -0.0429
 8836SOL     OW27406   0.785   2.441   0.148  0.4699 -0.3004  0.4393
 8836SOL    HW127407   0.806   2.395   0.061 -1.4610 -0.4385  0.0155
 8836SOL    HW227408   0.862   2.500   0.173  1.1581 -0.4114 -1.2524
 8837SOL     OW27409   5.257   5.996   5.797 -0.0497  0.1610 -0.3956
 8837SOL    HW127410   5.179   6.055   5.775  1.0110  0.7585 -2.8095
 8837SOL    HW227411   5.237   5.903   5.767  1.1244  0.8405 -3.7049
 8838SOL     OW27412   5.611   1.036   6.345  0.1705 -0.3582  0.3810
 8838SOL    HW127413   5.597   1.135   6.340  1.5343 -0.0858  1.2585
 8838SOL    HW227414   5.679   1.009   6.276 -1.0555 -0.8947 -0.6568
 8839SOL     OW27415   3.813   1.369   6.478 -0.0604  0.4841 -0.1705
 8839SOL    HW127416   3.715   1.374   6.459 -0.1904 -1.8163 -0.3771
 8839SOL    HW227417   3.845   1.275   6.466  2.0619  1.0541  0.5046
 8840SOL     OW27418   5.654   6.986   0.178  0.2686 -0.7798 -0.0046
 8840SOL    HW127419   5.646   6.932   0.262  1.1448  0.0764  0.6415
 8840SOL    HW227420   5.718   7.061   0.192 -1.5268  0.9537 -0.6262
 8841SOL     OW27421   0.516   6.519   0.527  0.7319 -0.2675 -0.3584
 8841SOL    HW127422   0.480   6.574   0.603 -1.1773  0.6895 -1.8594
 8841SOL    HW227423   0.572   6.577   0.469  0.1412 -0.3310 -1.0047
 8842SOL     OW27424   3.504   2.443   5.754 -0.1129 -0.1752  0.2599
 8842SOL    HW127425   3.420   2.479   5.713 -0.2768 -1.1290 -0.2711
 8842SOL    HW227426   3.567   2.415   5.683  1.6691  2.6154  0.5847
 8843SOL     OW27427   0.195   4.745   4.941  0.2311  0.3704 -0.2457
 8843SOL    HW127428   0.155   4.694   4.865  1.9997 -2.2268  0.4195
 8843SOL    HW227429   0.128   4.754   5.014  0.0278 -1.7852 -0.0859
 8844SOL     OW27430   2.094   4.226   1.407 -0.2179  0.1258 -0.0150
 8844SOL    HW127431   2.184   4.259   1.378 -0.0443 -0.3677 -0.0414
 8844SOL    HW227432   2.087   4.231   1.507  0.4720 -1.3956  0.1374
 8845SOL     OW27433   2.886   0.542   1.521  0.2299 -0.4908  0.7432
 8845SOL    HW127434   2.922   0.479   1.453  1.4794  1.7657 -0.8314
 8845SOL    HW227435   2.951   0.549   1.597 -0.3460 -1.7290  1.3689
 8846SOL     OW27436   6.400   5.846   5.433  0.1800 -0.2551 -0.3549
 8846SOL    HW127437   6.413   5.911   5.508 -0.2608 -1.9408  1.2613
 8846SOL    HW227438   6.308   5.807   5.438  0.0762 -0.2728 -1.9118
 8847SOL     OW27439   4.078   0.888   3.440 -0.4210  0.0315  0.3672
 8847SOL    HW127440   4.078   0.985   3.464  0.8070  0.6185 -1.7261
 8847SOL    HW227441   4.040   0.877   3.348  0.4513 -1.3444  0.1438
 8848SOL     OW27442   1.113   3.840   1.148  0.2535 -0.1142 -0.4884
 8848SOL    HW127443   1.038   3.801   1.201  0.3071  1.0253  0.4546
 8848SOL    HW227444   1.113   3.940   1.158  0.5197  0.1108 -2.3105
 8849SOL     OW27445   6.949   4.553   4.028 -0.2297 -0.0251  0.1358
 8849SOL    HW127446   7.017   4.480   4.021  1.4338  1.4471  0.4313
 8849SOL    HW227447   6.978   4.620   4.096 -2.4821  0.1590  1.0172
 8850SOL     OW27448   1.167   6.557   1.697 -0.1963  0.1449  0.1610
 8850SOL    HW127449   1.212   6.586   1.781  0.6929  0.0629 -0.2725
 8850SOL    HW227450   1.218   6.482   1.656 -1.9582 -1.4781  0.7896
 8851SOL     OW27451   4.545   2.791   0.066 -0.0983 -0.3850  0.2195
 8851SOL    HW127452   4.565   2.695   0.045 -0.4820 -0.5120  0.4179
 8851SOL    HW227453   4.452   2.813   0.036  0.3260  0.1961 -0.6923
 8852SOL     OW27454   2.404   4.532   5.723 -0.1510 -0.6736  0.1006
 8852SOL    HW127455   2.469   4.456   5.735 -0.3169 -1.0763 -1.3644
 8852SOL    HW227456   2.322   4.499   5.677  0.3643  0.6542 -1.8804
 8853SOL     OW27457   6.407   6.834   6.893 -0.0355  0.3049 -0.4544
 8853SOL    HW127458   6.491   6.801   6.938  0.3938  0.7195 -0.9342
 8853SOL    HW227459   6.431   6.902   6.823 -0.4809 -1.6542 -2.6607
 8854SOL     OW27460   2.182   5.353   3.002  0.4528 -0.1970  0.3099
 8854SOL    HW127461   2.177   5.261   2.963 -0.1912  0.2134 -0.6286
 8854SOL    HW227462   2.208   5.418   2.930 -2.4154  0.8434  0.1026
 8855SOL     OW27463   5.167   0.659   2.729  0.2861  0.4954 -0.1496
 8855SOL    HW127464   5.245   0.630   2.673  0.5771  0.5051  0.2447
 8855SOL    HW227465   5.091   0.596   2.714  0.0853  0.9629 -1.1637
 8856SOL     OW27466   5.524   1.373   3.257 -0.1740 -0.4089  0.2342
 8856SOL    HW127467   5.547   1.302   3.323 -2.2751 -2.5979 -1.2146
 8856SOL    HW227468   5.472   1.446   3.302  0.3069 -0.7663  1.3780
 8857SOL     OW27469   1.229   3.560   1.152 -0.1314 -0.6477  0.2160
 8857SOL    HW127470   1.216   3.593   1.058  0.3771 -0.1707  0.3066
 8857SOL    HW227471   1.214   3.636   1.216 -1.3235 -1.1656  0.5879
 8858SOL     OW27472   2.923   0.992   3.064  0.5608 -0.1674  0.1007
 8858SOL    HW127473   2.954   1.006   3.158 -0.1603 -2.5569  0.7553
 8858SOL    HW227474   2.989   0.934   3.016  0.8665  0.9439 -0.8840
 8859SOL     OW27475   1.740   4.602   6.754  0.0584  0.1382  0.0433
 8859SOL    HW127476   1.644   4.608   6.779 -0.5878 -1.4502 -1.8446
 8859SOL    HW227477   1.785   4.690   6.770 -1.9026  1.1694  0.0557
 8860SOL     OW27478   6.383   6.554   6.115  0.2061  0.1576 -0.1254
 8860SOL    HW127479   6.390   6.462   6.078 -0.4814  0.6556 -1.5623
 8860SOL    HW227480   6.341   6.551   6.205  0.4708 -0.9482 -0.0239
 8861SOL     OW27481   6.259   6.351   1.805  0.0376  0.3017 -0.0556
 8861SOL    HW127482   6.281   6.422   1.738 -1.1139  0.9451  0.2231
 8861SOL    HW227483   6.307   6.370   1.891 -0.1636  0.6617 -0.0241
 8862SOL     OW27484   6.170   6.919   2.910 -0.4118  0.4027 -0.2082
 8862SOL    HW127485   6.239   6.944   2.842  0.3927 -0.0565  0.4199
 8862SOL    HW227486   6.127   7.001   2.947  2.1683  0.9635  1.8163
 8863SOL     OW27487   5.993   6.170   1.614 -0.4950  0.0467 -0.1192
 8863SOL    HW127488   6.003   6.070   1.621  1.4520  0.2284  0.4566
 8863SOL    HW227489   5.932   6.202   1.686  0.4111 -0.5671  0.9627
 8864SOL     OW27490   2.210   6.280   2.610 -0.6344 -0.1887  0.0612
 8864SOL    HW127491   2.125   6.231   2.591 -0.4900 -1.3067  2.0704
 8864SOL    HW227492   2.271   6.222   2.665  0.5080  1.4207  0.5663
 8865SOL     OW27493   5.301   3.968   5.166 -0.0247 -0.7177  0.0226
 8865SOL    HW127494   5.392   3.933   5.189  0.0407 -1.0542 -0.7212
 8865SOL    HW227495   5.303   4.068   5.163  0.4397 -0.7399 -0.4699
 8866SOL     OW27496   5.698   6.788   4.542 -0.6657  0.2132  0.1419
 8866SOL    HW127497   5.763   6.753   4.610 -0.2577  1.2666  0.3186
 8866SOL    HW227498   5.746   6.807   4.457 -1.1301 -0.8527 -0.3722
 8867SOL     OW27499   2.383   0.482   1.565  0.5101 -0.0436 -0.0041
 8867SOL    HW127500   2.319   0.410   1.592  0.8046 -0.7409 -1.0912
 8867SOL    HW227501   2.470   0.470   1.614 -0.4940  1.5691  2.3327
 8868SOL     OW27502   0.468   0.352   2.784 -0.0438 -0.6525  0.4357
 8868SOL    HW127503   0.559   0.339   2.746  0.2258  1.5560  0.2165
 8868SOL    HW227504   0.401   0.306   2.726  0.6286  0.4286 -1.2705
 8869SOL     OW27505   4.581   1.915   3.339 -0.0217 -0.0749 -0.1698
 8869SOL    HW127506   4.560   1.984   3.269  0.7160 -0.6645 -0.9900
 8869SOL    HW227507   4.502   1.905   3.400  0.0949  2.0277  0.4355
 8870SOL     OW27508   0.009   6.021   0.035 -0.4730  1.1928 -0.2500
 8870SOL    HW127509  -0.068   6.022  -0.029 -0.8539  0.9139  0.1861
 8870SOL    HW227510   0.034   5.926   0.055  1.0050  1.2664 -1.5611
 8871SOL     OW27511   6.867   6.681   5.193  0.5558 -0.1881 -0.0585
 8871SOL    HW127512   6.918   6.761   5.162  1.0310  0.1059  1.3889
 8871SOL    HW227513   6.831   6.631   5.114  0.6178  1.2032 -1.0004
 8872SOL     OW27514   6.410   4.132   6.565 -0.3161  0.3261 -0.5139
 8872SOL    HW127515   6.476   4.190   6.517  0.8126 -1.3141 -1.0415
 8872SOL    HW227516   6.444   4.112   6.656 -0.8943  0.8038 -0.1894
 8873SOL     OW27517   2.243   0.326   2.234  0.2145  0.4919 -0.0022
 8873SOL    HW127518   2.304   0.396   2.272  0.1673 -0.3064  1.6413
 8873SOL    HW227519   2.172   0.303   2.301 -1.1299  0.4644 -1.3815
 8874SOL     OW27520   0.388   0.305   3.322  0.1348 -0.1534 -0.1486
 8874SOL    HW127521   0.289   0.296   3.315 -0.0785  1.7653 -0.1000
 8874SOL    HW227522   0.426   0.334   3.234  0.2463  1.9837  0.5473
 8875SOL     OW27523   1.497   1.093   6.294  0.5312  0.5311 -0.2560
 8875SOL    HW127524   1.415   1.035   6.300  0.3875  0.5314 -1.7143
 8875SOL    HW227525   1.484   1.160   6.221  1.7437  0.6778 -0.3449
 8876SOL     OW27526   2.836   0.226   2.851  0.7956  0.2269 -0.2953
 8876SOL    HW127527   2.753   0.213   2.905 -0.4629  1.6821 -1.7504
 8876SOL    HW227528   2.853   0.324   2.839  0.8086  0.0055 -2.7311
 8877SOL     OW27529   2.701   0.809   0.193 -0.1313  0.1483  0.6362
 8877SOL    HW127530   2.729   0.903   0.213  0.6414 -0.4376  2.4950
 8877SOL    HW227531   2.602   0.801   0.198 -0.4338  1.3140 -1.8102
 8878SOL     OW27532   6.260   5.433   4.103  0.0999 -0.0248  0.0968
 8878SOL    HW127533   6.344   5.420   4.156  0.3233  0.8336 -0.0334
 8878SOL    HW227534   6.188   5.376   4.141  0.9779 -1.5178 -0.3738
 8879SOL     OW27535   4.741   0.871   4.889  0.1567  0.1806  0.2172
 8879SOL    HW127536   4.690   0.793   4.924 -0.0432  0.2670  0.1161
 8879SOL    HW227537   4.830   0.839   4.855  0.0841  0.0005  0.1936
 8880SOL     OW27538   3.815   5.255   6.831 -0.0240 -0.0346  0.2598
 8880SOL    HW127539   3.734   5.292   6.786  0.8204  1.5573 -0.0496
 8880SOL    HW227540   3.894   5.311   6.807  1.0449 -1.1184  1.1289
 8881SOL     OW27541   5.871   5.640   2.593 -0.0659 -0.0648  0.0658
 8881SOL    HW127542   5.941   5.643   2.521  0.8464  1.4911  0.9584
 8881SOL    HW227543   5.874   5.725   2.645 -0.9069 -1.0238  1.7623
 8882SOL     OW27544   5.594   4.841   4.143  0.7577 -0.1341 -0.5299
 8882SOL    HW127545   5.604   4.753   4.191 -1.2757  0.2324  0.6815
 8882SOL    HW227546   5.546   4.826   4.057  0.5197 -0.2313 -0.3817
 8883SOL     OW27547   4.622   6.711   4.268  0.0035  0.0473 -0.2405
 8883SOL    HW127548   4.592   6.624   4.227  2.0091  0.3089 -2.4310
 8883SOL    HW227549   4.633   6.780   4.197 -3.4951  2.8801  1.6003
 8884SOL     OW27550   4.768   0.455   4.382 -0.2354  0.2347 -0.2376
 8884SOL    HW127551   4.796   0.377   4.326 -1.4471 -0.2752 -0.1598
 8884SOL    HW227552   4.850   0.505   4.413  0.5542 -0.9683 -0.3222
 8885SOL     OW27553   2.057   6.154   5.350  0.2348  0.2266  0.3024
 8885SOL    HW127554   1.986   6.139   5.281  0.4926  1.9488 -0.3889
 8885SOL    HW227555   2.109   6.069   5.363 -0.1363 -0.2812 -1.2704
 8886SOL     OW27556   2.712   0.572   4.243 -0.1621 -0.0925  0.0287
 8886SOL    HW127557   2.757   0.579   4.332  1.1866 -2.8502 -0.3166
 8886SOL    HW227558   2.728   0.481   4.205 -0.0624  1.1939 -3.3710
 8887SOL     OW27559   5.918   6.408   6.203  0.1340 -0.6389  0.4352
 8887SOL    HW127560   5.957   6.431   6.113 -0.4708 -0.2651  0.2652
 8887SOL    HW227561   5.897   6.310   6.205  1.1501 -0.8686  0.5631
 8888SOL     OW27562   5.224   3.103   5.780 -0.6691  0.1165 -0.5057
 8888SOL    HW127563   5.125   3.102   5.795 -0.7712 -1.6319 -1.0499
 8888SOL    HW227564   5.265   3.024   5.825  0.3596  0.3201 -1.0460
 8889SOL     OW27565   4.512   6.216   0.909 -0.1263  0.2599  0.3037
 8889SOL    HW127566   4.445   6.281   0.944 -0.6428  0.3858 -0.8675
 8889SOL    HW227567   4.589   6.267   0.868 -0.2623  0.1320 -0.1108
 8890SOL     OW27568   3.008   1.235   1.943  0.2684 -0.5788  0.4794
 8890SOL    HW127569   3.017   1.325   1.985  0.4650  0.6235 -1.9588
 8890SOL    HW227570   3.098   1.195   1.929  0.5059  0.5156 -1.6476
 8891SOL     OW27571   1.239   4.560   5.095 -0.3330 -0.3452 -0.0280
 8891SOL    HW127572   1.168   4.507   5.141  0.8743 -0.7779  1.4131
 8891SOL    HW227573   1.272   4.510   5.015 -1.8241  0.0035 -0.9061
 8892SOL     OW27574   0.475   5.124   6.903 -0.3854  0.0123  0.3785
 8892SOL    HW127575   0.514   5.216   6.912 -0.7426  0.1446  0.6079
 8892SOL    HW227576   0.461   5.103   6.806 -3.6841  1.6761  0.3353
 8893SOL     OW27577   4.451   2.534   0.459 -0.2834  0.7240 -0.4841
 8893SOL    HW127578   4.467   2.507   0.554  0.3749 -0.3916 -0.8993
 8893SOL    HW227579   4.517   2.489   0.400 -0.0443  2.1750 -1.3810
 8894SOL     OW27580   3.553   3.268   5.982  0.2335 -0.1659  0.3808
 8894SOL    HW127581   3.471   3.211   5.991 -0.4391  0.6497 -0.3431
 8894SOL    HW227582   3.601   3.270   6.070 -1.4864  0.7363  1.3779
 8895SOL     OW27583   0.146   5.047   5.794 -0.2219  0.1316  0.1643
 8895SOL    HW127584   0.129   4.981   5.721  1.7433  1.0390 -1.1973
 8895SOL    HW227585   0.064   5.103   5.808 -0.9202 -0.6270 -0.7298
 8896SOL     OW27586   2.072   4.013   3.313  0.2914 -0.1922 -0.4342
 8896SOL    HW127587   2.039   3.942   3.252 -2.6719  0.4802  0.2144
 8896SOL    HW227588   2.110   3.971   3.396  1.8565 -1.0312 -1.5375
 8897SOL     OW27589   1.103   3.500   6.092 -0.2210 -0.1720 -0.5145
 8897SOL    HW127590   1.128   3.579   6.037  0.7296 -0.5874 -0.7083
 8897SOL    HW227591   1.066   3.428   6.032  1.4293 -0.8750 -0.7436
 8898SOL     OW27592   4.766   1.035   1.700  1.1275 -0.2669 -0.3645
 8898SOL    HW127593   4.827   1.021   1.779 -1.1060 -0.7859  1.3743
 8898SOL    HW227594   4.697   1.103   1.723 -0.2549 -1.2504 -1.4676
 8899SOL     OW27595   4.676   4.479   4.260  0.2056  0.3204 -0.0475
 8899SOL    HW127596   4.750   4.451   4.199  0.3112  0.9856 -0.2365
 8899SOL    HW227597   4.641   4.399   4.310  1.3274  0.0708  0.3583
 8900SOL     OW27598   2.274   3.398   5.579 -0.0263  0.2813  0.1971
 8900SOL    HW127599   2.364   3.439   5.564 -0.1763 -0.0589 -1.9033
 8900SOL    HW227600   2.224   3.450   5.648  1.6123  0.7113  1.0980
 8901SOL     OW27601   1.777   1.163   6.491  0.8904  0.1621 -0.2803
 8901SOL    HW127602   1.703   1.099   6.512  0.4341  0.1635 -1.7384
 8901SOL    HW227603   1.864   1.127   6.525  0.3308 -0.1651  0.8515
 8902SOL     OW27604   0.784   0.488   1.508  0.5866  0.5781  0.7344
 8902SOL    HW127605   0.815   0.578   1.479  0.9214 -0.1305 -1.2696
 8902SOL    HW227606   0.856   0.421   1.493 -0.5301 -0.4500 -0.3099
 8903SOL     OW27607   1.740   3.963   3.757  0.5075 -0.2228 -0.2390
 8903SOL    HW127608   1.816   4.017   3.720 -0.1670  1.6212  0.8996
 8903SOL    HW227609   1.681   3.933   3.682  1.1368  0.2666 -0.9464
 8904SOL     OW27610   4.858   4.424   5.950  0.3991 -0.1463  0.6588
 8904SOL    HW127611   4.855   4.521   5.924  0.1729 -0.2560  0.2692
 8904SOL    HW227612   4.953   4.393   5.953  0.4981  0.1876  1.1722
 8905SOL     OW27613   0.958   4.589   5.673 -0.0508 -0.3542 -0.1051
 8905SOL    HW127614   1.002   4.659   5.730  0.4395 -0.9410  0.2417
 8905SOL    HW227615   1.018   4.564   5.598 -0.3364 -0.2190 -0.3815
 8906SOL     OW27616   6.535   3.042   0.354 -0.3030 -0.1038 -0.6527
 8906SOL    HW127617   6.448   3.074   0.391  0.7625  1.4356  0.6933
 8906SOL    HW227618   6.559   2.955   0.396 -0.9855 -0.3199 -0.7067
 8907SOL     OW27619   5.852   6.808   4.982  0.1412  0.4135  0.4313
 8907SOL    HW127620   5.898   6.780   5.067  0.0478  3.7643  1.7581
 8907SOL    HW227621   5.754   6.790   4.989  0.3508 -0.9379  0.2310
 8908SOL     OW27622   4.864   6.225   0.378 -0.1830  0.1093 -0.3900
 8908SOL    HW127623   4.870   6.145   0.319  2.3681 -1.2287  1.4849
 8908SOL    HW227624   4.822   6.198   0.465  2.4896  0.1887  1.0237
 8909SOL     OW27625   3.631   1.987   4.020  0.0547  0.7206  0.8501
 8909SOL    HW127626   3.721   1.970   4.061  0.5083 -0.4643 -0.5710
 8909SOL    HW227627   3.570   1.910   4.042  0.3563 -0.0148 -0.7847
 8910SOL     OW27628   1.081   1.243   1.958  0.3439 -0.2272 -0.0496
 8910SOL    HW127629   1.171   1.280   1.983 -0.0146  0.3100  0.4902
 8910SOL    HW227630   1.020   1.250   2.037 -0.5786  0.7191 -0.8106
 8911SOL     OW27631   2.332   1.089   5.584  0.8151 -0.0102  0.0707
 8911SOL    HW127632   2.391   1.012   5.560  0.2486 -0.4196 -0.0287
 8911SOL    HW227633   2.386   1.173   5.588  1.5750 -0.5239  0.9009
 8912SOL     OW27634   0.041   0.948   3.764 -0.0964  0.1559 -0.0052
 8912SOL    HW127635   0.021   0.850   3.759 -0.8088  0.3260 -0.5628
 8912SOL    HW227636  -0.010   0.988   3.840 -0.7394  0.3176 -0.5215
 8913SOL     OW27637   4.310   0.713   4.090 -0.1050 -0.4007  0.3354
 8913SOL    HW127638   4.331   0.778   4.163  1.6114 -0.8553  0.2757
 8913SOL    HW227639   4.243   0.647   4.124 -0.9205  0.6334  0.7928
 8914SOL     OW27640   0.759   0.556   0.391 -0.3579  0.0014 -0.1376
 8914SOL    HW127641   0.667   0.535   0.425 -0.5017 -0.6741 -0.9345
 8914SOL    HW227642   0.813   0.472   0.385  0.5970  0.4871  1.0998
 8915SOL     OW27643   4.383   4.743   1.505 -0.1945 -0.1667  0.4863
 8915SOL    HW127644   4.386   4.645   1.486  0.1544 -0.2769  1.0904
 8915SOL    HW227645   4.452   4.790   1.449 -2.4005  0.1770 -2.1699
 8916SOL     OW27646   1.268   3.705   2.513  0.1805  0.0401 -0.1712
 8916SOL    HW127647   1.363   3.703   2.483  0.3877 -0.5685  0.5118
 8916SOL    HW227648   1.214   3.758   2.447  0.9997  0.4665 -0.5176
 8917SOL     OW27649   4.990   0.531   5.155  0.1375 -0.2493  0.1018
 8917SOL    HW127650   4.961   0.435   5.152 -1.0186  0.1045 -0.6307
 8917SOL    HW227651   4.942   0.579   5.229  0.5745 -0.1857  0.3481
 8918SOL     OW27652   5.964   0.127   2.467 -0.3479  0.5831 -0.1478
 8918SOL    HW127653   5.951   0.146   2.369 -1.3777  1.7579  0.1867
 8918SOL    HW227654   5.888   0.070   2.500 -0.8037  1.4183  0.2706
 8919SOL     OW27655   5.859   4.986   6.917 -0.4503 -0.1456  0.2899
 8919SOL    HW127656   5.852   4.890   6.945 -0.8405 -0.3856 -0.6178
 8919SOL    HW227657   5.771   5.032   6.931  0.6120  1.1190  4.2854
 8920SOL     OW27658   1.565   2.774   6.364 -0.1112  0.0191  0.6814
 8920SOL    HW127659   1.596   2.684   6.333  0.9452  0.3664  0.6780
 8920SOL    HW227660   1.612   2.845   6.311 -0.5929  0.5783  0.9953
 8921SOL     OW27661   6.293   0.846   4.467  0.0159  0.3198  0.0038
 8921SOL    HW127662   6.287   0.772   4.535 -0.3720 -0.4997 -0.8930
 8921SOL    HW227663   6.227   0.917   4.489 -0.2765 -0.0536  0.3549
 8922SOL     OW27664   4.113   6.362   2.509 -0.7942  0.4917 -0.7373
 8922SOL    HW127665   4.094   6.278   2.459 -0.1483  0.8054 -1.5361
 8922SOL    HW227666   4.203   6.397   2.482 -0.1804  0.3906  1.0371
 8923SOL     OW27667   3.522   5.683   2.197  0.5735 -0.2298  0.4649
 8923SOL    HW127668   3.490   5.669   2.104  0.3955 -0.4054  0.5512
 8923SOL    HW227669   3.615   5.719   2.196  0.2726  0.5690  0.2075
 8924SOL     OW27670   6.872   1.509   2.353  0.3697 -0.5268  0.1919
 8924SOL    HW127671   6.933   1.430   2.356  0.6052 -0.3123  2.3270
 8924SOL    HW227672   6.777   1.477   2.355  0.4425 -0.7757 -0.2069
 8925SOL     OW27673   5.631   4.448   1.054  0.1527 -0.1932  0.1586
 8925SOL    HW127674   5.600   4.353   1.052  0.9337 -0.5538  2.3442
 8925SOL    HW227675   5.563   4.505   1.100  1.1037 -0.3738  1.9104
 8926SOL     OW27676   1.702   4.080   5.425 -0.2466 -0.3288  0.2260
 8926SOL    HW127677   1.639   4.033   5.486  2.1474 -0.5060  2.7891
 8926SOL    HW227678   1.728   4.019   5.350 -3.3215 -0.0765 -1.1955
 8927SOL     OW27679   6.988   6.504   2.750 -0.2971 -0.0113  0.1690
 8927SOL    HW127680   7.046   6.448   2.809 -0.4946  0.2114  0.5776
 8927SOL    HW227681   6.903   6.454   2.730 -0.2007 -0.1146  0.0173
 8928SOL     OW27682   2.540   0.222   6.100 -0.5406  0.3437  0.3745
 8928SOL    HW127683   2.516   0.220   6.003 -0.2858 -0.9743  0.3226
 8928SOL    HW227684   2.639   0.213   6.110 -0.5144  0.9776  0.7525
 8929SOL     OW27685   2.136   0.670   1.024  0.3411  0.1106 -0.0656
 8929SOL    HW127686   2.201   0.745   1.018  1.2068 -0.5680  0.4665
 8929SOL    HW227687   2.143   0.612   0.943 -0.2074  0.5057 -0.3989
 8930SOL     OW27688   6.634   2.090   0.944 -0.3821 -0.2408 -0.6268
 8930SOL    HW127689   6.663   2.184   0.924  1.6863 -0.3560  1.4182
 8930SOL    HW227690   6.538   2.090   0.971 -0.6502  1.1430 -1.4693
 8931SOL     OW27691   6.197   3.542   2.729 -0.0020 -0.2123  0.2611
 8931SOL    HW127692   6.188   3.641   2.738  0.8479 -0.1084  0.0927
 8931SOL    HW227693   6.176   3.498   2.817 -0.1321  0.1355  0.4038
 8932SOL     OW27694   0.452   3.560   0.122 -0.4918  0.4508 -0.3371
 8932SOL    HW127695   0.493   3.497   0.188 -1.2227 -0.3482 -0.6231
 8932SOL    HW227696   0.501   3.554   0.035 -0.3581  0.5130 -0.2656
 8933SOL     OW27697   0.723   1.891   0.903 -0.9915 -0.4366  0.2573
 8933SOL    HW127698   0.789   1.851   0.839 -0.5919 -0.3637  0.6180
 8933SOL    HW227699   0.772   1.940   0.975 -1.4803  0.8375 -0.2575
 8934SOL     OW27700   0.535   5.427   0.019  0.2206 -0.5499 -0.7143
 8934SOL    HW127701   0.442   5.461   0.036  0.4710 -0.0301 -0.3271
 8934SOL    HW227702   0.592   5.502  -0.015  0.1866 -1.1650 -2.1949
 8935SOL     OW27703   1.257   4.648   2.020  0.2724 -0.1146 -0.2274
 8935SOL    HW127704   1.270   4.746   2.037  0.7410  0.0519 -1.4812
 8935SOL    HW227705   1.322   4.596   2.075 -1.0091  0.1636  1.6625
 8936SOL     OW27706   5.441   6.680   2.421  0.6133  0.2735  0.2828
 8936SOL    HW127707   5.470   6.709   2.513  1.8448  1.6233 -0.4962
 8936SOL    HW227708   5.518   6.636   2.374 -0.0379 -0.4970 -0.0979
 8937SOL     OW27709   2.060   1.829   0.871 -0.1428 -0.3449  0.3233
 8937SOL    HW127710   1.970   1.800   0.839 -0.0403 -2.0757  1.4389
 8937SOL    HW227711   2.056   1.851   0.968  0.3966  0.8049  0.1018
 8938SOL     OW27712   2.878   5.032   0.790  0.5791 -0.0926 -0.3639
 8938SOL    HW127713   2.786   5.071   0.799  0.4885 -0.4306  0.1755
 8938SOL    HW227714   2.921   5.068   0.707  0.1832  0.5155 -0.3115
 8939SOL     OW27715   3.221   1.476   0.869 -0.2394 -0.4267 -0.3449
 8939SOL    HW127716   3.194   1.500   0.775  0.0135 -0.2117 -0.3638
 8939SOL    HW227717   3.320   1.462   0.872 -0.1117  0.5325  0.0987
 8940SOL     OW27718   6.247   5.161   3.398  0.0139  0.2216 -0.5106
 8940SOL    HW127719   6.150   5.136   3.393  0.0115 -0.8777  2.6562
 8940SOL    HW227720   6.303   5.079   3.392  0.3856  0.1068  2.7139
 8941SOL     OW27721   3.487   0.296   6.692  0.4031  0.2941  0.4629
 8941SOL    HW127722   3.544   0.220   6.722  0.3297 -0.1251 -0.4522
 8941SOL    HW227723   3.528   0.341   6.613 -0.9011 -0.4961 -0.6892
 8942SOL     OW27724   2.652   7.016   4.103 -0.5595 -0.6616 -0.3171
 8942SOL    HW127725   2.661   6.952   4.026 -0.8034 -2.6287  1.2274
 8942SOL    HW227726   2.568   6.998   4.153  1.2183 -1.8839  2.4918
 8943SOL     OW27727   4.111   0.965   1.834  0.6707  0.0124 -0.1816
 8943SOL    HW127728   4.140   0.870   1.844  0.6665 -0.2876 -2.4734
 8943SOL    HW227729   4.188   1.020   1.802  0.5408  0.6943  0.6502
 8944SOL     OW27730   4.001   6.155   0.456  0.0254 -0.1265  0.0592
 8944SOL    HW127731   3.944   6.228   0.493  0.0076 -0.4793  0.7460
 8944SOL    HW227732   4.050   6.110   0.531  1.5478  0.4456 -0.5569
 8945SOL     OW27733   2.725   2.612   0.589  0.0140  0.3463  0.4800
 8945SOL    HW127734   2.745   2.525   0.543  1.9037  2.2878 -2.8059
 8945SOL    HW227735   2.647   2.655   0.545  0.3794  1.2074  0.6637
 8946SOL     OW27736   1.035   5.656   0.090  0.0086 -0.2791  0.5002
 8946SOL    HW127737   1.029   5.728   0.020  0.6556 -0.5170  0.1835
 8946SOL    HW227738   0.974   5.677   0.166 -1.4705 -0.5275 -0.5895
 8947SOL     OW27739   5.971   6.509   5.927 -0.1001  0.3920 -0.5327
 8947SOL    HW127740   6.032   6.558   5.865  0.5520  0.8050  0.4148
 8947SOL    HW227741   5.876   6.531   5.905  0.1606  1.5602 -0.5684
 8948SOL     OW27742   6.483   0.905   4.250  0.3365  0.4689 -0.4419
 8948SOL    HW127743   6.572   0.866   4.225 -0.0143 -0.7264  0.0910
 8948SOL    HW227744   6.437   0.844   4.315 -0.9785  0.9588 -0.8789
 8949SOL     OW27745   1.585   4.987   2.191  0.2436 -0.6262  0.4190
 8949SOL    HW127746   1.494   5.009   2.158 -0.4400  0.8140  2.9919
 8949SOL    HW227747   1.585   4.895   2.230  0.0562 -0.8441 -0.0838
 8950SOL     OW27748   2.493   4.787   3.144 -0.7499 -0.4952  0.6034
 8950SOL    HW127749   2.454   4.694   3.144  1.5947 -1.7903 -3.8793
 8950SOL    HW227750   2.429   4.849   3.098 -0.3860 -1.0988 -0.7833
 8951SOL     OW27751   3.851   1.826   4.935  1.0071 -0.2322 -0.1701
 8951SOL    HW127752   3.939   1.780   4.926  0.8012 -0.7338  0.3186
 8951SOL    HW227753   3.790   1.771   4.993  0.1208 -0.2463 -1.0850
 8952SOL     OW27754   2.206   1.148   1.068 -0.3227 -0.3198 -0.5742
 8952SOL    HW127755   2.224   1.077   1.136  0.0175  0.8604  0.6207
 8952SOL    HW227756   2.253   1.126   0.983 -0.4518 -1.6510 -0.3171
 8953SOL     OW27757   3.386   0.676   1.910  1.0154 -0.0414 -0.2940
 8953SOL    HW127758   3.471   0.625   1.901  0.6408 -0.3670 -2.2311
 8953SOL    HW227759   3.400   0.751   1.976  2.1644 -1.3290  0.9894
 8954SOL     OW27760   5.982   0.267   4.133 -0.6757 -0.1397  0.1449
 8954SOL    HW127761   5.975   0.168   4.144 -0.4742 -0.0610  1.1309
 8954SOL    HW227762   5.905   0.301   4.081 -0.2689 -0.9263 -1.0064
 8955SOL     OW27763   6.737   6.880   6.189 -0.5422 -0.0620 -0.1036
 8955SOL    HW127764   6.709   6.794   6.146 -0.1117 -0.3985  0.2715
 8955SOL    HW227765   6.837   6.887   6.188 -0.4200 -0.7391  2.0228
 8956SOL     OW27766   4.778   1.585   3.782  0.2790 -0.1334 -0.2336
 8956SOL    HW127767   4.752   1.678   3.756 -0.7786 -0.4902 -0.5033
 8956SOL    HW227768   4.735   1.562   3.869 -1.4434 -1.1804 -1.2966
 8957SOL     OW27769   3.970   2.024   0.751  0.2809 -0.4305  0.1875
 8957SOL    HW127770   4.002   1.953   0.689  0.0376 -1.0403  0.7458
 8957SOL    HW227771   3.874   2.045   0.731  0.6432  0.4867 -0.6511
 8958SOL     OW27772   6.116   2.435   4.121 -0.5427  0.1756 -0.4697
 8958SOL    HW127773   6.148   2.494   4.047  0.7892  0.1692  0.0616
 8958SOL    HW227774   6.191   2.421   4.186 -2.4316  2.7130  2.5786
 8959SOL     OW27775   3.591   5.347   4.594  0.3162 -0.2552 -0.1143
 8959SOL    HW127776   3.611   5.278   4.524  1.1692  0.3859 -0.5229
 8959SOL    HW227777   3.503   5.390   4.575  0.9804  0.5980 -1.3787
 8960SOL     OW27778   4.922   5.180   6.053 -0.5318  0.5123  0.6761
 8960SOL    HW127779   4.961   5.257   6.104  1.0690  1.2799 -1.5674
 8960SOL    HW227780   4.976   5.098   6.069  0.7077  1.0356 -0.6372
 8961SOL     OW27781   6.659   2.232   5.667  0.2683 -0.2999  0.3650
 8961SOL    HW127782   6.731   2.167   5.643  0.0819 -0.6851  0.8251
 8961SOL    HW227783   6.636   2.221   5.764 -1.7354 -1.5335 -0.1821
 8962SOL     OW27784   6.888   2.047   2.112  0.0150  0.4354  0.4163
 8962SOL    HW127785   6.833   1.985   2.055 -1.2555  0.3937  1.6279
 8962SOL    HW227786   6.978   2.059   2.070 -0.1491 -1.2120 -0.5234
 8963SOL     OW27787   0.658   5.361   3.544  0.2078  0.3535  0.1658
 8963SOL    HW127788   0.702   5.283   3.587 -0.4908 -0.3214 -0.3226
 8963SOL    HW227789   0.727   5.421   3.504  0.6833 -0.8685 -0.9036
 8964SOL     OW27790   4.695   6.721   5.163  0.7597  0.2042  0.2082
 8964SOL    HW127791   4.657   6.640   5.206  1.1562 -0.1228 -0.0581
 8964SOL    HW227792   4.761   6.764   5.224  0.4972  0.3676  0.3774
 8965SOL     OW27793   6.689   1.981   0.230  0.2186 -0.1791 -0.3067
 8965SOL    HW127794   6.706   1.921   0.308  0.7439 -0.1346 -0.3864
 8965SOL    HW227795   6.648   2.067   0.262  1.6476  0.3879  0.0883
 8966SOL     OW27796   1.419   3.969   4.075  0.2636 -0.3790 -0.1500
 8966SOL    HW127797   1.477   4.040   4.115 -0.3740 -0.7420  1.4690
 8966SOL    HW227798   1.324   4.000   4.073 -0.0435 -1.2199  0.6943
 8967SOL     OW27799   4.574   4.732   2.249  0.3282  0.1360  0.2217
 8967SOL    HW127800   4.502   4.789   2.288  0.0733 -0.8318  1.2280
 8967SOL    HW227801   4.631   4.787   2.188 -0.1929  1.3425  0.7890
 8968SOL     OW27802   5.628   5.122   3.914  0.2678 -0.4767 -0.4218
 8968SOL    HW127803   5.670   5.092   3.999  1.3893 -0.9345 -1.1220
 8968SOL    HW227804   5.680   5.088   3.836 -1.2078 -0.7807 -1.3314
 8969SOL     OW27805   2.575   3.044   5.779 -0.0357  0.0472 -0.1395
 8969SOL    HW127806   2.639   3.106   5.734  2.4175 -2.4624 -0.3578
 8969SOL    HW227807   2.589   3.047   5.878  0.8775 -0.8883 -0.2208
 8970SOL     OW27808   1.017   4.609   4.146  0.2515  0.2369  0.3394
 8970SOL    HW127809   1.073   4.663   4.083 -0.6708  1.4735  0.5352
 8970SOL    HW227810   1.002   4.661   4.231  1.9754 -1.6265  1.8972
 8971SOL     OW27811   6.943   0.173   0.383 -0.0666  0.5038 -0.3759
 8971SOL    HW127812   6.974   0.252   0.436 -0.9329  0.4376  0.2405
 8971SOL    HW227813   6.939   0.093   0.442 -2.6835  0.7978 -0.0686
 8972SOL     OW27814   5.584   5.059   6.947 -0.6719  0.4179  0.5448
 8972SOL    HW127815   5.518   5.025   7.014 -0.9396  1.9656  1.0960
 8972SOL    HW227816   5.637   5.133   6.987 -1.8028  2.3725 -1.3531
 8973SOL     OW27817   1.355   7.005   6.590  0.2981  0.0124  0.3485
 8973SOL    HW127818   1.389   7.005   6.496  2.7028 -1.4617  1.1339
 8973SOL    HW227819   1.353   7.099   6.624  0.8895  0.4178 -0.6880
 8974SOL     OW27820   2.067   5.466   0.746 -0.0796 -0.1777  0.1030
 8974SOL    HW127821   2.131   5.436   0.817  0.7094 -3.7209 -1.8933
 8974SOL    HW227822   1.990   5.402   0.742 -0.2908  0.1459 -1.9610
 8975SOL     OW27823   4.828   1.559   6.471 -0.7599  0.2456  0.3787
 8975SOL    HW127824   4.811   1.658   6.465 -0.7344  0.2173 -0.2802
 8975SOL    HW227825   4.900   1.541   6.537 -0.5976  0.6894  0.3252
 8976SOL     OW27826   3.561   1.194   4.878  0.5389 -0.3127  0.7407
 8976SOL    HW127827   3.576   1.164   4.784 -0.9262 -2.1922  1.0529
 8976SOL    HW227828   3.513   1.282   4.877  1.2910  0.1169 -0.2225
 8977SOL     OW27829   4.027   2.403   0.217  0.5925  0.5337 -0.1918
 8977SOL    HW127830   4.085   2.476   0.253 -1.6395  1.7141  1.2516
 8977SOL    HW227831   3.953   2.384   0.281 -0.1414 -1.5240 -1.5346
 8978SOL     OW27832   3.739   0.265   2.382  0.7445 -0.1407  0.0503
 8978SOL    HW127833   3.807   0.272   2.455  0.0770 -2.9590  1.0440
 8978SOL    HW227834   3.648   0.257   2.422 -0.1944  2.5592 -1.2579
 8979SOL     OW27835   2.989   6.140   1.660 -0.7735 -0.2087  0.2403
 8979SOL    HW127836   2.995   6.070   1.589 -0.2561  0.6730 -0.6097
 8979SOL    HW227837   2.950   6.224   1.621 -1.4967 -0.0428  1.2718
 8980SOL     OW27838   1.245   0.958   0.952 -0.2248 -0.0668 -0.3175
 8980SOL    HW127839   1.306   0.898   0.900 -0.7952 -0.9411  0.0109
 8980SOL    HW227840   1.299   1.031   0.994  0.4554 -0.2459 -0.8465
 8981SOL     OW27841   0.604   5.605   5.856  0.2650 -0.0428 -0.4139
 8981SOL    HW127842   0.677   5.602   5.788  0.1466 -0.3180 -0.5291
 8981SOL    HW227843   0.547   5.523   5.848 -1.5040  1.2581 -1.9139
 8982SOL     OW27844   3.343   1.032   4.817  0.3782  0.6451  0.1076
 8982SOL    HW127845   3.416   1.098   4.802  1.4580 -0.3075  0.9625
 8982SOL    HW227846   3.314   1.035   4.913  1.0151 -0.6531  0.3630
 8983SOL     OW27847   6.836   6.290   3.339  0.5038  0.3367  0.6018
 8983SOL    HW127848   6.925   6.309   3.381  0.9093  0.6847 -0.3822
 8983SOL    HW227849   6.814   6.363   3.274  1.3336 -1.6597 -2.0816
 8984SOL     OW27850   6.289   6.618   5.583  0.2589  0.7362 -0.0246
 8984SOL    HW127851   6.288   6.602   5.484  1.5485 -1.4452  0.2571
 8984SOL    HW227852   6.197   6.603   5.620  0.3179 -1.2736 -0.5546
 8985SOL     OW27853   3.647   1.822   2.742  0.5131 -0.0754 -0.1998
 8985SOL    HW127854   3.741   1.854   2.754  0.9294 -1.3034  0.0436
 8985SOL    HW227855   3.618   1.836   2.648 -0.0147  2.6616  0.2786
 8986SOL     OW27856   3.262   3.254   3.835 -0.1468 -0.1408 -0.6169
 8986SOL    HW127857   3.243   3.320   3.907  1.5633  0.8218 -0.9788
 8986SOL    HW227858   3.223   3.287   3.749  0.9255  0.5665 -0.8510
 8987SOL     OW27859   4.347   2.105   5.871  0.3123 -0.0081  0.1496
 8987SOL    HW127860   4.401   2.185   5.843  0.6559 -0.3625 -0.2171
 8987SOL    HW227861   4.399   2.051   5.937  0.9086 -0.9659 -1.0602
 8988SOL     OW27862   5.766   2.530   5.364 -0.6035  0.0036 -0.1315
 8988SOL    HW127863   5.777   2.601   5.433 -0.0269 -0.7703  0.5907
 8988SOL    HW227864   5.760   2.572   5.273 -1.1035  1.0114  0.3532
 8989SOL     OW27865   5.723   2.186   3.913  0.0326 -0.1336 -0.0241
 8989SOL    HW127866   5.798   2.251   3.917  0.1264 -0.2168 -0.4162
 8989SOL    HW227867   5.662   2.200   3.991  0.5075 -0.1321  0.3504
 8990SOL     OW27868   0.840   4.964   4.450  0.9021  0.6274 -0.5552
 8990SOL    HW127869   0.890   4.899   4.392  0.1930 -0.3875 -0.0681
 8990SOL    HW227870   0.905   5.021   4.500  1.7360 -1.9886  1.5948
 8991SOL     OW27871   1.136   3.313   1.155 -0.4149  0.6229 -0.2082
 8991SOL    HW127872   1.169   3.407   1.149  1.4721 -0.0923 -3.2134
 8991SOL    HW227873   1.103   3.283   1.065 -1.0620 -1.5963  0.6775
 8992SOL     OW27874   5.035   2.151   0.639 -0.6999 -0.6142 -0.0036
 8992SOL    HW127875   5.010   2.247   0.633  1.3649 -0.0192  0.1512
 8992SOL    HW227876   5.090   2.135   0.721 -1.9185 -2.1716  0.5690
 8993SOL     OW27877   5.623   5.597   5.100 -0.4381  0.2430 -0.5797
 8993SOL    HW127878   5.582   5.608   5.191 -0.3537 -0.4981 -0.4466
 8993SOL    HW227879   5.697   5.664   5.089  1.5426 -1.5269  1.0699
 8994SOL     OW27880   3.482   3.763   1.872  0.1214  0.0393  0.2321
 8994SOL    HW127881   3.528   3.851   1.887 -0.6872  0.3475  1.0138
 8994SOL    HW227882   3.440   3.733   1.958  0.3716 -1.1122 -0.0312
 8995SOL     OW27883   5.829   3.833   2.812 -0.0585 -0.4957  0.1766
 8995SOL    HW127884   5.854   3.916   2.762  0.7000 -0.4349  0.6527
 8995SOL    HW227885   5.865   3.753   2.765 -0.3628 -0.5238 -0.0120
 8996SOL     OW27886   3.407   2.048   0.407  0.0577  0.2890 -0.0077
 8996SOL    HW127887   3.471   1.989   0.458  1.4170 -0.5474 -2.4796
 8996SOL    HW227888   3.315   2.037   0.444  0.9183 -0.3688  2.1052
 8997SOL     OW27889   2.774   1.807   1.748 -0.3219 -0.0763  0.6993
 8997SOL    HW127890   2.845   1.786   1.680 -0.5898  0.0852  0.3658
 8997SOL    HW227891   2.812   1.795   1.840  0.6996  1.7798  0.5766
 8998SOL     OW27892   3.605   5.377   3.562  0.3280  0.0592 -0.0466
 8998SOL    HW127893   3.523   5.420   3.524  0.6668  0.3136 -0.5074
 8998SOL    HW227894   3.585   5.341   3.653  0.1407  1.6186  0.5709
 8999SOL     OW27895   2.699   1.615   6.741 -0.1300  0.5917 -0.1670
 8999SOL    HW127896   2.646   1.530   6.748  0.7529  0.0399 -0.0521
 8999SOL    HW227897   2.655   1.676   6.675 -0.3183 -0.3013 -0.8877
 9000SOL     OW27898   4.535   5.639   6.286 -0.2051  0.1442 -0.3585
 9000SOL    HW127899   4.623   5.602   6.256 -0.4811 -0.3191 -0.6057
 9000SOL    HW227900   4.495   5.694   6.213 -0.2348  0.1548 -0.3341
 9001SOL     OW27901   1.964   4.398   2.990 -0.4629 -0.2623  0.3645
 9001SOL    HW127902   1.899   4.442   2.928 -0.4661 -0.3935  0.2746
 9001SOL    HW227903   1.932   4.306   3.011  0.2027 -0.6969 -0.4816
 9002SOL     OW27904   3.868   5.506   1.141  0.0288 -0.3785 -0.5977
 9002SOL    HW127905   3.802   5.440   1.105  0.5891  0.0974 -2.6395
 9002SOL    HW227906   3.961   5.473   1.125  0.3057  0.5268 -0.9619
 9003SOL     OW27907   3.737   4.273   1.558  0.4970 -0.7818  0.4539
 9003SOL    HW127908   3.672   4.320   1.619  0.0084  0.3392 -0.8863
 9003SOL    HW227909   3.779   4.339   1.497 -1.2844 -2.2021 -2.5226
 9004SOL     OW27910   3.866   5.648   1.380  0.2365 -0.6042  0.6876
 9004SOL    HW127911   3.805   5.578   1.344  0.1112 -0.4621  0.6242
 9004SOL    HW227912   3.961   5.617   1.372  0.3448  0.1677 -1.4304
 9005SOL     OW27913   4.905   3.642   2.078 -0.4087 -1.1373  0.6726
 9005SOL    HW127914   4.891   3.622   2.175 -0.5984 -2.1742  0.4441
 9005SOL    HW227915   4.824   3.689   2.042 -0.6572 -1.4221  0.8499
 9006SOL     OW27916   3.278   0.871   5.872 -0.0870  0.2668  0.5297
 9006SOL    HW127917   3.180   0.850   5.872 -0.1375  0.4276 -0.4215
 9006SOL    HW227918   3.330   0.790   5.847 -0.3215  1.1685 -3.7834
 9007SOL     OW27919   2.184   1.442   2.602 -0.4228 -0.0901 -0.1477
 9007SOL    HW127920   2.214   1.366   2.659 -0.8169 -0.0796  0.0791
 9007SOL    HW227921   2.119   1.499   2.653 -0.6504  0.0156 -0.5466
 9008SOL     OW27922   6.315   3.972   4.052 -0.2473 -0.0521 -0.4669
 9008SOL    HW127923   6.402   3.984   4.004  0.3850  0.0971  0.6790
 9008SOL    HW227924   6.327   3.908   4.128 -1.3437 -0.6570 -0.7708
 9009SOL     OW27925   6.987   6.648   0.836 -0.4089  0.3287 -0.3508
 9009SOL    HW127926   7.077   6.633   0.794  0.1057  0.3180  0.7198
 9009SOL    HW227927   6.925   6.687   0.768  0.6294  1.0578 -0.9149
 9010SOL     OW27928   6.290   4.143   3.707 -0.1220 -0.1966  0.0318
 9010SOL    HW127929   6.346   4.225   3.699  0.3193 -0.4084  0.8427
 9010SOL    HW227930   6.319   4.075   3.640 -0.4358  0.2661 -0.5889
 9011SOL     OW27931   4.024   3.814   5.091 -0.3796  0.2249  0.1057
 9011SOL    HW127932   4.062   3.812   4.999 -0.1186  1.6120  0.1586
 9011SOL    HW227933   3.980   3.903   5.107  0.6117  0.4644  1.6991
 9012SOL     OW27934   4.271   0.422   2.080  0.1238 -0.3164 -0.3258
 9012SOL    HW127935   4.353   0.457   2.126 -0.2198  1.3839 -0.9237
 9012SOL    HW227936   4.192   0.478   2.106 -0.2730 -0.0022 -2.0700
 9013SOL     OW27937   3.254   6.788   4.752 -0.0884 -0.2346  0.2090
 9013SOL    HW127938   3.272   6.800   4.850  0.1025  1.7665 -0.0209
 9013SOL    HW227939   3.331   6.742   4.709 -0.1430 -1.0661  0.9611
 9014SOL     OW27940   0.477   1.929   0.205 -0.5415 -0.0142  1.0358
 9014SOL    HW127941   0.437   2.019   0.224  0.8635  0.9741 -0.4182
 9014SOL    HW227942   0.405   1.865   0.178 -1.3335  1.3417 -0.1991
 9015SOL     OW27943   1.266   5.856   3.225  0.3785 -0.5771 -0.0475
 9015SOL    HW127944   1.288   5.932   3.286 -1.0717  0.5386 -0.8429
 9015SOL    HW227945   1.272   5.770   3.275  1.9313  0.0463  0.9090
 9016SOL     OW27946   6.378   1.929   5.754 -0.2783  0.6923  0.3501
 9016SOL    HW127947   6.348   1.835   5.774  0.3276  0.7765  1.8080
 9016SOL    HW227948   6.473   1.928   5.724 -0.4025  0.8005 -0.0453
 9017SOL     OW27949   4.811   6.346   3.789 -0.8949 -0.7305 -0.2608
 9017SOL    HW127950   4.895   6.373   3.836 -1.5536 -0.7343  0.9359
 9017SOL    HW227951   4.821   6.253   3.754 -0.3899 -0.7181 -0.1654
 9018SOL     OW27952   3.068   6.332   4.914 -0.2919  0.3474 -0.0292
 9018SOL    HW127953   3.102   6.267   4.982 -0.6784  0.4601  0.2741
 9018SOL    HW227954   3.094   6.301   4.822  1.1304  0.7331  0.2246
 9019SOL     OW27955   5.206   1.840   0.426  0.0708 -0.2725 -0.2275
 9019SOL    HW127956   5.258   1.852   0.510 -1.7090  0.1435  0.8598
 9019SOL    HW227957   5.141   1.915   0.416  2.0209  1.2299 -3.4105
 9020SOL     OW27958   2.115   6.443   0.852 -0.9010 -0.2006  0.4706
 9020SOL    HW127959   2.089   6.368   0.791  0.4416  0.4476 -0.9762
 9020SOL    HW227960   2.203   6.422   0.895  0.3890  1.2021 -1.3042
 9021SOL     OW27961   0.140   5.532   4.023  0.1178  0.5284  0.0201
 9021SOL    HW127962   0.127   5.548   4.120  1.5363 -1.8281  0.6676
 9021SOL    HW227963   0.061   5.482   3.986 -0.0756  0.7564  0.1218
 9022SOL     OW27964   4.501   2.531   2.849  0.1364 -0.2432 -0.1982
 9022SOL    HW127965   4.563   2.589   2.901 -0.0658  0.0743 -0.3079
 9022SOL    HW227966   4.543   2.507   2.761 -0.1028  0.4104 -0.5026
 9023SOL     OW27967   6.048   5.683   1.831 -0.6671  0.0654 -0.9266
 9023SOL    HW127968   6.085   5.611   1.772  0.8316 -1.4763  1.7234
 9023SOL    HW227969   5.954   5.660   1.857  0.1576 -1.6251  0.7789
 9024SOL     OW27970   6.342   1.615   5.208 -0.2773  0.2806 -0.1487
 9024SOL    HW127971   6.330   1.715   5.214 -0.7311  0.2517 -0.5075
 9024SOL    HW227972   6.370   1.580   5.298  3.8665  1.2171 -0.8832
 9025SOL     OW27973   6.252   5.664   1.513  0.0235 -0.8018 -0.2729
 9025SOL    HW127974   6.223   5.585   1.567  2.4366 -1.9509 -0.5414
 9025SOL    HW227975   6.301   5.729   1.572  1.1231 -1.2133 -0.7242
 9026SOL     OW27976   6.831   4.204   0.200  0.1349 -0.4929  0.4001
 9026SOL    HW127977   6.867   4.118   0.164  0.6980 -0.3499  0.6100
 9026SOL    HW227978   6.872   4.223   0.289  1.1603  0.7326 -0.2934
 9027SOL     OW27979   6.565   1.333   4.395 -0.1729  0.0144 -0.2132
 9027SOL    HW127980   6.586   1.350   4.298 -1.0354  1.8817 -0.1194
 9027SOL    HW227981   6.480   1.281   4.402 -0.0538 -0.2160 -0.4637
 9028SOL     OW27982   3.620   6.278   3.714 -0.1026  0.1326 -0.2198
 9028SOL    HW127983   3.632   6.296   3.812  1.5445  0.2486 -0.4085
 9028SOL    HW227984   3.617   6.365   3.665 -2.2787  0.1299 -0.1806
 9029SOL     OW27985   2.699   6.380   1.736  0.8017 -0.1530 -0.2567
 9029SOL    HW127986   2.724   6.408   1.643  0.2602 -0.4687 -0.5025
 9029SOL    HW227987   2.600   6.369   1.742  0.3899  3.3193  1.3304
 9030SOL     OW27988   3.175   3.601   0.794 -0.1249  0.7218 -0.1733
 9030SOL    HW127989   3.202   3.513   0.832  1.3884  0.8896 -0.8188
 9030SOL    HW227990   3.080   3.596   0.764 -0.7617 -0.0032  1.7777
 9031SOL     OW27991   4.174   2.014   5.021 -0.6163 -0.0085 -0.0781
 9031SOL    HW127992   4.177   2.070   4.938 -0.9291  1.0018  0.5739
 9031SOL    HW227993   4.124   2.063   5.093 -0.7087 -1.0395  0.5856
 9032SOL     OW27994   1.473   0.059   0.585 -0.1112 -0.0527 -1.0435
 9032SOL    HW127995   1.502   0.083   0.493 -2.4019 -1.1195 -2.1218
 9032SOL    HW227996   1.380   0.023   0.583  0.5248 -2.1716  1.4006
 9033SOL     OW27997   2.060   0.501   3.059  0.2757  0.0476 -0.5927
 9033SOL    HW127998   2.155   0.532   3.068 -0.1256  0.9702  0.7572
 9033SOL    HW227999   2.011   0.518   3.144 -0.4451 -2.8851 -0.3304
 9034SOL     OW28000   1.520   1.939   2.916  0.1049 -0.0186 -0.3399
 9034SOL    HW128001   1.475   2.021   2.880  0.1164 -0.5731 -1.6862
 9034SOL    HW228002   1.557   1.885   2.840  0.4248 -1.0849  0.5436
 9035SOL     OW28003   2.439   6.674   1.696 -0.1265 -0.1056  0.0843
 9035SOL    HW128004   2.419   6.579   1.719 -1.4007  0.4853  1.5712
 9035SOL    HW228005   2.472   6.679   1.601 -1.5969 -1.8370 -0.5851
 9036SOL     OW28006   2.481   2.127   6.463 -0.4907  0.3138  0.8079
 9036SOL    HW128007   2.559   2.134   6.526  0.2445  1.2645 -0.1758
 9036SOL    HW228008   2.460   2.217   6.426  1.1920 -0.5712 -2.7358
 9037SOL     OW28009   4.733   2.759   2.157 -0.0917  0.4208  0.5165
 9037SOL    HW128010   4.727   2.846   2.109  1.3845  1.0283  1.3729
 9037SOL    HW228011   4.814   2.709   2.126 -1.0793 -0.8282 -0.1949
 9038SOL     OW28012   3.447   5.513   6.196 -0.8030 -0.0328 -0.3471
 9038SOL    HW128013   3.518   5.449   6.222  0.4237  1.1832 -0.5978
 9038SOL    HW228014   3.365   5.462   6.167 -1.0344 -1.4404  2.4453
 9039SOL     OW28015   1.406   0.280   6.606  0.2083 -0.1379  0.0416
 9039SOL    HW128016   1.492   0.293   6.556  0.9476 -0.6997  1.1298
 9039SOL    HW228017   1.425   0.278   6.704 -0.7281 -2.4475  0.2382
 9040SOL     OW28018   5.503   2.092   4.493  0.1987 -0.0634 -0.4283
 9040SOL    HW128019   5.599   2.106   4.517 -0.2855  0.4863  1.3752
 9040SOL    HW228020   5.467   2.012   4.541 -1.1715  1.8606  2.0355
 9041SOL     OW28021   2.331   0.826   3.929  0.4563  0.2279 -0.2504
 9041SOL    HW128022   2.378   0.815   3.842 -0.3692  1.2979 -0.8539
 9041SOL    HW228023   2.378   0.895   3.984  0.7731 -0.1966  0.0239
 9042SOL     OW28024   4.013   5.948   2.037  0.0886  0.0160  0.0783
 9042SOL    HW128025   3.976   6.030   2.081  0.6611 -0.2926  1.1632
 9042SOL    HW228026   3.940   5.902   1.987 -0.1578  1.3939 -0.9237
 9043SOL     OW28027   4.555   4.021   0.829  0.4001  0.6847 -0.0391
 9043SOL    HW128028   4.616   3.992   0.755  1.5000 -0.1165  1.1509
 9043SOL    HW228029   4.460   4.009   0.800  0.7806  1.2710 -1.6520
 9044SOL     OW28030   6.227   4.309   1.511  0.5096 -0.0131 -0.1157
 9044SOL    HW128031   6.222   4.263   1.600  1.8350 -0.4516 -0.2521
 9044SOL    HW228032   6.137   4.346   1.488 -0.1398 -0.9343  0.8492
 9045SOL     OW28033   0.704   2.912   2.030 -0.0783 -0.2328  0.6410
 9045SOL    HW128034   0.673   2.905   1.936 -0.1231  0.0380  0.6337
 9045SOL    HW228035   0.640   2.970   2.082  0.3419  0.2211  0.6579
 9046SOL     OW28036   3.660   4.093   3.502  0.0487  0.5709 -0.2127
 9046SOL    HW128037   3.636   4.080   3.598 -0.0167 -1.9325 -0.5005
 9046SOL    HW228038   3.757   4.118   3.495  0.6127 -1.2902  0.4480
 9047SOL     OW28039   6.703   1.083   1.302 -0.5767 -0.4502 -0.1124
 9047SOL    HW128040   6.719   1.038   1.390 -2.0056  0.5217  0.6770
 9047SOL    HW228041   6.745   1.174   1.304 -0.4324 -0.5078 -0.5238
 9048SOL     OW28042   5.415   6.090   6.750  0.1066  0.0772 -0.0645
 9048SOL    HW128043   5.458   6.074   6.838  0.0213  2.2292  0.4297
 9048SOL    HW228044   5.477   6.142   6.691 -0.3557 -0.1500 -0.7653
 9049SOL     OW28045   1.367   6.966   0.281  0.4313 -0.0415  0.0290
 9049SOL    HW128046   1.296   6.966   0.210  0.8319 -0.1323 -0.3721
 9049SOL    HW228047   1.326   6.941   0.369 -0.3214  1.3399  0.0956
 9050SOL     OW28048   5.695   5.648   0.783 -0.0881 -0.5842  0.4896
 9050SOL    HW128049   5.692   5.624   0.880  0.9030 -3.2206 -0.0402
 9050SOL    HW228050   5.790   5.666   0.756 -0.1265 -1.4470 -0.2916
 9051SOL     OW28051   4.060   2.979   1.317  0.0338  0.3039  0.2840
 9051SOL    HW128052   4.023   2.960   1.408  0.3043 -3.3380 -0.2074
 9051SOL    HW228053   4.160   2.973   1.319  0.1405  1.7159 -0.0019
 9052SOL     OW28054   2.581   5.685   4.438 -0.1657  0.0719  0.1692
 9052SOL    HW128055   2.492   5.656   4.473 -1.1790  2.1156 -0.5255
 9052SOL    HW228056   2.652   5.665   4.506 -0.9437 -2.5613  0.2991
 9053SOL     OW28057   6.213   5.265   4.617  0.1022 -0.4585 -0.1434
 9053SOL    HW128058   6.244   5.342   4.673  0.5203  0.8574 -2.0738
 9053SOL    HW228059   6.113   5.256   4.624  0.1887 -0.6259  1.1255
 9054SOL     OW28060   6.529   2.538   3.741  0.4282 -0.4754 -0.3936
 9054SOL    HW128061   6.556   2.460   3.797 -0.8738 -1.1818 -0.7156
 9054SOL    HW228062   6.444   2.576   3.776  1.6830  1.6401  0.5457
 9055SOL     OW28063   0.993   3.232   2.706  0.3154  0.1095 -0.1084
 9055SOL    HW128064   0.990   3.160   2.637 -0.0854  0.2963 -0.2869
 9055SOL    HW228065   1.067   3.213   2.771  0.6171 -0.1258 -0.5198
 9056SOL     OW28066   5.570   4.277   0.096  0.2461 -0.2292 -0.2655
 9056SOL    HW128067   5.532   4.246   0.009 -1.8760  1.7260 -0.1431
 9056SOL    HW228068   5.552   4.208   0.167 -0.9277 -0.4463 -0.7486
 9057SOL     OW28069   4.904   3.602   2.354 -0.4624 -0.0895  0.0111
 9057SOL    HW128070   4.876   3.508   2.370 -1.3835  0.2833  0.7074
 9057SOL    HW228071   4.940   3.641   2.439 -0.0388  0.1739 -0.2842
 9058SOL     OW28072   2.984   3.820   4.308 -0.3489 -0.3389  0.3272
 9058SOL    HW128073   2.930   3.755   4.255 -0.3238 -0.5733  0.5888
 9058SOL    HW228074   2.985   3.908   4.261 -0.1865 -0.5918 -0.1515
 9059SOL     OW28075   4.013   3.279   3.916 -0.6638 -0.1536  0.0645
 9059SOL    HW128076   3.918   3.307   3.902 -0.5461  2.2642  2.9320
 9059SOL    HW228077   4.015   3.199   3.975 -0.8993 -0.8764 -0.8879
 9060SOL     OW28078   5.423   0.489   5.310  0.0516  0.0785  0.4735
 9060SOL    HW128079   5.492   0.534   5.367  2.6164  0.2115 -2.4586
 9060SOL    HW228080   5.399   0.548   5.233 -1.3121 -1.0919 -0.0471
 9061SOL     OW28081   0.740   4.764   0.217  0.5338 -0.4594 -0.5496
 9061SOL    HW128082   0.718   4.718   0.131  0.4362  0.6128 -1.1185
 9061SOL    HW228083   0.657   4.804   0.255  0.6149 -0.7537 -0.0535
 9062SOL     OW28084   4.047   0.494   6.999 -0.3480  0.2363  0.7089
 9062SOL    HW128085   4.018   0.428   7.068  1.3057 -0.2263  1.0091
 9062SOL    HW228086   3.967   0.544   6.965 -1.1201  1.0033  3.4430
 9063SOL     OW28087   2.226   0.552   5.569  0.3797  0.3729 -0.2586
 9063SOL    HW128088   2.216   0.630   5.630 -2.1327  0.3544 -0.5134
 9063SOL    HW228089   2.176   0.570   5.484  1.5500 -0.6714 -1.1996
 9064SOL     OW28090   0.913   2.823   5.279 -0.3560 -0.4542 -0.0120
 9064SOL    HW128091   0.892   2.774   5.364 -0.1933  1.1680  1.0024
 9064SOL    HW228092   0.868   2.912   5.279  1.2722  0.4171 -0.6903
 9065SOL     OW28093   1.057   1.055   5.102  0.2766  0.0557  0.5718
 9065SOL    HW128094   1.034   1.147   5.071 -1.2739 -0.2792  0.6890
 9065SOL    HW228095   1.155   1.052   5.125  0.4966  1.4805 -0.0496
 9066SOL     OW28096   5.298   4.646   4.034 -0.0320 -0.6510  0.0323
 9066SOL    HW128097   5.350   4.560   4.037 -0.8889 -1.1961 -0.2039
 9066SOL    HW228098   5.291   4.678   3.940 -0.5077 -0.8337  0.0005
 9067SOL     OW28099   5.395   4.752   2.695 -0.0959 -0.4504  0.1645
 9067SOL    HW128100   5.363   4.807   2.773  0.1842  2.3331 -1.5706
 9067SOL    HW228101   5.316   4.721   2.642 -0.2087 -0.3508  0.2716
 9068SOL     OW28102   1.625   4.672   4.105  0.5149  0.3614 -0.0973
 9068SOL    HW128103   1.604   4.769   4.098 -1.5187  0.1322  1.6315
 9068SOL    HW228104   1.602   4.640   4.197  2.1266 -1.5572 -0.2931
 9069SOL     OW28105   3.151   6.848   5.092  0.1356 -0.1542  0.2211
 9069SOL    HW128106   3.244   6.860   5.057 -0.2603  0.5649 -0.6266
 9069SOL    HW228107   3.109   6.769   5.048  0.4320 -0.6286  0.7904
 9070SOL     OW28108   1.294   5.036   1.069  0.2431 -0.0167 -0.1334
 9070SOL    HW128109   1.291   4.941   1.099  0.5681  0.3862  1.2530
 9070SOL    HW228110   1.227   5.050   0.996 -1.8429 -0.6893  1.5280
 9071SOL     OW28111   6.006   1.394   6.087 -0.5727 -0.4819 -0.2905
 9071SOL    HW128112   5.915   1.394   6.128 -1.4053 -2.2552 -1.9423
 9071SOL    HW228113   6.071   1.353   6.151 -0.5294  2.2151  1.5298
 9072SOL     OW28114   1.131   5.896   0.712  0.1668  0.1289 -0.0046
 9072SOL    HW128115   1.037   5.909   0.744  0.5687 -0.7789  1.6680
 9072SOL    HW228116   1.168   5.812   0.751  1.2975 -0.1530 -1.5968
 9073SOL     OW28117   5.474   1.982   6.152 -0.2284  0.3479 -0.1700
 9073SOL    HW128118   5.422   1.929   6.084 -0.6521 -2.5740  2.2135
 9073SOL    HW228119   5.559   1.934   6.172  0.4070  1.7482  0.5947
 9074SOL     OW28120   1.199   2.805   1.487  0.1009 -0.0184  0.0886
 9074SOL    HW128121   1.206   2.714   1.444  0.7078  0.7982 -1.6234
 9074SOL    HW228122   1.162   2.870   1.420 -0.1902  1.0360  1.2483
 9075SOL     OW28123   4.777   5.846   5.394  0.2237  0.5835  0.5300
 9075SOL    HW128124   4.855   5.784   5.393 -0.7038 -0.6416 -1.0448
 9075SOL    HW228125   4.798   5.928   5.343  0.3578  0.0596 -0.2723
 9076SOL     OW28126   3.031   0.347   1.185  0.0907  0.0868 -0.1756
 9076SOL    HW128127   3.050   0.405   1.106 -1.6170  2.1662  0.8487
 9076SOL    HW228128   2.942   0.304   1.173 -0.8788  1.6106  1.2189
 9077SOL     OW28129   2.374   5.968   0.036 -0.6848 -0.6544 -0.3904
 9077SOL    HW128130   2.304   6.036   0.060  0.3106  0.3708 -0.2840
 9077SOL    HW228131   2.452   6.014  -0.008  0.0699 -1.7135 -0.2071
 9078SOL     OW28132   6.202   6.878   0.644  0.0058  0.8489 -0.2903
 9078SOL    HW128133   6.116   6.867   0.694  1.9708 -1.0941  3.0242
 9078SOL    HW228134   6.228   6.790   0.603  0.4117  1.4321 -1.3288
 9079SOL     OW28135   4.073   0.032   3.454  0.0737  0.2661 -0.4394
 9079SOL    HW128136   4.023   0.108   3.495  0.3343  0.1149  0.1731
 9079SOL    HW228137   4.008  -0.032   3.412 -0.2638  0.0259  0.4199
 9080SOL     OW28138   6.797   4.589   5.148 -0.1165  0.1993  0.3857
 9080SOL    HW128139   6.876   4.648   5.132 -0.5382  0.3678 -1.3279
 9080SOL    HW228140   6.741   4.626   5.222  0.9284  0.5723  0.9956
 9081SOL     OW28141   3.911   5.904   4.255  0.1787 -0.0985 -0.4704
 9081SOL    HW128142   3.817   5.888   4.286  0.0258  2.3497  0.5743
 9081SOL    HW228143   3.911   5.976   4.186  1.2661 -0.4713 -0.8800
 9082SOL     OW28144   2.544   1.147   0.182  0.5650  0.4759  0.2734
 9082SOL    HW128145   2.561   1.166   0.278  0.0134 -1.7067  0.8539
 9082SOL    HW228146   2.627   1.111   0.140  0.7091  1.1138 -0.0094
 9083SOL     OW28147   0.197   0.337   3.032 -0.0031  0.0842  0.0790
 9083SOL    HW128148   0.296   0.348   3.043 -0.1449 -0.0927  1.8659
 9083SOL    HW228149   0.150   0.405   3.088 -0.9477  1.6100 -2.4118
 9084SOL     OW28150   3.170   3.616   4.210 -0.0562 -0.2977  0.0919
 9084SOL    HW128151   3.104   3.681   4.246  0.1250 -0.0397 -0.0342
 9084SOL    HW228152   3.261   3.635   4.249  0.1764  0.0942 -0.6171
 9085SOL     OW28153   2.450   2.034   5.134  0.5716  0.5707 -0.0604
 9085SOL    HW128154   2.386   1.985   5.075  1.2058  0.4391 -0.6606
 9085SOL    HW228155   2.465   2.126   5.098 -1.7103  1.7990  1.8449
 9086SOL     OW28156   4.255   2.534   0.042  0.1035 -0.0679  0.4953
 9086SOL    HW128157   4.162   2.546   0.006 -0.0581 -1.5557  0.3820
 9086SOL    HW228158   4.260   2.572   0.134 -0.0185  1.9530 -0.2670
 9087SOL     OW28159   1.631   0.339   0.305 -0.3430  0.4382  0.5062
 9087SOL    HW128160   1.623   0.303   0.211 -0.2791  0.8884  0.3288
 9087SOL    HW228161   1.688   0.277   0.359 -1.1770 -0.3420  0.5188
 9088SOL     OW28162   3.480   0.984   5.737  0.4705 -0.2088 -0.2391
 9088SOL    HW128163   3.421   1.043   5.682  0.3065  0.0685  0.2311
 9088SOL    HW228164   3.430   0.950   5.817  0.6973 -0.6311 -0.2681
 9089SOL     OW28165   5.509   5.853   1.306  0.0035  0.0286  0.4117
 9089SOL    HW128166   5.571   5.904   1.366 -1.2003  2.0303  0.0841
 9089SOL    HW228167   5.540   5.863   1.211 -0.6972  0.9246  0.2613
 9090SOL     OW28168   2.115   2.610   4.463  0.3432 -0.3784 -0.4068
 9090SOL    HW128169   2.204   2.641   4.499  2.0323 -1.0489 -3.6640
 9090SOL    HW228170   2.108   2.511   4.473 -0.0593 -0.3208 -0.1210
 9091SOL     OW28171   6.370   2.624   2.216  0.3100 -0.1105 -0.1118
 9091SOL    HW128172   6.380   2.526   2.237 -2.4028  0.2115  3.8191
 9091SOL    HW228173   6.460   2.667   2.221  1.2554 -2.0196  0.6325
 9092SOL     OW28174   2.500   5.449   0.891 -0.3123 -0.3566  0.1867
 9092SOL    HW128175   2.419   5.418   0.941 -1.1065  0.0866 -0.7686
 9092SOL    HW228176   2.515   5.389   0.812  0.5827 -0.7128  0.6153
 9093SOL     OW28177   6.598   4.224   1.262 -0.5813 -0.7340  0.0313
 9093SOL    HW128178   6.591   4.160   1.339 -0.1389  0.3462  1.0043
 9093SOL    HW228179   6.517   4.282   1.259 -0.8428 -1.1135 -0.6703
 9094SOL     OW28180   0.111   5.151   1.944  0.4650 -0.6878  0.1040
 9094SOL    HW128181   0.054   5.122   2.021 -0.6126 -1.6147 -0.9963
 9094SOL    HW228182   0.091   5.246   1.922 -0.6927 -1.0118 -0.2839
 9095SOL     OW28183   1.477   5.325   6.338  0.9470 -0.6841  0.2124
 9095SOL    HW128184   1.558   5.359   6.386 -0.5506 -0.1903  2.5756
 9095SOL    HW228185   1.418   5.276   6.403 -0.8861 -0.6108 -1.2921
 9096SOL     OW28186   1.990   1.749   2.113 -0.0966  0.5084  0.0978
 9096SOL    HW128187   2.024   1.699   2.193  0.7209 -1.4272 -1.3660
 9096SOL    HW228188   1.890   1.747   2.112 -0.1028  0.1931  0.8693
 9097SOL     OW28189   4.219   5.214   3.144  0.3736  0.1160  0.1064
 9097SOL    HW128190   4.218   5.223   3.243  0.7093 -0.5013  0.1708
 9097SOL    HW228191   4.150   5.148   3.116  1.3239 -0.8833  0.0638
 9098SOL     OW28192   0.786   4.407   4.609  0.2184  0.0882 -0.0937
 9098SOL    HW128193   0.723   4.355   4.551  0.4585  1.3929 -1.5789
 9098SOL    HW228194   0.865   4.350   4.632 -1.0120 -1.2518  1.0074
 9099SOL     OW28195   2.935   3.822   4.585 -0.4192  0.0781 -0.4659
 9099SOL    HW128196   2.898   3.729   4.598 -1.5569  0.5694 -0.0766
 9099SOL    HW228197   2.957   3.835   4.489 -1.0443 -0.3208 -0.6736
 9100SOL     OW28198   6.447   6.807   2.153  0.5874  0.2744 -0.1713
 9100SOL    HW128199   6.506   6.872   2.104  1.1022  0.5737  0.8005
 9100SOL    HW228200   6.363   6.853   2.180 -0.3578 -0.2901 -1.9948
 9101SOL     OW28201   2.671   0.839   1.095 -0.6374 -0.0730 -0.4109
 9101SOL    HW128202   2.604   0.767   1.111 -1.8255  0.5397 -2.3405
 9101SOL    HW228203   2.761   0.798   1.082 -0.6153 -0.9291  1.9401
 9102SOL     OW28204   3.250   5.646   4.297 -0.0030  0.0030 -0.7459
 9102SOL    HW128205   3.293   5.737   4.297 -0.8791  0.4299 -1.0468
 9102SOL    HW228206   3.151   5.656   4.290 -0.2170 -0.9509  0.5968
 9103SOL     OW28207   5.797   6.149   0.520 -0.2018  0.0322 -0.4332
 9103SOL    HW128208   5.752   6.222   0.571 -0.2399 -0.4165  0.1910
 9103SOL    HW228209   5.826   6.183   0.431  0.7094  1.1064  0.2529
 9104SOL     OW28210   3.546   2.373   0.715  0.2476  0.6234  0.1028
 9104SOL    HW128211   3.493   2.368   0.631  2.7258 -1.8507 -1.4696
 9104SOL    HW228212   3.597   2.288   0.728  2.8536  2.3066  2.1230
 9105SOL     OW28213   0.925   5.873   1.597 -0.3631 -0.1589  0.6986
 9105SOL    HW128214   0.952   5.788   1.551 -2.3904 -0.3144 -0.3547
 9105SOL    HW228215   1.005   5.928   1.617  0.8164 -1.3335 -0.6052
 9106SOL     OW28216   0.840   1.823   2.422  0.5386 -0.1901  0.1286
 9106SOL    HW128217   0.894   1.816   2.338 -0.9689 -1.7883 -0.7649
 9106SOL    HW228218   0.895   1.793   2.500  1.0590 -1.4791 -0.7097
 9107SOL     OW28219   1.678   3.431   3.873 -0.5730  0.1849 -0.1569
 9107SOL    HW128220   1.587   3.438   3.913 -0.0567  0.4940  1.0033
 9107SOL    HW228221   1.713   3.522   3.853 -0.0177  0.1402  0.5840
 9108SOL     OW28222   0.848   5.035   5.307  0.2404  0.0285  0.2465
 9108SOL    HW128223   0.918   5.021   5.237 -0.8298 -1.5853 -0.5631
 9108SOL    HW228224   0.871   4.982   5.388 -0.7558 -1.7413 -0.5804
 9109SOL     OW28225   5.174   4.500   6.723 -0.4450 -0.4591 -0.3636
 9109SOL    HW128226   5.257   4.523   6.672  0.9226 -0.1917  1.8501
 9109SOL    HW228227   5.160   4.401   6.719  0.0245 -0.5184 -0.6966
 9110SOL     OW28228   2.730   4.292   0.357  0.6137  0.4854  0.2061
 9110SOL    HW128229   2.724   4.282   0.456  0.9296 -1.3093  0.0747
 9110SOL    HW228230   2.651   4.248   0.314 -0.1811  2.3239 -0.3252
 9111SOL     OW28231   2.470   5.005   0.855  0.4656  0.1403 -0.2903
 9111SOL    HW128232   2.373   5.018   0.876  0.5244  0.8171 -0.4298
 9111SOL    HW228233   2.508   5.089   0.818  1.2369  0.0418  0.2563
 9112SOL     OW28234   1.731   2.426   5.656 -0.0839  0.1351  0.1971
 9112SOL    HW128235   1.727   2.339   5.607  2.2544 -0.0136  0.1188
 9112SOL    HW228236   1.657   2.431   5.723 -0.7101 -1.5644 -0.3227
 9113SOL     OW28237   4.128   1.965   3.412  0.2319  0.1529 -0.1269
 9113SOL    HW128238   4.104   1.908   3.334  0.1174  0.4744 -0.3315
 9113SOL    HW228239   4.087   2.056   3.400 -0.8360 -0.1642  0.8969
 9114SOL     OW28240   4.210   1.141   2.624  0.5181 -0.5551 -0.1250
 9114SOL    HW128241   4.304   1.166   2.598  0.3471 -0.1155 -0.3320
 9114SOL    HW228242   4.182   1.196   2.703  0.4766 -0.7698  0.0090
 9115SOL     OW28243   1.585   2.514   4.987  0.1906 -0.4086 -0.2741
 9115SOL    HW128244   1.649   2.508   4.911 -0.3183  0.2103 -0.7624
 9115SOL    HW228245   1.635   2.532   5.072  0.8720 -2.2859 -0.2439
 9116SOL     OW28246   0.676   3.446   1.450 -0.3012  0.0817  0.0726
 9116SOL    HW128247   0.676   3.475   1.545  0.2856 -0.2912  0.1864
 9116SOL    HW228248   0.769   3.427   1.420 -0.4945  0.0741 -0.5393
 9117SOL     OW28249   3.158   0.570   3.984  0.2991  0.5236 -0.2756
 9117SOL    HW128250   3.251   0.587   3.951  0.3777 -1.5596 -1.3053
 9117SOL    HW228251   3.094   0.630   3.935  0.8743  0.4510 -1.1370
 9118SOL     OW28252   1.606   0.807   6.221  0.0925 -0.3415 -0.3205
 9118SOL    HW128253   1.550   0.890   6.230  0.5658  0.0578 -1.0063
 9118SOL    HW228254   1.559   0.742   6.162  0.8404  0.4592 -1.8674
 9119SOL     OW28255   3.396   0.209   5.877 -0.0897  0.2458 -0.4380
 9119SOL    HW128256   3.438   0.274   5.940 -2.3493  0.4011  1.0224
 9119SOL    HW228257   3.372   0.257   5.792 -0.2420  0.9168 -0.0244
 9120SOL     OW28258   5.434   2.561   6.132 -0.0130 -0.7062  0.5071
 9120SOL    HW128259   5.515   2.612   6.103 -0.2910 -0.9021 -0.6729
 9120SOL    HW228260   5.401   2.506   6.056 -1.3763 -0.4781  0.9185
 9121SOL     OW28261   6.777   6.067   1.085 -0.3227  0.0194  0.5978
 9121SOL    HW128262   6.704   6.033   1.144 -1.8348  1.1319 -0.5659
 9121SOL    HW228263   6.743   6.143   1.030  1.1789 -0.6084 -1.3109
 9122SOL     OW28264   1.949   2.649   3.707 -0.0779 -0.5458  0.7382
 9122SOL    HW128265   1.914   2.740   3.733 -1.7817 -1.5046  2.0840
 9122SOL    HW228266   2.040   2.636   3.745  0.1480  0.5721  0.6051
 9123SOL     OW28267   5.323   4.954   2.883 -0.8128  0.7603 -0.1822
 9123SOL    HW128268   5.266   4.981   2.961 -0.4560 -1.3307  0.8862
 9123SOL    HW228269   5.383   5.029   2.858  0.1384  1.0280  2.5816
 9124SOL     OW28270   1.214   3.179   6.665 -0.1487  0.2331  0.0127
 9124SOL    HW128271   1.222   3.194   6.763  3.2545 -1.3195  0.1174
 9124SOL    HW228272   1.239   3.263   6.616  0.2137  0.4008  0.4793
 9125SOL     OW28273   1.685   3.116   3.238 -0.2683  0.1453 -0.1686
 9125SOL    HW128274   1.681   3.055   3.159  0.1713 -0.7282  0.4661
 9125SOL    HW228275   1.777   3.154   3.246 -0.1164 -0.3096  0.3088
 9126SOL     OW28276   1.326   5.685   5.155 -0.2433 -0.1099  0.3719
 9126SOL    HW128277   1.382   5.726   5.228  1.2264 -2.1216  0.4753
 9126SOL    HW228278   1.380   5.615   5.108 -2.3604 -1.4134 -0.2383
 9127SOL     OW28279   5.970   5.972   4.735 -0.0943  0.1439 -0.3192
 9127SOL    HW128280   6.051   6.024   4.764  2.1656 -2.4396 -1.5714
 9127SOL    HW228281   5.890   6.005   4.785  1.9523  1.8306  2.0945
 9128SOL     OW28282   6.408   5.940   1.532  0.3581 -0.2510  0.3844
 9128SOL    HW128283   6.339   5.977   1.594  0.9872  0.4856  0.6674
 9128SOL    HW228284   6.479   6.009   1.517  0.0011 -0.2329 -1.5226
 9129SOL     OW28285   3.400   3.259   2.856 -0.0078 -0.0904 -0.0076
 9129SOL    HW128286   3.452   3.232   2.775  0.5938 -1.1683  0.7252
 9129SOL    HW228287   3.350   3.344   2.836  0.9236  0.2155 -1.1747
 9130SOL     OW28288   5.914   2.698   6.424 -0.0796 -0.0847  0.0967
 9130SOL    HW128289   5.938   2.795   6.419  0.4477 -0.1536  1.0404
 9130SOL    HW228290   5.988   2.648   6.468 -1.1967 -0.5940  1.4750
 9131SOL     OW28291   5.295   1.966   2.555  0.8324  0.3567 -0.3357
 9131SOL    HW128292   5.316   2.063   2.564  1.6749  0.2513 -1.0803
 9131SOL    HW228293   5.197   1.954   2.538  0.1664  0.9003  2.5563
 9132SOL     OW28294   4.256   6.112   4.621 -0.1399  0.2203 -0.0794
 9132SOL    HW128295   4.265   6.206   4.588 -1.7433  0.1636 -0.8097
 9132SOL    HW228296   4.198   6.061   4.558 -0.8810 -0.7283  1.3266
 9133SOL     OW28297   5.890   6.122   6.104  0.0747 -0.3312 -0.2288
 9133SOL    HW128298   5.801   6.078   6.100  0.1971 -0.5156 -1.1229
 9133SOL    HW228299   5.946   6.079   6.175 -0.6966  0.0828  0.6445
 9134SOL     OW28300   5.704   1.758   2.351 -0.2406  0.2001  0.2026
 9134SOL    HW128301   5.660   1.843   2.319  1.4883  1.1744  0.2912
 9134SOL    HW228302   5.655   1.724   2.431 -0.2207  1.8601  0.9710
 9135SOL     OW28303   3.456   5.752   0.293  0.5502  0.3108 -0.4593
 9135SOL    HW128304   3.409   5.672   0.331  1.2573  0.5505  0.9923
 9135SOL    HW228305   3.535   5.722   0.240  0.2157  0.0229 -0.8071
 9136SOL     OW28306   4.023   1.121   5.108 -0.1739  0.3858 -0.2596
 9136SOL    HW128307   3.970   1.083   5.032 -0.2442  0.1761 -0.1062
 9136SOL    HW228308   3.962   1.174   5.168 -0.3123 -0.2773  0.1958
 9137SOL     OW28309   1.717   4.700   0.664  0.7910 -0.5394 -0.0160
 9137SOL    HW128310   1.795   4.742   0.618  1.0570 -1.7108 -0.6912
 9137SOL    HW228311   1.748   4.653   0.746  0.1637  2.4811  2.1067
 9138SOL     OW28312   1.465   3.033   1.244  0.0128  0.1743 -0.4013
 9138SOL    HW128313   1.556   3.070   1.263 -0.1297  0.1855  0.2856
 9138SOL    HW228314   1.472   2.967   1.169  1.1413 -2.0028  1.4695
 9139SOL     OW28315   2.882   4.442   0.081  0.2232  0.6882  0.6146
 9139SOL    HW128316   2.963   4.439   0.023  0.3412  0.6408  0.7802
 9139SOL    HW228317   2.903   4.400   0.169 -0.6160 -1.3604 -0.1017
 9140SOL     OW28318   0.760   2.973   5.618 -0.1481 -0.3922  0.6188
 9140SOL    HW128319   0.706   3.028   5.681 -0.0573  1.9947 -1.2407
 9140SOL    HW228320   0.749   3.008   5.525  1.0085 -2.7320 -0.4992
 9141SOL     OW28321   5.079   3.975   1.807  0.0895  0.4103 -0.1491
 9141SOL    HW128322   5.026   4.051   1.844 -1.3286 -1.3724  1.7218
 9141SOL    HW228323   5.135   3.935   1.880 -0.9116 -1.6978 -0.4529
 9142SOL     OW28324   0.199   2.083   6.680 -0.4315 -0.1157 -0.2943
 9142SOL    HW128325   0.178   2.027   6.600 -1.2568 -1.2781  0.7084
 9142SOL    HW228326   0.171   2.035   6.763 -0.7553  1.5978  0.6367
 9143SOL     OW28327   6.511   2.212   6.555 -0.1992 -0.0430 -0.1342
 9143SOL    HW128328   6.467   2.150   6.490 -0.4359  0.8807 -0.8712
 9143SOL    HW228329   6.477   2.192   6.648 -0.3325 -0.9482 -0.3654
 9144SOL     OW28330   6.332   0.812   0.155 -0.3651  0.0876 -0.4074
 9144SOL    HW128331   6.252   0.868   0.175  0.1970  1.2309 -1.2562
 9144SOL    HW228332   6.341   0.741   0.225 -0.9609  1.2108  0.8649
 9145SOL     OW28333   5.298   1.144   6.444 -0.5685 -0.7236  0.0903
 9145SOL    HW128334   5.375   1.183   6.394 -1.0417 -1.3187 -1.1572
 9145SOL    HW228335   5.312   1.157   6.542  0.8885 -0.4340 -0.1276
 9146SOL     OW28336   0.065   2.676   1.105 -0.1052 -0.5214 -0.0955
 9146SOL    HW128337   0.037   2.634   1.191  0.2354 -1.3521 -0.3831
 9146SOL    HW228338   0.163   2.698   1.108 -0.0535 -0.7135 -0.3383
 9147SOL     OW28339   1.790   0.198   2.576 -0.0070 -0.7773  0.1875
 9147SOL    HW128340   1.742   0.278   2.540  0.3893  0.0173  1.3539
 9147SOL    HW228341   1.887   0.221   2.588  0.2137 -1.6145  0.0074
 9148SOL     OW28342   5.729   5.179   5.809  0.2846  0.0598 -0.2354
 9148SOL    HW128343   5.772   5.102   5.763 -1.4621  0.1565 -2.1795
 9148SOL    HW228344   5.799   5.244   5.838  1.6805 -1.5856  0.2501
 9149SOL     OW28345   0.281   1.326   2.578 -0.3746  1.2716  0.1058
 9149SOL    HW128346   0.336   1.373   2.509  1.4656 -0.2401  0.4848
 9149SOL    HW228347   0.310   1.355   2.669  0.0889  0.1690  0.3173
 9150SOL     OW28348   6.628   4.599   6.407 -1.1125  0.0854  0.0949
 9150SOL    HW128349   6.666   4.536   6.340 -3.3314 -0.6200 -0.5705
 9150SOL    HW228350   6.637   4.560   6.499  0.3243  0.2574  0.0517
 9151SOL     OW28351   6.027   0.112   3.025  0.0019  0.1432  0.0966
 9151SOL    HW128352   6.071   0.201   3.020 -1.4383  0.9181  0.7203
 9151SOL    HW228353   5.939   0.121   3.070 -1.2845 -1.1749 -1.9989
 9152SOL     OW28354   0.793   3.692   0.653 -0.1805  0.2292  0.1537
 9152SOL    HW128355   0.802   3.622   0.583 -0.0892 -0.4189  0.8030
 9152SOL    HW228356   0.845   3.773   0.626 -0.8484  0.3160 -0.9278
 9153SOL     OW28357   0.537   5.735   5.530  0.4518 -0.2669 -0.1113
 9153SOL    HW128358   0.569   5.780   5.447 -3.6786 -0.3678 -1.9984
 9153SOL    HW228359   0.547   5.636   5.520  0.6832 -0.2373 -0.1670
 9154SOL     OW28360   0.592   5.460   2.489 -0.3703  0.4600  0.2569
 9154SOL    HW128361   0.537   5.538   2.520 -0.3069  0.8237 -0.5399
 9154SOL    HW228362   0.557   5.428   2.401 -0.3838 -0.4052  0.5707
 9155SOL     OW28363   6.483   2.224   4.511 -0.2053  0.4717 -0.1418
 9155SOL    HW128364   6.462   2.321   4.502 -1.0946  0.1948 -1.4953
 9155SOL    HW228365   6.502   2.186   4.420  0.3692 -0.5698  0.3984
 9156SOL     OW28366   0.890   5.937   4.755  0.8661  0.6215  0.4049
 9156SOL    HW128367   0.826   5.973   4.824  2.4495  2.5924  0.9497
 9156SOL    HW228368   0.977   5.916   4.799  1.2861  0.0357 -0.6840
 9157SOL     OW28369   0.190   4.384   5.895  0.0322  0.5546 -0.5951
 9157SOL    HW128370   0.279   4.339   5.907 -0.7762 -1.2545 -0.9556
 9157SOL    HW228371   0.186   4.466   5.952  1.2932 -0.2735  0.7796
 9158SOL     OW28372   1.742   1.576   2.129  0.1670 -0.7229  0.3424
 9158SOL    HW128373   1.801   1.565   2.209  1.6146  0.1940 -0.5505
 9158SOL    HW228374   1.793   1.556   2.046 -0.2501  1.6780 -0.5819
 9159SOL     OW28375   2.896   1.462   3.302  0.2144 -0.2718 -0.3066
 9159SOL    HW128376   2.844   1.504   3.228  0.3272  0.6517  0.1223
 9159SOL    HW228377   2.881   1.363   3.302 -1.9650 -0.0023  0.1231
 9160SOL     OW28378   6.332   2.274   2.481  0.0459  0.1238 -0.2350
 9160SOL    HW128379   6.289   2.184   2.489  0.9921 -0.3483 -0.3253
 9160SOL    HW228380   6.366   2.303   2.571  1.2276 -0.3832 -0.4940
 9161SOL     OW28381   5.099   2.205   3.341 -0.5963 -0.4613  0.4261
 9161SOL    HW128382   5.161   2.130   3.364  0.8413  0.7856  0.8340
 9161SOL    HW228383   5.057   2.239   3.425 -1.0359 -0.6400  0.2772
 9162SOL     OW28384   3.528   6.539   3.170 -0.4747 -0.6402  0.6255
 9162SOL    HW128385   3.627   6.555   3.168 -0.2233 -2.0245  0.7249
 9162SOL    HW228386   3.481   6.614   3.125  0.6037  0.1820  0.8325
 9163SOL     OW28387   6.434   3.366   2.861 -0.2314  0.4623 -0.1410
 9163SOL    HW128388   6.493   3.294   2.824 -0.7468 -0.5939  1.0018
 9163SOL    HW228389   6.353   3.375   2.803 -0.7302 -0.7412  0.3136
 9164SOL     OW28390   5.170   0.929   2.219  0.1998 -0.0365  0.0011
 9164SOL    HW128391   5.141   0.963   2.130  1.6684 -2.1859 -1.3928
 9164SOL    HW228392   5.103   0.957   2.289 -1.9060  0.2800 -2.0292
 9165SOL     OW28393   3.585   4.548   0.273 -0.0755 -0.2490  0.0674
 9165SOL    HW128394   3.511   4.523   0.335  0.2694  0.3205  0.7262
 9165SOL    HW228395   3.672   4.515   0.310  0.0325 -0.7233 -0.5895
 9166SOL     OW28396   1.452   3.243   4.861  0.5033  0.6248 -0.5264
 9166SOL    HW128397   1.417   3.151   4.876 -0.1491  0.9560  0.0821
 9166SOL    HW228398   1.541   3.239   4.815  1.1581 -0.3490  0.7697
 9167SOL     OW28399   6.369   0.924   2.107  0.0303  0.1743 -0.8220
 9167SOL    HW128400   6.344   1.019   2.085 -0.9665  0.1664  0.1752
 9167SOL    HW228401   6.457   0.923   2.154 -1.0515  0.8821  1.3390
 9168SOL     OW28402   3.698   3.575   2.687 -0.7614  0.2847 -0.6096
 9168SOL    HW128403   3.656   3.666   2.698 -0.7501  0.2120  0.0752
 9168SOL    HW228404   3.670   3.516   2.763 -0.5365 -0.1969 -0.8986
 9169SOL     OW28405   2.569   3.282   6.662 -0.1631  0.0401  0.1670
 9169SOL    HW128406   2.606   3.279   6.756 -2.0594 -0.9215  0.9266
 9169SOL    HW228407   2.485   3.337   6.661 -0.9371 -1.1209 -0.6701
 9170SOL     OW28408   6.763   2.768   2.442 -0.5896 -0.1938  0.3664
 9170SOL    HW128409   6.749   2.843   2.506 -0.9417 -0.5980  0.7731
 9170SOL    HW228410   6.685   2.763   2.379 -0.4133 -0.0187  0.1324
 9171SOL     OW28411   3.383   4.947   6.323  0.8073 -0.6771  0.3223
 9171SOL    HW128412   3.474   4.970   6.288  0.9134 -1.3968  0.1219
 9171SOL    HW228413   3.370   4.848   6.321  0.5712 -0.6983  1.6974
 9172SOL     OW28414   4.351   5.903   2.992 -0.1885 -0.3770 -0.2639
 9172SOL    HW128415   4.282   5.872   2.927  0.5415 -2.1323 -0.2499
 9172SOL    HW228416   4.389   5.824   3.040  2.0281  0.5101 -0.4692
 9173SOL     OW28417   2.626   6.166   1.481  0.2263 -0.3469  0.0247
 9173SOL    HW128418   2.688   6.104   1.531  0.9995  0.7539  0.4648
 9173SOL    HW228419   2.551   6.113   1.442  0.1901 -1.4041  1.4407
 9174SOL     OW28420   4.244   5.924   5.453  0.1534  0.0487  0.2051
 9174SOL    HW128421   4.157   5.973   5.451  0.2778  0.2651  0.1450
 9174SOL    HW228422   4.229   5.829   5.424  0.0865  0.3124 -0.6448
 9175SOL     OW28423   5.654   2.711   2.368 -0.0103 -0.1873  0.4472
 9175SOL    HW128424   5.612   2.656   2.296  1.3753 -3.0273  1.6647
 9175SOL    HW228425   5.583   2.764   2.415 -1.3923 -0.7145 -0.9716
 9176SOL     OW28426   4.972   6.640   2.671  0.4810 -0.0445  0.6762
 9176SOL    HW128427   4.961   6.636   2.571  1.2508 -0.8111  0.6072
 9176SOL    HW228428   4.942   6.729   2.704  1.4884  0.7319 -0.4111
 9177SOL     OW28429   5.225   0.300   6.118 -0.2263  0.2745  0.1411
 9177SOL    HW128430   5.183   0.277   6.030  0.0958 -1.4190  0.4027
 9177SOL    HW228431   5.181   0.382   6.155 -1.4099  0.1305 -0.8769
 9178SOL     OW28432   2.741   5.727   3.330  0.6277 -0.0479 -0.2999
 9178SOL    HW128433   2.740   5.659   3.403 -2.1844  1.2293  0.9729
 9178SOL    HW228434   2.753   5.818   3.369  1.9128  0.4581 -1.7523
 9179SOL     OW28435   0.102   4.323   3.771  0.4323  0.5257  0.0432
 9179SOL    HW128436   0.100   4.336   3.870  2.2333  0.8813  0.0743
 9179SOL    HW228437   0.181   4.265   3.747 -0.7511 -0.6921 -1.0792
 9180SOL     OW28438   3.326   1.380   6.816  0.2611 -0.2678  0.0343
 9180SOL    HW128439   3.403   1.436   6.845 -0.5250  1.4125 -0.9795
 9180SOL    HW228440   3.241   1.418   6.852 -0.2856 -0.7937 -0.6628
 9181SOL     OW28441   4.049   1.130   6.469 -0.2277  0.1845  0.4948
 9181SOL    HW128442   4.060   1.200   6.398  3.9010  0.1634  0.9215
 9181SOL    HW228443   4.045   1.039   6.427 -0.8139  0.3375  0.2024
 9182SOL     OW28444   0.719   5.656   6.308 -0.0959  0.1580  0.2911
 9182SOL    HW128445   0.732   5.744   6.263 -0.6339  0.4138  0.6416
 9182SOL    HW228446   0.765   5.585   6.254 -0.0146  0.5863 -0.2107
 9183SOL     OW28447   1.630   0.087   4.884  0.2564 -0.1983 -0.5043
 9183SOL    HW128448   1.660   0.172   4.927 -0.0086 -0.2154 -0.2859
 9183SOL    HW228449   1.667   0.009   4.935  0.3867 -0.2168 -0.6248
 9184SOL     OW28450   2.177   5.607   4.615 -0.0308 -0.1000  0.1738
 9184SOL    HW128451   2.112   5.579   4.544  0.0528 -0.4467  0.2335
 9184SOL    HW228452   2.134   5.598   4.704 -0.8587  2.2615  0.0832
 9185SOL     OW28453   0.181   4.497   5.216 -1.2898 -0.6918  0.0834
 9185SOL    HW128454   0.116   4.568   5.188  1.0574  1.8380  0.6848
 9185SOL    HW228455   0.226   4.460   5.134 -0.6613  0.4509 -0.1126
 9186SOL     OW28456   1.404   0.534   2.038  0.4558 -0.2375  0.1982
 9186SOL    HW128457   1.498   0.553   2.067 -0.0327  0.1892  1.6005
 9186SOL    HW228458   1.364   0.617   1.998  0.3873 -0.1574  0.4320
 9187SOL     OW28459   2.428   2.532   6.023  0.3714 -0.2550 -0.1552
 9187SOL    HW128460   2.334   2.549   6.051  0.8850 -2.7537  3.8791
 9187SOL    HW228461   2.431   2.456   5.958 -0.3361 -0.2720 -0.1722
 9188SOL     OW28462   2.454   2.696   1.817  0.3596  0.4839  0.4555
 9188SOL    HW128463   2.428   2.631   1.745 -1.5197  0.2759  1.2534
 9188SOL    HW228464   2.493   2.778   1.776  2.2444 -0.8635 -0.6127
 9189SOL     OW28465   4.554   2.099   3.128  0.0524 -0.3440 -0.0784
 9189SOL    HW128466   4.645   2.122   3.163 -0.0041 -1.4445  0.8294
 9189SOL    HW228467   4.495   2.180   3.133  0.7694  0.1877 -0.0251
 9190SOL     OW28468   2.168   1.460   2.105 -0.4772  0.5809 -0.1214
 9190SOL    HW128469   2.149   1.423   2.196 -0.2952  0.6392 -0.0583
 9190SOL    HW228470   2.083   1.470   2.054 -0.2985 -3.2640 -1.4640
 9191SOL     OW28471   6.446   2.448   2.705  0.4133 -0.0701 -0.0310
 9191SOL    HW128472   6.401   2.421   2.790  1.4427  1.2785  0.9951
 9191SOL    HW228473   6.538   2.409   2.702  0.5432  0.2520 -0.3109
 9192SOL     OW28474   1.488   0.098   0.882  0.1885 -0.1937  0.1340
 9192SOL    HW128475   1.485   0.058   0.791  0.0532  0.5303 -0.1839
 9192SOL    HW228476   1.448   0.034   0.948  1.0293 -1.0665 -0.1746
 9193SOL     OW28477   3.655   4.060   3.805  0.1738  0.6328  0.1063
 9193SOL    HW128478   3.696   4.086   3.892  1.2889  0.0280 -0.2152
 9193SOL    HW228479   3.715   3.995   3.758 -0.2099  1.2526 -1.2948
 9194SOL     OW28480   4.627   6.772   5.703  0.2541  0.2269  0.4558
 9194SOL    HW128481   4.600   6.813   5.790  0.0077  0.5061  0.2537
 9194SOL    HW228482   4.724   6.789   5.685  0.0244  1.2356  0.1030
 9195SOL     OW28483   1.566   4.102   0.915 -0.1191  0.0857 -0.5520
 9195SOL    HW128484   1.526   4.029   0.970  0.5013  0.1598  0.0140
 9195SOL    HW228485   1.524   4.103   0.824 -1.9485  0.6433  0.2428
 9196SOL     OW28486   5.683   1.495   4.877  0.4520 -1.0613 -0.3443
 9196SOL    HW128487   5.728   1.545   4.803  1.2541 -2.1303 -0.6142
 9196SOL    HW228488   5.615   1.554   4.921  1.3796  0.2528 -0.6143
 9197SOL     OW28489   5.508   5.140   3.535 -0.1629  0.0158  0.0796
 9197SOL    HW128490   5.500   5.218   3.597  0.6547  0.3640 -0.2487
 9197SOL    HW228491   5.465   5.163   3.447  0.5412  0.2878 -0.1944
 9198SOL     OW28492   2.012   0.848   4.261  0.0087 -0.5311 -0.2811
 9198SOL    HW128493   2.041   0.755   4.280 -0.2423 -0.6002 -0.2342
 9198SOL    HW228494   1.967   0.886   4.342 -0.5640 -0.6321 -0.5469
 9199SOL     OW28495   2.632   4.812   6.954  0.4775 -0.0742  0.2509
 9199SOL    HW128496   2.706   4.766   6.905  0.1740  0.2741 -0.5540
 9199SOL    HW228497   2.648   4.911   6.952  0.4846 -0.0636  0.8945
 9200SOL     OW28498   4.105   1.286   1.589  0.2219  0.0342 -0.7497
 9200SOL    HW128499   4.170   1.236   1.646 -0.6723 -1.6301 -1.1261
 9200SOL    HW228500   4.023   1.308   1.643 -0.5252 -1.3353 -1.2673
 9201SOL     OW28501   6.814   1.317   5.465 -0.1356  0.2312 -0.1402
 9201SOL    HW128502   6.723   1.328   5.426 -0.5006 -0.7479  0.4196
 9201SOL    HW228503   6.883   1.322   5.392 -0.6971 -0.0127 -0.6910
 9202SOL     OW28504   4.916   3.408   3.702 -0.0021  0.3151 -0.1112
 9202SOL    HW128505   4.867   3.324   3.680 -0.5738  1.0043 -1.5430
 9202SOL    HW228506   4.895   3.478   3.634  0.8962  1.4560  0.7501
 9203SOL     OW28507   3.110   3.119   1.398  0.8035  0.4656  0.0557
 9203SOL    HW128508   3.063   3.198   1.437 -0.1288 -0.3284  0.5649
 9203SOL    HW228509   3.115   3.130   1.298  0.0745  0.8554  0.0524
 9204SOL     OW28510   6.413   3.559   3.102 -0.0779  0.3934 -0.9850
 9204SOL    HW128511   6.448   3.499   3.174 -1.7539  0.8353  0.2711
 9204SOL    HW228512   6.369   3.503   3.031  1.1599 -0.0112 -1.4734
 9205SOL     OW28513   3.571   4.909   4.143 -0.8420 -1.0234 -0.3357
 9205SOL    HW128514   3.477   4.922   4.175 -0.4725 -1.6820  1.0467
 9205SOL    HW228515   3.635   4.934   4.216  0.0946 -0.0762 -1.4336
 9206SOL     OW28516   6.532   3.958   4.922  0.0226  0.6463 -0.3158
 9206SOL    HW128517   6.553   3.923   5.014  1.1665  1.6210 -0.1943
 9206SOL    HW228518   6.472   4.037   4.930  0.6190  1.1087 -0.3653
 9207SOL     OW28519   6.905   1.675   1.858 -0.0093 -0.5037  0.0220
 9207SOL    HW128520   6.919   1.698   1.762 -0.9597 -0.6152 -0.1619
 9207SOL    HW228521   6.992   1.656   1.901  0.3751 -1.1290 -0.9931
 9208SOL     OW28522   5.403   5.192   2.050  0.1933 -0.7962 -0.4376
 9208SOL    HW128523   5.358   5.275   2.083  1.1311 -0.5563  0.2930
 9208SOL    HW228524   5.368   5.113   2.101  0.0399 -0.7108 -0.4107
 9209SOL     OW28525   4.917   6.942   3.167  0.0652 -0.4661 -0.0504
 9209SOL    HW128526   4.854   6.928   3.090 -1.8263  1.2073  1.0928
 9209SOL    HW228527   4.916   6.862   3.226  0.2693 -1.0989 -0.8792
 9210SOL     OW28528   1.260   0.638   0.520  0.1821  0.0340 -0.4206
 9210SOL    HW128529   1.276   0.679   0.610 -1.2643  1.2398 -0.6806
 9210SOL    HW228530   1.167   0.658   0.490  0.1091 -1.7184 -1.5028
 9211SOL     OW28531   3.731   0.061   0.441  0.5079 -0.0850  0.3779
 9211SOL    HW128532   3.762   0.078   0.534 -0.8531  3.4887  0.3308
 9211SOL    HW228533   3.631   0.056   0.440  0.5498 -1.2548 -0.7872
 9212SOL     OW28534   1.557   1.614   3.334  0.3042  0.0499 -0.0391
 9212SOL    HW128535   1.542   1.591   3.238 -0.1178  0.4419 -0.0751
 9212SOL    HW228536   1.513   1.702   3.353 -1.9593 -1.2522  1.1679
 9213SOL     OW28537   5.211   3.446   2.187  0.0339 -0.2726  0.2214
 9213SOL    HW128538   5.237   3.364   2.238 -0.2985  0.1728  1.1145
 9213SOL    HW228539   5.285   3.470   2.123 -0.6654 -2.4137 -1.5341
 9214SOL     OW28540   2.014   3.906   1.456 -0.5306  0.3881 -0.3059
 9214SOL    HW128541   2.099   3.862   1.484  0.5258  2.2199 -0.4766
 9214SOL    HW228542   1.948   3.903   1.532 -0.6512 -1.7147 -0.4247
 9215SOL     OW28543   6.928   5.897   3.494 -0.5982  0.7866 -0.4664
 9215SOL    HW128544   6.834   5.885   3.524 -0.0550 -0.6398  0.8577
 9215SOL    HW228545   6.980   5.946   3.565 -0.0368  0.2871 -0.5186
 9216SOL     OW28546   6.997   6.526   6.736 -0.3006 -0.2111  0.1743
 9216SOL    HW128547   6.985   6.427   6.734  1.2947 -0.4665  1.2342
 9216SOL    HW228548   7.046   6.556   6.654  0.5562 -0.5318  0.5566
 9217SOL     OW28549   2.661   0.757   6.098 -0.1254 -0.0832  0.8273
 9217SOL    HW128550   2.604   0.678   6.119  0.8374 -0.5661  1.7032
 9217SOL    HW228551   2.656   0.823   6.174 -0.0249  0.1673  0.6169
 9218SOL     OW28552   0.267   5.785   5.924 -0.5166 -0.2854 -0.2020
 9218SOL    HW128553   0.346   5.777   5.984 -1.0269  0.2133  0.5593
 9218SOL    HW228554   0.294   5.765   5.830  0.4626 -0.3211  0.0771
 9219SOL     OW28555   1.551   1.837   1.758  0.1219  0.6089  0.4121
 9219SOL    HW128556   1.594   1.757   1.716  0.3383  3.0179 -4.7372
 9219SOL    HW228557   1.621   1.898   1.795  0.7519  1.5103 -2.0632
 9220SOL     OW28558   5.009   4.514   0.679 -0.0138 -0.2944  0.3379
 9220SOL    HW128559   5.060   4.600   0.673 -0.6903  0.1282  0.5566
 9220SOL    HW228560   4.947   4.518   0.757 -0.4704 -0.7529  0.0041
 9221SOL     OW28561   4.673   1.674   1.665  0.1347 -0.0112  0.0904
 9221SOL    HW128562   4.731   1.712   1.593  1.2525  0.4098  1.1745
 9221SOL    HW228563   4.709   1.701   1.754 -0.3377 -1.7541  0.8572
 9222SOL     OW28564   2.851   0.178   5.098  0.1281  0.2902  0.3820
 9222SOL    HW128565   2.812   0.092   5.066 -0.7375  0.8494 -0.1414
 9222SOL    HW228566   2.949   0.180   5.080  0.2917 -0.8723  1.0824
 9223SOL     OW28567   6.766   2.862   0.507  0.2048  0.0109 -0.3363
 9223SOL    HW128568   6.780   2.818   0.596  1.5912  0.8816 -0.0895
 9223SOL    HW228569   6.854   2.871   0.461 -0.3787  0.4057 -1.3947
 9224SOL     OW28570   0.661   3.657   1.677 -0.3503  0.0455  0.6704
 9224SOL    HW128571   0.625   3.629   1.766 -1.2277 -1.5150 -0.1183
 9224SOL    HW228572   0.587   3.699   1.624  0.3541  1.6845  0.9123
 9225SOL     OW28573   3.349   5.724   5.305  0.2420 -0.3899 -0.1399
 9225SOL    HW128574   3.356   5.649   5.371 -0.1175 -0.2475  0.0591
 9225SOL    HW228575   3.272   5.783   5.328  1.7545  1.2629  0.9613
 9226SOL     OW28576   3.807   2.981   2.584 -0.7996  0.0125  0.2600
 9226SOL    HW128577   3.850   3.062   2.545 -1.5513  1.2311  1.8405
 9226SOL    HW228578   3.826   2.977   2.682 -0.2273 -2.1236  0.1271
 9227SOL     OW28579   3.054   4.122   6.915  0.3528 -0.3057 -0.0154
 9227SOL    HW128580   3.056   4.222   6.906  1.2538 -0.3679 -0.5909
 9227SOL    HW228581   3.084   4.080   6.830  0.2843 -1.0680  0.3285
 9228SOL     OW28582   6.967   1.091   4.864 -0.3748  0.0263 -0.0476
 9228SOL    HW128583   7.029   1.145   4.808 -0.4199  1.3015  1.0711
 9228SOL    HW228584   6.971   1.123   4.959 -0.4280 -1.9412  0.6642
 9229SOL     OW28585   3.394   0.644   5.643 -0.6562 -0.1575 -0.1118
 9229SOL    HW128586   3.472   0.707   5.649  0.2159 -0.9575 -2.1489
 9229SOL    HW228587   3.370   0.612   5.734  0.2542  1.4704  0.7383
 9230SOL     OW28588   3.263   4.944   3.050  0.4519  0.0875 -0.0273
 9230SOL    HW128589   3.324   4.867   3.072 -1.0088 -1.0581  0.1300
 9230SOL    HW228590   3.174   4.909   3.022  0.1674  1.7161 -1.2953
 9231SOL     OW28591   1.512   5.758   4.917  0.0045  0.3130  0.1792
 9231SOL    HW128592   1.449   5.689   4.880  0.9548 -1.2389  1.3500
 9231SOL    HW228593   1.594   5.713   4.951  1.7841  2.2969 -1.2589
 9232SOL     OW28594   6.181   5.705   4.097 -0.5537  0.4103 -0.0493
 9232SOL    HW128595   6.222   5.618   4.071 -0.4710  0.4601 -0.0842
 9232SOL    HW228596   6.213   5.777   4.037 -1.9975  0.1673 -1.1632
 9233SOL     OW28597   0.648   2.656   5.775 -0.5297  0.2748  0.4881
 9233SOL    HW128598   0.688   2.632   5.864 -0.2345  0.5020  0.4178
 9233SOL    HW228599   0.569   2.715   5.789 -0.9317 -0.2821  0.6352
 9234SOL     OW28600   5.991   0.692   6.876  0.4536  0.0141 -0.5745
 9234SOL    HW128601   5.942   0.616   6.918  2.6534 -0.7316  0.8282
 9234SOL    HW228602   6.000   0.675   6.778 -0.8668 -0.4779 -0.6310
 9235SOL     OW28603   0.510   6.405   3.019  0.7704 -0.2415  0.1321
 9235SOL    HW128604   0.470   6.488   3.059  1.5846  0.0650  0.3243
 9235SOL    HW228605   0.437   6.340   2.999  0.2369  0.0126  1.1565
 9236SOL     OW28606   4.583   4.819   4.033  0.3623 -0.4519 -0.3077
 9236SOL    HW128607   4.570   4.728   4.070 -0.8453 -0.6914 -1.2896
 9236SOL    HW228608   4.598   4.814   3.934 -1.6064  0.4999 -0.7130
 9237SOL     OW28609   1.291   1.783   4.630 -0.7290 -0.1350  0.2777
 9237SOL    HW128610   1.291   1.705   4.567  0.2261  0.4160 -0.4188
 9237SOL    HW228611   1.209   1.837   4.616 -0.1062  0.4770 -1.1303
 9238SOL     OW28612   2.901   1.135   6.351  0.0655 -0.3003 -0.1950
 9238SOL    HW128613   2.871   1.209   6.291  0.9078 -1.5614 -2.2529
 9238SOL    HW228614   2.962   1.073   6.301 -1.9727 -3.4029  0.8511
 9239SOL     OW28615   2.903   4.731   6.315  0.0766 -0.4004 -0.1378
 9239SOL    HW128616   2.887   4.632   6.321 -3.0712  0.0221  0.4995
 9239SOL    HW228617   2.834   4.772   6.255  0.1131  1.5978  1.0852
 9240SOL     OW28618   5.344   5.360   2.455 -0.4573  0.2327  0.1542
 9240SOL    HW128619   5.430   5.408   2.442 -0.3138 -0.3823 -1.3465
 9240SOL    HW228620   5.361   5.262   2.462 -0.9811  0.1568  0.3892
 9241SOL     OW28621   4.112   5.887   2.330  0.6846  0.1918  0.1870
 9241SOL    HW128622   4.053   5.867   2.252  1.2611  0.0150 -0.2187
 9241SOL    HW228623   4.179   5.813   2.341  1.4886  0.8686 -0.0060
 9242SOL     OW28624   0.684   6.888   6.632  0.1639  0.1329 -0.3201
 9242SOL    HW128625   0.674   6.978   6.590 -0.5724  1.2537  2.0573
 9242SOL    HW228626   0.699   6.899   6.730 -2.7693 -2.3320  0.5784
 9243SOL     OW28627   1.733   6.522   2.134 -0.0365  0.2890  0.2951
 9243SOL    HW128628   1.786   6.592   2.085 -1.0242  0.1173 -1.0489
 9243SOL    HW228629   1.785   6.492   2.215  0.2724  2.8096  1.1269
 9244SOL     OW28630   4.178   5.592   2.592  0.0059 -0.0603 -0.0048
 9244SOL    HW128631   4.082   5.606   2.565 -0.1608 -2.5475 -0.9207
 9244SOL    HW228632   4.188   5.502   2.633  1.7304  0.7401  1.4361
 9245SOL     OW28633   1.306   0.805   2.234  0.3412  0.3743 -0.0092
 9245SOL    HW128634   1.217   0.804   2.280  1.3876  1.4869  2.1699
 9245SOL    HW228635   1.291   0.805   2.135 -2.1493  2.0668  0.2471
 9246SOL     OW28636   6.352   0.875   0.685 -0.5580  0.5241 -0.2660
 9246SOL    HW128637   6.437   0.843   0.643  0.5538  2.7938  0.0628
 9246SOL    HW228638   6.276   0.819   0.654  0.6817  0.0286 -2.6616
 9247SOL     OW28639   0.542   2.369   5.173 -0.1107 -0.1997  0.5540
 9247SOL    HW128640   0.515   2.387   5.268  0.1473  1.6364  0.3229
 9247SOL    HW228641   0.527   2.451   5.118 -0.5512 -1.3347 -1.0882
 9248SOL     OW28642   2.595   5.479   1.220 -0.2761  0.2462 -0.0722
 9248SOL    HW128643   2.662   5.405   1.216  0.2283  0.6703  0.3640
 9248SOL    HW228644   2.504   5.441   1.237 -0.0785 -0.2965 -0.1945
 9249SOL     OW28645   5.868   5.041   1.605  0.1606  0.5811 -0.0426
 9249SOL    HW128646   5.927   4.964   1.581  1.4207  1.4468  0.1992
 9249SOL    HW228647   5.912   5.097   1.676 -0.2929  2.0382 -0.8551
 9250SOL     OW28648   0.153   6.026   0.463 -0.6124 -0.3250 -0.9166
 9250SOL    HW128649   0.128   5.931   0.443  2.3752 -0.8048 -3.0105
 9250SOL    HW228650   0.140   6.082   0.381 -1.5590  0.9620  0.0638
 9251SOL     OW28651   1.248   0.246   5.384 -0.2373  0.1944  0.1839
 9251SOL    HW128652   1.183   0.319   5.407 -2.3799 -1.4918 -0.2025
 9251SOL    HW228653   1.250   0.233   5.285  0.7432  0.2199  0.1875
 9252SOL     OW28654   5.088   2.832   0.046 -0.0145  0.0167 -0.7620
 9252SOL    HW128655   4.993   2.862   0.038 -0.3195 -1.3709 -2.9308
 9252SOL    HW228656   5.105   2.802   0.140 -1.2596  1.6313  0.0364
 9253SOL     OW28657   4.953   4.916   0.236 -0.2625  0.4173 -0.2679
 9253SOL    HW128658   5.005   4.831   0.227  0.9847  0.9939  1.0150
 9253SOL    HW228659   4.883   4.905   0.306 -1.0571  0.0286 -1.1078
 9254SOL     OW28660   5.996   5.820   5.749 -0.2458 -0.5593 -0.3729
 9254SOL    HW128661   6.088   5.798   5.716 -0.0606  0.9728 -0.9619
 9254SOL    HW228662   5.985   5.785   5.841  1.7780  1.1315  0.6086
 9255SOL     OW28663   5.081   2.499   0.430  0.1263 -0.5588  0.3613
 9255SOL    HW128664   5.166   2.447   0.421 -0.7068 -2.2265  1.6033
 9255SOL    HW228665   5.005   2.437   0.450 -1.2078  1.0057  0.4448
 9256SOL     OW28666   1.619   4.655   6.417 -0.6938 -0.0688 -0.0628
 9256SOL    HW128667   1.686   4.581   6.423 -1.0947 -0.5967 -1.7762
 9256SOL    HW228668   1.570   4.663   6.504  1.3148  0.1084  1.1230
 9257SOL     OW28669   0.189   0.034   3.616  0.5129 -0.0410  0.5772
 9257SOL    HW128670   0.191   0.132   3.638 -1.7604  0.1031  0.3900
 9257SOL    HW228671   0.278   0.007   3.579  0.9444  2.1438 -0.1753
 9258SOL     OW28672   3.172   5.292   3.216 -0.0658 -0.3805 -0.1534
 9258SOL    HW128673   3.104   5.219   3.210  0.0517 -0.4296 -0.9787
 9258SOL    HW228674   3.156   5.359   3.143 -0.5042  0.7173  0.9189
 9259SOL     OW28675   4.434   6.089   6.432 -0.0449 -0.5110  0.3949
 9259SOL    HW128676   4.414   6.158   6.362 -0.6963 -0.6399  0.4426
 9259SOL    HW228677   4.348   6.050   6.465  0.2276 -0.2499  1.4701
 9260SOL     OW28678   4.331   5.668   5.948 -0.2342  0.4907 -0.3902
 9260SOL    HW128679   4.406   5.716   5.994  1.2858 -1.8524 -0.2596
 9260SOL    HW228680   4.310   5.714   5.862  3.0720 -0.0408 -1.6334
 9261SOL     OW28681   4.888   0.674   6.703  0.2340  0.5854 -0.4004
 9261SOL    HW128682   4.983   0.683   6.671  0.1775 -0.1409 -0.7710
 9261SOL    HW228683   4.888   0.645   6.799  0.3829 -0.1237 -0.6141
 9262SOL     OW28684   0.457   0.441   2.485 -0.2983  0.0106 -0.5855
 9262SOL    HW128685   0.404   0.480   2.410 -1.4098  0.2019  0.2852
 9262SOL    HW228686   0.397   0.421   2.562  1.0721  1.4084  0.9113
 9263SOL     OW28687   0.665   1.201   5.903 -0.3294  0.1697 -0.2544
 9263SOL    HW128688   0.659   1.206   6.002 -0.2936 -0.9488 -0.1846
 9263SOL    HW228689   0.757   1.172   5.876 -0.7279 -0.8426 -0.5536
 9264SOL     OW28690   5.738   1.707   6.847 -0.1139 -0.3813 -0.3389
 9264SOL    HW128691   5.822   1.742   6.807 -0.6271 -0.5844 -1.6740
 9264SOL    HW228692   5.720   1.751   6.935  1.9152 -1.0980  0.4914
 9265SOL     OW28693   2.911   5.055   4.708  0.3940 -0.2340 -0.2215
 9265SOL    HW128694   2.847   5.019   4.776  1.5821  2.3144  2.4382
 9265SOL    HW228695   2.997   5.005   4.714  0.5869  0.1591  0.3840
 9266SOL     OW28696   4.789   0.481   0.812 -0.1495 -0.0921  0.2784
 9266SOL    HW128697   4.709   0.491   0.872 -0.7458 -2.4414 -0.0357
 9266SOL    HW228698   4.764   0.508   0.719  0.1428  1.4181  0.6041
 9267SOL     OW28699   2.008   3.277   0.375  0.2236 -0.2615  0.2091
 9267SOL    HW128700   1.961   3.291   0.462 -0.7109 -2.3259  0.0993
 9267SOL    HW228701   1.968   3.338   0.306  2.1982  2.7624  1.5159
 9268SOL     OW28702   6.059   6.433   6.886 -0.2398 -0.4501 -0.4532
 9268SOL    HW128703   6.137   6.486   6.852 -0.5809 -0.4911 -1.3264
 9268SOL    HW228704   5.987   6.496   6.916 -1.2575 -0.3266 -2.8807
 9269SOL     OW28705   6.734   3.414   5.356  0.3378  0.1494  0.4521
 9269SOL    HW128706   6.696   3.387   5.445  0.4558 -0.0512  0.4402
 9269SOL    HW228707   6.833   3.419   5.362  0.2622  2.3686  0.9857
 9270SOL     OW28708   5.373   2.329   4.454  0.3576 -0.8640  0.5863
 9270SOL    HW128709   5.420   2.242   4.472 -0.7528 -1.3008  1.5193
 9270SOL    HW228710   5.325   2.323   4.366  1.4780 -0.6512 -0.0528
 9271SOL     OW28711   0.428   2.199   0.219  0.0871  0.2149  0.8427
 9271SOL    HW128712   0.517   2.238   0.239  0.1149  0.1829  0.7802
 9271SOL    HW228713   0.418   2.186   0.120  0.5667 -1.1020  0.9542
 9272SOL     OW28714   3.962   0.212   3.141 -0.2258  0.1357  0.5017
 9272SOL    HW128715   4.057   0.213   3.109 -0.3387  0.6861  0.1691
 9272SOL    HW228716   3.931   0.306   3.155 -0.9319 -0.0139 -0.0095
 9273SOL     OW28717   2.811   1.763   4.858 -0.4834 -0.1458  0.0553
 9273SOL    HW128718   2.762   1.731   4.777 -0.9223  1.5478 -0.3918
 9273SOL    HW228719   2.767   1.727   4.940 -1.9215  0.5616 -0.3767
 9274SOL     OW28720   4.762   0.630   4.169 -0.3375  0.4732  0.6628
 9274SOL    HW128721   4.746   0.547   4.222 -0.5842 -0.0799 -0.2685
 9274SOL    HW228722   4.708   0.627   4.085  0.2267  1.2340  0.2646
 9275SOL     OW28723   5.492   1.224   6.693  0.0119  0.1159 -0.5683
 9275SOL    HW128724   5.558   1.299   6.695 -0.6597  0.7133  0.3500
 9275SOL    HW228725   5.536   1.140   6.722  0.9855 -0.0503 -2.3959
 9276SOL     OW28726   3.547   4.509   6.361 -0.0557  0.7821 -0.4898
 9276SOL    HW128727   3.636   4.520   6.406 -0.7348  1.4341  0.7646
 9276SOL    HW228728   3.533   4.414   6.336  1.4320  0.8414 -1.6735
 9277SOL     OW28729   6.223   6.109   0.911  0.5796  0.1012 -0.4317
 9277SOL    HW128730   6.246   6.018   0.946  0.5882 -0.5183 -1.9523
 9277SOL    HW228731   6.301   6.170   0.922  0.2178  0.2488  1.5700
 9278SOL     OW28732   1.983   1.084   2.735 -0.2676 -0.0836  0.2683
 9278SOL    HW128733   1.906   1.128   2.689 -1.0375 -0.4530  1.1743
 9278SOL    HW228734   1.958   0.992   2.764  0.8546 -0.5998 -0.3020
 9279SOL     OW28735   6.352   1.122   0.788  0.1380  0.1525 -0.7449
 9279SOL    HW128736   6.353   1.042   0.727 -0.0341 -2.0570  1.9580
 9279SOL    HW228737   6.443   1.164   0.789  1.2188 -2.0570  0.2147
 9280SOL     OW28738   6.733   5.163   1.488 -0.3216 -0.5309 -0.0574
 9280SOL    HW128739   6.826   5.179   1.453 -0.5056  0.0485 -0.2952
 9280SOL    HW228740   6.732   5.080   1.544  0.5635  0.0116  0.7948
 9281SOL     OW28741   2.284   3.220   0.316 -0.1120 -0.1809  0.0964
 9281SOL    HW128742   2.319   3.144   0.370  0.8092  0.9645  1.1749
 9281SOL    HW228743   2.186   3.232   0.334  0.1458  0.0896  1.4481
 9282SOL     OW28744   4.674   4.159   5.134 -0.2873 -0.0633 -0.3938
 9282SOL    HW128745   4.637   4.236   5.081 -0.1337 -0.5818 -1.2828
 9282SOL    HW228746   4.772   4.173   5.149 -0.3187  0.0549 -0.2961
 9283SOL     OW28747   2.154   4.059   2.730  0.4695 -0.1529  0.0475
 9283SOL    HW128748   2.151   4.042   2.828  2.3097  2.1006  0.5726
 9283SOL    HW228749   2.157   3.971   2.681  2.5973 -1.3847  2.1616
 9284SOL     OW28750   4.206   3.196   1.949  0.7615  0.3888 -0.3552
 9284SOL    HW128751   4.133   3.248   1.993  0.8508  0.1618  0.0687
 9284SOL    HW228752   4.289   3.201   2.005  1.5888  2.0275 -1.6490
 9285SOL     OW28753   5.899   1.544   3.821 -0.7650  0.0060  0.3204
 9285SOL    HW128754   5.907   1.618   3.888 -0.0870  0.1024  0.1336
 9285SOL    HW228755   5.928   1.458   3.862 -2.8811 -0.4446  0.9891
 9286SOL     OW28756   3.269   0.757   4.904 -0.0259 -0.6625 -0.5978
 9286SOL    HW128757   3.188   0.800   4.945  1.0569 -0.9914  2.0436
 9286SOL    HW228758   3.319   0.825   4.850 -1.1819 -0.0487 -0.9296
 9287SOL     OW28759   6.997   0.659   6.420 -0.3046 -0.2777 -0.0459
 9287SOL    HW128760   7.000   0.561   6.399  1.6746 -0.5870  1.3970
 9287SOL    HW228761   6.930   0.676   6.492  0.3789 -0.8062  0.7234
 9288SOL     OW28762   0.960   2.692   4.444  0.5114  0.3736 -0.6275
 9288SOL    HW128763   1.040   2.646   4.484  2.9782  2.3751 -2.8895
 9288SOL    HW228764   0.930   2.764   4.506 -0.3814 -1.1374  0.7783
 9289SOL     OW28765   6.135   0.771   0.477 -0.1013  0.1462  0.0700
 9289SOL    HW128766   6.051   0.815   0.443 -0.7552 -1.0009  0.1752
 9289SOL    HW228767   6.140   0.677   0.444  1.8686  0.5938 -1.1135
 9290SOL     OW28768   3.066   0.995   5.488  0.2249  0.2903 -0.8726
 9290SOL    HW128769   3.028   1.075   5.442  3.1430  1.0013 -2.3111
 9290SOL    HW228770   3.107   0.934   5.420 -1.0845 -2.0326  0.2757
 9291SOL     OW28771   0.020   0.796   0.455 -0.6337 -0.2263 -0.3952
 9291SOL    HW128772  -0.048   0.790   0.529 -1.1015  0.0694 -0.7919
 9291SOL    HW228773   0.108   0.763   0.488 -0.7431  0.2693  0.4138
 9292SOL     OW28774   5.308   3.620   1.526  1.0556  0.4405 -0.0385
 9292SOL    HW128775   5.303   3.629   1.427  0.0196  0.5519  0.0115
 9292SOL    HW228776   5.257   3.539   1.556  1.6078  0.2388  0.3825
 9293SOL     OW28777   3.297   5.395   4.916  0.2658  0.0283  0.5042
 9293SOL    HW128778   3.309   5.492   4.893 -3.7323  0.7064  0.6715
 9293SOL    HW228779   3.294   5.384   5.015  0.3848 -0.2578  0.4780
 9294SOL     OW28780   0.484   4.795   4.128  0.8513 -0.3172  0.2067
 9294SOL    HW128781   0.491   4.838   4.038  1.0418  0.2256  0.4739
 9294SOL    HW228782   0.573   4.755   4.152  1.2611  0.8951  0.8086
 9295SOL     OW28783   2.878   6.275   5.652 -0.0927  0.2601  0.3807
 9295SOL    HW128784   2.940   6.350   5.672  0.0435  0.1640  0.3238
 9295SOL    HW228785   2.882   6.254   5.554  1.3116 -1.0799  0.6786
 9296SOL     OW28786   6.261   1.748   4.022  0.6275  0.1518 -0.6811
 9296SOL    HW128787   6.186   1.698   3.977  0.6854 -0.1791 -0.4176
 9296SOL    HW228788   6.234   1.843   4.035  0.0008 -0.0973 -0.0394
 9297SOL     OW28789   0.976   2.970   0.959  0.5920  0.5871 -0.3709
 9297SOL    HW128790   0.961   2.890   1.017  1.2207  0.3834 -0.4785
 9297SOL    HW228791   0.960   2.945   0.863  3.0915 -0.0854 -0.6761
 9298SOL     OW28792   0.821   3.176   6.224 -0.5487 -0.2268 -0.0733
 9298SOL    HW128793   0.815   3.274   6.206  0.0315 -0.3435 -0.9454
 9298SOL    HW228794   0.909   3.155   6.268 -0.2727 -0.4721 -0.7309
 9299SOL     OW28795   0.437   5.561   2.868  0.4316  0.2764 -0.0193
 9299SOL    HW128796   0.449   5.473   2.915  1.0059  0.4819  0.2323
 9299SOL    HW228797   0.404   5.629   2.933 -3.1951 -0.4711 -0.8656
 9300SOL     OW28798   6.370   2.090   5.978 -0.5056  0.3932 -0.1636
 9300SOL    HW128799   6.373   2.026   5.901 -0.0749 -0.3112  0.4208
 9300SOL    HW228800   6.275   2.106   6.005 -0.6446  0.4379 -0.6702
 9301SOL     OW28801   0.425   0.857   1.758 -0.4792  0.0381 -0.0171
 9301SOL    HW128802   0.472   0.906   1.831  0.2132  0.2637 -0.5993
 9301SOL    HW228803   0.345   0.910   1.728  0.8127  1.3191 -1.3034
 9302SOL     OW28804   5.592   4.758   5.563 -0.4952  0.0912  0.0257
 9302SOL    HW128805   5.494   4.781   5.567 -0.3950  0.9191 -1.5388
 9302SOL    HW228806   5.607   4.672   5.611 -1.9868 -0.0229  0.3523
 9303SOL     OW28807   4.142   1.963   1.977  0.0156 -0.4324 -0.3062
 9303SOL    HW128808   4.132   1.895   2.050  2.2083 -0.7951 -0.2797
 9303SOL    HW228809   4.126   1.920   1.889  0.0924 -0.6815 -0.2009
 9304SOL     OW28810   0.329   1.340   3.217 -0.3869 -0.1998 -0.2063
 9304SOL    HW128811   0.381   1.400   3.156  0.0225 -0.2806  0.0573
 9304SOL    HW228812   0.266   1.395   3.271 -0.8996 -0.1496 -0.8418
 9305SOL     OW28813   6.728   0.232   4.529 -0.1015  0.1712 -0.0265
 9305SOL    HW128814   6.828   0.230   4.521 -0.0959 -2.1038 -0.0317
 9305SOL    HW228815   6.703   0.264   4.620  0.6437  0.4624  0.0857
 9306SOL     OW28816   6.196   1.117   6.048  0.5889 -0.5812  0.3388
 9306SOL    HW128817   6.249   1.196   6.077  0.2010  0.0180 -0.5541
 9306SOL    HW228818   6.195   1.049   6.121  0.4953  0.4542  1.3273
 9307SOL     OW28819   1.347   0.096   2.993 -0.0552 -0.4378  0.2207
 9307SOL    HW128820   1.279   0.068   3.061  1.3813 -0.1682  1.8334
 9307SOL    HW228821   1.418   0.026   2.986  1.9113  1.2448  1.9938
 9308SOL     OW28822   4.580   1.688   4.397 -0.8240 -0.3934 -0.1971
 9308SOL    HW128823   4.527   1.603   4.403 -0.6094 -0.4431  1.2935
 9308SOL    HW228824   4.654   1.686   4.464 -1.2466  1.2473  0.3651
 9309SOL     OW28825   6.100   5.047   6.010 -0.7602 -0.0757 -0.4842
 9309SOL    HW128826   6.148   4.967   5.975 -0.8713 -0.4219  0.1278
 9309SOL    HW228827   6.108   5.050   6.110 -3.0622 -0.8769 -0.2158
 9310SOL     OW28828   0.457   3.300   2.306 -0.0107  0.2513  0.0701
 9310SOL    HW128829   0.440   3.347   2.220  2.1358 -0.2192 -0.6776
 9310SOL    HW228830   0.549   3.323   2.339  0.9122 -2.8647 -0.0203
 9311SOL     OW28831   0.272   4.923   4.284 -0.4963 -0.4102 -0.5200
 9311SOL    HW128832   0.340   4.862   4.243  0.0192 -0.3513  0.2178
 9311SOL    HW228833   0.255   4.895   4.379 -2.5262 -1.2533 -1.0751
 9312SOL     OW28834   6.414   0.504   4.287 -0.2199  0.0826  0.8276
 9312SOL    HW128835   6.444   0.471   4.376  0.5971 -4.9463 -0.9338
 9312SOL    HW228836   6.493   0.513   4.226 -1.0562 -1.0467 -0.5048
 9313SOL     OW28837   2.553   1.579   1.524  0.2861  0.5960  0.0614
 9313SOL    HW128838   2.470   1.529   1.498 -0.5619  2.9813 -2.2399
 9313SOL    HW228839   2.530   1.652   1.587  1.1261 -0.3286  1.4914
 9314SOL     OW28840   4.229   0.714   0.238  0.7520  0.1091  0.5805
 9314SOL    HW128841   4.208   0.620   0.210 -0.6990  0.6810 -0.4132
 9314SOL    HW228842   4.308   0.715   0.298  1.0711 -1.7011  0.2275
 9315SOL     OW28843   2.582   0.158   5.619  0.3632  0.1507  0.0045
 9315SOL    HW128844   2.659   0.185   5.562  0.2665  0.1554 -0.1257
 9315SOL    HW228845   2.604   0.074   5.667 -0.0489 -0.6032 -1.0765
 9316SOL     OW28846   0.009   5.508   0.943 -0.0521 -0.1840 -0.1526
 9316SOL    HW128847  -0.056   5.541   1.011 -0.0054  0.8645 -0.6036
 9316SOL    HW228848   0.097   5.554   0.956 -0.5396  1.4055 -2.0137
 9317SOL     OW28849   1.749   0.822   3.156 -0.0391  0.5209 -0.4021
 9317SOL    HW128850   1.714   0.730   3.138  1.4881 -0.0090 -0.8464
 9317SOL    HW228851   1.700   0.862   3.234 -2.6329  0.4655 -1.8879
 9318SOL     OW28852   5.378   3.867   0.432 -0.0289 -0.0956 -0.8895
 9318SOL    HW128853   5.365   3.925   0.351 -0.3095  1.2812  0.1198
 9318SOL    HW228854   5.469   3.826   0.429 -0.4988 -1.1526 -2.5596
 9319SOL     OW28855   4.891   3.296   6.901  0.0381  0.1348  0.7483
 9319SOL    HW128856   4.989   3.310   6.914 -0.0021 -0.3927  1.7286
 9319SOL    HW228857   4.855   3.366   6.839  1.0443  0.2865  0.3251
 9320SOL     OW28858   2.736   0.568   3.027  0.6679  0.1898  1.0368
 9320SOL    HW128859   2.708   0.660   3.055  0.6662  0.5906 -0.2382
 9320SOL    HW228860   2.831   0.553   3.054  1.5319  1.5722 -1.0250
 9321SOL     OW28861   0.015   5.995   3.740  0.0437  0.1346  0.0055
 9321SOL    HW128862   0.020   6.081   3.790 -0.3647  0.1779 -0.0223
 9321SOL    HW228863   0.071   5.926   3.786 -0.7355  0.0276  0.8126
 9322SOL     OW28864   4.456   6.296   5.177  0.3832 -0.0365  0.6264
 9322SOL    HW128865   4.486   6.257   5.090  2.8534 -0.8120  1.7464
 9322SOL    HW228866   4.368   6.341   5.164 -0.3145 -1.8996 -1.7870
 9323SOL     OW28867   2.140   2.968   0.741  0.1519 -0.1390 -0.2588
 9323SOL    HW128868   2.116   2.939   0.833  0.7639 -0.2586 -0.1311
 9323SOL    HW228869   2.069   2.938   0.677 -0.0689 -0.4249  0.1145
 9324SOL     OW28870   6.074   6.341   3.713 -0.1015  0.4123  0.1328
 9324SOL    HW128871   6.156   6.283   3.707 -0.3828  0.1737 -2.3724
 9324SOL    HW228872   6.100   6.433   3.740  1.1594  0.5714 -1.4823
 9325SOL     OW28873   2.358   4.534   0.167 -0.3336  0.5060  0.1416
 9325SOL    HW128874   2.455   4.552   0.151  0.3326 -1.7881  1.0718
 9325SOL    HW228875   2.320   4.606   0.225  0.8772  1.3205 -0.0343
 9326SOL     OW28876   4.680   3.985   1.065  0.1858 -0.2604 -0.1203
 9326SOL    HW128877   4.630   4.021   0.987  1.3075  0.5351 -0.4959
 9326SOL    HW228878   4.626   3.913   1.109 -0.6921 -0.3428 -1.2874
 9327SOL     OW28879   3.734   6.579   1.375 -0.7319 -0.6733 -0.0903
 9327SOL    HW128880   3.703   6.670   1.403 -1.7561 -0.9677 -0.2412
 9327SOL    HW228881   3.793   6.540   1.446 -0.7343 -0.1237  0.2199
 9328SOL     OW28882   0.299   2.487   1.063 -0.0113 -0.8268  0.8386
 9328SOL    HW128883   0.264   2.510   0.972  1.1420 -1.0319  0.3321
 9328SOL    HW228884   0.244   2.412   1.101  0.2441 -1.5870 -0.2136
 9329SOL     OW28885   3.618   1.868   1.370  0.0259 -0.5373  0.0584
 9329SOL    HW128886   3.657   1.942   1.315  1.2335 -0.0560  1.4944
 9329SOL    HW228887   3.606   1.899   1.465 -1.2147 -1.5997  0.2878
 9330SOL     OW28888   5.320   0.048   6.559  0.2660  0.1110  0.1449
 9330SOL    HW128889   5.307   0.061   6.461  4.4390  0.0620 -0.5914
 9330SOL    HW228890   5.315   0.137   6.605 -4.8886 -0.1089  0.6614
 9331SOL     OW28891   4.881   0.470   2.110 -0.0739 -0.4704 -0.3254
 9331SOL    HW128892   4.855   0.566   2.112  2.3348  0.2408 -0.4267
 9331SOL    HW228893   4.916   0.447   2.019 -0.8992 -1.5367 -0.3923
 9332SOL     OW28894   6.874   4.979   5.105 -0.0809  0.6886  0.3489
 9332SOL    HW128895   6.871   5.001   5.202  0.8686  3.3333 -0.1321
 9332SOL    HW228896   6.824   5.049   5.053 -1.0118 -0.9449 -1.0564
 9333SOL     OW28897   5.801   1.963   3.720  0.3332 -0.0057 -0.0604
 9333SOL    HW128898   5.776   1.991   3.813 -1.3123 -0.5474 -0.3103
 9333SOL    HW228899   5.897   1.983   3.704 -0.0797  3.0769  0.6819
 9334SOL     OW28900   5.128   4.201   3.788  0.4596 -0.2911 -0.7372
 9334SOL    HW128901   5.061   4.267   3.754  0.4732 -0.6985 -1.5681
 9334SOL    HW228902   5.122   4.116   3.736 -1.0362 -1.7891  1.6884
 9335SOL     OW28903   4.760   0.631   3.772 -0.1874  0.8602  0.3693
 9335SOL    HW128904   4.688   0.662   3.834  0.1391 -0.1578  1.2855
 9335SOL    HW228905   4.720   0.575   3.699 -0.3827  0.6279  0.6503
 9336SOL     OW28906   3.611   5.380   5.847  0.0832 -0.5003  0.3195
 9336SOL    HW128907   3.697   5.335   5.824  0.0162  0.3586 -1.7867
 9336SOL    HW228908   3.619   5.423   5.937  2.1790  0.2977 -0.1854
 9337SOL     OW28909   4.104   3.233   6.201  0.0745 -0.3779 -0.1237
 9337SOL    HW128910   4.070   3.183   6.121 -1.5933  0.7465 -0.1656
 9337SOL    HW228911   4.110   3.331   6.180  2.8704 -0.4113  0.0959
 9338SOL     OW28912   6.689   6.276   0.941  0.3377  0.1694  0.1914
 9338SOL    HW128913   6.715   6.372   0.951 -2.3161  0.8419  1.5258
 9338SOL    HW228914   6.599   6.270   0.898 -0.2489 -1.6116  1.5523
 9339SOL     OW28915   1.239   4.348   1.157  0.2266  0.1561 -0.0953
 9339SOL    HW128916   1.173   4.420   1.177 -0.8600 -1.0625  0.9232
 9339SOL    HW228917   1.330   4.388   1.145 -0.5387  1.7845 -0.7232
 9340SOL     OW28918   3.127   1.461   1.298 -0.2857 -0.3437  0.4348
 9340SOL    HW128919   3.159   1.369   1.276  0.0177 -0.0811 -0.2800
 9340SOL    HW228920   3.186   1.501   1.368 -0.6985 -0.8585  1.0788
 9341SOL     OW28921   1.275   5.058   5.643  0.5250  0.5150  0.2499
 9341SOL    HW128922   1.241   5.058   5.737  0.5663  0.8061  0.2667
 9341SOL    HW228923   1.353   4.997   5.636 -0.5537 -0.8958  0.0044
 9342SOL     OW28924   1.591   2.888   6.011 -0.8010  0.2862  0.1300
 9342SOL    HW128925   1.686   2.887   6.042 -0.9574  2.0619  0.8075
 9342SOL    HW228926   1.579   2.958   5.941 -1.8003  0.8204  0.7947
 9343SOL     OW28927   4.284   6.536   6.058 -0.4904  0.1415 -0.0678
 9343SOL    HW128928   4.344   6.601   6.105  0.5690 -0.6983 -0.2104
 9343SOL    HW228929   4.328   6.504   5.974 -1.4809  0.0797 -0.5806
 9344SOL     OW28930   2.588   3.553   6.711  0.6294  0.2820 -0.6262
 9344SOL    HW128931   2.658   3.537   6.780 -0.1172 -0.4217 -0.0166
 9344SOL    HW228932   2.607   3.497   6.630  0.3933 -0.4326 -0.1897
 9345SOL     OW28933   5.130   5.452   3.056 -0.1685 -0.3228  0.3651
 9345SOL    HW128934   5.062   5.510   3.011  1.2527  0.5655 -0.7471
 9345SOL    HW228935   5.208   5.438   2.994  0.6851 -1.2696  1.6058
 9346SOL     OW28936   6.233   4.073   1.331  0.3533 -0.2863  0.2479
 9346SOL    HW128937   6.205   4.157   1.377 -1.6408  0.6954 -2.4640
 9346SOL    HW228938   6.183   3.995   1.369 -1.4688  0.5413 -0.3279
 9347SOL     OW28939   6.445   6.279   0.696  0.2652 -0.1678 -0.5207
 9347SOL    HW128940   6.425   6.333   0.778  1.1620  0.3612 -0.6432
 9347SOL    HW228941   6.492   6.336   0.629 -1.9549 -0.0675 -2.1390
 9348SOL     OW28942   4.915   5.569   5.064 -0.2474 -0.1902 -0.0632
 9348SOL    HW128943   4.979   5.628   5.016  1.6257 -1.7522  0.3661
 9348SOL    HW228944   4.882   5.498   5.002  0.2005 -0.7138  0.2921
 9349SOL     OW28945   2.146   4.760   0.179 -0.0480  0.2466  0.7576
 9349SOL    HW128946   2.127   4.857   0.193 -1.0366  0.3125 -0.7639
 9349SOL    HW228947   2.106   4.707   0.254 -3.1120  0.7285 -0.3768
 9350SOL     OW28948   3.178   2.264   1.484 -0.1172  0.0739  0.1568
 9350SOL    HW128949   3.273   2.259   1.454 -0.4984 -0.0386 -1.0979
 9350SOL    HW228950   3.171   2.326   1.562  0.5962  2.4638 -1.5419
 9351SOL     OW28951   3.968   0.913   2.817  0.1546  0.5235 -0.5568
 9351SOL    HW128952   3.954   1.012   2.822 -1.6539  0.2730  3.7758
 9351SOL    HW228953   3.888   0.871   2.775 -0.4793  0.7685  0.3684
 9352SOL     OW28954   6.893   4.024   5.675  0.4170 -0.1014 -0.2578
 9352SOL    HW128955   6.941   4.067   5.599  0.7182 -0.7804 -0.4583
 9352SOL    HW228956   6.844   4.094   5.727 -0.2538  0.3011 -1.4001
 9353SOL     OW28957   5.975   3.252   5.100 -0.5744  0.3974  0.1342
 9353SOL    HW128958   5.875   3.251   5.098 -0.6208 -1.6671  0.5177
 9353SOL    HW228959   6.010   3.207   5.018 -0.0586 -0.7518  0.9472
 9354SOL     OW28960   0.199   5.270   1.617 -0.4725 -0.1972 -0.3822
 9354SOL    HW128961   0.278   5.287   1.558 -0.7387 -0.1871 -0.7433
 9354SOL    HW228962   0.198   5.337   1.692 -0.7362  0.5067 -0.9962
 9355SOL     OW28963   0.713   6.363   3.889 -0.8004  0.4620 -0.5773
 9355SOL    HW128964   0.676   6.378   3.797  0.2096 -1.3653 -1.3392
 9355SOL    HW228965   0.670   6.282   3.929 -1.1974  1.2177  0.5674
 9356SOL     OW28966   0.727   6.658   1.860  0.2453  0.2072 -0.4052
 9356SOL    HW128967   0.641   6.649   1.908  1.5096 -0.6910  1.8398
 9356SOL    HW228968   0.710   6.691   1.767 -2.3509  1.5277  0.4399
 9357SOL     OW28969   2.898   0.694   1.049 -0.0659  0.0203 -0.2652
 9357SOL    HW128970   2.987   0.667   1.012  0.4807  1.8755 -0.4329
 9357SOL    HW228971   2.834   0.618   1.041  0.8452 -0.6084 -2.3039
 9358SOL     OW28972   1.941   6.839   0.654  0.0514  0.1358 -0.0067
 9358SOL    HW128973   1.999   6.770   0.697 -2.2781 -1.9191  0.0763
 9358SOL    HW228974   1.852   6.842   0.700 -0.0366  3.1185 -0.1437
 9359SOL     OW28975   3.714   0.016   5.638 -0.0673 -0.0888 -0.3479
 9359SOL    HW128976   3.652   0.035   5.715  1.8658  1.3223  0.9725
 9359SOL    HW228977   3.808   0.009   5.673  0.7808 -0.1182 -2.5191
 9360SOL     OW28978   1.408   3.213   5.586  0.1356  0.2299  0.0692
 9360SOL    HW128979   1.507   3.214   5.573 -0.1205  1.8683 -2.5108
 9360SOL    HW228980   1.368   3.138   5.532 -0.1476  0.3747  0.0757
 9361SOL     OW28981   0.397   6.180   5.385  0.4614 -0.3626 -0.3883
 9361SOL    HW128982   0.380   6.139   5.475  0.8080 -3.3660 -1.5834
 9361SOL    HW228983   0.385   6.279   5.391  0.3708 -0.4603  2.9162
 9362SOL     OW28984   6.669   1.770   2.318 -0.3378 -0.5508 -0.4353
 9362SOL    HW128985   6.737   1.791   2.248 -1.5930 -1.9260 -2.1555
 9362SOL    HW228986   6.712   1.718   2.392  0.7227 -0.3126 -0.8673
 9363SOL     OW28987   0.706   6.053   2.376 -0.1994 -0.9594  0.2218
 9363SOL    HW128988   0.710   6.153   2.384 -2.1710 -0.7881 -0.3266
 9363SOL    HW228989   0.741   6.025   2.287  2.2537 -0.9894  1.1230
 9364SOL     OW28990   0.913   1.174   5.815 -0.1932 -0.1196  0.4697
 9364SOL    HW128991   0.973   1.102   5.850  1.3858  0.5124 -0.7889
 9364SOL    HW228992   0.961   1.261   5.818 -1.0815  0.4282 -0.5374
 9365SOL     OW28993   1.795   4.595   2.232 -0.3892  0.0611  0.4209
 9365SOL    HW128994   1.771   4.642   2.317  0.3415  0.3497  0.4697
 9365SOL    HW228995   1.880   4.633   2.195 -0.4443 -0.3877 -0.1909
 9366SOL     OW28996   6.193   1.548   3.835 -0.6312 -0.0955 -0.0266
 9366SOL    HW128997   6.117   1.540   3.770 -1.6216 -2.5884  1.2845
 9366SOL    HW228998   6.235   1.459   3.848  2.1906  1.1161 -0.2183
 9367SOL     OW28999   1.844   5.052   2.331  0.9234  0.5312 -0.4566
 9367SOL    HW129000   1.937   5.031   2.303  0.4208  0.0539 -1.8539
 9367SOL    HW229001   1.780   5.025   2.258 -0.5319 -1.3592  1.3960
 9368SOL     OW29002   4.613   4.308   2.487 -0.0746 -0.0610  0.1409
 9368SOL    HW129003   4.638   4.405   2.480 -1.0262  0.1401 -0.6312
 9368SOL    HW229004   4.576   4.277   2.400  1.9168 -1.6304 -0.2332
 9369SOL     OW29005   2.880   1.312   5.781 -0.1163  0.3034 -0.4065
 9369SOL    HW129006   2.956   1.349   5.834 -0.1763 -1.1425  0.7550
 9369SOL    HW229007   2.889   1.212   5.774 -1.2299  0.2431 -1.3473
 9370SOL     OW29008   2.100   6.644   5.457 -0.3632 -0.1449 -0.2479
 9370SOL    HW129009   2.137   6.568   5.404 -1.2618  0.1722 -1.3571
 9370SOL    HW229010   2.160   6.664   5.534  1.5197  0.0586 -1.7176
 9371SOL     OW29011   4.818   2.560   5.023  0.3692  0.5366  0.2356
 9371SOL    HW129012   4.742   2.557   4.959  1.1368 -1.2888 -0.6606
 9371SOL    HW229013   4.784   2.545   5.116 -0.2932 -1.7562 -0.2984
 9372SOL     OW29014   1.930   0.536   2.455  0.4712  0.5812  0.1005
 9372SOL    HW129015   1.840   0.574   2.478  0.5475 -0.1990  1.8600
 9372SOL    HW229016   1.990   0.544   2.535  0.9977 -1.7046 -0.0044
 9373SOL     OW29017   0.857   0.906   2.372 -0.2486  0.0943 -0.2343
 9373SOL    HW129018   0.765   0.943   2.365  0.7864  2.8934 -0.3922
 9373SOL    HW229019   0.914   0.968   2.427  1.6213 -1.4274 -0.3238
 9374SOL     OW29020   2.697   5.115   6.871 -0.3963  0.1169  0.1346
 9374SOL    HW129021   2.618   5.171   6.850  0.4055  0.8487 -1.0417
 9374SOL    HW229022   2.752   5.102   6.788  0.1082 -1.3389  0.6701
 9375SOL     OW29023   4.292   5.281   5.398 -0.5865 -0.0993 -0.1350
 9375SOL    HW129024   4.359   5.217   5.436 -1.6719 -0.5413  1.1068
 9375SOL    HW229025   4.225   5.231   5.343 -0.6007  0.1723 -0.3655
 9376SOL     OW29026   2.560   3.104   0.265  0.3161 -0.2252  0.5457
 9376SOL    HW129027   2.591   3.029   0.205  0.5600 -0.1890  0.6264
 9376SOL    HW229028   2.514   3.174   0.210  0.4172 -0.2581  0.4204
 9377SOL     OW29029   1.550   5.368   5.978  0.0125 -0.1783  0.2011
 9377SOL    HW129030   1.522   5.445   6.035  0.3963 -0.0264  0.1850
 9377SOL    HW229031   1.514   5.283   6.017  0.8678 -0.1533  1.0645
 9378SOL     OW29032   4.138   6.753   0.763  0.3004 -0.5961 -0.3178
 9378SOL    HW129033   4.183   6.841   0.747  0.7701 -0.9680 -1.1287
 9378SOL    HW229034   4.170   6.713   0.848 -2.8447  1.8244  2.2685
 9379SOL     OW29035   1.702   0.253   2.280  0.1938 -0.0345 -0.0409
 9379SOL    HW129036   1.712   0.257   2.180 -0.3863 -0.1857 -0.1086
 9379SOL    HW229037   1.640   0.179   2.304 -0.8195  0.9139  0.3467
 9380SOL     OW29038   4.211   5.823   2.762 -0.0240  0.2002 -0.2509
 9380SOL    HW129039   4.214   5.757   2.688  2.3018  1.1410 -1.1050
 9380SOL    HW229040   4.159   5.904   2.733 -0.5502 -0.1247 -0.2172
 9381SOL     OW29041   1.502   4.935   3.770 -0.2928  0.3544  0.0909
 9381SOL    HW129042   1.501   4.835   3.774  0.7891  0.3307  0.0077
 9381SOL    HW229043   1.570   4.970   3.834 -1.0024  1.0649  0.4635
 9382SOL     OW29044   2.643   1.137   6.608  0.4256 -0.1765 -0.8437
 9382SOL    HW129045   2.698   1.174   6.683 -1.4191  2.1423 -0.5143
 9382SOL    HW229046   2.627   1.209   6.540 -3.3314 -0.1872 -0.1916
 9383SOL     OW29047   1.932   5.988   3.753  0.3382  0.3637  0.4863
 9383SOL    HW129048   2.029   6.013   3.763  0.7472 -0.4552 -1.1067
 9383SOL    HW229049   1.875   6.068   3.773  1.1604  0.2323  3.9747
 9384SOL     OW29050   1.296   1.670   5.538  0.2803 -0.1062  0.2052
 9384SOL    HW129051   1.342   1.756   5.564 -0.7409  0.6626 -0.4704
 9384SOL    HW229052   1.235   1.642   5.611  0.4999 -0.1832  0.3618
 9385SOL     OW29053   1.599   5.656   1.602  0.3241  0.4158 -0.3362
 9385SOL    HW129054   1.526   5.724   1.607 -2.2050 -2.1788  0.6569
 9385SOL    HW229055   1.636   5.640   1.693  0.3391 -0.0948 -0.4298
 9386SOL     OW29056   2.824   3.138   5.240 -0.0747 -0.2914 -0.2144
 9386SOL    HW129057   2.829   3.171   5.146  0.5180  1.0854  0.2695
 9386SOL    HW229058   2.736   3.163   5.280 -1.5652 -3.3557 -1.2138
 9387SOL     OW29059   3.116   3.892   2.273  0.0445 -0.7169  0.3862
 9387SOL    HW129060   3.195   3.948   2.247  0.4655 -1.7036 -0.5377
 9387SOL    HW229061   3.059   3.876   2.192 -1.6013  0.7006  1.2036
 9388SOL     OW29062   0.541   5.460   4.653 -0.4365 -0.1890 -0.5737
 9388SOL    HW129063   0.514   5.541   4.602 -1.3656 -0.9140 -1.2669
 9388SOL    HW229064   0.466   5.433   4.714 -0.4219 -0.9400 -0.8795
 9389SOL     OW29065   1.254   3.424   6.557 -0.1400 -0.2689 -0.4419
 9389SOL    HW129066   1.354   3.428   6.549 -0.1617  0.8985 -0.2354
 9389SOL    HW229067   1.214   3.419   6.466  0.0207  2.0623 -0.6807
 9390SOL     OW29068   2.713   6.536   2.029  1.0250  0.8444 -0.4370
 9390SOL    HW129069   2.643   6.556   2.097  2.4868  3.0793  0.5621
 9390SOL    HW229070   2.670   6.510   1.943 -1.0083  1.5628  0.2954
 9391SOL     OW29071   0.051   3.558   2.349 -0.0791 -0.0096  0.0842
 9391SOL    HW129072  -0.044   3.528   2.335 -0.8106  1.0244  2.4318
 9391SOL    HW229073   0.110   3.477   2.355 -1.4339 -0.9253  2.4765
 9392SOL     OW29074   5.629   0.388   0.790 -0.3465 -0.2137 -0.3823
 9392SOL    HW129075   5.649   0.359   0.883 -0.4819 -0.1929 -0.3463
 9392SOL    HW229076   5.535   0.363   0.767 -0.6543  0.6968 -0.1505
 9393SOL     OW29077   4.130   3.304   3.566 -0.2370 -0.4043  0.3564
 9393SOL    HW129078   4.143   3.381   3.504 -0.4970  1.6797  2.6903
 9393SOL    HW229079   4.219   3.268   3.594 -0.0938 -0.4741 -0.1807
 9394SOL     OW29080   2.528   6.493   3.375  0.1773 -0.0143  0.0373
 9394SOL    HW129081   2.539   6.409   3.321 -1.7325  0.5665 -1.3889
 9394SOL    HW229082   2.598   6.559   3.349  0.6173 -0.5431 -0.1383
 9395SOL     OW29083   6.243   4.157   5.909  0.0647  0.0977  0.3280
 9395SOL    HW129084   6.290   4.123   5.827 -0.7635 -1.2384  0.3706
 9395SOL    HW229085   6.145   4.142   5.899  0.0936 -2.1514  2.4084
 9396SOL     OW29086   5.933   4.782   3.804 -0.7768 -0.4495  1.1306
 9396SOL    HW129087   6.013   4.731   3.772 -1.6736 -0.9305 -0.4600
 9396SOL    HW229088   5.873   4.720   3.855 -1.1035 -0.6095  0.5621
 9397SOL     OW29089   6.339   1.040   2.781  0.3407 -0.3338  0.2475
 9397SOL    HW129090   6.272   1.113   2.774 -0.2254 -0.8846 -0.2078
 9397SOL    HW229091   6.292   0.952   2.792  1.0234 -0.5478  1.6822
 9398SOL     OW29092   6.373   1.991   6.409  0.4297 -0.2416  0.2833
 9398SOL    HW129093   6.413   2.035   6.329  0.5027 -1.0069 -0.1105
 9398SOL    HW229094   6.281   1.957   6.387  0.7434 -1.1258  0.2814
 9399SOL     OW29095   2.902   2.170   2.809  0.2882  0.1824 -0.0750
 9399SOL    HW129096   2.990   2.192   2.768  0.6789 -0.7477  0.2342
 9399SOL    HW229097   2.886   2.071   2.802 -0.8353  0.3666 -0.3341
 9400SOL     OW29098   0.255   2.012   4.827  0.2921 -0.3814  0.2824
 9400SOL    HW129099   0.175   1.957   4.804 -0.3887  0.8968 -0.4604
 9400SOL    HW229100   0.293   2.052   4.743  0.6521  0.4505  0.8333
 9401SOL     OW29101   5.615   6.186   4.515 -0.0966  0.1451  0.2905
 9401SOL    HW129102   5.682   6.207   4.587 -0.6236 -1.0272  1.1608
 9401SOL    HW229103   5.589   6.090   4.521 -0.5613  0.1613 -1.1511
 9402SOL     OW29104   2.064   6.075   5.805  0.0299 -0.3960 -0.4719
 9402SOL    HW129105   2.044   5.993   5.752 -0.3654 -1.2995  1.0123
 9402SOL    HW229106   2.062   6.053   5.902  1.4093  1.0414 -0.0647
 9403SOL     OW29107   6.034   0.293   4.446 -0.1181  0.5825 -0.0703
 9403SOL    HW129108   5.962   0.255   4.388  1.2373 -0.2880 -1.2523
 9403SOL    HW229109   5.993   0.350   4.517 -1.8416  1.6979 -1.8738
 9404SOL     OW29110   5.908   3.510   5.413  1.2004  0.3301 -0.0709
 9404SOL    HW129111   5.988   3.478   5.465  1.1015 -1.1171 -0.7657
 9404SOL    HW229112   5.928   3.505   5.315  0.7347  1.2973 -0.2237
 9405SOL     OW29113   1.304   6.691   0.814 -0.3028 -0.0939  0.3264
 9405SOL    HW129114   1.309   6.778   0.864  0.7318  1.7673 -2.7089
 9405SOL    HW229115   1.243   6.701   0.736 -0.4186 -2.2541  0.0907
 9406SOL     OW29116   4.303   1.159   1.736  0.4550  0.7922 -0.9765
 9406SOL    HW129117   4.299   1.197   1.828 -0.7666 -1.6346  0.0749
 9406SOL    HW229118   4.390   1.182   1.693  2.0720  0.0292  1.7058
 9407SOL     OW29119   3.749   0.610   6.045  0.5237  0.4180  0.1388
 9407SOL    HW129120   3.812   0.550   6.094 -0.1224 -0.7391 -0.3902
 9407SOL    HW229121   3.723   0.686   6.104  2.8009  1.2387  0.1915
 9408SOL     OW29122   0.919   2.197   5.278  0.2678 -0.7703 -0.2030
 9408SOL    HW129123   0.839   2.136   5.270 -0.3818 -0.4351  2.5025
 9408SOL    HW229124   0.999   2.142   5.302  0.0383 -0.7804  0.5943
 9409SOL     OW29125   1.836   2.244   3.451  0.0918 -0.4486  0.5037
 9409SOL    HW129126   1.895   2.170   3.485  0.9792  0.0511  0.0678
 9409SOL    HW229127   1.884   2.331   3.460 -0.1697 -0.1572 -0.8289
 9410SOL     OW29128   4.840   1.600   5.318  0.1338 -0.6899 -0.1033
 9410SOL    HW129129   4.777   1.634   5.388  1.0308 -1.1882  0.9763
 9410SOL    HW229130   4.849   1.501   5.327  2.7369 -0.4236  1.2625
 9411SOL     OW29131   1.083   2.320   4.522  0.3228 -0.0430  0.4889
 9411SOL    HW129132   1.105   2.382   4.598 -1.1290 -0.8582  1.6142
 9411SOL    HW229133   0.984   2.309   4.515  0.4552 -0.5550 -1.1070
 9412SOL     OW29134   0.072   3.881   2.890  0.2301  0.1817 -0.3491
 9412SOL    HW129135   0.007   3.913   2.821 -0.6002  0.8110  0.6956
 9412SOL    HW229136   0.125   3.805   2.853 -1.5942 -0.8311 -1.0102
 9413SOL     OW29137   6.341   1.651   5.824 -0.5745  0.0413  0.5306
 9413SOL    HW129138   6.280   1.573   5.808 -0.7958  0.4168 -0.5372
 9413SOL    HW229139   6.433   1.618   5.843 -0.6147 -0.4849 -0.1546
 9414SOL     OW29140   4.367   5.880   3.525  0.2259 -0.5448  0.3458
 9414SOL    HW129141   4.395   5.862   3.431  2.5057 -0.5674  0.9507
 9414SOL    HW229142   4.366   5.795   3.577  0.4197 -0.3494  0.6778
 9415SOL     OW29143   3.044   1.641   2.585  0.4002 -0.3951 -0.4077
 9415SOL    HW129144   2.951   1.606   2.600 -0.4932  1.9450 -0.0492
 9415SOL    HW229145   3.108   1.594   2.645 -0.6735 -1.5268 -0.1145
 9416SOL     OW29146   4.159   5.124   5.233 -0.0414 -0.5656 -0.2588
 9416SOL    HW129147   4.061   5.104   5.243 -0.5081  1.2120 -0.8736
 9416SOL    HW229148   4.171   5.196   5.164  1.6872 -0.5955 -0.0210
 9417SOL     OW29149   5.184   4.908   3.593 -0.4737 -0.0543  0.4728
 9417SOL    HW129150   5.127   4.988   3.610  2.0768  1.9456  0.3035
 9417SOL    HW229151   5.196   4.896   3.495 -2.0969 -1.6725  0.4266
 9418SOL     OW29152   1.513   2.305   1.799  0.4913 -0.0734  0.0505
 9418SOL    HW129153   1.419   2.310   1.833  1.1406 -0.9133  2.0706
 9418SOL    HW229154   1.515   2.251   1.715 -0.6942 -0.8054  0.4729
 9419SOL     OW29155   1.859   3.639   1.451  0.2879 -0.6896 -0.5124
 9419SOL    HW129156   1.811   3.724   1.431 -0.2562 -1.6132 -3.7632
 9419SOL    HW229157   1.955   3.659   1.472 -0.5185  0.8762  2.2489
 9420SOL     OW29158   3.516   6.776   6.722 -0.5721 -0.0979  0.0652
 9420SOL    HW129159   3.604   6.750   6.764 -0.9471 -0.7385  0.4851
 9420SOL    HW229160   3.507   6.730   6.634 -1.0970 -1.2040  0.6672
 9421SOL     OW29161   1.212   3.886   5.516 -0.2445 -0.3837  0.7191
 9421SOL    HW129162   1.266   3.812   5.478  1.2847  0.3053  1.4917
 9421SOL    HW229163   1.133   3.903   5.456 -0.1120 -1.9897  0.0497
 9422SOL     OW29164   3.489   0.622   6.225 -0.2760  0.8616 -0.1936
 9422SOL    HW129165   3.499   0.717   6.195  1.9649  0.9078  0.5396
 9422SOL    HW229166   3.426   0.619   6.303  1.4779  2.1546  1.3647
 9423SOL     OW29167   7.000   6.628   4.278 -0.6600 -0.2692  0.2340
 9423SOL    HW129168   7.061   6.708   4.278 -1.1499  0.1336  1.3268
 9423SOL    HW229169   7.047   6.551   4.320 -0.4369 -0.3405 -0.1498
 9424SOL     OW29170   5.170   6.376   6.534 -0.1542 -0.1303 -0.3941
 9424SOL    HW129171   5.108   6.363   6.457 -0.1893  1.2961 -0.6349
 9424SOL    HW229172   5.253   6.423   6.503 -1.2960  2.9575  0.8258
 9425SOL     OW29173   1.072   4.482   1.715  0.0936 -0.3183 -0.2365
 9425SOL    HW129174   1.004   4.418   1.679 -0.6048 -0.2793  0.9654
 9425SOL    HW229175   1.126   4.438   1.786 -0.0473  0.2740  0.2445
 9426SOL     OW29176   4.876   3.444   6.160  0.6012 -0.0819  0.0503
 9426SOL    HW129177   4.949   3.422   6.094 -0.4519 -0.4429 -1.0237
 9426SOL    HW229178   4.798   3.383   6.145 -0.1192  0.6225  0.8585
 9427SOL     OW29179   4.242   6.919   6.927 -0.3969  0.3893 -0.1461
 9427SOL    HW129180   4.294   6.834   6.920  1.4894  1.3522  1.3159
 9427SOL    HW229181   4.265   6.979   6.850 -1.1321 -0.0794 -0.7467
 9428SOL     OW29182   4.850   6.576   6.868 -0.3064 -0.3173 -0.0856
 9428SOL    HW129183   4.805   6.491   6.840 -1.7117  0.0885  0.8502
 9428SOL    HW229184   4.877   6.570   6.964 -1.5170  0.7160  0.3412
 9429SOL     OW29185   4.527   1.174   1.394 -0.1325  0.2438 -0.2572
 9429SOL    HW129186   4.603   1.237   1.382 -0.5980  0.9197  0.2723
 9429SOL    HW229187   4.442   1.220   1.370 -0.2715 -0.9260 -2.2100
 9430SOL     OW29188   4.311   2.623   5.408 -0.1016  0.0531  0.2530
 9430SOL    HW129189   4.248   2.568   5.462 -0.3921 -0.3217 -0.4540
 9430SOL    HW229190   4.276   2.631   5.314  0.6206  0.3094  0.0009
 9431SOL     OW29191   4.014   0.466   6.462 -0.1126  0.3801  0.0229
 9431SOL    HW129192   4.033   0.504   6.372  0.6986 -0.2115 -0.0768
 9431SOL    HW229193   4.022   0.366   6.458 -2.5820  0.1167  0.1758
 9432SOL     OW29194   6.721   4.762   5.346  0.0402 -0.6892  0.3821
 9432SOL    HW129195   6.793   4.821   5.382 -0.4136  0.2655 -0.2573
 9432SOL    HW229196   6.649   4.752   5.415  0.2994 -0.8236  0.6369
 9433SOL     OW29197   0.297   4.776   2.117  0.0974 -0.0381  0.3854
 9433SOL    HW129198   0.381   4.740   2.077 -0.4485 -0.5378 -0.3665
 9433SOL    HW229199   0.290   4.748   2.212 -0.1646 -1.7248 -0.0982
 9434SOL     OW29200   5.552   0.371   1.979 -0.2581 -0.2947  0.1212
 9434SOL    HW129201   5.478   0.318   2.020 -0.6246  0.2847  0.2135
 9434SOL    HW229202   5.536   0.469   1.994  0.9474 -0.1858  0.8960
 9435SOL     OW29203   5.640   2.334   5.501 -0.4980  0.2343 -0.4534
 9435SOL    HW129204   5.562   2.301   5.449  0.0057 -1.9179  0.0781
 9435SOL    HW229205   5.683   2.410   5.452 -1.3825 -0.2478 -2.0236
 9436SOL     OW29206   5.179   4.573   5.630 -0.8203 -0.1568  0.2164
 9436SOL    HW129207   5.197   4.525   5.544 -2.1565 -0.2893 -0.0129
 9436SOL    HW229208   5.089   4.616   5.626 -0.6936  0.2497  1.3747
 9437SOL     OW29209   5.824   3.199   6.715 -0.2306 -0.6040  0.3492
 9437SOL    HW129210   5.803   3.186   6.812 -1.1668  1.3542  0.4695
 9437SOL    HW229211   5.921   3.221   6.704 -0.2198 -0.3677  0.8972
 9438SOL     OW29212   6.824   3.802   6.555  0.3370  0.0009 -0.6893
 9438SOL    HW129213   6.808   3.778   6.651  1.4206  2.5136  0.2063
 9438SOL    HW229214   6.736   3.809   6.508 -0.3943  0.8715  0.7178
 9439SOL     OW29215   0.460   6.345   2.216 -0.2283  0.2422  0.1310
 9439SOL    HW129216   0.446   6.284   2.294 -0.0335  0.1882  0.1232
 9439SOL    HW229217   0.520   6.302   2.150  1.7091  1.2842  1.1157
 9440SOL     OW29218   1.933   2.361   5.073 -0.6712  0.2295  0.3501
 9440SOL    HW129219   1.959   2.293   5.141 -0.9322 -0.6998 -0.4680
 9440SOL    HW229220   1.964   2.451   5.103  0.2129 -0.3276  1.1610
 9441SOL     OW29221   4.947   6.886   6.027 -0.9061  0.0012 -0.6936
 9441SOL    HW129222   4.979   6.792   6.011 -2.7451 -0.4858 -1.8219
 9441SOL    HW229223   4.877   6.909   5.960 -0.0385  2.4576 -0.8517
 9442SOL     OW29224   3.544   1.029   0.991  0.1977  0.4130  0.6160
 9442SOL    HW129225   3.603   1.081   1.052 -0.3872  2.0463 -0.1552
 9442SOL    HW229226   3.458   1.007   1.038 -0.7298  2.6624  0.0911
 9443SOL     OW29227   6.125   3.325   4.550 -0.2519 -0.4933 -0.3049
 9443SOL    HW129228   6.129   3.328   4.450  1.2078 -0.0435 -0.2467
 9443SOL    HW229229   6.189   3.392   4.589 -0.9750 -0.4850  0.9370
 9444SOL     OW29230   3.943   5.537   5.993 -0.1293  0.0711 -0.0803
 9444SOL    HW129231   3.937   5.472   5.917  0.4545 -0.8141  0.5990
 9444SOL    HW229232   4.023   5.516   6.048 -0.0940  1.2098  0.3262
 9445SOL     OW29233   0.647   1.311   6.175  0.0129 -0.1206  0.2752
 9445SOL    HW129234   0.713   1.298   6.249  1.5144  0.2558 -0.9494
 9445SOL    HW229235   0.606   1.402   6.182 -0.0916 -0.2041  0.8045
 9446SOL     OW29236   4.224   2.274   4.414  0.2643  0.0965  0.8114
 9446SOL    HW129237   4.129   2.252   4.392  0.6398 -0.0565 -0.7811
 9446SOL    HW229238   4.244   2.368   4.387  0.2776  0.5259  2.2115
 9447SOL     OW29239   3.890   6.635   3.547  0.1882 -0.5667  0.1777
 9447SOL    HW129240   3.966   6.679   3.500  0.3989 -0.9116  0.1963
 9447SOL    HW229241   3.924   6.588   3.628 -0.2214  0.3376  0.8901
 9448SOL     OW29242   1.350   2.936   5.442 -0.0499  0.1037 -0.3531
 9448SOL    HW129243   1.298   2.968   5.362  0.6934  2.1714 -0.0637
 9448SOL    HW229244   1.293   2.874   5.496 -1.3445  0.3960 -1.3324
 9449SOL     OW29245   4.383   6.120   5.723 -0.3771  0.0918  0.4717
 9449SOL    HW129246   4.424   6.034   5.753  1.2299  0.2716 -1.0120
 9449SOL    HW229247   4.435   6.197   5.762 -1.3017  0.3924  1.1378
 9450SOL     OW29248   1.547   3.720   0.748  0.0543 -0.6179 -0.0872
 9450SOL    HW129249   1.506   3.723   0.839  1.0350  0.5479  0.3509
 9450SOL    HW229250   1.525   3.634   0.704 -2.1899 -0.3545  0.4276
 9451SOL     OW29251   5.548   2.449   6.490  0.2831 -0.0122 -0.2892
 9451SOL    HW129252   5.459   2.467   6.447 -1.8296 -4.6272  1.5041
 9451SOL    HW229253   5.543   2.475   6.587  1.4848  0.9936 -0.4732
 9452SOL     OW29254   3.102   6.498   0.767  0.2799 -0.9444  0.1051
 9452SOL    HW129255   3.158   6.571   0.807 -1.0134 -1.0521  2.2685
 9452SOL    HW229256   3.076   6.523   0.674 -0.5273  1.6253  0.9419
 9453SOL     OW29257   4.653   6.983   1.183 -0.5105  0.5347  0.2740
 9453SOL    HW129258   4.652   7.030   1.095  1.4612 -0.9413 -0.6236
 9453SOL    HW229259   4.730   7.016   1.238  0.6047 -1.1757 -0.1719
 9454SOL     OW29260   3.659   3.114   3.026  0.1103  0.2597 -0.1630
 9454SOL    HW129261   3.609   3.028   3.038  0.9047 -0.4958 -1.9093
 9454SOL    HW229262   3.608   3.189   3.070 -0.5368 -1.0866  1.4857
 9455SOL     OW29263   0.879   1.404   5.319  0.9392 -0.5393 -0.6746
 9455SOL    HW129264   0.976   1.378   5.325  0.6382 -1.3826  1.3186
 9455SOL    HW229265   0.868   1.496   5.356  0.7605 -1.1653  0.9200
 9456SOL     OW29266   6.514   0.296   6.262  0.7396 -0.5410 -0.3610
 9456SOL    HW129267   6.543   0.379   6.215  1.5667 -0.2453  0.6173
 9456SOL    HW229268   6.441   0.251   6.210  0.2721  0.7964 -0.9030
 9457SOL     OW29269   4.155   3.543   0.826  0.6211 -0.1896 -0.4611
 9457SOL    HW129270   4.207   3.581   0.749 -0.0493  0.4310 -0.6166
 9457SOL    HW229271   4.061   3.576   0.822  0.0267 -1.8247 -0.5523
 9458SOL     OW29272   0.277   4.688   0.663  0.2673 -0.4480  0.4126
 9458SOL    HW129273   0.213   4.765   0.665  0.7506 -0.0421  0.3343
 9458SOL    HW229274   0.232   4.609   0.621 -0.1319 -0.1201  0.2134
 9459SOL     OW29275   0.271   6.636   6.734  0.2824 -0.6429  0.6161
 9459SOL    HW129276   0.281   6.732   6.761  1.8652 -1.0393  1.5510
 9459SOL    HW229277   0.271   6.578   6.815 -0.2571 -1.4773  0.0356
 9460SOL     OW29278   0.845   4.199   5.546  0.0066 -0.5690 -0.3701
 9460SOL    HW129279   0.924   4.258   5.532 -1.5897  2.0065  0.7535
 9460SOL    HW229280   0.766   4.236   5.497 -1.4943 -0.7119  1.7734
 9461SOL     OW29281   1.765   4.618   1.353  0.4082 -0.1995  0.2291
 9461SOL    HW129282   1.765   4.528   1.310 -0.7474 -0.2277  0.2524
 9461SOL    HW229283   1.795   4.609   1.448 -0.5481 -0.7294  0.5062
 9462SOL     OW29284   0.396   6.209   1.775 -0.4016  0.5453 -0.3029
 9462SOL    HW129285   0.440   6.276   1.716 -0.7213  1.2401  0.2245
 9462SOL    HW229286   0.312   6.248   1.813 -0.9316 -0.3873 -0.4843
 9463SOL     OW29287   4.998   3.878   0.312 -0.3660 -0.1334 -0.0352
 9463SOL    HW129288   5.052   3.876   0.228  1.4949  2.6475  0.9444
 9463SOL    HW229289   4.924   3.811   0.306  2.0413 -2.8516 -2.2169
 9464SOL     OW29290   2.476   2.116   5.409 -0.2625 -0.2141  0.1521
 9464SOL    HW129291   2.447   2.092   5.316  1.1073 -0.0035 -0.3531
 9464SOL    HW229292   2.479   2.216   5.418 -2.4362 -0.1825  1.1156
 9465SOL     OW29293   4.133   1.479   0.276  0.2786 -0.0285 -0.1025
 9465SOL    HW129294   4.224   1.437   0.284  0.6446  0.6149 -0.7586
 9465SOL    HW229295   4.069   1.432   0.336  0.4977 -1.9916 -1.3193
 9466SOL     OW29296   3.870   2.896   1.527  0.4217 -1.1883  0.5742
 9466SOL    HW129297   3.944   2.919   1.590  1.6020  0.1924 -1.2273
 9466SOL    HW229298   3.857   2.797   1.527  0.1830 -1.2329  3.1362
 9467SOL     OW29299   5.389   6.810   0.384 -0.2005  0.1560 -0.0571
 9467SOL    HW129300   5.353   6.784   0.294 -1.4876 -0.4706  0.6059
 9467SOL    HW229301   5.387   6.909   0.393 -1.0628  0.1766 -0.3475
 9468SOL     OW29302   2.909   3.168   0.868 -0.1938 -0.2608 -0.1224
 9468SOL    HW129303   2.827   3.207   0.910  1.0177 -0.2247  2.3902
 9468SOL    HW229304   2.903   3.178   0.768 -3.4214 -0.7014 -0.0931
 9469SOL     OW29305   1.398   6.466   4.748 -0.3715 -0.2991 -0.2430
 9469SOL    HW129306   1.397   6.374   4.787 -0.6695 -1.5076 -2.9114
 9469SOL    HW229307   1.487   6.508   4.766 -1.3343  0.3586  3.9488
 9470SOL     OW29308   5.943   6.616   2.729 -0.3111 -0.0070  0.5109
 9470SOL    HW129309   5.845   6.633   2.727 -0.4079 -0.6284 -1.1713
 9470SOL    HW229310   5.964   6.554   2.806 -1.2872 -0.2174  0.6189
 9471SOL     OW29311   5.166   5.140   4.455 -0.0477 -0.7323  0.0331
 9471SOL    HW129312   5.261   5.109   4.448  0.2754 -0.2750  1.8949
 9471SOL    HW229313   5.111   5.094   4.385  1.7171 -0.1872 -1.7914
 9472SOL     OW29314   4.082   5.312   5.709 -1.0960  0.1635  0.0384
 9472SOL    HW129315   4.100   5.244   5.780 -2.1660  0.9701  1.1384
 9472SOL    HW229316   4.153   5.382   5.711 -0.2632 -0.6318 -0.7673
 9473SOL     OW29317   0.582   2.916   1.496  0.4086  0.6843  0.2004
 9473SOL    HW129318   0.547   3.006   1.469  2.0575  1.4291  0.3790
 9473SOL    HW229319   0.614   2.868   1.414 -2.4709 -0.7351 -0.2112
 9474SOL     OW29320   5.788   0.942   5.243  0.1593  0.0871 -0.0795
 9474SOL    HW129321   5.812   1.039   5.250 -0.0028  0.1673 -0.5680
 9474SOL    HW229322   5.827   0.892   5.320  0.6505  0.4601 -0.0817
 9475SOL     OW29323   2.985   0.153   3.670  0.2083 -0.4565  0.2339
 9475SOL    HW129324   3.079   0.123   3.654  0.0993 -1.4157  1.2544
 9475SOL    HW229325   2.985   0.249   3.694  0.7841 -0.1080 -1.0487
 9476SOL     OW29326   4.018   2.183   2.709  0.1774  0.4735  0.0671
 9476SOL    HW129327   3.995   2.224   2.621 -0.9211  1.4530  0.7813
 9476SOL    HW229328   4.069   2.250   2.764 -2.4234  1.3177  1.6024
 9477SOL     OW29329   1.719   2.516   3.757  0.2711 -0.2281 -0.5385
 9477SOL    HW129330   1.668   2.585   3.808  0.1839 -0.1418 -0.7436
 9477SOL    HW229331   1.808   2.554   3.730  0.8357 -0.6643  0.5923
 9478SOL     OW29332   1.549   3.198   6.160  0.2785  0.1360 -0.2936
 9478SOL    HW129333   1.553   3.203   6.061 -0.3216  1.7559 -0.2645
 9478SOL    HW229334   1.527   3.288   6.198 -0.2897 -0.6060  1.2646
 9479SOL     OW29335   6.168   6.478   6.348 -0.0661  0.7698  0.2484
 9479SOL    HW129336   6.208   6.388   6.365  0.2610  0.7426 -0.6020
 9479SOL    HW229337   6.085   6.467   6.294 -0.7942  0.8887  1.3074
 9480SOL     OW29338   3.995   0.892   1.278  0.0016 -0.0072  0.3733
 9480SOL    HW129339   4.048   0.899   1.363 -0.2898 -0.9562  0.6550
 9480SOL    HW229340   3.962   0.982   1.251  1.3313  0.5387  0.4614
 9481SOL     OW29341   0.710   0.722   5.074  0.1408  0.6216 -0.4723
 9481SOL    HW129342   0.628   0.689   5.121  0.5738 -0.8349 -0.7011
 9481SOL    HW229343   0.725   0.818   5.097  0.1923  0.0435  2.1803
 9482SOL     OW29344   1.059   6.902   1.844 -0.1808 -0.3745  0.5443
 9482SOL    HW129345   1.125   6.975   1.864  0.9912 -1.2900  0.0942
 9482SOL    HW229346   1.017   6.871   1.930  0.9978 -0.7330  1.0052
 9483SOL     OW29347   1.284   3.402   3.689  0.4330 -0.0176 -0.1287
 9483SOL    HW129348   1.349   3.378   3.616  1.0811  0.0014  0.4266
 9483SOL    HW229349   1.333   3.451   3.761 -0.2227  0.0561  0.2700
 9484SOL     OW29350   4.225   0.084   2.157 -0.0468 -0.0924  0.3629
 9484SOL    HW129351   4.189   0.163   2.106  0.5072  1.1682  1.8478
 9484SOL    HW229352   4.324   0.081   2.148  0.0697  0.2091  1.4165
 9485SOL     OW29353   6.129   6.523   1.297 -0.0329  0.2094  0.2712
 9485SOL    HW129354   6.043   6.509   1.346 -0.9210 -0.7803 -1.4954
 9485SOL    HW229355   6.134   6.618   1.265 -1.5982 -0.2934 -1.6033
 9486SOL     OW29356   4.712   2.660   4.195 -0.4719  0.2427  0.1049
 9486SOL    HW129357   4.663   2.589   4.145 -0.0249 -0.6669  0.9034
 9486SOL    HW229358   4.690   2.654   4.293 -0.6472  1.4010  0.1534
 9487SOL     OW29359   6.437   2.792   3.483 -0.1391 -0.5090 -0.2281
 9487SOL    HW129360   6.397   2.854   3.415  0.2802 -0.6098 -0.5757
 9487SOL    HW229361   6.438   2.699   3.447 -1.9331 -0.9611  0.7944
 9488SOL     OW29362   6.778   6.475   5.688  0.3864  0.0144 -0.5939
 9488SOL    HW129363   6.727   6.538   5.629  2.2368  0.0777 -2.2235
 9488SOL    HW229364   6.842   6.527   5.744  0.8571 -0.2779 -0.8504
 9489SOL     OW29365   1.447   6.305   5.422 -0.6203  0.5256  0.1746
 9489SOL    HW129366   1.395   6.287   5.506  1.5262 -0.7666  1.3457
 9489SOL    HW229367   1.545   6.303   5.444  0.0227 -0.4776 -2.4928
 9490SOL     OW29368   6.856   5.389   2.144  0.1587 -0.0803 -0.6823
 9490SOL    HW129369   6.759   5.399   2.167  0.0860 -0.4985 -0.8002
 9490SOL    HW229370   6.878   5.292   2.132  0.7841 -0.0585  0.1626
 9491SOL     OW29371   6.043   3.178   3.283 -0.3666 -0.2135 -0.1713
 9491SOL    HW129372   5.979   3.254   3.277  1.2359  1.1151 -1.4455
 9491SOL    HW229373   6.034   3.121   3.201 -2.3543 -2.1566  1.2821
 9492SOL     OW29374   3.036   1.930   0.995  0.1047 -0.0221 -0.3402
 9492SOL    HW129375   3.006   1.962   1.084 -1.4029 -0.4402 -0.6664
 9492SOL    HW229376   3.076   1.839   1.004 -0.1670 -0.1211 -0.0976
 9493SOL     OW29377   3.376   0.148   0.525 -0.2700 -0.4276  0.2903
 9493SOL    HW129378   3.383   0.116   0.431  0.5625 -0.0465  0.2099
 9493SOL    HW229379   3.380   0.248   0.527  0.3770 -0.4544  0.7651
 9494SOL     OW29380   1.312   1.265   3.116  0.7335 -0.6276 -0.0696
 9494SOL    HW129381   1.254   1.216   3.181 -2.8622  1.2477 -1.5661
 9494SOL    HW229382   1.255   1.309   3.047  3.8841  2.7189 -0.8757
 9495SOL     OW29383   0.276   3.579   3.059  0.4817  0.2342  0.1997
 9495SOL    HW129384   0.241   3.641   3.129 -0.7240 -0.0552 -0.1112
 9495SOL    HW229385   0.285   3.487   3.097  0.2610  0.1722  0.1057
 9496SOL     OW29386   4.990   3.883   5.980  0.3791 -0.1248 -0.4383
 9496SOL    HW129387   5.011   3.937   6.062  0.9814  1.8610 -1.8377
 9496SOL    HW229388   4.895   3.853   5.984  0.5306 -0.4850  1.2030
 9497SOL     OW29389   6.026   5.276   1.270  0.0084 -0.1515  0.0279
 9497SOL    HW129390   6.124   5.262   1.287  0.2319 -0.1908 -1.1964
 9497SOL    HW229391   5.993   5.207   1.206 -0.7601  0.0434  0.2014
 9498SOL     OW29392   3.901   4.024   4.789  0.0969 -0.2125 -0.3296
 9498SOL    HW129393   3.802   4.005   4.783 -0.1226  0.9803 -0.6263
 9498SOL    HW229394   3.924   4.047   4.883  0.2990 -1.4798 -0.0430
 9499SOL     OW29395   4.694   5.352   2.128 -0.5215  0.7458 -0.2535
 9499SOL    HW129396   4.700   5.289   2.206  0.1414 -0.9427 -1.6016
 9499SOL    HW229397   4.773   5.338   2.069 -0.8776  2.1940 -1.1136
 9500SOL     OW29398   2.933   2.135   5.038 -0.4424 -0.0951 -0.0131
 9500SOL    HW129399   3.024   2.178   5.034 -0.5680  0.2707  0.8424
 9500SOL    HW229400   2.933   2.064   5.107 -0.5376 -0.7793 -0.7034
 9501SOL     OW29401   2.645   4.968   3.934 -0.1623  0.3919 -0.4251
 9501SOL    HW129402   2.640   4.948   4.031  0.9458  1.9479  0.0037
 9501SOL    HW229403   2.647   4.883   3.882 -0.9167 -0.4579  0.8909
 9502SOL     OW29404   6.136   5.483   3.395  0.0007  0.3081  0.5412
 9502SOL    HW129405   6.227   5.473   3.356 -0.1102 -1.4102  0.6345
 9502SOL    HW229406   6.133   5.436   3.484 -1.6467 -2.0230 -0.6392
 9503SOL     OW29407   3.440   6.663   1.290  0.3369  0.1419  0.3316
 9503SOL    HW129408   3.405   6.677   1.197 -0.8769 -2.2158  0.3522
 9503SOL    HW229409   3.365   6.640   1.351  1.5190 -2.9227  0.8607
 9504SOL     OW29410   1.352   1.546   1.856  0.1042  0.6790 -0.0124
 9504SOL    HW129411   1.318   1.497   1.936 -0.3118  0.0160 -0.5886
 9504SOL    HW229412   1.399   1.629   1.886 -0.0196  0.4272  0.9195
 9505SOL     OW29413   0.009   0.317   1.055 -0.5147 -0.2351 -0.5145
 9505SOL    HW129414  -0.022   0.331   0.961 -1.7302  0.3246 -0.0588
 9505SOL    HW229415  -0.071   0.302   1.114  0.0854  1.2975  0.7339
 9506SOL     OW29416   0.050   6.820   2.478 -0.2018 -0.2670 -0.1385
 9506SOL    HW129417  -0.006   6.793   2.556 -1.3307  0.1572 -0.7759
 9506SOL    HW229418  -0.005   6.819   2.395  0.9586 -0.6420 -0.9362
 9507SOL     OW29419   0.825   0.735   4.239  0.6029 -0.1757 -0.0201
 9507SOL    HW129420   0.856   0.795   4.165 -2.1942  0.4117 -0.8331
 9507SOL    HW229421   0.798   0.647   4.202  1.7912 -0.9020  0.7579
 9508SOL     OW29422   2.110   3.653   6.686  0.6296 -0.3430  0.0890
 9508SOL    HW129423   2.074   3.644   6.779 -1.2326  0.6364 -0.5025
 9508SOL    HW229424   2.138   3.563   6.653  1.2447 -0.7157  1.5497
 9509SOL     OW29425   5.954   0.449   1.763  0.1909 -0.4719  0.0423
 9509SOL    HW129426   5.875   0.434   1.703  0.2998 -0.3984 -0.1200
 9509SOL    HW229427   6.038   0.448   1.709  0.1585  1.3637 -0.0741
 9510SOL     OW29428   2.467   1.415   2.955 -0.1733  0.3782  0.1739
 9510SOL    HW129429   2.490   1.511   2.971  0.0093  0.0336  2.1984
 9510SOL    HW229430   2.455   1.400   2.857  2.1896  1.9167 -0.4270
 9511SOL     OW29431   2.906   3.496   0.675 -0.0277  0.9709  0.2981
 9511SOL    HW129432   2.859   3.408   0.670 -0.7871  1.2928  1.5160
 9511SOL    HW229433   2.910   3.537   0.583  1.3592 -0.8335 -0.4942
 9512SOL     OW29434   6.482   0.967   5.752 -0.5096  0.4607 -0.7215
 9512SOL    HW129435   6.419   0.973   5.676  0.7493  1.1201 -1.7551
 9512SOL    HW229436   6.432   0.948   5.836 -2.0020  0.4855 -1.5811
 9513SOL     OW29437   4.181   5.666   3.021  0.4147  0.4047  0.5252
 9513SOL    HW129438   4.172   5.704   2.928 -1.8890 -2.1253 -0.4024
 9513SOL    HW229439   4.106   5.699   3.077  0.3214 -0.1302  0.7148
 9514SOL     OW29440   3.702   3.351   2.894 -0.7771  0.6127 -0.8228
 9514SOL    HW129441   3.742   3.272   2.942 -0.1023  1.0474 -0.6614
 9514SOL    HW229442   3.611   3.369   2.931  0.0617  1.4768  0.9328
 9515SOL     OW29443   0.289   5.029   6.386 -0.3303  0.5297  0.3163
 9515SOL    HW129444   0.214   5.004   6.447 -0.0310  0.9189  0.8466
 9515SOL    HW229445   0.257   5.099   6.322 -0.9477 -0.6266 -0.6750
 9516SOL     OW29446   4.063   6.091   5.017  0.4611  0.5993  0.0472
 9516SOL    HW129447   3.975   6.136   5.033  0.6909  1.0540  0.0270
 9516SOL    HW229448   4.065   6.055   4.924 -0.2303 -0.6043  0.4686
 9517SOL     OW29449   6.992   1.080   2.677 -0.9137  0.1023 -0.0903
 9517SOL    HW129450   6.932   1.025   2.735 -1.2578 -1.0539 -1.4801
 9517SOL    HW229451   6.939   1.118   2.602  0.0412 -0.9063 -1.3244
 9518SOL     OW29452   1.151   5.218   5.445 -0.2745 -0.2839 -0.1337
 9518SOL    HW129453   1.065   5.256   5.478 -0.3131 -0.2716 -0.2498
 9518SOL    HW229454   1.199   5.174   5.521 -1.0263 -1.5049 -0.3393
 9519SOL     OW29455   5.304   5.841   1.509  0.2410  0.0693  0.0333
 9519SOL    HW129456   5.402   5.826   1.499  0.5241  2.2194 -1.0073
 9519SOL    HW229457   5.277   5.921   1.455 -2.2447 -0.9655 -0.3750
 9520SOL     OW29458   6.603   2.664   0.362  0.7209  0.2698 -0.0750
 9520SOL    HW129459   6.510   2.683   0.391  0.4566 -0.6890 -0.2631
 9520SOL    HW229460   6.665   2.731   0.403  0.2048 -0.2524  1.6201
 9521SOL     OW29461   3.662   0.954   3.787  0.4147 -0.4333  0.3398
 9521SOL    HW129462   3.706   0.908   3.710  0.1342 -0.1178 -0.0129
 9521SOL    HW229463   3.732   0.988   3.850  0.7101  0.5432 -0.4941
 9522SOL     OW29464   4.599   1.571   4.780 -0.0257  0.5733  0.4904
 9522SOL    HW129465   4.676   1.601   4.724  1.0903 -2.6022  0.1002
 9522SOL    HW229466   4.547   1.651   4.813  2.8694  2.7817  0.0436
 9523SOL     OW29467   1.435   6.950   1.969 -0.1421 -0.0525  0.5456
 9523SOL    HW129468   1.426   7.040   1.927  0.0575  0.0431  0.7064
 9523SOL    HW229469   1.364   6.889   1.934  0.0533  0.0127  0.0325
 9524SOL     OW29470   4.380   1.112   6.394  0.0929  0.5545 -0.1603
 9524SOL    HW129471   4.379   1.045   6.468  1.6749  0.9669  0.2649
 9524SOL    HW229472   4.349   1.201   6.429 -0.2838  0.4772 -0.2906
 9525SOL     OW29473   2.666   2.918   1.521 -0.2541 -0.1900  0.3729
 9525SOL    HW129474   2.675   2.963   1.609 -0.8034 -0.0627  0.3647
 9525SOL    HW229475   2.668   2.819   1.534 -0.3590 -0.1715  0.5271
 9526SOL     OW29476   4.834   5.093   4.877 -0.4342  0.3564  0.6011
 9526SOL    HW129477   4.770   5.022   4.847  0.7098  0.5049 -2.5799
 9526SOL    HW229478   4.789   5.182   4.870 -0.6654  0.2618  0.8550
 9527SOL     OW29479   3.509   5.109   1.452 -0.5661 -0.1297  0.0200
 9527SOL    HW129480   3.414   5.111   1.420 -0.1394 -2.4254 -1.6803
 9527SOL    HW229481   3.557   5.034   1.407  1.7136  0.1163  1.8707
 9528SOL     OW29482   6.794   3.498   2.346 -0.1520 -0.5480  0.2008
 9528SOL    HW129483   6.741   3.562   2.290  0.3730 -0.2836 -0.0012
 9528SOL    HW229484   6.758   3.406   2.335  1.3834 -0.9289 -2.4283
 9529SOL     OW29485   5.265   3.161   4.964  0.1942 -0.0116  0.2881
 9529SOL    HW129486   5.242   3.094   5.036  1.8932  0.5427  1.4024
 9529SOL    HW229487   5.284   3.249   5.006  1.2026  0.3376 -0.8591
 9530SOL     OW29488   4.963   6.191   6.658  0.1705  0.6257 -0.3234
 9530SOL    HW129489   5.047   6.242   6.636 -0.3016  1.3793 -0.4200
 9530SOL    HW229490   4.910   6.243   6.726  0.8712 -0.9312  1.5101
 9531SOL     OW29491   6.807   4.533   3.808 -0.0211 -0.0814  0.2056
 9531SOL    HW129492   6.726   4.589   3.828 -1.4185 -1.9869  0.1064
 9531SOL    HW229493   6.859   4.520   3.892  0.2598  1.2274  0.2570
 9532SOL     OW29494   0.925   3.090   3.745 -0.1859 -0.3841 -0.6540
 9532SOL    HW129495   1.013   3.130   3.721  0.1556 -1.1005 -0.6485
 9532SOL    HW229496   0.925   3.066   3.843  0.0317 -1.3803 -0.8857
 9533SOL     OW29497   1.467   3.674   3.535  0.1428 -0.1885  0.4397
 9533SOL    HW129498   1.396   3.694   3.602  0.2362  0.0593  0.4644
 9533SOL    HW229499   1.492   3.577   3.541 -0.4098 -0.3505  0.2184
 9534SOL     OW29500   2.025   0.266   4.718 -0.0271  0.0085 -0.0509
 9534SOL    HW129501   2.096   0.308   4.774 -1.0707  1.1513  0.4505
 9534SOL    HW229502   1.982   0.335   4.660 -0.2737 -0.7996 -0.8535
 9535SOL     OW29503   5.299   2.597   0.133  0.5383  0.6214  0.7403
 9535SOL    HW129504   5.333   2.604   0.039 -0.4726 -1.7078  0.1351
 9535SOL    HW229505   5.205   2.629   0.138  0.4093  0.2234  0.8532
 9536SOL     OW29506   2.670   3.188   6.027 -0.4082  0.1358  0.2038
 9536SOL    HW129507   2.699   3.148   6.114  0.4904 -2.0746 -1.0244
 9536SOL    HW229508   2.749   3.230   5.981  0.1673 -2.4458 -1.3754
 9537SOL     OW29509   1.317   4.162   5.306  0.1518  0.6162  0.0732
 9537SOL    HW129510   1.292   4.082   5.252 -0.0643  1.5928 -1.3116
 9537SOL    HW229511   1.357   4.132   5.393  0.8719 -1.0068 -0.7677
 9538SOL     OW29512   5.044   3.413   0.525 -0.7617  0.0785  0.2346
 9538SOL    HW129513   5.106   3.490   0.510 -1.6027  0.9197  0.9579
 9538SOL    HW229514   5.003   3.385   0.438  3.3622 -2.9847 -1.0442
 9539SOL     OW29515   3.437   6.138   4.944  0.4467  0.7067 -0.2126
 9539SOL    HW129516   3.352   6.101   4.906  0.4797  0.8292 -0.4122
 9539SOL    HW229517   3.515   6.094   4.900  0.4895  0.2234  0.3425
 9540SOL     OW29518   4.796   2.901   5.895  0.4464 -0.1142  0.1116
 9540SOL    HW129519   4.891   2.931   5.901  1.7901 -3.8650 -0.2738
 9540SOL    HW229520   4.763   2.874   5.985  0.9351 -1.9201 -0.2157
 9541SOL     OW29521   5.195   6.046   2.433  0.4975  0.1683 -0.3167
 9541SOL    HW129522   5.134   5.989   2.378 -0.0302  1.9206 -1.6519
 9541SOL    HW229523   5.260   6.092   2.373 -0.1190  2.1736  0.4651
 9542SOL     OW29524   3.554   6.964   0.028  0.0178  0.2777  0.4524
 9542SOL    HW129525   3.599   7.020  -0.042  0.4069 -0.2032  0.3168
 9542SOL    HW229526   3.602   6.878   0.038 -0.9948 -0.3377  0.1620
 9543SOL     OW29527   2.320   1.783   3.435  0.1724  0.3222 -0.1127
 9543SOL    HW129528   2.327   1.718   3.511 -0.5902  0.5798  0.1824
 9543SOL    HW229529   2.401   1.842   3.435  1.0851 -0.8892 -0.6426
 9544SOL     OW29530   0.910   2.236   5.887  0.3746 -0.6887 -0.3703
 9544SOL    HW129531   0.945   2.196   5.802 -1.0101 -0.1635 -1.2301
 9544SOL    HW229532   0.814   2.208   5.900 -0.0942  0.9495 -0.1160
 9545SOL     OW29533   6.723   5.502   5.998  0.5462  0.6611 -0.1988
 9545SOL    HW129534   6.797   5.549   6.047  1.8300 -0.3043 -1.1308
 9545SOL    HW229535   6.681   5.433   6.057 -0.4447  1.9971  0.7268
 9546SOL     OW29536   0.041   4.837   0.689  0.5070  0.3053 -0.4228
 9546SOL    HW129537  -0.002   4.790   0.767  1.1259  1.9503  0.9610
 9546SOL    HW229538   0.017   4.789   0.605 -1.7955 -0.4197  0.5600
 9547SOL     OW29539   3.842   0.718   5.312 -0.3670  0.2264 -0.6458
 9547SOL    HW129540   3.931   0.718   5.267 -1.1301 -0.7336 -2.2914
 9547SOL    HW229541   3.826   0.629   5.355 -0.1484  0.7303  0.5121
 9548SOL     OW29542   2.110   3.078   5.473 -0.4122 -0.2406 -0.1617
 9548SOL    HW129543   2.170   3.074   5.553  0.6528  0.2045 -0.9159
 9548SOL    HW229544   2.106   2.989   5.428 -0.5603 -0.3452  0.0580
 9549SOL     OW29545   3.063   4.024   0.910  1.0465  0.0163 -1.0156
 9549SOL    HW129546   3.133   3.956   0.931  0.1492 -0.2919  1.2313
 9549SOL    HW229547   3.081   4.107   0.962  0.0979  0.1666 -0.9211
 9550SOL     OW29548   3.114   3.092   1.115  0.1523 -0.2030  0.4805
 9550SOL    HW129549   3.177   3.055   1.047 -1.2351 -0.3246 -0.7780
 9550SOL    HW229550   3.059   3.165   1.074 -0.4222  0.0135  1.5908
 9551SOL     OW29551   4.323   1.600   1.448  1.0426 -0.1414 -0.6811
 9551SOL    HW129552   4.347   1.675   1.510  1.2543  0.3886 -1.3870
 9551SOL    HW229553   4.280   1.638   1.366  0.8526 -0.8251 -0.8957
 9552SOL     OW29554   0.604   2.526   1.996  0.2584  0.0318 -0.0422
 9552SOL    HW129555   0.521   2.582   1.988  0.7085  0.8388  0.7037
 9552SOL    HW229556   0.682   2.580   1.966  0.8651  0.2450  1.8133
 9553SOL     OW29557   0.283   5.593   6.978  0.3634 -0.6783 -0.3333
 9553SOL    HW129558   0.314   5.540   6.899 -2.6018  0.8393 -2.7599
 9553SOL    HW229559   0.236   5.675   6.946 -0.6741  0.2197  3.0847
 9554SOL     OW29560   0.896   4.105   5.162 -0.2178 -0.4172 -0.3770
 9554SOL    HW129561   0.848   4.079   5.078  0.4774 -0.4777 -0.7649
 9554SOL    HW229562   0.952   4.186   5.145 -1.0813  0.3615  0.3847
 9555SOL     OW29563   1.722   1.615   1.725 -0.0076 -0.3017  0.0062
 9555SOL    HW129564   1.759   1.576   1.809  0.0519  2.0321  1.1303
 9555SOL    HW229565   1.797   1.650   1.669 -0.1828 -0.0830 -0.0909
 9556SOL     OW29566   3.678   3.910   6.946  0.4842 -0.0075 -0.2060
 9556SOL    HW129567   3.770   3.875   6.930  0.8372  0.0686  1.4557
 9556SOL    HW229568   3.629   3.848   7.009 -0.6034 -0.0453 -1.0564
 9557SOL     OW29569   1.878   2.506   2.899  0.5094  0.4045  0.1753
 9557SOL    HW129570   1.891   2.536   2.994  0.9524 -0.7357  0.4991
 9557SOL    HW229571   1.829   2.419   2.898  1.0158  0.1123 -0.6038
 9558SOL     OW29572   0.387   4.069   3.530 -0.1433 -0.6373  1.1954
 9558SOL    HW129573   0.479   4.109   3.528 -0.4253  0.0393  1.6117
 9558SOL    HW229574   0.343   4.089   3.617 -0.3333 -1.7916  1.3787
 9559SOL     OW29575   6.887   0.427   4.166 -0.2432  0.7310  0.0757
 9559SOL    HW129576   6.838   0.345   4.136  0.3616 -0.1206  1.2757
 9559SOL    HW229577   6.985   0.415   4.149 -0.1980  1.4167 -0.1685
 9560SOL     OW29578   6.027   6.023   6.351 -0.5350  0.7871 -0.5894
 9560SOL    HW129579   5.978   6.050   6.435  1.1474  1.1076  0.3490
 9560SOL    HW229580   6.122   6.002   6.374 -1.0458 -3.5906 -1.6900
 9561SOL     OW29581   6.224   2.040   2.433  0.3097 -0.5485  0.5078
 9561SOL    HW129582   6.288   2.012   2.361  1.1516  1.2764  0.5022
 9561SOL    HW229583   6.198   1.960   2.487  0.9748 -1.6690 -0.7784
 9562SOL     OW29584   6.053   1.304   3.367  0.7004  0.1305  0.1983
 9562SOL    HW129585   5.983   1.243   3.328  0.2362  0.9526 -0.2921
 9562SOL    HW229586   6.076   1.374   3.300  0.4601  1.1225  1.1351
 9563SOL     OW29587   4.576   2.538   1.164  0.9075  0.4758  0.4825
 9563SOL    HW129588   4.653   2.558   1.226 -0.6606  0.7576  2.4479
 9563SOL    HW229589   4.497   2.508   1.218 -0.2681 -0.1921 -1.5118
 9564SOL     OW29590   5.486   0.810   1.673 -0.6665 -0.4761 -0.2096
 9564SOL    HW129591   5.585   0.793   1.667 -0.2282  2.0379 -2.7538
 9564SOL    HW229592   5.468   0.878   1.744 -0.7345 -1.6255  0.9023
 9565SOL     OW29593   1.105   5.628   6.153 -0.0852  0.2866 -0.3122
 9565SOL    HW129594   1.137   5.693   6.083  1.6232 -0.6682 -0.4674
 9565SOL    HW229595   1.144   5.652   6.241 -0.7368  0.3949 -0.0514
 9566SOL     OW29596   0.595   4.406   5.090  0.2911 -0.5695 -0.3752
 9566SOL    HW129597   0.556   4.365   5.172  2.1619 -0.4355  0.6418
 9566SOL    HW229598   0.535   4.479   5.058 -1.7394 -2.2644 -0.6526
 9567SOL     OW29599   0.548   2.981   1.104 -0.4607 -0.1361  0.0187
 9567SOL    HW129600   0.463   2.933   1.128 -1.6285  1.4843 -0.6705
 9567SOL    HW229601   0.537   3.026   1.016  0.8931  0.6501  0.2183
 9568SOL     OW29602   0.954   2.103   5.637  0.2360  0.4095  0.1775
 9568SOL    HW129603   0.867   2.106   5.588  1.1142 -0.3602 -1.5040
 9568SOL    HW229604   0.990   2.010   5.635  1.2354  0.7777  0.6277
 9569SOL     OW29605   6.780   2.423   0.891 -0.0784  0.1878 -0.8033
 9569SOL    HW129606   6.866   2.401   0.845 -0.0087  1.9519 -1.6066
 9569SOL    HW229607   6.707   2.430   0.823 -0.9908 -1.7201 -0.0853
 9570SOL     OW29608   5.578   2.938   4.104 -0.3913 -0.3700 -0.4481
 9570SOL    HW129609   5.565   2.844   4.075  0.4352 -0.2570 -1.2034
 9570SOL    HW229610   5.592   2.997   4.024 -0.2321  0.2862  0.0481
 9571SOL     OW29611   1.173   0.034   3.207 -0.5545  0.6393 -0.0947
 9571SOL    HW129612   1.114   0.038   3.126 -2.4628  0.6489  1.2466
 9571SOL    HW229613   1.137   0.095   3.277  0.4677 -0.1521  1.1580
 9572SOL     OW29614   0.407   0.415   0.184 -0.6584 -0.0783 -0.4481
 9572SOL    HW129615   0.402   0.324   0.225 -0.1213  0.6000  1.2295
 9572SOL    HW229616   0.431   0.408   0.087  1.3395 -1.6614  0.0958
 9573SOL     OW29617   2.076   6.759   3.022 -0.3210 -0.8307 -0.2846
 9573SOL    HW129618   2.048   6.663   3.018  1.1691 -1.5045  2.6691
 9573SOL    HW229619   2.164   6.766   3.069 -0.9968  2.0840  0.7642
 9574SOL     OW29620   6.223   3.179   2.686  0.2358 -0.0204 -0.6775
 9574SOL    HW129621   6.251   3.093   2.728 -0.5169 -0.1270 -0.3695
 9574SOL    HW229622   6.208   3.165   2.588 -2.4434 -0.9506 -0.2390
 9575SOL     OW29623   3.328   5.425   3.904 -0.3486 -0.6514  0.2782
 9575SOL    HW129624   3.419   5.392   3.881  1.1851  0.1885  4.2727
 9575SOL    HW229625   3.270   5.348   3.930 -0.1840 -1.0282 -0.4507
 9576SOL     OW29626   1.608   4.810   1.854  0.1000  0.0978 -0.0451
 9576SOL    HW129627   1.604   4.748   1.931  2.4802  1.2817  1.1373
 9576SOL    HW229628   1.563   4.896   1.878 -0.5513 -0.0763 -0.5920
 9577SOL     OW29629   4.007   0.939   3.866  0.1680 -0.0482  0.4649
 9577SOL    HW129630   3.980   0.961   3.772  1.5448 -1.0401 -0.2108
 9577SOL    HW229631   3.936   0.967   3.930  0.0321  2.4689 -0.6803
 9578SOL     OW29632   6.121   5.469   1.667  0.3813  0.3624 -0.5584
 9578SOL    HW129633   6.185   5.396   1.646  1.1583  1.2772 -1.4788
 9578SOL    HW229634   6.031   5.447   1.628  0.2085 -0.7518  0.4264
 9579SOL     OW29635   0.526   5.555   0.982  0.3564 -0.1621 -0.3512
 9579SOL    HW129636   0.454   5.547   0.912  0.2114 -1.8860 -0.0655
 9579SOL    HW229637   0.557   5.650   0.987 -2.2627  0.7728 -0.1070
 9580SOL     OW29638   4.768   4.212   0.320  0.0243  0.4438  0.0598
 9580SOL    HW129639   4.794   4.290   0.264 -1.3761  1.9908  1.4650
 9580SOL    HW229640   4.688   4.166   0.279  0.3945  0.1867 -0.3780
 9581SOL     OW29641   0.951   1.972   1.349  0.5302 -1.0065  0.4959
 9581SOL    HW129642   0.916   1.880   1.329 -0.7992 -0.4857  0.3087
 9581SOL    HW229643   0.913   2.003   1.436  1.1848 -0.7285  0.6851
 9582SOL     OW29644   5.430   0.788   6.896 -0.4290 -0.8013  0.3873
 9582SOL    HW129645   5.376   0.848   6.837 -0.7604  1.2057  2.5665
 9582SOL    HW229646   5.520   0.830   6.911  0.2448 -2.0847  0.0571
 9583SOL     OW29647   4.021   0.527   6.200  0.6800 -0.4493 -0.2565
 9583SOL    HW129648   4.056   0.448   6.149 -1.5388 -0.8012 -1.3525
 9583SOL    HW229649   4.035   0.610   6.145 -1.3888 -0.7825 -1.3832
 9584SOL     OW29650   4.684   0.268   6.591  0.3730 -0.2635 -0.3573
 9584SOL    HW129651   4.727   0.196   6.646  1.2668  0.4284 -0.1212
 9584SOL    HW229652   4.735   0.353   6.603  0.4469 -0.0377 -2.0867
 9585SOL     OW29653   2.188   1.429   4.585 -0.1307  0.3638 -0.0744
 9585SOL    HW129654   2.250   1.461   4.513 -0.6759  0.3416 -0.5589
 9585SOL    HW229655   2.186   1.329   4.585  1.3068  0.2979  1.2124
 9586SOL     OW29656   5.935   3.605   0.051  0.1719  0.2426  0.2064
 9586SOL    HW129657   6.003   3.603  -0.022  1.3687  0.6501  1.2769
 9586SOL    HW229658   5.843   3.601   0.011  0.8047 -1.3086 -1.2254
 9587SOL     OW29659   4.702   5.622   4.793 -0.4579  0.4498 -0.1936
 9587SOL    HW129660   4.649   5.668   4.863  2.0846  1.4547  1.1837
 9587SOL    HW229661   4.748   5.690   4.736  1.0277 -0.3452  0.0137
 9588SOL     OW29662   4.511   6.979   2.294  0.2780 -0.4538 -0.2676
 9588SOL    HW129663   4.424   6.931   2.286  0.3342 -0.6026 -0.0049
 9588SOL    HW229664   4.566   6.961   2.212 -0.1751  0.1306 -0.7078
 9589SOL     OW29665   2.121   3.577   3.669  0.3752 -0.7421 -0.0426
 9589SOL    HW129666   2.172   3.517   3.606  1.2599 -0.6317  0.5456
 9589SOL    HW229667   2.170   3.582   3.757 -0.7929 -0.8248  0.6295
 9590SOL     OW29668   0.304   3.410   4.968  0.7410  0.4777 -0.0529
 9590SOL    HW129669   0.219   3.449   5.005 -0.3690 -0.5011 -1.4447
 9590SOL    HW229670   0.340   3.342   5.032 -0.9117 -0.8807 -0.4672
 9591SOL     OW29671   3.312   4.062   3.068  0.1049 -0.2315 -0.6275
 9591SOL    HW129672   3.360   4.053   3.155 -0.4233 -1.5873 -0.4574
 9591SOL    HW229673   3.217   4.030   3.078  0.2683 -1.2113 -1.8936
 9592SOL     OW29674   6.234   6.083   3.738  0.1421  0.3023  0.2496
 9592SOL    HW129675   6.266   5.989   3.727  0.6222  0.3561  1.0617
 9592SOL    HW229676   6.137   6.088   3.716  0.2197 -0.2826 -0.2656
 9593SOL     OW29677   2.356   5.193   0.249  0.2141  0.1522  0.2340
 9593SOL    HW129678   2.356   5.292   0.231  2.1771 -0.1183 -1.5989
 9593SOL    HW229679   2.316   5.145   0.171 -1.8722 -0.4942  1.6312
 9594SOL     OW29680   4.432   5.004   2.702 -0.3537 -0.2843  0.0899
 9594SOL    HW129681   4.338   4.971   2.697 -0.7523  0.8932 -0.5071
 9594SOL    HW229682   4.447   5.049   2.790 -0.1673 -0.9392  0.4063
 9595SOL     OW29683   4.612   6.536   2.757  0.1026  0.0565  0.2385
 9595SOL    HW129684   4.522   6.578   2.754  0.0847 -0.0115 -1.0349
 9595SOL    HW229685   4.681   6.604   2.731  0.6693  0.6332  3.0094
 9596SOL     OW29686   1.017   3.563   6.592  0.1817 -0.0495  0.1957
 9596SOL    HW129687   0.928   3.535   6.627 -0.4484 -1.1843 -2.1222
 9596SOL    HW229688   1.075   3.483   6.580 -0.0268  0.1056 -2.2545
 9597SOL     OW29689   3.437   3.659   4.283 -0.1302 -0.1483  0.4003
 9597SOL    HW129690   3.516   3.667   4.343  0.1053 -0.5086  0.1483
 9597SOL    HW229691   3.450   3.719   4.203  0.7291 -1.4894 -0.5219
 9598SOL     OW29692   4.979   3.386   0.270 -0.0862 -0.4426 -0.2524
 9598SOL    HW129693   5.068   3.410   0.231  0.1231 -0.9167 -0.0672
 9598SOL    HW229694   4.943   3.304   0.224  1.0071 -2.1272  1.7635
 9599SOL     OW29695   6.787   4.841   1.228 -0.8987  0.3521  0.6753
 9599SOL    HW129696   6.876   4.885   1.235 -0.7220 -0.0240  0.7972
 9599SOL    HW229697   6.797   4.750   1.188 -1.3709  0.7767 -0.4636
 9600SOL     OW29698   3.789   6.761   4.130 -0.0561 -0.2776 -0.5422
 9600SOL    HW129699   3.773   6.810   4.216 -0.3587  0.1234 -0.8233
 9600SOL    HW229700   3.729   6.681   4.127 -1.1415  0.5211 -1.0257
 9601SOL     OW29701   4.757   3.484   0.639 -0.1249  0.5247  0.2238
 9601SOL    HW129702   4.822   3.559   0.643 -0.6519  1.2113 -2.2199
 9601SOL    HW229703   4.716   3.470   0.729  1.7355  1.5295  1.2877
 9602SOL     OW29704   6.950   3.007   1.249 -0.1238  0.6688  0.0735
 9602SOL    HW129705   7.027   2.949   1.222 -0.9532  0.4501 -2.0151
 9602SOL    HW229706   6.946   3.087   1.188 -1.6494  0.5615  0.0063
 9603SOL     OW29707   5.212   5.368   6.300 -0.0928  0.3407 -0.7281
 9603SOL    HW129708   5.291   5.429   6.302  1.0505 -1.0987 -0.7696
 9603SOL    HW229709   5.154   5.386   6.380  1.2136  0.2232  0.2769
 9604SOL     OW29710   3.155   5.604   2.099  0.1496 -0.1772  0.4576
 9604SOL    HW129711   3.162   5.618   2.197 -1.9595  2.8345  0.3354
 9604SOL    HW229712   3.240   5.631   2.054 -0.0885  2.0307  1.2457
 9605SOL     OW29713   6.571   0.112   2.931  0.2879 -0.1098 -0.3258
 9605SOL    HW129714   6.587   0.202   2.890 -0.8240 -0.5894 -1.8769
 9605SOL    HW229715   6.529   0.125   3.021  0.9635  0.9226 -0.1344
 9606SOL     OW29716   5.926   5.259   0.952  0.6627 -0.2657  0.1177
 9606SOL    HW129717   5.901   5.169   0.987  0.7254 -0.0704  0.6780
 9606SOL    HW229718   5.985   5.249   0.871  2.0712 -0.7446  1.1640
 9607SOL     OW29719   0.749   1.193   4.682 -0.0085  0.2914  0.1969
 9607SOL    HW129720   0.763   1.112   4.624  1.9654 -0.5020  1.6823
 9607SOL    HW229721   0.838   1.233   4.705 -0.8434  1.5762  1.3080
 9608SOL     OW29722   5.529   5.626   3.092  0.0267 -0.1837 -0.4829
 9608SOL    HW129723   5.626   5.649   3.088  0.1382 -0.4162  0.5009
 9608SOL    HW229724   5.491   5.624   3.000  1.0466 -0.4718 -0.9111
 9609SOL     OW29725   5.062   1.541   6.647 -0.2722 -0.1642  0.2660
 9609SOL    HW129726   5.141   1.482   6.666 -1.2927 -2.0487 -1.0897
 9609SOL    HW229727   5.019   1.567   6.734  0.4656 -1.0458  0.9179
 9610SOL     OW29728   1.871   4.423   4.853 -0.5712 -0.7016 -0.6623
 9610SOL    HW129729   1.873   4.361   4.931 -1.4549  0.1618  0.0670
 9610SOL    HW229730   1.899   4.514   4.882 -0.6899 -0.4258 -1.4035
 9611SOL     OW29731   5.959   3.842   0.734 -0.7213 -0.1345 -0.0825
 9611SOL    HW129732   5.893   3.917   0.723 -0.3284  0.6750  2.3104
 9611SOL    HW229733   5.961   3.815   0.830  2.3325 -0.2110 -0.0819
 9612SOL     OW29734   1.444   1.630   6.977  0.8002 -0.1049  0.8379
 9612SOL    HW129735   1.482   1.692   7.046 -0.7480  2.3029 -0.3252
 9612SOL    HW229736   1.467   1.664   6.886  0.5163 -1.7191  0.1294
 9613SOL     OW29737   2.521   6.136   6.889  0.4764  0.1719  0.8055
 9613SOL    HW129738   2.425   6.155   6.868  0.4228 -2.0508 -1.4202
 9613SOL    HW229739   2.552   6.198   6.962 -2.0210  2.3478  0.1826
 9614SOL     OW29740   5.004   2.182   3.936 -0.5935 -0.6019  0.3125
 9614SOL    HW129741   5.000   2.276   3.971 -1.2308 -0.6161  0.2907
 9614SOL    HW229742   5.015   2.119   4.013 -1.2240 -0.5797  0.4246
 9615SOL     OW29743   2.190   4.517   5.450 -0.0611 -0.1625  0.5205
 9615SOL    HW129744   2.149   4.427   5.466  1.5176 -0.5723  2.5745
 9615SOL    HW229745   2.121   4.588   5.467 -0.4906 -0.8916  2.0351
 9616SOL     OW29746   1.547   3.132   4.046  0.3412  0.1981 -0.0091
 9616SOL    HW129747   1.619   3.087   4.099  0.4977  0.6416  0.1593
 9616SOL    HW229748   1.512   3.069   3.977 -0.7042 -0.8173  1.3850
 9617SOL     OW29749   1.471   3.275   0.481 -0.6272 -0.2052 -0.2636
 9617SOL    HW129750   1.373   3.258   0.489 -1.0051  2.1890  1.0097
 9617SOL    HW229751   1.521   3.190   0.498 -2.4046 -1.0526  1.0027
 9618SOL     OW29752   0.565   1.765   2.135 -0.0328 -0.2350 -0.1385
 9618SOL    HW129753   0.494   1.836   2.137  0.0567 -0.1366 -0.3921
 9618SOL    HW229754   0.591   1.741   2.228 -0.9138 -0.7870 -0.0230
 9619SOL     OW29755   1.883   0.224   6.354 -0.1074  0.3130  0.2072
 9619SOL    HW129756   1.808   0.212   6.290  1.6319 -1.2746 -1.6953
 9619SOL    HW229757   1.870   0.166   6.434 -0.9641  0.1825 -0.0267
 9620SOL     OW29758   0.152   6.733   1.849  0.0302  0.1360  0.2975
 9620SOL    HW129759   0.054   6.748   1.858  0.1192  0.0735  1.5628
 9620SOL    HW229760   0.172   6.697   1.757 -1.5170 -2.7904  0.9777
 9621SOL     OW29761   5.363   0.619   4.112 -0.8372  0.2338 -0.2435
 9621SOL    HW129762   5.392   0.711   4.089 -2.2125  1.5360  2.6263
 9621SOL    HW229763   5.278   0.597   4.063 -0.2456  0.2691 -1.3023
 9622SOL     OW29764   0.838   5.913   2.726 -0.1838 -0.3272 -0.1554
 9622SOL    HW129765   0.824   5.842   2.657 -2.2321 -0.6670  0.5396
 9622SOL    HW229766   0.934   5.939   2.728  0.0902 -0.9351 -2.4993
 9623SOL     OW29767   1.045   4.340   5.145  0.3588  0.3320  0.0241
 9623SOL    HW129768   0.981   4.400   5.095 -2.4085 -2.3148  0.0557
 9623SOL    HW229769   1.122   4.318   5.086 -1.4367 -0.5119 -2.1607
 9624SOL     OW29770   3.628   0.704   6.533 -0.5179 -0.6856 -0.2261
 9624SOL    HW129771   3.689   0.714   6.454  0.3097 -0.7220  0.3983
 9624SOL    HW229772   3.623   0.791   6.582 -0.9039 -0.7095 -0.2176
 9625SOL     OW29773   6.001   3.439   0.661  0.2448 -0.1651  0.0474
 9625SOL    HW129774   6.017   3.350   0.619 -1.5242 -1.1849  1.3999
 9625SOL    HW229775   6.039   3.510   0.602  2.6615 -1.8327 -0.5585
 9626SOL     OW29776   3.751   6.114   5.822  1.1687 -0.2608  0.2730
 9626SOL    HW129777   3.792   6.145   5.908 -2.4345  0.7988  1.8078
 9626SOL    HW229778   3.745   6.192   5.759 -1.6748  0.6459  1.5128
 9627SOL     OW29779   4.048   6.590   5.912 -0.2980  0.1756 -0.4724
 9627SOL    HW129780   4.133   6.578   5.963 -0.1367  0.8665 -0.5761
 9627SOL    HW229781   4.036   6.513   5.849  0.0315 -0.1444 -0.1488
 9628SOL     OW29782   1.051   0.260   5.171 -0.0069  0.5394  0.1248
 9628SOL    HW129783   1.077   0.324   5.098  0.7315 -0.8692 -0.8860
 9628SOL    HW229784   0.971   0.297   5.219 -1.0901  1.1224 -1.9702
 9629SOL     OW29785   0.084   4.715   3.743 -0.3536  0.6205  0.1961
 9629SOL    HW129786   0.096   4.714   3.643  2.2338 -0.4753  0.4485
 9629SOL    HW229787   0.002   4.664   3.767 -0.7050  0.4094 -1.3345
 9630SOL     OW29788   1.429   4.038   4.898  0.0037  0.3722  0.2878
 9630SOL    HW129789   1.496   4.103   4.936  1.1448 -1.8636  2.3733
 9630SOL    HW229790   1.470   3.947   4.893 -1.1337 -0.1042 -3.7245
 9631SOL     OW29791   5.042   0.559   4.125 -0.0518 -0.5939 -0.3519
 9631SOL    HW129792   5.069   0.468   4.093  0.4541 -1.2085  1.7190
 9631SOL    HW229793   4.944   0.572   4.106 -0.0836 -1.4627 -0.8679
 9632SOL     OW29794   2.163   2.794   6.607 -0.4992  0.3167 -0.5045
 9632SOL    HW129795   2.253   2.836   6.610  1.2025 -2.9983  3.6903
 9632SOL    HW229796   2.168   2.706   6.560 -1.5049 -0.0689  0.0718
 9633SOL     OW29797   1.432   5.277   2.372 -0.3100 -0.0426  0.4153
 9633SOL    HW129798   1.489   5.279   2.454  1.7603  1.0858 -0.9629
 9633SOL    HW229799   1.340   5.309   2.395  0.4876  1.1532  2.1336
 9634SOL     OW29800   0.617   4.784   6.111 -0.6021 -0.4248 -0.1466
 9634SOL    HW129801   0.524   4.811   6.135 -0.2970  0.1652  0.3770
 9634SOL    HW229802   0.635   4.692   6.146 -0.6778 -0.1735  0.5690
 9635SOL     OW29803   2.671   2.037   1.443  0.4726 -0.5557  0.4854
 9635SOL    HW129804   2.585   2.086   1.433  1.0798  0.5582  0.6427
 9635SOL    HW229805   2.702   2.043   1.537 -0.2063 -2.5772  0.8922
 9636SOL     OW29806   3.205   3.707   1.400  0.3408 -0.1074 -0.3494
 9636SOL    HW129807   3.239   3.633   1.459  1.8264  1.0515  0.3263
 9636SOL    HW229808   3.252   3.704   1.312 -0.4117 -0.6314 -0.7354
 9637SOL     OW29809   1.902   6.093   2.167 -0.3957 -0.0057  0.6036
 9637SOL    HW129810   1.874   6.133   2.080 -1.3721 -0.2881  0.7792
 9637SOL    HW229811   1.839   6.122   2.239  0.2684  0.0405  1.1758
 9638SOL     OW29812   6.176   2.210   3.467 -0.0786  0.1817  0.4606
 9638SOL    HW129813   6.265   2.202   3.423  0.0249  2.2123  0.1950
 9638SOL    HW229814   6.107   2.237   3.400 -0.6119  0.0361  0.9392
 9639SOL     OW29815   4.384   5.771   2.520  0.8152  0.0397  0.2024
 9639SOL    HW129816   4.309   5.709   2.545  0.8410  0.1314  0.5107
 9639SOL    HW229817   4.430   5.803   2.603  0.0336  1.4358  0.1289
 9640SOL     OW29818   6.295   6.813   4.839 -0.1708  0.2477 -0.4589
 9640SOL    HW129819   6.380   6.844   4.881 -0.5861  1.6530 -0.6081
 9640SOL    HW229820   6.247   6.890   4.799 -0.3354 -0.8878 -2.5788
 9641SOL     OW29821   2.071   3.928   0.581 -0.5198 -0.8446  0.0069
 9641SOL    HW129822   2.089   3.998   0.650  1.8341  0.3067 -1.6595
 9641SOL    HW229823   2.145   3.861   0.582 -1.2503 -1.6761 -0.3910
 9642SOL     OW29824   6.831   1.256   3.921  0.1234 -0.4486  0.1256
 9642SOL    HW129825   6.779   1.285   4.001  1.0791  3.1700 -0.3979
 9642SOL    HW229826   6.769   1.219   3.852 -1.0874 -0.7158  1.3228
 9643SOL     OW29827   3.691   3.303   6.217 -0.6395  0.0536 -0.0945
 9643SOL    HW129828   3.691   3.403   6.221 -1.5684  0.1769 -1.9597
 9643SOL    HW229829   3.656   3.266   6.303 -1.1796  1.3768  0.2760
 9644SOL     OW29830   0.578   4.982   3.566  0.2224 -0.6628  0.1060
 9644SOL    HW129831   0.633   5.065   3.569  1.1300 -1.1558 -1.3577
 9644SOL    HW229832   0.483   5.002   3.591  0.1841  1.0374 -1.2585
 9645SOL     OW29833   5.943   0.748   3.221 -0.3366 -0.4356  0.6633
 9645SOL    HW129834   5.997   0.832   3.232 -2.0854  0.7257  0.8895
 9645SOL    HW229835   5.919   0.712   3.311 -1.5791  0.2100  0.6155
 9646SOL     OW29836   2.806   1.709   5.772  0.4160  0.3330  0.2575
 9646SOL    HW129837   2.905   1.724   5.772  0.4981  0.2757 -2.5429
 9646SOL    HW229838   2.775   1.688   5.679 -2.4653  1.7824  0.7680
 9647SOL     OW29839   2.192   6.763   2.184 -0.1555 -1.0838 -0.5415
 9647SOL    HW129840   2.276   6.800   2.224 -0.0430 -2.2916  0.3899
 9647SOL    HW229841   2.137   6.721   2.256 -2.7517  1.7703 -0.6780
 9648SOL     OW29842   5.555   3.479   1.561 -0.1470 -0.0233  0.3728
 9648SOL    HW129843   5.469   3.528   1.578  0.2397  0.3498  1.3331
 9648SOL    HW229844   5.569   3.471   1.462 -2.0660 -1.5181  0.1729
 9649SOL     OW29845   3.962   5.489   4.623  0.0670  0.2497  0.2847
 9649SOL    HW129846   4.020   5.480   4.543 -2.5283 -0.5203 -1.6335
 9649SOL    HW229847   3.962   5.403   4.674  0.0180 -0.0011 -0.1333
 9650SOL     OW29848   1.453   4.336   3.719  0.0116  0.4812 -0.9696
 9650SOL    HW129849   1.393   4.367   3.794 -0.1518 -1.0040 -0.4495
 9650SOL    HW229850   1.469   4.238   3.728  1.0158  0.5099 -2.1936
 9651SOL     OW29851   3.391   1.016   1.934  0.6712  0.7801  0.1334
 9651SOL    HW129852   3.407   1.114   1.925  0.1790  0.7376 -1.7033
 9651SOL    HW229853   3.365   0.978   1.845  0.6948 -0.9961  0.8318
 9652SOL     OW29854   6.931   0.777   6.188  0.2113  0.1761 -0.0962
 9652SOL    HW129855   6.935   0.745   6.282 -1.0857  0.9040  0.2384
 9652SOL    HW229856   7.011   0.745   6.138  0.6725 -0.6285  1.1180
 9653SOL     OW29857   5.177   1.698   1.790 -1.2018  0.1278 -0.0770
 9653SOL    HW129858   5.132   1.661   1.871 -0.3587  0.1794  0.4304
 9653SOL    HW229859   5.238   1.629   1.751  1.6073  1.3599  1.7965
 9654SOL     OW29860   5.143   2.090   5.005  0.4643  0.2550 -0.0526
 9654SOL    HW129861   5.181   2.154   5.071  1.2362 -0.8197  0.5746
 9654SOL    HW229862   5.142   2.132   4.914  1.2923  1.0239  0.2803
 9655SOL     OW29863   0.718   2.576   4.332  0.0453 -0.1928 -0.1283
 9655SOL    HW129864   0.731   2.648   4.264 -0.4203  0.5002  0.4940
 9655SOL    HW229865   0.767   2.600   4.416 -0.4361 -0.3952  0.2193
 9656SOL     OW29866   0.155   5.305   5.346  0.6863  0.0402  0.3239
 9656SOL    HW129867   0.191   5.396   5.367  0.2291  0.3751 -0.3037
 9656SOL    HW229868   0.058   5.302   5.370  0.9121 -0.5853  1.2115
 9657SOL     OW29869   1.597   0.774   4.139  0.4041  0.0677 -0.3585
 9657SOL    HW129870   1.658   0.853   4.141  0.6578 -0.1181 -0.6711
 9657SOL    HW229871   1.647   0.692   4.167 -0.3612  0.3311  1.9846
 9658SOL     OW29872   3.435   0.995   3.316 -0.1171 -0.2878  0.1202
 9658SOL    HW129873   3.438   1.005   3.217  2.6073  1.3167  0.2565
 9658SOL    HW229874   3.518   1.034   3.356 -1.7339  0.3653  3.1651
 9659SOL     OW29875   4.338   6.652   0.933  0.0315  0.1687 -0.4008
 9659SOL    HW129876   4.410   6.622   0.870  0.6657 -1.9011  1.1713
 9659SOL    HW229877   4.376   6.716   0.999  0.2236 -0.2851 -0.0710
 9660SOL     OW29878   4.200   4.722   2.308  0.0502 -0.6070 -0.1137
 9660SOL    HW129879   4.225   4.712   2.404 -2.0720  1.1011  0.7114
 9660SOL    HW229880   4.181   4.632   2.269 -0.0348 -1.2604  1.3689
 9661SOL     OW29881   3.859   0.364   4.389 -0.0412  0.2987 -0.1171
 9661SOL    HW129882   3.818   0.452   4.415  0.3558 -0.1015  2.1396
 9661SOL    HW229883   3.958   0.369   4.400 -0.1472 -0.9577  2.1078
 9662SOL     OW29884   5.167   6.372   4.635  0.4414  0.5478  0.2597
 9662SOL    HW129885   5.180   6.471   4.643  1.9093  0.3949  0.1183
 9662SOL    HW229886   5.212   6.340   4.552 -0.0379 -0.2484  0.2991
 9663SOL     OW29887   2.292   2.269   4.007 -0.3942  0.1756 -0.5108
 9663SOL    HW129888   2.365   2.217   3.962 -1.2422 -0.2576 -1.4311
 9663SOL    HW229889   2.319   2.290   4.101  0.8279 -0.1351 -0.7747
 9664SOL     OW29890   6.927   3.268   5.173  0.6109  0.3698 -0.3557
 9664SOL    HW129891   6.870   3.187   5.185  1.2648 -0.0128  0.2196
 9664SOL    HW229892   6.926   3.295   5.076  1.7156 -1.3410 -0.8935
 9665SOL     OW29893   5.000   5.513   3.752 -0.4379  0.2235  0.0036
 9665SOL    HW129894   5.087   5.517   3.703  0.1856 -3.1655  0.6074
 9665SOL    HW229895   4.933   5.464   3.698 -0.7561 -0.6300  1.1382
 9666SOL     OW29896   0.121   4.560   2.686 -0.2017  0.3510  0.0307
 9666SOL    HW129897   0.205   4.593   2.642  0.9015 -1.7104  0.4106
 9666SOL    HW229898   0.053   4.539   2.617  0.4246 -0.0316 -0.4871
 9667SOL     OW29899   0.304   5.035   3.663 -0.3785 -0.3632 -0.3298
 9667SOL    HW129900   0.265   4.987   3.585  0.3557  0.4204 -1.2023
 9667SOL    HW229901   0.284   5.133   3.656 -2.0178 -0.4941  1.5185
 9668SOL     OW29902   5.732   4.465   4.431  0.6934 -0.3174 -0.0649
 9668SOL    HW129903   5.787   4.416   4.498 -1.0483 -0.7006  1.1324
 9668SOL    HW229904   5.667   4.525   4.478 -0.8016 -0.8412 -1.3828
 9669SOL     OW29905   2.574   4.103   5.376 -0.3073 -0.2417  0.2500
 9669SOL    HW129906   2.512   4.121   5.452 -0.8748 -1.7149  0.1623
 9669SOL    HW229907   2.522   4.080   5.294  0.3280  0.2201 -0.3019
 9670SOL     OW29908   1.936   0.016   4.709  0.3090  0.4577  0.6078
 9670SOL    HW129909   1.971   0.110   4.704 -0.6547  0.8401  0.9399
 9670SOL    HW229910   2.007  -0.047   4.678  0.0396  1.4803 -2.3820
 9671SOL     OW29911   1.847   4.984   1.972 -0.1562  0.6369 -0.2462
 9671SOL    HW129912   1.887   4.933   1.896  0.3929 -0.3045  0.6353
 9671SOL    HW229913   1.747   4.980   1.966 -0.1226 -0.4464 -0.2858
 9672SOL     OW29914   6.199   6.969   3.586 -0.2857  0.0493  0.4186
 9672SOL    HW129915   6.282   6.954   3.639 -0.2013  0.7494  0.4901
 9672SOL    HW229916   6.209   6.927   3.496  1.1999  2.3598 -0.5625
 9673SOL     OW29917   0.425   6.538   6.028  0.2596 -0.0278 -0.5659
 9673SOL    HW129918   0.495   6.591   6.075  1.0886 -1.5951  0.0519
 9673SOL    HW229919   0.406   6.455   6.080 -3.7772  1.3758  0.5247
 9674SOL     OW29920   0.714   6.424   4.687  0.3032  0.3121 -0.3397
 9674SOL    HW129921   0.656   6.487   4.739  0.7199 -0.4979  1.1476
 9674SOL    HW229922   0.802   6.413   4.733  0.4278 -0.9726 -0.8333
 9675SOL     OW29923   7.008   5.750   5.194 -0.7193 -0.2806  0.1378
 9675SOL    HW129924   6.954   5.721   5.274 -0.1580 -1.0075  0.2624
 9675SOL    HW229925   7.105   5.746   5.216 -0.5015 -1.6242 -0.9451
 9676SOL     OW29926   5.328   1.502   2.613  0.2744  0.3942 -0.1172
 9676SOL    HW129927   5.413   1.448   2.608  0.3426  0.4738  0.1666
 9676SOL    HW229928   5.285   1.488   2.702  1.2185  2.1707  0.6953
 9677SOL     OW29929   1.915   0.027   5.621 -0.2925 -0.0164 -0.4050
 9677SOL    HW129930   1.881   0.121   5.629  0.3140  0.0738  3.9754
 9677SOL    HW229931   2.015   0.028   5.632 -0.1614 -1.1080 -1.3943
 9678SOL     OW29932   6.952   1.549   1.445  0.4858 -0.1906  0.1998
 9678SOL    HW129933   7.010   1.590   1.374  0.0052 -0.6005 -0.4453
 9678SOL    HW229934   6.937   1.615   1.518 -0.3486  0.8349 -0.8535
 9679SOL     OW29935   1.666   2.521   1.273 -0.0704  0.4856 -0.3387
 9679SOL    HW129936   1.713   2.438   1.243 -0.2697 -0.1513  0.9971
 9679SOL    HW229937   1.714   2.560   1.352 -0.8484  0.7498  0.0183
 9680SOL     OW29938   6.277   4.323   6.716  0.4993  0.0924 -0.3515
 9680SOL    HW129939   6.209   4.385   6.677 -2.4718 -2.4402  0.3397
 9680SOL    HW229940   6.320   4.270   6.643  0.2861  0.3841 -0.6899
 9681SOL     OW29941   1.104   5.503   3.215  0.1699 -0.4304  0.5701
 9681SOL    HW129942   1.146   5.446   3.144 -0.9524  0.5676 -0.9454
 9681SOL    HW229943   1.174   5.559   3.259  0.4553  1.5310 -2.1973
 9682SOL     OW29944   1.138   3.145   2.933 -0.2045  0.4390 -0.0274
 9682SOL    HW129945   1.213   3.086   2.903 -0.1485 -0.8265  2.3509
 9682SOL    HW229946   1.062   3.088   2.964 -0.5289  1.6169  1.4541
 9683SOL     OW29947   5.077   5.663   4.586  0.3292 -0.1000 -0.1241
 9683SOL    HW129948   5.102   5.579   4.633  1.8915  1.6780  2.4392
 9683SOL    HW229949   5.158   5.706   4.547 -0.3364  0.6325 -0.7569
 9684SOL     OW29950   6.382   6.531   1.982 -0.5146 -0.8264  0.1142
 9684SOL    HW129951   6.365   6.621   2.024 -1.0066 -1.1070  0.5252
 9684SOL    HW229952   6.348   6.459   2.043 -0.3216 -1.2832 -0.3144
 9685SOL     OW29953   4.287   0.148   5.671  0.9169 -0.2553  0.1014
 9685SOL    HW129954   4.360   0.133   5.604  0.8139  0.6672 -0.2409
 9685SOL    HW229955   4.220   0.210   5.632 -0.5701 -1.8355  0.0479
 9686SOL     OW29956   4.255   4.204   6.034  0.2837 -0.2728  0.5459
 9686SOL    HW129957   4.355   4.198   6.024  0.3843  1.0275  0.5264
 9686SOL    HW229958   4.219   4.269   5.968 -0.6136 -0.8509  0.4508
 9687SOL     OW29959   2.320   6.152   4.965  0.3931 -0.1139 -0.0154
 9687SOL    HW129960   2.226   6.137   4.934 -0.2203 -0.7243  1.9715
 9687SOL    HW229961   2.325   6.239   5.013  1.0279  0.2666 -0.7675
 9688SOL     OW29962   6.602   6.667   4.710 -0.3312  0.3121  0.3524
 9688SOL    HW129963   6.690   6.673   4.663 -1.8737 -1.0237 -3.0119
 9688SOL    HW229964   6.595   6.580   4.758 -0.0984  0.1000 -0.0000
 9689SOL     OW29965   6.606   4.333   0.137  0.1220  0.1548  0.7797
 9689SOL    HW129966   6.676   4.270   0.171 -1.8474 -1.1955  2.6988
 9689SOL    HW229967   6.515   4.294   0.156 -1.1746  2.1532 -0.8968
 9690SOL     OW29968   6.957   3.255   4.041 -0.2025 -0.1223  0.1689
 9690SOL    HW129969   7.033   3.260   3.976  0.6342  1.4754  1.2032
 9690SOL    HW229970   6.970   3.177   4.102  1.6757  1.1786  1.5377
 9691SOL     OW29971   3.135   0.435   6.729 -0.6264 -0.1773  0.2458
 9691SOL    HW129972   3.082   0.487   6.797  0.4188  1.5043 -0.1814
 9691SOL    HW229973   3.233   0.453   6.742 -0.4003  0.1454 -1.6766
 9692SOL     OW29974   6.467   2.739   6.935  0.2471 -0.1408  0.1794
 9692SOL    HW129975   6.533   2.815   6.933  1.2352 -0.9113  1.6084
 9692SOL    HW229976   6.469   2.691   6.847  0.9101  0.4071 -0.1170
 9693SOL     OW29977   5.099   2.209   4.757 -0.0506 -0.3519 -0.6109
 9693SOL    HW129978   5.002   2.223   4.737 -0.5297 -0.9967  1.0339
 9693SOL    HW229979   5.154   2.231   4.676 -1.4945  0.7706 -1.3369
 9694SOL     OW29980   2.380   1.513   5.744 -0.2551 -0.4575  0.2356
 9694SOL    HW129981   2.299   1.528   5.800  0.3630 -1.3683  1.4059
 9694SOL    HW229982   2.462   1.542   5.794  0.2509 -0.6627 -0.4523
 9695SOL     OW29983   6.341   4.224   0.239  0.6588  0.0320  0.0891
 9695SOL    HW129984   6.314   4.203   0.145  0.4894  1.0324 -0.1005
 9695SOL    HW229985   6.320   4.146   0.298 -1.5563  0.2833 -0.2775
 9696SOL     OW29986   1.885   5.317   0.424 -0.0923  0.1384 -0.2514
 9696SOL    HW129987   1.870   5.362   0.336 -1.0598 -1.3839 -0.9004
 9696SOL    HW229988   1.957   5.365   0.474  1.0755  0.5534 -2.2274
 9697SOL     OW29989   1.453   4.481   1.183 -0.5135 -0.7536  0.8529
 9697SOL    HW129990   1.468   4.548   1.256  1.8821 -0.2458  0.0100
 9697SOL    HW229991   1.538   4.430   1.167 -1.1550 -1.3025 -1.1230
 9698SOL     OW29992   3.927   4.668   0.896  0.0777  0.3100 -0.1115
 9698SOL    HW129993   3.923   4.762   0.929  0.7037  0.6057 -0.8364
 9698SOL    HW229994   3.837   4.625   0.906 -0.2315  1.0072  0.1608
 9699SOL     OW29995   2.968   4.008   1.277 -0.3491  0.1221 -0.3349
 9699SOL    HW129996   3.053   4.040   1.235 -0.5122 -0.0953 -0.8414
 9699SOL    HW229997   2.972   4.024   1.375  1.2307 -1.9259  0.0045
 9700SOL     OW29998   3.804   5.946   5.411 -0.6138  0.3963  0.3294
 9700SOL    HW129999   3.719   5.941   5.357 -0.2029  1.8627 -0.5230
 9700SOL    HW230000   3.793   5.894   5.496 -2.0252 -0.2268 -0.2012
 9701SOL     OW30001   1.940   1.080   3.864  0.2324  0.2807  0.1958
 9701SOL    HW130002   2.002   1.012   3.903 -1.6846 -1.1954  0.8142
 9701SOL    HW230003   1.912   1.050   3.773  1.7889  1.8595 -0.8586
 9702SOL     OW30004   1.184   6.827   4.797  0.4628 -0.0456 -0.0524
 9702SOL    HW130005   1.230   6.907   4.758 -0.7810  0.1685 -1.1676
 9702SOL    HW230006   1.171   6.840   4.895 -0.3901  1.4800 -0.3409
 9703SOL     OW30007   1.565   2.719   1.124  0.0669  0.1517 -0.3226
 9703SOL    HW130008   1.538   2.683   1.035 -1.5781  0.0136  0.1885
 9703SOL    HW230009   1.596   2.644   1.182 -0.8220 -0.0780 -0.1273
 9704SOL     OW30010   3.712   1.405   2.649  0.3147  0.1955 -0.0577
 9704SOL    HW130011   3.796   1.459   2.653  0.0930  0.5490 -0.1828
 9704SOL    HW230012   3.736   1.308   2.647  0.6931  0.1896  2.0266
 9705SOL     OW30013   6.318   4.169   0.589 -0.0409 -0.4852  0.4885
 9705SOL    HW130014   6.266   4.152   0.672 -0.0876 -0.4566  0.4651
 9705SOL    HW230015   6.406   4.122   0.595 -0.5304 -1.4871  0.0437
 9706SOL     OW30016   1.980   1.347   3.751  0.4899  0.1520 -0.2311
 9706SOL    HW130017   1.908   1.415   3.737  1.0808  0.5714 -1.3492
 9706SOL    HW230018   1.940   1.262   3.786 -0.2637  1.0349  1.0930
 9707SOL     OW30019   6.417   2.978   3.270 -0.4943  0.1818 -0.3524
 9707SOL    HW130020   6.357   3.045   3.225 -1.2116 -0.4484 -0.3566
 9707SOL    HW230021   6.409   2.890   3.224 -0.5229 -0.2340  0.4248
 9708SOL     OW30022   1.307   6.395   5.232  0.0441  0.3054  0.3181
 9708SOL    HW130023   1.213   6.370   5.257  0.1584 -0.5020 -0.0622
 9708SOL    HW230024   1.370   6.361   5.302  0.2872 -1.2868 -0.6330
 9709SOL     OW30025   6.615   4.793   4.168 -0.5360 -0.3847  0.3424
 9709SOL    HW130026   6.553   4.837   4.234  0.3202 -0.6687  1.3723
 9709SOL    HW230027   6.708   4.795   4.204  0.2539  0.9062 -1.6169
 9710SOL     OW30028   6.570   0.193   4.298  0.1562 -0.0278  0.3352
 9710SOL    HW130029   6.622   0.222   4.379 -0.5617  0.7788  0.5185
 9710SOL    HW230030   6.474   0.219   4.308  0.3803  1.7676 -1.5708
 9711SOL     OW30031   3.984   2.984   0.993 -0.6324 -0.1521  0.9530
 9711SOL    HW130032   3.956   3.062   1.049 -1.0045 -0.2012  0.8367
 9711SOL    HW230033   4.082   2.968   1.005 -0.4059  0.7868  0.4063
 9712SOL     OW30034   2.732   4.730   0.932  0.1734 -0.4909 -0.4175
 9712SOL    HW130035   2.732   4.659   1.002  0.4044 -0.3119 -0.2312
 9712SOL    HW230036   2.815   4.786   0.941 -0.4633  0.4063  0.0665
 9713SOL     OW30037   0.575   6.286   6.605  0.6002  0.0753  0.3769
 9713SOL    HW130038   0.627   6.253   6.683  0.0530 -0.9709  0.3150
 9713SOL    HW230039   0.482   6.311   6.633  0.4331 -0.2045  0.0884
 9714SOL     OW30040   6.783   0.658   3.277 -0.3754  0.0521 -0.0183
 9714SOL    HW130041   6.821   0.570   3.249  1.8911  0.5209  1.2352
 9714SOL    HW230042   6.858   0.724   3.289 -1.6706  1.3007  1.9046
 9715SOL     OW30043   1.689   4.372   3.175  0.1791  0.0330 -0.0310
 9715SOL    HW130044   1.591   4.379   3.196  0.1739 -0.0650 -0.0216
 9715SOL    HW230045   1.730   4.463   3.178 -0.0381  0.1593 -0.6524
 9716SOL     OW30046   0.562   4.846   6.794 -0.0985  0.2049 -0.1635
 9716SOL    HW130047   0.566   4.945   6.808  0.1031  0.1140  0.4537
 9716SOL    HW230048   0.635   4.802   6.846 -1.3412 -0.4231  1.1279
 9717SOL     OW30049   0.778   4.188   4.071  0.1133 -0.1530 -0.2146
 9717SOL    HW130050   0.813   4.198   4.164 -2.8368 -1.0705  1.1211
 9717SOL    HW230051   0.819   4.257   4.012  1.7467  0.7374  1.8289
 9718SOL     OW30052   2.716   6.701   2.988 -0.5359  0.3111 -0.2184
 9718SOL    HW130053   2.644   6.637   2.963  0.1999 -1.6476  2.1911
 9718SOL    HW230054   2.804   6.653   2.989  0.2945  1.7667  0.1339
 9719SOL     OW30055   4.358   0.076   3.397  0.0056  0.4624  1.0882
 9719SOL    HW130056   4.264   0.080   3.431 -0.0385 -0.2368  1.0607
 9719SOL    HW230057   4.384   0.165   3.360 -1.2352  0.2083 -0.4900
 9720SOL     OW30058   3.993   0.488   3.325  0.4103  0.0243 -0.8347
 9720SOL    HW130059   4.083   0.531   3.312 -0.4129  2.3298  0.4334
 9720SOL    HW230060   3.924   0.542   3.277 -0.8842  1.1328  2.0618
 9721SOL     OW30061   0.199   6.354   1.895 -0.2210 -0.6123 -0.1045
 9721SOL    HW130062   0.138   6.292   1.945  0.6397 -1.2329  0.2096
 9721SOL    HW230063   0.220   6.433   1.953 -0.3946 -0.5994 -0.0571
 9722SOL     OW30064   6.911   3.103   2.202  0.0516 -0.0632 -0.0417
 9722SOL    HW130065   6.928   3.176   2.268  2.8050  0.6224 -1.3422
 9722SOL    HW230066   6.941   3.016   2.239 -0.2910 -0.0174  0.3449
 9723SOL     OW30067   0.716   4.651   3.132 -0.1933  0.4092  0.0081
 9723SOL    HW130068   0.685   4.687   3.220 -1.0135  1.2979 -0.6168
 9723SOL    HW230069   0.769   4.568   3.146  0.7370  1.2133  1.4263
 9724SOL     OW30070   4.288   3.134   5.563  0.6500 -0.6351  0.4711
 9724SOL    HW130071   4.277   3.216   5.621 -2.4351  1.2773 -2.4388
 9724SOL    HW230072   4.336   3.159   5.479 -3.4663 -0.5857 -2.1615
 9725SOL     OW30073   3.015   0.005   1.811  0.2619  0.3760  0.0018
 9725SOL    HW130074   2.942   0.074   1.811  0.7890  0.9842  1.6394
 9725SOL    HW230075   3.102   0.048   1.788  0.0383 -0.5273 -2.9436
 9726SOL     OW30076   2.301   6.253   6.758 -0.9194 -0.1394 -0.3836
 9726SOL    HW130077   2.227   6.246   6.825  0.5865  0.8549  1.4526
 9726SOL    HW230078   2.286   6.334   6.701 -2.3267 -1.1158 -1.5073
 9727SOL     OW30079   5.968   3.522   5.161 -0.4265 -0.4111 -0.0981
 9727SOL    HW130080   6.066   3.536   5.175 -0.9254  0.7640  3.2156
 9727SOL    HW230081   5.952   3.430   5.124  1.8621 -1.0446  0.3245
 9728SOL     OW30082   6.507   4.946   1.141 -0.1739  0.2336 -0.3377
 9728SOL    HW130083   6.596   4.922   1.179 -0.0380  1.3394  0.0846
 9728SOL    HW230084   6.482   4.881   1.069  0.6577 -0.4784  0.0048
 9729SOL     OW30085   6.767   3.192   0.371  0.2624  0.0159 -0.4038
 9729SOL    HW130086   6.740   3.272   0.317  0.7204  1.7400  1.7451
 9729SOL    HW230087   6.694   3.123   0.368 -1.8853  2.0912  0.5766
 9730SOL     OW30088   6.703   3.403   0.236  0.0635 -0.4626  0.0443
 9730SOL    HW130089   6.759   3.479   0.202  0.0343  0.4192  1.8880
 9730SOL    HW230090   6.616   3.438   0.268  0.2653 -1.1865  1.4439
 9731SOL     OW30091   0.185   2.988   6.510 -0.0871 -0.3757  0.1255
 9731SOL    HW130092   0.151   3.035   6.591  0.9551  1.3365 -0.3731
 9731SOL    HW230093   0.108   2.967   6.449 -0.5752  1.1510  0.1579
 9732SOL     OW30094   6.038   2.228   2.366  0.8231 -0.2516  0.4045
 9732SOL    HW130095   6.108   2.160   2.388 -1.6055 -2.8955  0.6014
 9732SOL    HW230096   6.004   2.212   2.274  2.6031  3.0892 -0.9812
 9733SOL     OW30097   5.474   0.152   5.138 -0.0831 -0.3039 -0.8093
 9733SOL    HW130098   5.569   0.123   5.151  0.8466  2.0228 -1.9083
 9733SOL    HW230099   5.446   0.135   5.043 -0.6753 -0.6793 -0.5758
 9734SOL     OW30100   6.644   6.167   2.842 -0.0327 -0.4111 -0.2735
 9734SOL    HW130101   6.692   6.082   2.819 -0.4556 -0.5065 -0.8260
 9734SOL    HW230102   6.573   6.148   2.910 -0.0318 -0.4724 -0.2899
 9735SOL     OW30103   5.952   3.171   6.123  0.2532 -0.3379 -0.2083
 9735SOL    HW130104   5.951   3.094   6.187  0.1338  0.1138  0.3521
 9735SOL    HW230105   5.876   3.163   6.059 -0.5280 -0.0449  0.6474
 9736SOL     OW30106   6.789   1.387   1.265  0.1269 -0.1458  0.0690
 9736SOL    HW130107   6.862   1.337   1.217  1.6960  1.6961  0.4293
 9736SOL    HW230108   6.821   1.415   1.355 -1.2305  0.3027  0.4366
 9737SOL     OW30109   5.858   5.020   1.086 -0.1692 -0.1598  0.6878
 9737SOL    HW130110   5.797   5.036   1.164 -1.4400 -0.4699 -0.2117
 9737SOL    HW230111   5.829   4.938   1.037 -0.1819  0.7306 -0.8570
 9738SOL     OW30112   4.570   1.374   1.986 -0.2468  0.0829  0.7048
 9738SOL    HW130113   4.559   1.473   1.981 -1.5919 -0.0901 -2.4637
 9738SOL    HW230114   4.481   1.331   1.999  0.2826 -0.7514  1.7031
 9739SOL     OW30115   0.517   1.994   1.792 -0.0519  0.6648 -0.7985
 9739SOL    HW130116   0.438   1.957   1.743  0.5818 -3.2537  0.7339
 9739SOL    HW230117   0.514   2.093   1.792 -4.6102  0.7092 -1.3757
 9740SOL     OW30118   6.435   2.628   4.242  0.5456 -0.3053  0.9285
 9740SOL    HW130119   6.417   2.545   4.294  0.6756 -0.8781  0.0731
 9740SOL    HW230120   6.479   2.605   4.155  1.2554  0.7074  0.9918
 9741SOL     OW30121   4.827   2.654   2.767 -0.8625  0.4867  0.4355
 9741SOL    HW130122   4.925   2.668   2.754 -0.9019  1.3007  0.9375
 9741SOL    HW230123   4.786   2.737   2.804 -1.6217 -0.0790  0.9086
 9742SOL     OW30124   3.383   2.073   4.594  0.4108  0.0258  0.3419
 9742SOL    HW130125   3.367   2.140   4.666 -3.2521 -2.4202  2.1424
 9742SOL    HW230126   3.427   1.992   4.633  0.1639 -0.5822 -0.6081
 9743SOL     OW30127   1.045   2.328   6.198  0.2364 -0.1506 -0.1296
 9743SOL    HW130128   0.978   2.297   6.266  0.3885  0.4760  0.3137
 9743SOL    HW230129   1.000   2.388   6.131  0.7820  2.2921  1.5685
 9744SOL     OW30130   3.195   5.436   1.426  0.5832 -0.0535  0.1715
 9744SOL    HW130131   3.222   5.516   1.373  0.4331  0.1087  0.3391
 9744SOL    HW230132   3.098   5.441   1.448  0.0517 -1.3480 -1.6865
 9745SOL     OW30133   1.931   5.530   3.624 -0.5500  0.1246 -0.0846
 9745SOL    HW130134   1.878   5.445   3.631 -2.1185  0.8177 -2.2480
 9745SOL    HW230135   1.872   5.608   3.647 -0.5195  0.9116 -2.4078
 9746SOL     OW30136   6.101   4.714   3.076 -0.1740  0.1391 -0.2565
 9746SOL    HW130137   6.158   4.782   3.124 -0.9752  0.5438  0.1467
 9746SOL    HW230138   6.148   4.626   3.076 -0.3025  0.0295  1.6290
 9747SOL     OW30139   1.066   5.490   3.601  0.1970 -0.5288 -0.4970
 9747SOL    HW130140   1.024   5.548   3.672  0.0160 -1.1465 -0.0929
 9747SOL    HW230141   1.165   5.501   3.605  0.1448  0.0270 -0.6610
 9748SOL     OW30142   4.590   5.632   2.736 -0.1385  0.4953  0.0774
 9748SOL    HW130143   4.517   5.588   2.684  1.7192 -1.2353 -1.2366
 9748SOL    HW230144   4.573   5.622   2.833 -1.9016  0.6060 -0.1990
 9749SOL     OW30145   6.294   2.849   0.229 -0.3075  0.1494  0.2189
 9749SOL    HW130146   6.379   2.805   0.202  0.5003  2.2815 -0.8838
 9749SOL    HW230147   6.224   2.833   0.159 -1.0446 -1.9619  1.3209
 9750SOL     OW30148   3.538   3.367   4.875  0.3414 -0.1039  0.1573
 9750SOL    HW130149   3.534   3.440   4.807  2.7575  0.1218  0.1649
 9750SOL    HW230150   3.450   3.319   4.878  0.0579  0.0493 -2.9062
 9751SOL     OW30151   3.996   2.980   0.661 -0.3738  0.1377 -0.2188
 9751SOL    HW130152   4.081   3.017   0.700  0.4136 -1.5009 -0.2864
 9751SOL    HW230153   3.922   2.990   0.727  0.4107 -0.5048  0.7888
 9752SOL     OW30154   1.000   1.660   3.739  0.5490 -0.1774 -0.2825
 9752SOL    HW130155   1.082   1.670   3.795  0.9735 -0.4097 -0.8476
 9752SOL    HW230156   0.922   1.703   3.784  0.8862 -0.3583  0.4723
 9753SOL     OW30157   3.025   1.785   6.331  0.5350 -0.6373  0.0947
 9753SOL    HW130158   3.003   1.728   6.252 -0.4032  1.2326 -1.0548
 9753SOL    HW230159   3.100   1.847   6.309  0.8891 -0.7201  0.9999
 9754SOL     OW30160   2.666   4.788   3.708  0.0260  0.1671  0.2197
 9754SOL    HW130161   2.651   4.725   3.631 -0.8632 -1.1605  1.4223
 9754SOL    HW230162   2.764   4.788   3.732  0.5405  1.5788 -1.6733
 9755SOL     OW30163   4.604   2.091   5.539  0.5347 -0.3065  0.0205
 9755SOL    HW130164   4.555   2.165   5.585  0.5650 -0.1009 -0.2741
 9755SOL    HW230165   4.703   2.106   5.547  0.5613  0.7557 -1.7002
 9756SOL     OW30166   1.682   0.703   6.465  0.4914 -0.0770  0.9879
 9756SOL    HW130167   1.674   0.604   6.474  1.4349 -0.4854 -1.8222
 9756SOL    HW230168   1.662   0.730   6.371 -0.5838  2.5496  1.8537
 9757SOL     OW30169   1.274   2.634   6.334  0.0743  0.1713  0.1054
 9757SOL    HW130170   1.312   2.649   6.242 -0.5885  1.7706  0.0581
 9757SOL    HW230171   1.289   2.715   6.390 -1.3407  0.0027  0.7637
 9758SOL     OW30172   6.203   4.993   4.685  0.0650 -0.3682 -0.3646
 9758SOL    HW130173   6.163   5.002   4.776 -2.3200 -0.6362 -1.3135
 9758SOL    HW230174   6.231   5.083   4.651 -1.4633  0.1153 -0.3802
 9759SOL     OW30175   0.845   1.372   6.692  0.2011  0.3574 -0.0506
 9759SOL    HW130176   0.841   1.459   6.741 -0.1081  1.0375 -1.2353
 9759SOL    HW230177   0.941   1.346   6.678  0.2940  0.4454  0.3956
 9760SOL     OW30178   0.410   2.176   6.927  0.4467  0.0506  0.0453
 9760SOL    HW130179   0.385   2.079   6.927 -2.7396  0.7561  1.0371
 9760SOL    HW230180   0.389   2.215   6.837 -1.5801  0.4714  0.6446
 9761SOL     OW30181   4.557   1.858   2.964  0.5872  0.7127  0.4609
 9761SOL    HW130182   4.651   1.841   2.995  0.3876  0.2073  0.8139
 9761SOL    HW230183   4.516   1.931   3.019  0.6409  0.6536  0.5796
 9762SOL     OW30184   6.057   1.927   0.810  0.2454  0.0960  0.5681
 9762SOL    HW130185   6.072   1.863   0.735  1.4953 -2.5221  2.8593
 9762SOL    HW230186   6.123   2.002   0.803  2.0097 -1.3888  0.2723
 9763SOL     OW30187   0.923   2.926   6.655  0.1862  0.2115 -0.0496
 9763SOL    HW130188   1.023   2.919   6.645  0.1607  0.7951 -0.7745
 9763SOL    HW230189   0.901   2.966   6.744  0.5991  0.2424  0.0407
 9764SOL     OW30190   0.285   5.295   3.917  0.1213 -0.1706  0.4438
 9764SOL    HW130191   0.244   5.217   3.963  0.3574 -0.6167 -0.0937
 9764SOL    HW230192   0.240   5.379   3.948  0.4882 -0.4248  1.7140
 9765SOL     OW30193   6.161   1.870   4.287 -0.1624  0.4350  0.2446
 9765SOL    HW130194   6.083   1.807   4.295 -0.4722  0.6169 -1.0695
 9765SOL    HW230195   6.211   1.872   4.373 -1.1663 -0.2757  0.8705
 9766SOL     OW30196   3.836   0.810   3.628 -0.0368 -0.6482  0.1163
 9766SOL    HW130197   3.932   0.782   3.627 -0.3727 -1.9698  1.1862
 9766SOL    HW230198   3.784   0.754   3.563 -0.7523 -2.9042  2.4284
 9767SOL     OW30199   4.196   5.681   1.337  0.5804 -0.3123 -0.5213
 9767SOL    HW130200   4.162   5.598   1.381  0.4168  0.0712  0.0945
 9767SOL    HW230201   4.293   5.692   1.358  0.6863 -0.5364 -0.8985
 9768SOL     OW30202   5.548   2.558   0.848 -0.2643  0.0972 -0.3832
 9768SOL    HW130203   5.480   2.624   0.880 -1.6291 -0.6989 -1.5019
 9768SOL    HW230204   5.512   2.465   0.861 -0.2745 -0.2927 -2.7856
 9769SOL     OW30205   4.410   5.148   2.954 -0.3367 -0.0295 -0.2631
 9769SOL    HW130206   4.484   5.167   3.019 -0.5215  1.3413 -0.4209
 9769SOL    HW230207   4.323   5.176   2.994 -0.7452 -1.3083 -0.2200
 9770SOL     OW30208   6.548   2.876   4.341  0.2602  0.1384 -0.5173
 9770SOL    HW130209   6.551   2.960   4.288 -0.2173  0.1922 -0.4615
 9770SOL    HW230210   6.494   2.807   4.293  0.1947  0.0420 -0.3098
 9771SOL     OW30211   6.709   5.806   0.134 -0.5131  0.9886 -0.1191
 9771SOL    HW130212   6.681   5.861   0.213  0.3835  0.0849  0.8538
 9771SOL    HW230213   6.806   5.782   0.143 -1.0353 -1.3002 -0.1603
 9772SOL     OW30214   3.935   2.693   5.588  0.4741  0.2315 -0.5790
 9772SOL    HW130215   3.994   2.767   5.621  0.1344  0.3936 -0.3315
 9772SOL    HW230216   3.844   2.729   5.570  0.8432  0.3221 -2.4503
 9773SOL     OW30217   2.081   3.099   1.731 -0.0387  0.1370  0.1792
 9773SOL    HW130218   2.072   3.190   1.771 -0.6113  0.2057 -0.0987
 9773SOL    HW230219   2.020   3.091   1.652  0.4469 -0.2869 -0.1574
 9774SOL     OW30220   0.826   1.449   1.584 -0.1057  0.0142  0.1426
 9774SOL    HW130221   0.887   1.458   1.663  0.7470 -0.5966 -0.4241
 9774SOL    HW230222   0.786   1.538   1.563  0.2683  0.3435  0.7878
 9775SOL     OW30223   2.985   4.500   0.495 -0.3709 -0.0501 -0.1990
 9775SOL    HW130224   2.904   4.559   0.496  0.5587  1.2614 -0.0656
 9775SOL    HW230225   2.971   4.425   0.560 -1.4936  0.1224 -0.2132
 9776SOL     OW30226   0.955   1.288   0.367  0.0450  0.0323 -0.8068
 9776SOL    HW130227   0.932   1.369   0.422  0.7939 -0.1091 -0.2722
 9776SOL    HW230228   1.008   1.315   0.287  2.1193 -0.0908  0.4450
 9777SOL     OW30229   1.018   1.998   1.976  0.1198 -0.1270 -0.0947
 9777SOL    HW130230   1.101   1.993   1.921 -0.4410  0.6175 -1.0468
 9777SOL    HW230231   1.007   2.091   2.011 -2.3557  0.9663 -3.3488
 9778SOL     OW30232   6.137   0.291   3.254  0.1167  0.1757 -0.1210
 9778SOL    HW130233   6.174   0.357   3.319  2.2172 -0.8213 -0.2307
 9778SOL    HW230234   6.051   0.326   3.216  0.2810  2.0258  1.0889
 9779SOL     OW30235   3.671   1.914   5.950 -0.0720 -0.4908 -0.2015
 9779SOL    HW130236   3.643   2.001   5.911 -0.5490 -0.1906  0.7583
 9779SOL    HW230237   3.701   1.929   6.045  1.3733 -1.1279 -0.5371
 9780SOL     OW30238   1.278   5.919   1.179 -0.0884 -0.4015  0.1107
 9780SOL    HW130239   1.220   5.990   1.139  0.9114  1.4355  1.7547
 9780SOL    HW230240   1.270   5.835   1.125 -2.1174  0.6111 -1.2958
 9781SOL     OW30241   2.136   1.483   1.445  0.0831  0.2109 -0.6704
 9781SOL    HW130242   2.233   1.457   1.436  0.1562 -0.1113  0.7805
 9781SOL    HW230243   2.080   1.400   1.449 -0.0936  0.3503 -0.0728
 9782SOL     OW30244   0.612   5.694   2.276  0.1184  0.2663  0.1424
 9782SOL    HW130245   0.621   5.609   2.223  2.1251  0.3983  0.1891
 9782SOL    HW230246   0.521   5.733   2.261  0.1628 -0.3677 -2.1990
 9783SOL     OW30247   4.853   4.385   1.631  0.5919 -0.4262  0.7791
 9783SOL    HW130248   4.770   4.329   1.623  0.3113 -0.0293  0.9005
 9783SOL    HW230249   4.833   4.466   1.685  0.6951  0.3894 -0.3649
 9784SOL     OW30250   0.131   3.794   5.565 -0.7831  0.2445 -0.2603
 9784SOL    HW130251   0.105   3.833   5.477  2.3579  0.4036 -1.2446
 9784SOL    HW230252   0.173   3.865   5.621  1.2328 -0.7335 -0.4404
 9785SOL     OW30253   2.799   4.817   5.990  0.0544  0.3173 -0.1402
 9785SOL    HW130254   2.890   4.805   5.951  0.3471 -1.2550  0.9121
 9785SOL    HW230255   2.787   4.912   6.018  1.8948  0.2951  0.8852
 9786SOL     OW30256   2.491   2.725   0.443  0.0231 -0.0251 -0.0627
 9786SOL    HW130257   2.414   2.780   0.473  0.1864  0.7294 -0.9788
 9786SOL    HW230258   2.539   2.772   0.368 -0.2587 -1.7323 -1.3701
 9787SOL     OW30259   3.737   5.905   0.637  0.4462  0.5063  0.0146
 9787SOL    HW130260   3.644   5.940   0.622  0.2397 -0.0919 -0.1203
 9787SOL    HW230261   3.798   5.982   0.656  0.1122  0.9921 -0.8066
 9788SOL     OW30262   2.079   0.283   6.877 -0.3826  0.2488  0.3919
 9788SOL    HW130263   2.150   0.215   6.892 -2.2390 -2.1811 -1.1337
 9788SOL    HW230264   2.114   0.355   6.817  0.9593 -0.5931  0.1210
 9789SOL     OW30265   4.365   5.381   5.888 -0.2356 -0.3840 -0.8067
 9789SOL    HW130266   4.348   5.479   5.886 -1.9195 -0.6141  0.3199
 9789SOL    HW230267   4.288   5.334   5.932  0.3489 -2.2567 -1.6571
 9790SOL     OW30268   4.473   6.775   1.134 -0.9136  0.1875  0.0774
 9790SOL    HW130269   4.554   6.828   1.160 -0.6105  0.3008 -1.0254
 9790SOL    HW230270   4.393   6.809   1.183  0.2304 -2.3583  4.2470
 9791SOL     OW30271   3.243   1.223   1.720 -0.0968 -0.2150 -0.0572
 9791SOL    HW130272   3.261   1.124   1.718 -0.7368 -0.3275 -1.1606
 9791SOL    HW230273   3.201   1.251   1.634 -0.8142  0.8672  0.6200
 9792SOL     OW30274   0.074   5.185   2.894 -0.3721  0.3589 -0.5271
 9792SOL    HW130275   0.149   5.246   2.920  0.3915 -0.2107 -1.3265
 9792SOL    HW230276   0.047   5.130   2.973  0.5719  0.0417 -0.4111
 9793SOL     OW30277   1.038   1.866   0.494 -0.1038 -0.1110 -0.4692
 9793SOL    HW130278   1.059   1.956   0.457  1.8285  0.4407  1.7119
 9793SOL    HW230279   0.946   1.867   0.534  0.4696  1.4644  0.9488
 9794SOL     OW30280   0.109   4.249   1.103 -0.5504  0.1403  0.1951
 9794SOL    HW130281   0.031   4.233   1.163 -1.9343 -0.3678 -1.6556
 9794SOL    HW230282   0.156   4.162   1.085  0.0522  0.3388  0.7449
 9795SOL     OW30283   4.247   2.236   6.830 -0.2408 -0.4529  0.1643
 9795SOL    HW130284   4.311   2.288   6.773 -1.2307  0.0448 -0.5274
 9795SOL    HW230285   4.216   2.155   6.780  1.3506 -1.8130  1.2678
 9796SOL     OW30286   1.441   2.650   3.585  0.4074  0.3236  0.2971
 9796SOL    HW130287   1.524   2.703   3.601  0.5834 -0.5177  2.6138
 9796SOL    HW230288   1.371   2.708   3.542  1.6119  1.5038 -0.1278
 9797SOL     OW30289   4.250   5.688   4.600  0.0153 -0.0183  0.2348
 9797SOL    HW130290   4.326   5.626   4.584 -0.7487 -0.9491  0.1557
 9797SOL    HW230291   4.164   5.637   4.602 -0.6358  1.0347  0.1537
 9798SOL     OW30292   2.127   1.095   3.214  0.8021  0.6477  0.4488
 9798SOL    HW130293   2.204   1.128   3.159  0.2050 -0.1420 -0.8984
 9798SOL    HW230294   2.080   1.173   3.256  0.4605  1.3992 -1.2611
 9799SOL     OW30295   3.307   1.001   6.773 -0.2342 -0.3540 -0.2481
 9799SOL    HW130296   3.356   0.963   6.693 -2.3978 -1.5289 -1.1011
 9799SOL    HW230297   3.209   0.984   6.762 -0.8301  1.6775  1.5298
 9800SOL     OW30298   6.004   0.593   0.694 -0.0487  0.4664 -0.3159
 9800SOL    HW130299   6.065   0.569   0.619  0.2644  1.8256 -0.5276
 9800SOL    HW230300   6.041   0.672   0.744 -0.6458  0.0785  0.7842
 9801SOL     OW30301   5.075   4.690   4.429 -0.2667  0.4925  0.1618
 9801SOL    HW130302   5.150   4.706   4.492 -1.4805 -1.0117  2.1115
 9801SOL    HW230303   4.995   4.742   4.458 -0.4505  0.9345 -1.0419
 9802SOL     OW30304   0.585   3.811   5.491  0.4539  0.2633 -0.2492
 9802SOL    HW130305   0.634   3.832   5.407  1.6125 -1.4798 -0.0561
 9802SOL    HW230306   0.643   3.755   5.551 -0.8678  0.2563  1.0869
 9803SOL     OW30307   3.335   0.734   2.629 -0.0891  0.1454 -0.1897
 9803SOL    HW130308   3.364   0.693   2.715  0.6747  0.6883 -0.1751
 9803SOL    HW230309   3.382   0.689   2.553  0.8594  1.0535 -0.1644
 9804SOL     OW30310   6.841   2.286   6.152 -0.1908  0.6986  0.0235
 9804SOL    HW130311   6.854   2.211   6.087 -0.5953  1.2409 -0.7125
 9804SOL    HW230312   6.754   2.332   6.132  0.1290  1.4636  0.3554
 9805SOL     OW30313   5.010   2.957   4.914 -0.9588 -0.1336 -0.1034
 9805SOL    HW130314   5.035   2.862   4.895 -1.4840 -0.2846 -0.0656
 9805SOL    HW230315   5.039   3.015   4.838  0.3611 -0.1468  0.3672
 9806SOL     OW30316   6.996   4.191   5.472  0.0536 -0.4553 -0.8536
 9806SOL    HW130317   7.057   4.134   5.418  0.7454  1.7453 -2.5456
 9806SOL    HW230318   6.925   4.229   5.413 -1.3681 -0.8059  0.5517
 9807SOL     OW30319   5.829   0.039   5.405  0.0916  0.1840  0.1533
 9807SOL    HW130320   5.775   0.054   5.323  1.2057  0.6227 -0.5229
 9807SOL    HW230321   5.920   0.079   5.393  0.8642 -1.2448  0.9344
 9808SOL     OW30322   5.777   5.378   3.985  0.1089  0.1947 -0.0136
 9808SOL    HW130323   5.704   5.310   3.974  2.4835 -2.6066  0.4654
 9808SOL    HW230324   5.740   5.468   3.964 -2.6481 -1.4012 -3.0858
 9809SOL     OW30325   0.395   1.276   0.619 -0.7820 -0.4471  0.3702
 9809SOL    HW130326   0.384   1.252   0.523  0.6147 -2.7955  0.7390
 9809SOL    HW230327   0.490   1.302   0.637 -1.0649  0.1377  1.0926
 9810SOL     OW30328   6.459   4.765   5.543 -0.1829  0.3753  0.1315
 9810SOL    HW130329   6.383   4.829   5.533 -0.1766  0.7807  2.2705
 9810SOL    HW230330   6.497   4.772   5.635  1.0190 -1.4068 -0.1748
 9811SOL     OW30331   4.025   3.273   0.786 -0.7542 -0.1539  0.8407
 9811SOL    HW130332   4.069   3.357   0.755  0.4712 -0.7702  0.8859
 9811SOL    HW230333   4.094   3.208   0.817 -1.7106 -1.0523  1.1427
 9812SOL     OW30334   4.655   6.705   6.725  0.1580 -0.2107  0.2177
 9812SOL    HW130335   4.733   6.663   6.770  0.8301 -1.2593 -1.7923
 9812SOL    HW230336   4.571   6.657   6.751  0.7437 -1.9602 -0.9234
 9813SOL     OW30337   4.862   2.064   1.216 -0.2625  0.0198  0.6845
 9813SOL    HW130338   4.841   2.024   1.127  0.4238 -1.2919  1.0783
 9813SOL    HW230339   4.808   2.147   1.230 -0.3244  0.2868 -0.9709
 9814SOL     OW30340   5.404   6.127   4.152  0.2777 -0.0750  0.1741
 9814SOL    HW130341   5.450   6.039   4.169 -2.5749 -1.7737 -0.2660
 9814SOL    HW230342   5.372   6.164   4.239  0.2679 -0.1945  0.2227
 9815SOL     OW30343   0.313   1.098   0.801 -0.5918  0.6502 -0.8828
 9815SOL    HW130344   0.364   1.169   0.753 -0.1474 -0.1110 -1.5687
 9815SOL    HW230345   0.225   1.084   0.757  0.4368 -1.1269 -2.5105
 9816SOL     OW30346   3.608   6.282   0.833 -0.1784  0.2463  0.5892
 9816SOL    HW130347   3.513   6.304   0.812 -0.6314 -0.2165  2.0542
 9816SOL    HW230348   3.666   6.361   0.814 -1.3896  1.9177  3.2134
 9817SOL     OW30349   1.574   6.750   1.521  0.0805  0.3922 -0.1828
 9817SOL    HW130350   1.643   6.720   1.455  0.1808 -1.3108  0.6461
 9817SOL    HW230351   1.483   6.729   1.485  0.1694 -2.5080  1.0044
 9818SOL     OW30352   3.082   3.018   5.573 -0.6376 -0.3001  0.1409
 9818SOL    HW130353   3.155   3.054   5.631 -0.0058  1.9050 -1.8660
 9818SOL    HW230354   3.005   2.991   5.630  0.3311  0.7769  2.0741
 9819SOL     OW30355   0.249   2.440   5.071 -0.8148  0.2784  0.4724
 9819SOL    HW130356   0.333   2.480   5.034 -1.4460  1.0858 -0.1421
 9819SOL    HW230357   0.201   2.389   5.000  0.0068 -1.7097  1.2635
 9820SOL     OW30358   1.777   3.576   4.225 -0.1276 -0.3037  0.0280
 9820SOL    HW130359   1.855   3.623   4.266  1.5760 -1.8078 -1.3076
 9820SOL    HW230360   1.757   3.615   4.136 -0.0644 -0.7400 -0.1797
 9821SOL     OW30361   2.019   0.424   6.466 -0.4110 -0.1416  0.2524
 9821SOL    HW130362   1.977   0.356   6.406 -0.0682  0.8434 -1.1567
 9821SOL    HW230363   2.112   0.395   6.490  0.8022  0.9955 -2.5887
 9822SOL     OW30364   6.137   2.530   3.218 -0.1656 -0.1757  0.2438
 9822SOL    HW130365   6.226   2.535   3.264  2.1058  0.2053 -3.7195
 9822SOL    HW230366   6.093   2.443   3.240  1.8814 -1.0349  1.2096
 9823SOL     OW30367   2.966   1.732   0.361  0.5913  0.4583  0.0878
 9823SOL    HW130368   2.930   1.819   0.394  0.8097  0.2605  0.8508
 9823SOL    HW230369   2.935   1.717   0.267  2.0717  2.2283 -0.7370
 9824SOL     OW30370   5.287   1.252   1.271  0.7799 -0.0116 -0.2159
 9824SOL    HW130371   5.290   1.248   1.171 -0.2005 -0.4075 -0.2368
 9824SOL    HW230372   5.284   1.348   1.300  0.8213  0.0986 -0.5715
 9825SOL     OW30373   6.573   3.339   0.820 -0.1877 -0.1220  0.0582
 9825SOL    HW130374   6.587   3.241   0.806  2.2733  0.4554 -2.6264
 9825SOL    HW230375   6.648   3.376   0.875 -0.5379  0.4268  0.1774
 9826SOL     OW30376   5.151   6.511   6.170  0.4035  0.4286  0.5556
 9826SOL    HW130377   5.190   6.600   6.194 -0.7762  1.1489 -0.0650
 9826SOL    HW230378   5.183   6.484   6.079 -1.2444  1.5016 -0.3921
 9827SOL     OW30379   1.434   3.495   4.987  0.1993 -0.0612 -0.3890
 9827SOL    HW130380   1.515   3.524   4.936  0.4974 -1.8716 -1.0251
 9827SOL    HW230381   1.402   3.407   4.951  0.4324 -1.4640  2.5424
 9828SOL     OW30382   3.381   1.267   4.014  0.3262  0.1625 -0.5979
 9828SOL    HW130383   3.341   1.189   4.062  1.2140 -0.4051 -0.7791
 9828SOL    HW230384   3.321   1.293   3.938  0.0654 -0.3825 -0.5855
 9829SOL     OW30385   0.042   5.502   1.559 -0.5520  0.5514  0.4928
 9829SOL    HW130386   0.040   5.597   1.531 -0.3527  0.5659  0.5278
 9829SOL    HW230387   0.117   5.454   1.512 -1.2223  0.1909 -0.2377
 9830SOL     OW30388   1.250   2.390   5.729 -0.0545  0.0678  0.7954
 9830SOL    HW130389   1.241   2.345   5.817  0.0879  0.0046  0.7780
 9830SOL    HW230390   1.227   2.326   5.656  0.3743 -0.0496  0.7587
 9831SOL     OW30391   2.104   4.436   4.462 -0.3919 -0.5784  0.0038
 9831SOL    HW130392   2.176   4.421   4.530  0.1778 -0.9428 -0.6723
 9831SOL    HW230393   2.016   4.443   4.509 -0.0150 -0.8590  0.7782
 9832SOL     OW30394   0.240   1.039   2.649 -0.4687  0.0287  0.5866
 9832SOL    HW130395   0.145   1.044   2.681 -1.0102 -0.4162 -0.8829
 9832SOL    HW230396   0.255   1.110   2.581  0.0220 -0.4095  0.2359
 9833SOL     OW30397   5.883   3.562   2.728  0.1986  0.2728  0.1995
 9833SOL    HW130398   5.979   3.540   2.709 -0.0855 -0.9436  0.0955
 9833SOL    HW230399   5.827   3.480   2.716 -1.1717  1.4225 -1.8295
 9834SOL     OW30400   3.928   1.152   4.817  0.5652 -0.0379 -0.2964
 9834SOL    HW130401   3.885   1.241   4.832  1.5478  0.1315  2.0565
 9834SOL    HW230402   4.019   1.166   4.778  0.0748 -0.1402 -1.5022
 9835SOL     OW30403   3.783   0.962   1.614  0.8656 -0.0379 -0.2245
 9835SOL    HW130404   3.852   0.969   1.542  1.6911 -1.0963  0.4198
 9835SOL    HW230405   3.776   0.866   1.644  0.0788  0.2771  0.6534
 9836SOL     OW30406   1.253   0.277   4.846 -0.6355  0.1838 -0.0636
 9836SOL    HW130407   1.321   0.216   4.805 -1.7219  0.0719 -1.7887
 9836SOL    HW230408   1.254   0.365   4.797 -2.5500 -0.2458 -0.9489
 9837SOL     OW30409   6.248   3.874   3.794 -0.2057 -0.0802 -0.2930
 9837SOL    HW130410   6.253   3.962   3.840  0.2021 -0.0940 -0.3096
 9837SOL    HW230411   6.340   3.843   3.771 -0.4066 -0.0500 -1.1730
 9838SOL     OW30412   0.405   5.468   1.749  0.2384  0.3317  0.1414
 9838SOL    HW130413   0.340   5.514   1.809  0.9504  1.3268  0.1835
 9838SOL    HW230414   0.436   5.533   1.679 -1.2562 -1.0136 -1.9134
 9839SOL     OW30415   0.551   1.803   4.247 -0.5311 -0.0776  0.1177
 9839SOL    HW130416   0.534   1.740   4.171 -0.2658 -1.9498  1.5377
 9839SOL    HW230417   0.468   1.856   4.265 -1.2739 -1.0882 -0.1907
 9840SOL     OW30418   5.080   0.234   4.494 -0.3847 -0.0282  0.3367
 9840SOL    HW130419   5.127   0.290   4.562 -0.5740 -0.3269  0.7181
 9840SOL    HW230420   5.016   0.291   4.442  0.5799  0.4359 -0.3655
 9841SOL     OW30421   6.347   4.394   1.275 -0.0896  0.4835 -0.4269
 9841SOL    HW130422   6.306   4.380   1.366 -1.0294  0.4908 -0.8389
 9841SOL    HW230423   6.304   4.474   1.232  1.1155  1.1330 -0.4472
 9842SOL     OW30424   0.529   2.659   6.549  0.4363 -0.0234  0.6870
 9842SOL    HW130425   0.504   2.637   6.644 -0.8428 -2.1592 -0.0590
 9842SOL    HW230426   0.616   2.707   6.547  0.1721  0.6617  2.9740
 9843SOL     OW30427   1.789   3.301   0.857 -0.2682 -0.2910 -0.4170
 9843SOL    HW130428   1.793   3.206   0.887  0.2826 -0.7980 -2.0423
 9843SOL    HW230429   1.848   3.357   0.916 -1.3035 -0.7440  1.1341
 9844SOL     OW30430   4.827   5.990   0.169 -0.0812  0.0279 -0.3235
 9844SOL    HW130431   4.751   5.931   0.144 -1.2328  1.3391 -0.0576
 9844SOL    HW230432   4.825   6.073   0.112 -1.3358  1.9578  2.3061
 9845SOL     OW30433   6.720   0.297   3.561  0.2434  0.5336 -0.1055
 9845SOL    HW130434   6.627   0.262   3.571  0.5353 -0.3481 -0.3779
 9845SOL    HW230435   6.757   0.268   3.473  1.0025  0.3086  0.2723
 9846SOL     OW30436   2.457   5.905   2.632  0.2824  0.4128 -0.2570
 9846SOL    HW130437   2.409   5.989   2.658  0.8478  0.8902 -0.7465
 9846SOL    HW230438   2.465   5.900   2.533  1.5701  0.5209 -0.1699
 9847SOL     OW30439   3.669   0.636   4.404 -0.0184  0.1304 -0.2216
 9847SOL    HW130440   3.660   0.682   4.493  0.2243 -1.0289  0.4171
 9847SOL    HW230441   3.584   0.589   4.382  0.7105 -1.6952  0.6317
 9848SOL     OW30442   3.623   3.343   3.209  0.3106 -0.2890 -0.4091
 9848SOL    HW130443   3.720   3.368   3.211  0.1357  1.1264 -3.4727
 9848SOL    HW230444   3.568   3.424   3.232 -0.1613 -0.4570 -0.9309
 9849SOL     OW30445   0.697   2.028   5.226  0.1224  0.3277  0.3147
 9849SOL    HW130446   0.710   1.948   5.168 -0.1983  0.7514 -0.3565
 9849SOL    HW230447   0.624   2.085   5.187  0.8034  1.2831  0.4103
 9850SOL     OW30448   6.430   3.443   0.242 -0.0310  0.4542  0.0027
 9850SOL    HW130449   6.380   3.492   0.314  0.6196 -1.2668  1.7241
 9850SOL    HW230450   6.389   3.464   0.153 -1.5289  1.8631  0.9554
 9851SOL     OW30451   0.738   1.527   5.871 -0.2616 -0.2533  0.3421
 9851SOL    HW130452   0.808   1.459   5.848  0.5901  1.1466 -1.4609
 9851SOL    HW230453   0.718   1.522   5.969  2.2459 -0.8422  0.9079
 9852SOL     OW30454   0.596   3.309   3.734  0.7421  0.6535  0.0828
 9852SOL    HW130455   0.612   3.229   3.791 -0.3099 -3.0505 -4.2440
 9852SOL    HW230456   0.683   3.341   3.696  0.8647 -1.1254 -1.2473
 9853SOL     OW30457   2.071   1.077   4.453  0.3461 -0.1333 -0.3739
 9853SOL    HW130458   1.976   1.055   4.475 -0.3818  2.7004 -0.2800
 9853SOL    HW230459   2.128   1.064   4.533 -0.7255  1.8253  0.7889
 9854SOL     OW30460   0.544   4.347   6.547 -0.6961 -0.0620  0.0555
 9854SOL    HW130461   0.543   4.396   6.634  0.4976 -2.9030  1.7920
 9854SOL    HW230462   0.449   4.330   6.518 -1.1503  2.7094 -0.4133
 9855SOL     OW30463   5.717   4.666   3.563  0.2349  0.8875  0.7270
 9855SOL    HW130464   5.768   4.620   3.635  0.6332  0.9790  0.5032
 9855SOL    HW230465   5.667   4.744   3.602  0.3825  0.8861  0.9195
 9856SOL     OW30466   0.403   1.120   2.861  0.3271 -0.3560  0.0903
 9856SOL    HW130467   0.498   1.129   2.829  0.5548 -0.5042  0.7254
 9856SOL    HW230468   0.342   1.118   2.782  0.8059  0.2922 -0.3111
 9857SOL     OW30469   3.562   3.813   3.601  0.5382  0.2644  0.1055
 9857SOL    HW130470   3.606   3.724   3.609 -0.6180 -0.4636 -1.1790
 9857SOL    HW230471   3.522   3.838   3.689  0.1810 -0.8775  0.2887
 9858SOL     OW30472   4.918   1.426   3.222  0.2118 -0.2758 -0.1769
 9858SOL    HW130473   4.972   1.389   3.298 -0.0270 -0.4945 -0.1097
 9858SOL    HW230474   4.963   1.506   3.184  1.6331 -1.6318 -1.4612
 9859SOL     OW30475   6.747   1.326   5.717  0.2009  0.9686  0.3517
 9859SOL    HW130476   6.782   1.326   5.623  0.7300  0.1486  0.5401
 9859SOL    HW230477   6.660   1.277   5.720  0.1688  1.0208  0.2840
 9860SOL     OW30478   0.598   0.227   1.409  0.4046  0.2136  0.2521
 9860SOL    HW130479   0.619   0.229   1.507 -0.3176  1.0844  0.4076
 9860SOL    HW230480   0.578   0.319   1.378  0.3959 -0.0942 -0.6722
 9861SOL     OW30481   3.284   0.126   4.191 -0.1359 -0.3513 -0.4817
 9861SOL    HW130482   3.232   0.043   4.212 -0.1882 -0.1158  0.3380
 9861SOL    HW230483   3.321   0.119   4.098 -1.3860 -0.6439 -0.9795
 9862SOL     OW30484   4.922   4.174   2.326  0.6770  0.2223  0.7251
 9862SOL    HW130485   4.936   4.168   2.425  3.0030  1.4382  0.5390
 9862SOL    HW230486   4.893   4.266   2.301  0.1139 -0.0728  0.2652
 9863SOL     OW30487   3.026   1.915   2.547  0.2284 -0.2038  0.2638
 9863SOL    HW130488   3.033   1.817   2.563  0.1673  0.0413  1.8904
 9863SOL    HW230489   2.983   1.930   2.458  0.7749 -1.6351 -0.2824
 9864SOL     OW30490   6.676   4.566   2.477 -0.3857 -0.2226  0.0472
 9864SOL    HW130491   6.648   4.491   2.537  0.5514 -1.2028 -0.7037
 9864SOL    HW230492   6.612   4.572   2.400 -0.4710 -0.2409  0.1166
 9865SOL     OW30493   1.705   6.615   6.098  0.1141 -0.5143 -0.5095
 9865SOL    HW130494   1.619   6.597   6.049  0.6528 -1.7670 -1.0566
 9865SOL    HW230495   1.776   6.553   6.064  0.9343 -0.3076  0.7544
 9866SOL     OW30496   6.040   4.287   0.880  0.2153 -0.0631 -0.1694
 9866SOL    HW130497   6.047   4.195   0.842  0.0511 -1.0516  2.0503
 9866SOL    HW230498   6.131   4.325   0.894  0.4242 -1.1402  1.6699
 9867SOL     OW30499   2.418   2.338   3.689  0.4373 -0.0712 -0.0997
 9867SOL    HW130500   2.353   2.327   3.613 -1.6431  1.4577  1.3583
 9867SOL    HW230501   2.417   2.255   3.745 -0.3881 -0.0202 -0.0189
 9868SOL     OW30502   6.327   2.886   6.523 -0.3715 -0.0314  0.0632
 9868SOL    HW130503   6.293   2.877   6.617 -0.1811  0.3058  0.1687
 9868SOL    HW230504   6.293   2.972   6.484 -0.4896 -0.1959 -0.1929
 9869SOL     OW30505   6.142   4.902   4.423  0.3227  0.1037 -0.1874
 9869SOL    HW130506   6.045   4.876   4.432  0.2151  0.3158 -0.6859
 9869SOL    HW230507   6.184   4.905   4.514  0.2909 -1.5984 -0.0773
 9870SOL     OW30508   1.632   0.189   5.170 -0.5197  0.1227  0.1104
 9870SOL    HW130509   1.682   0.106   5.146 -0.3175  0.0215  0.8480
 9870SOL    HW230510   1.690   0.269   5.155 -1.2855  0.3061 -2.2501
 9871SOL     OW30511   6.904   3.751   5.792  0.4592 -0.2634  0.1862
 9871SOL    HW130512   6.976   3.723   5.856 -0.1589 -1.9830  0.1840
 9871SOL    HW230513   6.926   3.841   5.754  1.6593  0.0604  1.5686
 9872SOL     OW30514   2.364   2.941   6.508 -0.4290 -0.0823  0.1011
 9872SOL    HW130515   2.351   2.914   6.412  0.2862 -0.9415  0.2237
 9872SOL    HW230516   2.455   2.981   6.519 -0.5063  0.0069  0.4169
 9873SOL     OW30517   1.228   1.450   2.495 -0.2648  0.3285 -0.1878
 9873SOL    HW130518   1.303   1.435   2.431  0.0054  0.5897  0.0704
 9873SOL    HW230519   1.262   1.447   2.589 -1.0721 -2.6830  0.0927
 9874SOL     OW30520   4.265   6.481   3.754 -0.4581 -0.5084 -0.0614
 9874SOL    HW130521   4.318   6.558   3.718  1.7225 -1.2090  1.4477
 9874SOL    HW230522   4.290   6.398   3.705 -0.0620 -0.8612  0.7262
 9875SOL     OW30523   1.594   1.751   0.198  0.2353 -0.0523 -0.4622
 9875SOL    HW130524   1.652   1.816   0.150 -1.6762  2.5543  0.5164
 9875SOL    HW230525   1.592   1.773   0.296  0.2809 -2.2420  0.0981
 9876SOL     OW30526   3.444   2.111   1.063  0.2938  0.4947 -0.3128
 9876SOL    HW130527   3.522   2.174   1.063 -0.2225  1.2009 -1.9576
 9876SOL    HW230528   3.444   2.058   1.147  1.7770  1.4287  0.3215
 9877SOL     OW30529   3.572   0.062   3.927  0.2335 -0.3368  0.0242
 9877SOL    HW130530   3.569   0.070   4.027  0.5436  1.8534 -0.0968
 9877SOL    HW230531   3.648   0.002   3.901  1.4550  0.6767  1.0919
 9878SOL     OW30532   4.505   5.119   5.455 -0.3181  0.6054 -0.1792
 9878SOL    HW130533   4.523   5.125   5.553 -0.2172 -2.2019  0.0492
 9878SOL    HW230534   4.463   5.031   5.434 -0.4938  1.2046 -2.6631
 9879SOL     OW30535   3.982   1.841   3.163 -0.4664 -0.1092 -0.3552
 9879SOL    HW130536   4.009   1.767   3.225  1.9112  0.7541 -0.2384
 9879SOL    HW230537   3.904   1.812   3.107 -1.4497 -1.5936  1.6803
 9880SOL     OW30538   2.791   1.089   0.173 -0.2365  0.3296 -0.5539
 9880SOL    HW130539   2.872   1.040   0.141 -0.6614 -1.5332  1.1159
 9880SOL    HW230540   2.820   1.172   0.221  0.5750  0.6776 -1.5920
 9881SOL     OW30541   4.126   6.841   1.939  0.1410 -0.4163  0.5746
 9881SOL    HW130542   4.225   6.824   1.939  0.1738 -0.2612  1.5119
 9881SOL    HW230543   4.091   6.832   2.032 -0.6919 -0.2243  0.2827
 9882SOL     OW30544   6.800   1.813   6.461  0.4353 -0.4043  0.1797
 9882SOL    HW130545   6.725   1.750   6.481 -0.1524  0.3504  0.4016
 9882SOL    HW230546   6.790   1.896   6.516  2.7328 -1.2260  1.9666
 9883SOL     OW30547   1.291   5.704   4.709  0.3384  0.2698 -0.2755
 9883SOL    HW130548   1.309   5.802   4.702 -0.5238  0.4060 -0.7508
 9883SOL    HW230549   1.224   5.688   4.782 -0.6965  0.2159 -1.2018
 9884SOL     OW30550   1.411   4.449   3.228 -0.5622  0.1289  0.6152
 9884SOL    HW130551   1.357   4.366   3.241 -1.7296  0.8558  0.6406
 9884SOL    HW230552   1.381   4.495   3.144  1.4347 -0.4609 -0.4776
 9885SOL     OW30553   4.223   5.890   6.122 -0.1525  0.7087 -0.9187
 9885SOL    HW130554   4.222   5.833   6.205  1.8554  0.9021 -0.7064
 9885SOL    HW230555   4.245   5.833   6.043  1.5447  1.0955 -0.7517
 9886SOL     OW30556   1.043   6.333   5.247  0.4171  0.0544 -0.1611
 9886SOL    HW130557   1.033   6.429   5.274 -1.9222  0.4722 -2.1408
 9886SOL    HW230558   0.982   6.276   5.302  0.0414  0.0576 -0.5700
 9887SOL     OW30559   0.027   1.710   4.283  0.1829  0.0580 -0.1766
 9887SOL    HW130560  -0.016   1.799   4.297  0.7373  0.2177  0.5883
 9887SOL    HW230561   0.103   1.719   4.219 -0.8058 -0.2019 -1.4344
 9888SOL     OW30562   3.121   6.475   3.834  0.1417 -0.0939  0.1975
 9888SOL    HW130563   3.154   6.450   3.925  0.4024  2.4533  0.8918
 9888SOL    HW230564   3.030   6.515   3.841  0.2058  0.2293 -0.6308
 9889SOL     OW30565   1.265   3.632   0.631 -0.3629  0.0066 -0.5666
 9889SOL    HW130566   1.228   3.672   0.715 -1.7686  1.0920 -1.6678
 9889SOL    HW230567   1.325   3.555   0.655 -0.7005  0.3034  1.4153
 9890SOL     OW30568   4.123   2.486   6.467 -0.2473 -0.2149  0.0272
 9890SOL    HW130569   4.097   2.579   6.492 -0.9117 -0.4999  0.4156
 9890SOL    HW230570   4.062   2.420   6.512  0.3832 -0.8509 -0.0271
 9891SOL     OW30571   4.113   4.405   6.910  0.3488  0.1673 -0.1629
 9891SOL    HW130572   4.034   4.449   6.867 -1.2751 -1.6754  0.7734
 9891SOL    HW230573   4.196   4.428   6.859 -0.9799  1.0482 -2.0300
 9892SOL     OW30574   3.874   4.938   4.740 -0.3752  0.3994  0.0369
 9892SOL    HW130575   3.775   4.925   4.740 -0.3659  0.3137 -0.4159
 9892SOL    HW230576   3.905   4.960   4.833 -0.4714 -2.2302  0.7682
 9893SOL     OW30577   1.325   6.933   1.061  0.5659 -0.1029  0.4814
 9893SOL    HW130578   1.359   6.882   1.139  1.1151 -1.9465 -0.8962
 9893SOL    HW230579   1.243   6.888   1.024 -0.0733  1.1031  0.3466
 9894SOL     OW30580   2.944   3.925   5.138  0.3445 -0.0215  0.1024
 9894SOL    HW130581   2.904   3.922   5.046  0.7777  2.2501 -0.2276
 9894SOL    HW230582   3.008   3.849   5.150  0.1763 -0.4271 -1.4194
 9895SOL     OW30583   2.692   2.019   2.977  0.5154 -0.1383  0.5775
 9895SOL    HW130584   2.766   2.018   2.910  0.3506  4.1268  0.0783
 9895SOL    HW230585   2.604   2.022   2.929  0.3701  2.2495  0.9077
 9896SOL     OW30586   5.859   5.111   4.582 -0.0278  0.2560  0.0696
 9896SOL    HW130587   5.878   5.027   4.633  0.9382  0.0292 -0.6328
 9896SOL    HW230588   5.760   5.129   4.583 -0.1280 -0.2573  1.1849
 9897SOL     OW30589   5.947   4.991   3.080  0.1742 -0.1762 -0.2852
 9897SOL    HW130590   5.907   5.024   3.165  0.8751 -0.8727  0.3314
 9897SOL    HW230591   5.965   4.893   3.087 -2.3375 -0.8851 -2.2585
 9898SOL     OW30592   1.346   6.922   4.177  0.2161  0.0050 -0.0239
 9898SOL    HW130593   1.384   6.829   4.176 -1.0664 -0.5327 -0.6561
 9898SOL    HW230594   1.316   6.945   4.270 -0.1602 -0.5164 -0.0118
 9899SOL     OW30595   5.540   1.280   2.772 -0.1631  0.3229  0.1552
 9899SOL    HW130596   5.451   1.236   2.766 -0.4834  0.9366  0.3045
 9899SOL    HW230597   5.565   1.317   2.683 -0.5261  1.0382  0.3454
 9900SOL     OW30598   4.131   3.533   3.397 -0.9913 -0.0045  0.5150
 9900SOL    HW130599   4.163   3.534   3.302  0.4198  0.6840  0.9773
 9900SOL    HW230600   4.129   3.626   3.433 -0.6613 -0.3476  1.4405
 9901SOL     OW30601   1.568   1.005   0.499 -0.0103  0.2131 -0.0405
 9901SOL    HW130602   1.525   0.923   0.460  3.7034 -1.3606 -1.2514
 9901SOL    HW230603   1.514   1.085   0.474 -2.8694 -1.6116 -0.2879
 9902SOL     OW30604   0.634   6.197   4.454  0.0974  0.2397 -0.0307
 9902SOL    HW130605   0.641   6.100   4.432 -0.3133  0.3759 -0.8151
 9902SOL    HW230606   0.682   6.216   4.540  1.9167 -0.2927 -0.8792
 9903SOL     OW30607   1.918   3.365   6.036 -0.6231 -0.1044  0.3058
 9903SOL    HW130608   1.825   3.395   6.012 -0.7812 -0.3435  0.6113
 9903SOL    HW230609   1.980   3.443   6.031 -0.7409 -0.0485 -0.4123
 9904SOL     OW30610   2.090   0.468   2.042  0.4862 -0.3539  0.3143
 9904SOL    HW130611   2.152   0.447   2.118 -0.4978 -1.4790  0.8496
 9904SOL    HW230612   2.139   0.520   1.972  1.8864 -0.7851  0.9311
 9905SOL     OW30613   3.207   5.641   5.934 -0.6048  0.0196  0.0546
 9905SOL    HW130614   3.218   5.698   6.015 -2.5028  0.7324 -0.1342
 9905SOL    HW230615   3.123   5.667   5.886  0.1939 -0.7579 -1.8514
 9906SOL     OW30616   4.786   2.830   3.011 -0.0586  0.6714 -0.0093
 9906SOL    HW130617   4.732   2.754   3.049  2.5245 -1.3124  0.0116
 9906SOL    HW230618   4.832   2.878   3.085  0.5206  0.4319 -0.2081
 9907SOL     OW30619   6.506   6.119   5.923 -0.0127 -0.7190  0.1991
 9907SOL    HW130620   6.458   6.206   5.908 -0.7745 -1.4025 -1.7237
 9907SOL    HW230621   6.578   6.132   5.991 -0.3188  1.3279  0.2065
 9908SOL     OW30622   1.333   0.322   0.454  0.5099 -0.1492  0.6765
 9908SOL    HW130623   1.319   0.388   0.528  0.4085  3.1358 -2.0172
 9908SOL    HW230624   1.431   0.315   0.434  0.4750 -0.4395  0.6012
 9909SOL     OW30625   6.248   3.560   5.368  0.4409 -0.4428 -0.1381
 9909SOL    HW130626   6.238   3.610   5.454 -1.0835 -0.4734 -0.2863
 9909SOL    HW230627   6.339   3.578   5.330  0.8618  0.1539  1.1018
 9910SOL     OW30628   1.604   6.843   0.188  0.1024 -0.2639  0.4524
 9910SOL    HW130629   1.509   6.869   0.205 -0.1231 -0.7326 -0.0505
 9910SOL    HW230630   1.659   6.924   0.169  0.0356  0.1184  1.8060
 9911SOL     OW30631   6.509   1.082   5.393  0.5563 -0.4781  0.4572
 9911SOL    HW130632   6.534   1.176   5.415 -0.8459 -0.1122  0.5469
 9911SOL    HW230633   6.440   1.050   5.458  0.8537 -1.4985  0.2900
 9912SOL     OW30634   4.014   6.657   3.989 -0.7081  0.7889  0.6949
 9912SOL    HW130635   3.933   6.688   4.039 -0.7114  0.1270  1.1112
 9912SOL    HW230636   3.985   6.603   3.910 -0.6959 -1.0145  1.8475
 9913SOL     OW30637   5.725   5.536   5.590  0.0512 -0.0054  0.1752
 9913SOL    HW130638   5.635   5.501   5.563 -0.7565  0.2609  2.3529
 9913SOL    HW230639   5.796   5.472   5.559 -0.7582  0.1260 -2.1917
 9914SOL     OW30640   3.813   2.292   0.406  0.3955  0.2336 -0.2079
 9914SOL    HW130641   3.775   2.235   0.479  2.5565  0.1434  0.9227
 9914SOL    HW230642   3.820   2.238   0.322 -1.0723  0.0108 -0.2248
 9915SOL     OW30643   4.245   6.351   6.228  0.5962 -0.2782  0.2172
 9915SOL    HW130644   4.248   6.417   6.154 -0.7216  1.9133  1.9898
 9915SOL    HW230645   4.329   6.357   6.282  0.5702 -0.2150  0.2499
 9916SOL     OW30646   6.500   3.204   6.741  0.2633  0.0381  0.7047
 9916SOL    HW130647   6.468   3.187   6.834 -1.2682 -0.3070  0.1491
 9916SOL    HW230648   6.476   3.297   6.714 -1.4720 -0.5974 -0.1335
 9917SOL     OW30649   3.991   3.807   4.300  0.1844 -0.1190 -0.1054
 9917SOL    HW130650   4.051   3.745   4.351 -0.1855 -1.1212 -0.8572
 9917SOL    HW230651   3.930   3.854   4.364 -0.6438 -1.7585  0.3534
 9918SOL     OW30652   3.369   5.076   2.829  0.4029 -0.0240 -0.1309
 9918SOL    HW130653   3.305   5.046   2.901  1.5663 -0.1916  0.8576
 9918SOL    HW230654   3.432   5.002   2.807 -1.9733 -1.2719 -3.8344
 9919SOL     OW30655   1.356   2.016   5.046 -0.0753  0.3131 -0.1329
 9919SOL    HW130656   1.335   2.096   4.989 -0.5742 -1.5771 -2.7947
 9919SOL    HW230657   1.270   1.975   5.077  0.0155 -0.7944 -1.2565
 9920SOL     OW30658   0.998   6.227   6.821  0.2628 -0.0326  0.2438
 9920SOL    HW130659   1.030   6.177   6.740 -2.6555 -0.7233 -0.6076
 9920SOL    HW230660   1.048   6.195   6.901  3.3944  0.7999 -1.2071
 9921SOL     OW30661   4.826   6.458   1.198  0.4306 -0.0532 -0.1750
 9921SOL    HW130662   4.869   6.513   1.270  1.5493 -3.4347  1.9401
 9921SOL    HW230663   4.726   6.464   1.207  0.5329 -0.8868  2.1776
 9922SOL     OW30664   2.901   2.397   1.550  0.3125 -0.2286  0.0673
 9922SOL    HW130665   2.879   2.384   1.453  1.8470 -1.2414 -0.1874
 9922SOL    HW230666   3.000   2.410   1.560  0.1326  0.1523  1.4726
 9923SOL     OW30667   5.545   0.773   1.348  0.2390 -0.3179 -0.7197
 9923SOL    HW130668   5.449   0.795   1.361  0.4371  0.0848  0.1055
 9923SOL    HW230669   5.553   0.700   1.280 -0.8411 -2.3236  1.1724
 9924SOL     OW30670   4.134   6.092   0.229 -0.1609  0.1626  0.1948
 9924SOL    HW130671   4.079   6.108   0.311  0.6980 -1.2315  1.0770
 9924SOL    HW230672   4.161   5.996   0.224  1.8080  0.6956 -0.4532
 9925SOL     OW30673   1.224   5.792   2.938  0.0416 -0.3200 -0.8329
 9925SOL    HW130674   1.228   5.804   3.037 -0.5340  0.1163 -0.8598
 9925SOL    HW230675   1.221   5.694   2.917  1.1047 -0.4460 -0.4646
 9926SOL     OW30676   5.734   0.612   3.058 -0.4968  0.2271 -0.4963
 9926SOL    HW130677   5.785   0.528   3.075 -3.1463 -1.0867  1.6801
 9926SOL    HW230678   5.773   0.687   3.112 -0.8190 -0.7422  1.1312
 9927SOL     OW30679   6.588   5.063   3.444  0.1395 -0.0051  0.0138
 9927SOL    HW130680   6.540   5.139   3.489  0.3110 -0.3105  0.7316
 9927SOL    HW230681   6.560   5.058   3.348 -0.1821  0.7079  0.0633
 9928SOL     OW30682   6.305   6.180   2.393 -0.3755  0.3525 -0.0847
 9928SOL    HW130683   6.361   6.104   2.360  0.0602  0.6049  0.0663
 9928SOL    HW230684   6.354   6.229   2.465 -0.6351  0.8017 -0.2091
 9929SOL     OW30685   2.009   3.232   1.190 -0.3142 -0.5939 -0.4020
 9929SOL    HW130686   1.918   3.272   1.201 -0.0613 -0.5516  1.9295
 9929SOL    HW230687   2.071   3.270   1.259  0.9539 -2.1121 -0.6557
 9930SOL     OW30688   1.408   5.974   5.057  0.1999  0.2836  0.3393
 9930SOL    HW130689   1.454   5.900   5.007 -0.6447  0.8976 -1.3974
 9930SOL    HW230690   1.335   5.935   5.113 -1.7874 -0.1105 -2.3112
 9931SOL     OW30691   6.702   4.866   6.337 -0.0875 -0.0870 -0.4029
 9931SOL    HW130692   6.794   4.881   6.302  0.1667  0.7572  0.5592
 9931SOL    HW230693   6.687   4.768   6.350  0.7434 -0.2242 -0.4029
 9932SOL     OW30694   1.951   1.268   0.791  0.1583 -0.3741  0.4056
 9932SOL    HW130695   1.976   1.297   0.884  1.2924 -0.3720  0.1124
 9932SOL    HW230696   1.964   1.169   0.783  2.8493 -0.0164 -0.5517
 9933SOL     OW30697   3.690   1.541   3.435 -0.0222  0.4245  0.2851
 9933SOL    HW130698   3.678   1.637   3.460  1.1693  0.2111  1.8489
 9933SOL    HW230699   3.714   1.534   3.338  0.4182  1.7497  0.2739
 9934SOL     OW30700   6.939   6.244   3.850 -0.2185  0.0398 -0.4646
 9934SOL    HW130701   6.843   6.270   3.864  0.0620  1.5020 -1.0080
 9934SOL    HW230702   6.989   6.323   3.813  1.5130 -0.2294  1.1449
 9935SOL     OW30703   0.168   6.615   6.486  0.0160  0.0278 -0.3928
 9935SOL    HW130704   0.240   6.652   6.427  0.2086  0.1946 -0.0558
 9935SOL    HW230705   0.197   6.619   6.581 -0.3361 -0.1444 -0.2747
 9936SOL     OW30706   2.115   2.921   3.443 -0.0447 -0.0409  0.0610
 9936SOL    HW130707   2.121   2.943   3.540  0.0820  0.3916 -0.0459
 9936SOL    HW230708   2.159   2.833   3.426 -1.1100 -0.6949  0.5945
 9937SOL     OW30709   2.155   3.395   6.620  0.1680 -0.3897  0.2986
 9937SOL    HW130710   2.072   3.340   6.631 -0.0886  0.0494  0.5735
 9937SOL    HW230711   2.193   3.380   6.529 -0.5984 -0.0653 -0.0795
 9938SOL     OW30712   1.078   5.621   4.197  0.3645 -0.2259  0.2213
 9938SOL    HW130713   1.171   5.637   4.229 -0.5531 -0.2652  3.1525
 9938SOL    HW230714   1.055   5.525   4.209 -0.8526  0.2499  1.9007
 9939SOL     OW30715   1.088   5.757   4.989 -0.2392 -0.4681 -0.1495
 9939SOL    HW130716   1.058   5.852   4.995  0.1274 -0.2297 -1.7457
 9939SOL    HW230717   1.179   5.748   5.028 -0.8424 -0.4864  1.3510
 9940SOL     OW30718   0.726   7.008   5.751  0.2210 -0.4295 -0.4749
 9940SOL    HW130719   0.660   7.051   5.690  1.1064  0.9974 -0.4617
 9940SOL    HW230720   0.732   7.060   5.836 -1.1039 -2.4716  0.9642
 9941SOL     OW30721   0.502   5.283   0.964 -0.3509 -0.1657  0.4028
 9941SOL    HW130722   0.465   5.260   0.874  0.6023  0.1651 -0.0841
 9941SOL    HW230723   0.501   5.382   0.977 -1.1771 -0.2566  1.0631
 9942SOL     OW30724   4.304   0.858   1.199  0.4158  0.6576 -0.2138
 9942SOL    HW130725   4.290   0.864   1.298 -2.8177 -0.3171 -0.4958
 9942SOL    HW230726   4.280   0.766   1.168  0.2276  1.2803 -2.0382
 9943SOL     OW30727   5.680   5.928   6.394 -0.1868 -0.3439  0.3548
 9943SOL    HW130728   5.667   5.979   6.309  2.4609 -1.7609 -1.0301
 9943SOL    HW230729   5.741   5.979   6.454  0.1493 -0.5859  0.2177
 9944SOL     OW30730   2.227   2.712   1.194  0.0540  0.3849 -0.1283
 9944SOL    HW130731   2.264   2.756   1.276  0.1442 -0.5682  0.3561
 9944SOL    HW230732   2.302   2.669   1.143 -0.1933 -0.3096  0.0872
 9945SOL     OW30733   0.944   0.478   6.465 -0.2077 -0.5516 -0.4799
 9945SOL    HW130734   0.888   0.537   6.523  1.1041 -0.5790  0.8771
 9945SOL    HW230735   0.911   0.384   6.471 -1.3815 -0.2398 -1.4861
 9946SOL     OW30736   2.878   0.273   3.426  0.0492  0.3743 -0.3622
 9946SOL    HW130737   2.918   0.359   3.456 -0.0191  0.7052 -1.2076
 9946SOL    HW230738   2.915   0.198   3.481  0.5103  0.8763  0.0165
 9947SOL     OW30739   6.457   1.980   4.865 -0.0803 -0.1966 -0.1317
 9947SOL    HW130740   6.421   1.898   4.820 -0.1444  0.3015 -1.0220
 9947SOL    HW230741   6.541   2.008   4.818 -0.2223  0.4136 -0.0179
 9948SOL     OW30742   4.868   4.209   6.542 -0.1508  0.4000 -0.1419
 9948SOL    HW130743   4.967   4.225   6.539 -0.0610 -0.1759 -0.3609
 9948SOL    HW230744   4.831   4.244   6.628  0.3943 -0.1817  0.3444
 9949SOL     OW30745   2.640   0.033   6.898  0.3475 -0.2866 -0.0624
 9949SOL    HW130746   2.626   0.011   6.802 -0.0692  0.7361 -0.2423
 9949SOL    HW230747   2.712   0.102   6.907  0.0678 -0.0471  0.3340
 9950SOL     OW30748   2.245   5.217   1.887  0.1921 -0.4800  0.2212
 9950SOL    HW130749   2.159   5.254   1.852  0.5840 -0.5309 -0.8384
 9950SOL    HW230750   2.321   5.272   1.851  0.6398 -0.9008  0.5195
 9951SOL     OW30751   4.468   3.756   0.418  0.3276  1.0525 -0.3233
 9951SOL    HW130752   4.391   3.796   0.370 -1.2628 -0.9731  0.4065
 9951SOL    HW230753   4.452   3.760   0.517  1.0009  0.3206 -0.1700
 9952SOL     OW30754   2.267   3.218   5.938  0.2008 -0.4614  0.2082
 9952SOL    HW130755   2.333   3.144   5.955  0.3414 -1.0571 -2.4510
 9952SOL    HW230756   2.233   3.211   5.844 -0.6876  2.1814  0.2518
 9953SOL     OW30757   1.910   3.950   1.052  0.0886  0.2316 -0.2049
 9953SOL    HW130758   1.867   3.926   1.139  1.6605  0.2991  0.6296
 9953SOL    HW230759   1.849   3.925   0.977 -0.5004 -1.6005  0.8301
 9954SOL     OW30760   3.430   3.193   0.965  0.0333 -0.1441  0.2031
 9954SOL    HW130761   3.424   3.114   1.026  1.3590 -2.3569 -2.3183
 9954SOL    HW230762   3.498   3.257   1.000 -0.7136 -0.2866  2.0473
 9955SOL     OW30763   0.995   4.478   2.602  0.7980  0.2018 -0.0678
 9955SOL    HW130764   0.906   4.434   2.609  1.5633 -1.2379  1.2605
 9955SOL    HW230765   1.030   4.469   2.509  0.4386 -1.0041 -0.1017
 9956SOL     OW30766   4.251   4.741   6.656 -0.3137  0.2575 -0.6389
 9956SOL    HW130767   4.217   4.802   6.727 -1.0017  0.3699 -1.0505
 9956SOL    HW230768   4.174   4.694   6.613  0.2294 -1.3120  0.0174
 9957SOL     OW30769   3.116   2.203   6.383  0.4538  0.4170  0.2699
 9957SOL    HW130770   3.163   2.114   6.386  1.2551  0.8526  1.4418
 9957SOL    HW230771   3.023   2.192   6.417  0.9090  0.2176  1.4885
 9958SOL     OW30772   4.623   2.252   3.422 -0.0886 -0.3056 -0.2378
 9958SOL    HW130773   4.564   2.333   3.423 -0.6292 -0.6745  1.4467
 9958SOL    HW230774   4.589   2.186   3.489  0.5268 -1.8097 -1.3673
 9959SOL     OW30775   6.689   5.147   4.996  0.4638  0.3459 -0.4013
 9959SOL    HW130776   6.671   5.056   4.957 -0.1153  0.8897 -1.4436
 9959SOL    HW230777   6.705   5.212   4.922 -3.9054  2.1461 -0.0755
 9960SOL     OW30778   7.014   6.255   1.370  0.1494 -0.6549  0.3251
 9960SOL    HW130779   6.914   6.254   1.367  0.0295  0.1119  2.2039
 9960SOL    HW230780   7.050   6.227   1.282 -1.7225  0.4138 -0.8731
 9961SOL     OW30781   0.924   5.712   6.589  0.3016 -0.4885  0.4442
 9961SOL    HW130782   0.993   5.649   6.625  0.5847 -1.0639 -1.0249
 9961SOL    HW230783   0.834   5.669   6.592 -0.0316  0.2284  2.2759
 9962SOL     OW30784   4.119   3.651   2.515  0.1636 -0.7699  0.2274
 9962SOL    HW130785   4.047   3.645   2.584  1.7563  1.1868  2.1944
 9962SOL    HW230786   4.208   3.640   2.559  1.3052  1.7006 -1.2607
 9963SOL     OW30787   6.124   0.815   1.146 -0.4272  0.2947 -0.0293
 9963SOL    HW130788   6.111   0.827   1.244 -1.8671  1.5659 -0.3411
 9963SOL    HW230789   6.180   0.890   1.110  1.1807 -0.8348 -0.0265
 9964SOL     OW30790   4.707   1.198   3.537 -0.4074  0.0134  0.4414
 9964SOL    HW130791   4.650   1.117   3.552  0.2101 -0.1252  2.1912
 9964SOL    HW230792   4.789   1.171   3.486 -1.2079 -0.0353 -0.8703
 9965SOL     OW30793   2.319   4.371   4.676  0.0813  0.5013  0.3118
 9965SOL    HW130794   2.295   4.275   4.691 -0.2987  0.3520 -1.1404
 9965SOL    HW230795   2.344   4.413   4.764 -3.0755  0.0143  1.5694
 9966SOL     OW30796   6.964   3.173   0.988  0.5447  0.0762 -0.1652
 9966SOL    HW130797   7.045   3.213   1.032  0.4281 -0.7997  0.8837
 9966SOL    HW230798   6.991   3.129   0.902  1.1524 -0.0461  0.0835
 9967SOL     OW30799   2.596   3.678   1.209 -0.5243 -0.3772  0.1516
 9967SOL    HW130800   2.695   3.680   1.198 -0.6335 -0.1096 -0.8805
 9967SOL    HW230801   2.557   3.763   1.175 -1.2649 -1.2566 -1.2797
 9968SOL     OW30802   2.980   5.482   2.726  0.3886 -0.2531  0.0424
 9968SOL    HW130803   3.040   5.404   2.710  1.8493  1.0114 -0.8752
 9968SOL    HW230804   2.897   5.472   2.671  0.5777 -1.1289 -0.1013
 9969SOL     OW30805   5.064   4.012   3.601  0.1407 -0.2172 -0.0987
 9969SOL    HW130806   5.074   4.008   3.502 -0.7205 -2.1492 -0.1553
 9969SOL    HW230807   5.100   3.927   3.641 -1.9319 -0.6408  0.9769
 9970SOL     OW30808   0.380   5.244   0.698  0.7705  0.1469 -0.1759
 9970SOL    HW130809   0.299   5.188   0.685  0.7148  0.4713 -1.3155
 9970SOL    HW230810   0.454   5.210   0.640  1.4188 -0.0523  0.7349
 9971SOL     OW30811   4.839   2.375   4.328 -0.3631 -0.7577 -0.1988
 9971SOL    HW130812   4.807   2.439   4.398 -0.1235 -1.3122  0.4265
 9971SOL    HW230813   4.901   2.308   4.370 -1.0932 -1.7785 -0.7134
 9972SOL     OW30814   2.453   3.025   6.047 -0.1428 -0.3168 -0.0385
 9972SOL    HW130815   2.515   3.102   6.066 -0.3045  0.1571 -1.3431
 9972SOL    HW230816   2.392   3.012   6.124 -0.6157  1.3626 -0.0868
 9973SOL     OW30817   6.029   4.221   3.767 -0.5011  0.3775 -0.5081
 9973SOL    HW130818   6.108   4.191   3.714 -1.9985 -0.9417 -2.0806
 9973SOL    HW230819   6.002   4.313   3.737 -0.5359  0.1731 -1.1120
 9974SOL     OW30820   2.726   1.645   0.907 -0.6765 -0.5273 -0.0455
 9974SOL    HW130821   2.759   1.553   0.926 -0.5879 -0.4119  0.3620
 9974SOL    HW230822   2.732   1.701   0.990 -1.6712 -0.4402 -0.0177
 9975SOL     OW30823   1.484   5.154   6.133 -0.0344  0.1225  0.1780
 9975SOL    HW130824   1.442   5.076   6.180 -1.8822  0.1174 -1.3526
 9975SOL    HW230825   1.492   5.231   6.197  0.4275 -0.8285  1.3055
 9976SOL     OW30826   4.301   5.638   5.378  0.0827  0.0851  0.0535
 9976SOL    HW130827   4.252   5.560   5.340  0.1284  1.2241 -2.5460
 9976SOL    HW230828   4.381   5.659   5.321  1.1413  0.9336  1.7397
 9977SOL     OW30829   0.580   2.889   5.313  0.2569 -0.1618  1.3398
 9977SOL    HW130830   0.507   2.956   5.325 -1.6966 -1.3751 -2.1526
 9977SOL    HW230831   0.576   2.822   5.387 -0.0235  1.5529  2.9523
 9978SOL     OW30832   5.407   4.521   3.366 -0.4570  0.3657 -0.3015
 9978SOL    HW130833   5.454   4.592   3.314  1.6813 -0.7065  0.0469
 9978SOL    HW230834   5.472   4.448   3.390 -1.8921 -0.3205  1.8420
 9979SOL     OW30835   0.871   3.795   6.372 -0.1117 -0.0370 -0.1322
 9979SOL    HW130836   0.806   3.768   6.442  1.8571 -1.0053  1.4147
 9979SOL    HW230837   0.927   3.871   6.406  0.0581  0.3134 -1.1526
 9980SOL     OW30838   6.762   2.911   2.683  0.4849  0.7405 -0.0424
 9980SOL    HW130839   6.762   2.824   2.733  0.9786  0.9883  0.4054
 9980SOL    HW230840   6.840   2.967   2.713 -0.4376  1.7933  0.4851
 9981SOL     OW30841   5.075   0.334   3.165  0.0207  0.2633 -0.4916
 9981SOL    HW130842   5.073   0.302   3.070 -0.9173  1.1780 -0.8041
 9981SOL    HW230843   5.036   0.264   3.225  1.9931 -0.9596 -0.5317
 9982SOL     OW30844   5.943   3.985   1.708  0.2209  0.2286  0.0862
 9982SOL    HW130845   5.885   3.997   1.789  0.2560  0.6537  0.0504
 9982SOL    HW230846   5.945   4.070   1.656 -0.6765 -0.3581 -0.9450
 9983SOL     OW30847   4.277   5.017   1.661  0.2345 -0.1175  0.6205
 9983SOL    HW130848   4.268   4.971   1.573  1.9628 -0.9339  0.8314
 9983SOL    HW230849   4.263   4.951   1.735 -1.3260  0.5867  0.9912
 9984SOL     OW30850   6.131   0.338   0.788  0.0128 -0.3256 -0.1042
 9984SOL    HW130851   6.089   0.428   0.790  1.4375  0.4220 -2.0348
 9984SOL    HW230852   6.072   0.275   0.737 -0.8424 -0.4558  1.0010
 9985SOL     OW30853   5.279   5.730   5.722 -0.4635  0.4701  0.9577
 9985SOL    HW130854   5.265   5.670   5.801 -1.8753  0.3829  0.6676
 9985SOL    HW230855   5.260   5.679   5.638  1.8360  0.3124  0.4682
 9986SOL     OW30856   2.384   1.446   1.342  0.1322  0.0532  0.3400
 9986SOL    HW130857   2.444   1.370   1.367  1.4665  1.5219  1.8026
 9986SOL    HW230858   2.343   1.428   1.253  0.3031 -2.4169  0.6833
 9987SOL     OW30859   2.286   6.714   5.647  0.4133 -0.1321  0.0965
 9987SOL    HW130860   2.305   6.802   5.605 -2.6131  0.3267 -0.5313
 9987SOL    HW230861   2.303   6.720   5.746  1.2458  0.7863 -0.0845
 9988SOL     OW30862   0.153   6.341   1.142 -0.1793 -0.3503  0.4388
 9988SOL    HW130863   0.136   6.339   1.044 -0.0703 -2.1068  0.4297
 9988SOL    HW230864   0.092   6.408   1.185  0.2151  0.9114 -0.8760
 9989SOL     OW30865   1.650   6.267   6.278  0.3362  0.3498 -0.1187
 9989SOL    HW130866   1.569   6.296   6.227  0.6791  0.1981 -0.7633
 9989SOL    HW230867   1.667   6.330   6.353  0.9774  1.7718 -1.4009
 9990SOL     OW30868   6.283   1.948   4.512 -0.0413 -0.3914  0.4325
 9990SOL    HW130869   6.281   1.874   4.579  0.0072 -1.0311 -0.2686
 9990SOL    HW230870   6.367   2.000   4.523  0.3790 -1.0366  0.2797
 9991SOL     OW30871   3.468   5.921   1.963  0.0473 -0.1220  0.3223
 9991SOL    HW130872   3.467   5.966   2.052  1.7786  1.5357 -0.4231
 9991SOL    HW230873   3.562   5.914   1.930 -0.5431 -0.7965 -1.3358
 9992SOL     OW30874   4.263   3.855   1.813 -0.1272  0.3714 -0.4521
 9992SOL    HW130875   4.204   3.807   1.879 -0.4700  1.6941  0.2299
 9992SOL    HW230876   4.309   3.787   1.755  0.1943 -0.8529  1.1437
 9993SOL     OW30877   4.655   5.545   3.473 -0.4934  0.1224 -0.0247
 9993SOL    HW130878   4.727   5.477   3.479 -1.6723 -1.2739 -0.8824
 9993SOL    HW230879   4.566   5.499   3.478 -1.3244  1.6779 -0.0245
 9994SOL     OW30880   6.369   3.119   6.182 -0.4796 -0.1542  0.0128
 9994SOL    HW130881   6.437   3.063   6.230 -0.0141 -0.8142 -1.3882
 9994SOL    HW230882   6.381   3.110   6.084  0.0563  2.9716 -0.2861
 9995SOL     OW30883   5.854   6.791   0.337  0.0801  0.3530  0.3725
 9995SOL    HW130884   5.894   6.719   0.394 -0.9534 -0.9807 -0.5154
 9995SOL    HW230885   5.834   6.754   0.246 -0.9382  1.6292  0.0520
 9996SOL     OW30886   5.873   3.533   0.879 -0.1730 -0.0576 -0.1933
 9996SOL    HW130887   5.916   3.483   0.803  0.6145 -0.6510  0.6189
 9996SOL    HW230888   5.944   3.566   0.941 -0.6690  2.0501 -0.6511
 9997SOL     OW30889   2.732   5.723   2.392  0.5080  0.6542 -0.2756
 9997SOL    HW130890   2.673   5.791   2.435  0.7665  0.7709 -0.1024
 9997SOL    HW230891   2.714   5.721   2.294 -0.2800  0.1940 -0.1338
 9998SOL     OW30892   2.662   0.967   6.312 -0.3892 -0.2911  0.6170
 9998SOL    HW130893   2.733   1.038   6.317 -1.1533  0.5189  0.1803
 9998SOL    HW230894   2.624   0.952   6.403 -1.0944  0.7809  0.5170
 9999SOL     OW30895   6.683   1.460   2.696  0.8105  0.3794  0.2596
 9999SOL    HW130896   6.758   1.459   2.762  1.1328 -0.3323 -0.1078
 9999SOL    HW230897   6.678   1.372   2.649 -0.6073  0.2220  0.6649
10000SOL     OW30898   0.211   4.728   3.198  0.3295 -0.6739 -0.2777
10000SOL    HW130899   0.261   4.714   3.113  1.4062  0.9372  0.0327
10000SOL    HW230900   0.239   4.658   3.264  1.2265 -0.5691 -0.5309
10001SOL     OW30901   3.824   1.693   2.977 -0.1917  0.6505  0.6244
10001SOL    HW130902   3.900   1.683   2.913 -0.4354  1.5395  0.1742
10001SOL    HW230903   3.760   1.762   2.942  0.1532  1.8775  2.2961
10002SOL     OW30904   3.007   5.867   3.978 -1.0901  0.1090 -0.6670
10002SOL    HW130905   3.056   5.782   3.997  0.4426  0.5732 -2.2567
10002SOL    HW230906   2.954   5.857   3.893 -0.5243  0.8493 -1.1245
10003SOL     OW30907   6.764   3.888   3.527 -0.4955 -0.2378  0.0687
10003SOL    HW130908   6.808   3.945   3.597 -1.5731 -1.7852  2.1419
10003SOL    HW230909   6.686   3.937   3.488  0.3200  0.7792 -0.3314
10004SOL     OW30910   0.445   2.722   1.921 -0.0646 -0.3091  0.1187
10004SOL    HW130911   0.348   2.720   1.894 -0.1398 -0.4873  0.3999
10004SOL    HW230912   0.491   2.796   1.871 -0.2240 -0.5624 -0.4119
10005SOL     OW30913   3.670   4.838   0.669 -0.4349  0.2432  0.1858
10005SOL    HW130914   3.605   4.857   0.596  2.3341  0.4781 -2.3746
10005SOL    HW230915   3.728   4.919   0.684  1.2387 -0.9260  0.2474
10006SOL     OW30916   3.555   6.034   1.645 -0.3193 -0.0464  0.0567
10006SOL    HW130917   3.467   6.046   1.690 -0.6839  2.9188 -1.2647
10006SOL    HW230918   3.621   6.099   1.683 -0.0005  0.9189 -2.0111
10007SOL     OW30919   6.633   1.759   1.455  0.0077  0.3051  0.0619
10007SOL    HW130920   6.719   1.762   1.403  0.1590 -2.5015  0.0087
10007SOL    HW230921   6.560   1.726   1.396 -0.8070  1.2723  0.5097
10008SOL     OW30922   2.974   0.491   1.804 -0.3666  0.2353 -0.1827
10008SOL    HW130923   2.954   0.570   1.862  1.9136  0.1856  0.7748
10008SOL    HW230924   2.978   0.409   1.861  0.8196  0.0073 -0.5710
10009SOL     OW30925   5.577   4.981   4.847  0.8514  0.1586 -0.1427
10009SOL    HW130926   5.519   5.062   4.834  0.5528 -0.0515 -0.1293
10009SOL    HW230927   5.520   4.903   4.874  0.7689 -0.7010 -2.5663
10010SOL     OW30928   3.788   6.309   2.833  0.0936 -0.4887  0.6778
10010SOL    HW130929   3.713   6.352   2.882 -0.3873 -0.1515 -0.3134
10010SOL    HW230930   3.770   6.211   2.825 -1.5016 -0.1054 -1.5936
10011SOL     OW30931   6.963   6.834   3.192 -0.2257 -0.0530 -0.2668
10011SOL    HW130932   6.879   6.786   3.168 -0.9293  0.7855  0.4650
10011SOL    HW230933   7.023   6.837   3.112  0.5337 -3.4458  0.0001
10012SOL     OW30934   4.650   4.040   5.828 -0.6017 -0.1831  0.4978
10012SOL    HW130935   4.557   4.072   5.812 -0.1104  1.4965  0.7423
10012SOL    HW230936   4.695   4.025   5.740 -1.6126 -2.7910  0.3385
10013SOL     OW30937   0.561   6.314   3.377  0.2376 -0.4805  0.4692
10013SOL    HW130938   0.653   6.354   3.372 -0.0692  0.2817  0.7963
10013SOL    HW230939   0.569   6.215   3.394  0.9931 -0.4524  0.3364
10014SOL     OW30940   0.596   1.052   3.949 -0.5003  0.1137  0.0516
10014SOL    HW130941   0.623   1.135   3.900  1.0580  0.3831  1.2733
10014SOL    HW230942   0.522   1.073   4.012  0.6431  0.9098  1.1914
10015SOL     OW30943   6.366   1.044   4.030 -0.5089  0.4552 -0.8396
10015SOL    HW130944   6.355   0.978   3.956 -1.9347 -0.4518  0.1429
10015SOL    HW230945   6.408   0.998   4.109 -1.3233  0.7725 -0.2168
10016SOL     OW30946   3.609   2.945   6.692 -0.0682 -0.2263  0.4065
10016SOL    HW130947   3.518   2.909   6.713 -0.0622 -1.3997 -1.3794
10016SOL    HW230948   3.637   2.916   6.601  1.7585  0.8374  0.5608
10017SOL     OW30949   2.044   2.432   6.774  0.1052  0.1601 -0.0498
10017SOL    HW130950   1.973   2.363   6.774  1.9721 -1.8925  1.1747
10017SOL    HW230951   2.105   2.417   6.852  2.5543  1.0657 -1.6726
10018SOL     OW30952   6.559   5.430   0.555 -0.1878  0.1765 -0.0358
10018SOL    HW130953   6.464   5.435   0.588 -0.4382  1.3644 -0.8630
10018SOL    HW230954   6.619   5.403   0.630 -0.9960  0.9026  0.8951
10019SOL     OW30955   4.777   4.168   6.026 -0.6170 -0.1646 -0.0846
10019SOL    HW130956   4.810   4.256   5.993 -0.6693 -0.0260  0.2295
10019SOL    HW230957   4.730   4.120   5.952  0.8180 -0.6425 -0.7152
10020SOL     OW30958   0.130   0.844   1.429 -0.0456 -0.5093 -0.0845
10020SOL    HW130959   0.086   0.881   1.347 -0.5201 -2.0478 -0.5566
10020SOL    HW230960   0.228   0.832   1.413 -0.2384 -1.3637 -0.6393
10021SOL     OW30961   0.343   3.699   5.137  0.4367  0.2543  0.0618
10021SOL    HW130962   0.333   3.713   5.236 -0.4785 -0.3932  0.0787
10021SOL    HW230963   0.275   3.633   5.106  2.1171 -1.2323 -0.6392
10022SOL     OW30964   0.117   1.411   0.901 -0.4718 -0.4219  0.0365
10022SOL    HW130965   0.092   1.450   0.812 -0.5283  1.4473  0.8315
10022SOL    HW230966   0.193   1.463   0.940 -1.4117 -0.2504  1.7338
10023SOL     OW30967   2.090   0.181   3.592 -0.4608  0.4426  0.4160
10023SOL    HW130968   2.029   0.112   3.633 -1.6820  0.3715 -1.4338
10023SOL    HW230969   2.089   0.263   3.649 -0.6180 -0.3112  1.5421
10024SOL     OW30970   4.411   0.659   5.267  0.7294  0.0690  0.0517
10024SOL    HW130971   4.321   0.675   5.227  1.1881  2.1372 -0.2895
10024SOL    HW230972   4.422   0.717   5.348  1.0169 -1.6858  1.3328
10025SOL     OW30973   6.018   4.814   1.637 -0.2487  0.1939 -0.2592
10025SOL    HW130974   6.017   4.742   1.707 -2.1845  0.3231 -0.1229
10025SOL    HW230975   6.093   4.795   1.572  1.3883 -0.0959  1.6120
10026SOL     OW30976   3.131   2.749   0.766  0.0062 -0.0298 -0.1705
10026SOL    HW130977   3.208   2.698   0.803  0.9647  1.3604 -0.1400
10026SOL    HW230978   3.096   2.812   0.835 -0.2169  0.3532 -0.6200
10027SOL     OW30979   0.181   0.344   2.158 -0.1776  0.4600  0.2088
10027SOL    HW130980   0.213   0.258   2.118  0.0945 -0.1524  1.6508
10027SOL    HW230981   0.110   0.324   2.226  0.0851  1.3419  0.7511
10028SOL     OW30982   1.814   2.288   1.335  0.2554  0.1404  0.1594
10028SOL    HW130983   1.791   2.316   1.428 -0.0112  0.3656  0.0307
10028SOL    HW230984   1.913   2.282   1.325  0.2731 -0.2841  0.5709
10029SOL     OW30985   4.110   3.908   6.613 -0.1790 -0.5000 -0.2867
10029SOL    HW130986   4.162   3.827   6.643  1.3227  0.2727 -0.6859
10029SOL    HW230987   4.097   3.969   6.691 -0.4066 -0.6531 -0.2044
10030SOL     OW30988   1.224   3.696   5.011  0.8236  0.1521  0.3618
10030SOL    HW130989   1.140   3.671   5.059 -1.0323  1.8465 -1.8091
10030SOL    HW230990   1.291   3.623   5.023 -0.6258 -0.9190  2.8112
10031SOL     OW30991   4.303   3.662   6.332 -0.3689 -0.5161  0.2962
10031SOL    HW130992   4.392   3.691   6.366  1.4863 -2.1120 -2.7146
10031SOL    HW230993   4.271   3.726   6.263 -0.3730 -1.1614 -0.3107
10032SOL     OW30994   3.431   0.158   4.432  0.8393  0.2974  0.1486
10032SOL    HW130995   3.362   0.153   4.360  0.9327  0.9113  0.0131
10032SOL    HW230996   3.395   0.119   4.516  0.6852 -0.3188 -0.1941
10033SOL     OW30997   2.562   0.327   4.997 -0.0898 -0.7528  0.9999
10033SOL    HW130998   2.652   0.334   5.039  0.3567 -0.1887 -0.0072
10033SOL    HW230999   2.498   0.386   5.045  0.4480 -0.0041  0.8163
10034SOL     OW31000   6.054   5.254   2.381 -0.6338 -0.6108  0.3379
10034SOL    HW131001   5.994   5.238   2.459  1.2172  0.0726  2.0040
10034SOL    HW231002   6.074   5.352   2.375  2.4108 -1.0336  1.6170
10035SOL     OW31003   5.439   3.497   4.608 -0.5924 -0.3118 -0.8643
10035SOL    HW131004   5.375   3.502   4.684  1.1315  0.8901  0.5960
10035SOL    HW231005   5.462   3.589   4.577  2.5487 -0.4777  0.6055
10036SOL     OW31006   4.901   6.559   0.945 -0.5216 -0.1120  0.0572
10036SOL    HW131007   4.997   6.580   0.962 -0.1681 -1.8938  0.3674
10036SOL    HW231008   4.856   6.539   1.032 -1.3525  1.2612 -0.0133
10037SOL     OW31009   0.326   5.024   5.002 -0.0089  0.0269  0.1993
10037SOL    HW131010   0.397   5.016   4.932  0.5187  1.2572  0.5591
10037SOL    HW231011   0.354   4.972   5.083 -0.3939 -0.9977 -0.3111
10038SOL     OW31012   6.554   4.395   4.605 -0.2869 -0.1512 -0.6946
10038SOL    HW131013   6.518   4.304   4.582 -0.6010  0.1649 -1.4879
10038SOL    HW231014   6.479   4.453   4.636 -0.1369 -0.0714 -0.4834
10039SOL     OW31015   2.556   5.156   1.937 -0.5278 -0.1454  0.5101
10039SOL    HW131016   2.628   5.187   1.999  0.9377 -0.9817 -0.7020
10039SOL    HW231017   2.510   5.077   1.977 -1.1484  0.7002  1.5224
10040SOL     OW31018   1.419   3.346   2.309 -0.1182  0.0600  0.1505
10040SOL    HW131019   1.384   3.350   2.403  0.4796  0.7482  0.3600
10040SOL    HW231020   1.401   3.433   2.264  0.3632  0.0386 -0.0865
10041SOL     OW31021   2.260   2.858   3.670  0.2263  0.4706  0.5165
10041SOL    HW131022   2.284   2.876   3.765  0.2687  1.1427  0.3807
10041SOL    HW231023   2.340   2.822   3.622 -0.0046 -0.6240  0.9185
10042SOL     OW31024   4.844   6.875   5.591 -0.2180  0.0227  0.0046
10042SOL    HW131025   4.824   6.892   5.495  2.5886  0.4523 -0.5833
10042SOL    HW231026   4.896   6.953   5.628 -0.2417 -0.6592  1.5341
10043SOL     OW31027   2.193   6.051   3.722 -0.0249 -0.0194  0.1880
10043SOL    HW131028   2.251   5.985   3.674  0.1628 -0.7326  1.3503
10043SOL    HW231029   2.246   6.132   3.745 -0.8232  1.7460 -3.3873
10044SOL     OW31030   2.051   6.188   1.593  0.1622 -0.2700  0.1762
10044SOL    HW131031   2.047   6.280   1.556 -3.0781 -0.3963 -0.1096
10044SOL    HW231032   2.012   6.124   1.526  2.0888 -1.8454  0.4802
10045SOL     OW31033   0.182   2.284   3.555  0.2920  0.2268  0.5655
10045SOL    HW131034   0.257   2.309   3.617  1.1151  0.5595 -0.5232
10045SOL    HW231035   0.124   2.364   3.540  0.4528  0.3212  0.4350
10046SOL     OW31036   3.100   2.308   0.769 -0.4568 -0.0363  0.5079
10046SOL    HW131037   3.187   2.316   0.720 -2.1172 -0.3603 -2.7328
10046SOL    HW231038   3.116   2.268   0.859  2.6202 -0.9287 -0.3346
10047SOL     OW31039   1.690   3.070   5.081 -0.0280 -0.0903 -0.0376
10047SOL    HW131040   1.774   3.125   5.078  0.2715 -0.5319  0.0810
10047SOL    HW231041   1.615   3.120   5.038  0.2316  0.4234  0.0979
10048SOL     OW31042   4.492   0.247   2.273 -0.7935  0.2526  0.1914
10048SOL    HW131043   4.496   0.148   2.288 -0.5509  0.3847  1.0693
10048SOL    HW231044   4.570   0.276   2.218 -1.1312 -0.1056 -0.4913
10049SOL     OW31045   4.971   5.246   5.290  0.5585 -0.1333 -0.2961
10049SOL    HW131046   4.961   5.239   5.389 -0.3988  0.4027 -0.3417
10049SOL    HW231047   4.895   5.198   5.245 -0.1109  1.2750 -0.7238
10050SOL     OW31048   4.356   0.977   0.844 -0.1107  0.5015 -0.2102
10050SOL    HW131049   4.272   0.987   0.896 -0.2116  2.3442 -0.6687
10050SOL    HW231050   4.433   1.010   0.899  0.1297  0.1936 -0.3530
10051SOL     OW31051   3.543   1.111   1.552 -0.1996  0.5010 -0.5359
10051SOL    HW131052   3.629   1.060   1.561 -0.9314 -0.4632  1.6797
10051SOL    HW231053   3.467   1.046   1.547 -0.8626  1.3501 -2.2825
10052SOL     OW31054   5.656   3.834   4.937  0.3564  0.0177  0.5985
10052SOL    HW131055   5.621   3.868   5.024  0.1132 -1.4613  1.1125
10052SOL    HW231056   5.755   3.827   4.942  0.3437 -0.0576  0.7502
10053SOL     OW31057   2.958   0.581   0.712  0.0503 -0.5840  0.1299
10053SOL    HW131058   2.962   0.650   0.784 -0.2994  0.1661 -0.5549
10053SOL    HW231059   3.048   0.574   0.668 -0.3082  0.5942 -0.8451
10054SOL     OW31060   1.519   3.737   2.376  0.2925  0.4248 -0.2396
10054SOL    HW131061   1.607   3.696   2.400  0.4818  0.3735 -1.0004
10054SOL    HW231062   1.511   3.743   2.276 -1.0754 -0.6923 -0.2378
10055SOL     OW31063   6.604   0.506   5.725  0.5624 -0.0170  1.2163
10055SOL    HW131064   6.594   0.507   5.626 -0.2851  0.4465  1.3006
10055SOL    HW231065   6.614   0.411   5.756 -0.1541 -0.2424  0.7805
10056SOL     OW31066   3.870   6.442   2.611 -0.3478  0.4716  0.3949
10056SOL    HW131067   3.967   6.424   2.593 -0.5014  0.7402 -0.7811
10056SOL    HW231068   3.844   6.397   2.696  0.6947 -0.0027  0.4869
10057SOL     OW31069   4.471   2.242   5.103 -0.1849  0.7943  0.1733
10057SOL    HW131070   4.471   2.158   5.158  1.4324 -0.6147 -1.8160
10057SOL    HW231071   4.406   2.307   5.142  0.1429 -0.4827  3.1022
10058SOL     OW31072   5.647   4.138   3.986  0.0323  0.6764 -0.5622
10058SOL    HW131073   5.721   4.189   4.030  0.4550 -0.8323  0.5439
10058SOL    HW231074   5.601   4.081   4.053  0.5026 -1.4978 -1.9772
10059SOL     OW31075   3.868   4.753   0.473  0.5440 -0.1868  0.1429
10059SOL    HW131076   3.794   4.780   0.534  0.9144  1.1295  0.0358
10059SOL    HW231077   3.853   4.659   0.443 -0.4574 -0.3356  1.0353
10060SOL     OW31078   6.659   2.815   6.161  0.5203 -0.2389 -0.1657
10060SOL    HW131079   6.578   2.761   6.184  0.0008  0.7294  0.3361
10060SOL    HW231080   6.707   2.840   6.246  1.3246 -0.7588 -0.4523
10061SOL     OW31081   4.954   4.878   0.737 -0.2087  0.0456  0.4703
10061SOL    HW131082   4.911   4.811   0.797  0.0658 -0.1976  0.3967
10061SOL    HW231083   5.044   4.845   0.708 -0.5509 -0.0834 -0.5007
10062SOL     OW31084   5.887   3.106   0.542  0.2842 -0.0489  0.1003
10062SOL    HW131085   5.908   3.121   0.638 -1.8152 -1.6300  0.8690
10062SOL    HW231086   5.942   3.030   0.507 -0.1137 -0.5351  0.5235
10063SOL     OW31087   4.830   2.298   4.638  0.0347 -0.1349  0.3313
10063SOL    HW131088   4.784   2.210   4.633 -0.0911 -0.0874  0.6309
10063SOL    HW231089   4.767   2.366   4.676 -0.2132  0.3160 -0.8339
10064SOL     OW31090   2.624   1.958   2.052 -0.1014  0.0261  0.1015
10064SOL    HW131091   2.597   2.046   2.013 -0.2959 -0.4209 -0.7837
10064SOL    HW231092   2.719   1.938   2.028 -0.5185 -0.7054 -1.0040
10065SOL     OW31093   5.854   5.848   5.376 -0.3718  0.1554  0.7833
10065SOL    HW131094   5.914   5.909   5.324  0.4856 -0.7218  0.7152
10065SOL    HW231095   5.891   5.755   5.374 -2.5950 -0.7559 -0.6222
10066SOL     OW31096   5.095   4.553   2.227 -0.6642  0.4562 -0.7242
10066SOL    HW131097   5.162   4.500   2.175 -0.5379 -0.9139  0.7353
10066SOL    HW231098   5.004   4.515   2.213 -0.4025 -1.1257  1.3851
10067SOL     OW31099   4.037   6.408   3.300  0.7342 -0.8627  0.1650
10067SOL    HW131100   3.940   6.398   3.322  0.1965  0.9520 -1.1616
10067SOL    HW231101   4.070   6.497   3.331  1.5750 -0.8529 -0.7013
10068SOL     OW31102   4.311   6.629   0.329 -0.2095  0.3765  0.5017
10068SOL    HW131103   4.315   6.537   0.291 -0.6575  0.2520  0.7491
10068SOL    HW231104   4.268   6.691   0.264  4.6225  1.6149 -1.9655
10069SOL     OW31105   0.938   6.919   5.244 -0.5919  0.0250  0.3733
10069SOL    HW131106   0.915   6.821   5.238  0.9118 -0.3777  0.8065
10069SOL    HW231107   1.013   6.939   5.182 -2.2534  1.3863 -1.2847
10070SOL     OW31108   1.632   4.017   2.030  0.1958 -0.2532 -0.5502
10070SOL    HW131109   1.684   4.099   2.052 -0.9190 -0.0795  1.7220
10070SOL    HW231110   1.682   3.936   2.062 -0.2067 -0.1919  0.2625
10071SOL     OW31111   5.928   3.928   6.768  0.4861 -0.3954  0.1435
10071SOL    HW131112   5.992   3.907   6.695  1.5669 -1.5960  1.3661
10071SOL    HW231113   5.835   3.926   6.733  1.0684  1.3386 -1.6671
10072SOL     OW31114   0.260   4.574   4.598 -0.2640  0.3118  0.3440
10072SOL    HW131115   0.261   4.513   4.518 -1.1118  0.1473  0.4570
10072SOL    HW231116   0.353   4.582   4.633 -0.1029 -0.7959  0.2250
10073SOL     OW31117   3.745   0.514   5.450  0.0458  0.3295  0.4452
10073SOL    HW131118   3.659   0.563   5.460 -0.3029 -0.3171  0.7228
10073SOL    HW231119   3.743   0.460   5.366  0.3680  0.6688  0.2162
10074SOL     OW31120   2.493   1.786   5.808 -0.3938  0.3079  0.1053
10074SOL    HW131121   2.444   1.758   5.725 -0.9004  0.0537  0.4887
10074SOL    HW231122   2.576   1.731   5.817 -1.8963 -1.8942  1.4146
10075SOL     OW31123   5.295   1.598   5.393  0.3802 -0.0147  0.3932
10075SOL    HW131124   5.216   1.544   5.424  0.1544  1.2551  2.2092
10075SOL    HW231125   5.375   1.539   5.387 -0.8104 -1.5388 -2.3570
10076SOL     OW31126   4.809   2.881   1.303  0.2464  0.5527  0.0672
10076SOL    HW131127   4.779   2.788   1.324  0.9543  0.4977  0.9045
10076SOL    HW231128   4.740   2.926   1.246 -0.8313  0.0305  0.9165
10077SOL     OW31129   4.352   1.806   1.595  0.5813 -0.1154  0.2995
10077SOL    HW131130   4.431   1.865   1.614  0.2623  0.6258 -0.5894
10077SOL    HW231131   4.278   1.827   1.659  0.6633  0.0745  0.3330
10078SOL     OW31132   6.203   1.444   4.513  0.0526  0.4816  0.0745
10078SOL    HW131133   6.155   1.499   4.580 -1.3593 -0.5130 -0.0864
10078SOL    HW231134   6.258   1.375   4.560 -0.4399  0.1895  0.2303
10079SOL     OW31135   6.787   3.778   6.134 -0.0405 -0.1407 -0.1386
10079SOL    HW131136   6.755   3.871   6.147 -1.2703 -0.3468 -1.5116
10079SOL    HW231137   6.887   3.778   6.124  0.0440  0.9275  0.5432
10080SOL     OW31138   4.110   4.014   6.154 -0.2479  0.0788 -0.1183
10080SOL    HW131139   4.184   3.947   6.162  0.2866  0.4157 -1.7538
10080SOL    HW231140   4.147   4.098   6.114 -1.3092  0.6228  0.0360
10081SOL     OW31141   3.937   5.176   3.274 -0.1243  0.4168  0.7694
10081SOL    HW131142   3.921   5.264   3.319 -1.7853  0.5323 -0.0036
10081SOL    HW231143   4.000   5.121   3.330  1.2419  2.2087  1.0753
10082SOL     OW31144   3.088   4.869   5.592  0.5568 -0.5823  0.0036
10082SOL    HW131145   3.132   4.853   5.504  1.8812 -3.0661  1.0027
10082SOL    HW231146   3.073   4.781   5.638 -0.6850  0.5895  1.9822
10083SOL     OW31147   0.420   2.427   5.402  0.5011 -0.1700  0.0297
10083SOL    HW131148   0.350   2.496   5.419  0.6105  0.6500 -2.4483
10083SOL    HW231149   0.506   2.454   5.445  0.6159  1.4400 -1.1228
10084SOL     OW31150   5.629   4.959   2.863  0.1463 -0.1735  0.4541
10084SOL    HW131151   5.571   4.885   2.829 -0.0739 -0.3251  1.1444
10084SOL    HW231152   5.591   4.994   2.949  0.7508  0.1266  0.6028
10085SOL     OW31153   5.562   4.485   3.696 -0.2971  0.6919  0.0929
10085SOL    HW131154   5.478   4.442   3.730 -0.1935  0.8168  0.5137
10085SOL    HW231155   5.575   4.573   3.743  1.6243 -0.6445  2.2410
10086SOL     OW31156   5.562   6.440   4.075 -0.1814 -0.4273 -0.2785
10086SOL    HW131157   5.615   6.525   4.081 -0.2407 -0.2912 -1.4521
10086SOL    HW231158   5.520   6.433   3.985 -2.8674 -0.1539  0.8728
10087SOL     OW31159   6.879   0.545   2.196  0.1310  0.3344  0.1894
10087SOL    HW131160   6.872   0.487   2.277 -3.1515  0.2801 -0.0007
10087SOL    HW231161   6.900   0.639   2.225 -1.4675  0.4196  1.2191
10088SOL     OW31162   3.137   6.602   1.228 -0.5307 -0.2816 -0.1154
10088SOL    HW131163   3.070   6.618   1.300  0.7325  0.8402  0.8621
10088SOL    HW231164   3.155   6.687   1.180  0.7467 -0.3855  0.1493
10089SOL     OW31165   5.601   6.106   0.794 -0.4971 -0.5428  0.6713
10089SOL    HW131166   5.612   6.139   0.888  0.5625 -0.9828  0.7092
10089SOL    HW231167   5.636   6.175   0.731 -1.3087 -0.1993  0.5762
10090SOL     OW31168   3.362   6.752   0.322 -0.2938 -0.6608 -0.0507
10090SOL    HW131169   3.307   6.668   0.320 -1.1705 -0.0886 -0.7727
10090SOL    HW231170   3.324   6.818   0.258  1.2604 -0.2451 -0.5948
10091SOL     OW31171   6.122   1.484   1.513 -0.1737 -0.0147 -0.0307
10091SOL    HW131172   6.024   1.468   1.527 -0.2324 -0.7967 -1.1763
10091SOL    HW231173   6.143   1.579   1.535 -1.0135 -0.0506  1.0644
10092SOL     OW31174   0.650   1.979   5.826 -0.2462 -0.3465 -0.2690
10092SOL    HW131175   0.569   1.944   5.778  0.5145 -1.0608 -1.0593
10092SOL    HW231176   0.630   2.070   5.862 -0.8339  0.2278 -1.9665
10093SOL     OW31177   6.468   5.388   5.215  0.5290 -0.4723 -0.3586
10093SOL    HW131178   6.508   5.474   5.182 -2.7800  1.1839 -0.4105
10093SOL    HW231179   6.415   5.346   5.142 -0.6280 -0.7878  0.6403
10094SOL     OW31180   6.267   0.877   5.130 -0.2035 -0.6856  0.5918
10094SOL    HW131181   6.245   0.969   5.162 -0.5828 -0.2525 -0.8739
10094SOL    HW231182   6.366   0.867   5.124 -0.1038 -0.8327  1.9864
10095SOL     OW31183   4.424   7.009   3.776  0.0085 -0.6115  0.0145
10095SOL    HW131184   4.443   6.980   3.870 -0.8847  1.4153  0.8885
10095SOL    HW231185   4.505   7.053   3.738  0.1509 -0.8158  0.0760
10096SOL     OW31186   6.734   6.057   0.727  0.3176 -0.0554 -0.2437
10096SOL    HW131187   6.776   6.130   0.781 -0.6214  0.9129 -0.7789
10096SOL    HW231188   6.658   6.017   0.779 -0.3761  0.6520 -0.7016
10097SOL     OW31189   3.125   4.613   5.756  0.3834 -0.2144 -0.2972
10097SOL    HW131190   3.114   4.534   5.694 -0.1742  0.3499 -0.9436
10097SOL    HW231191   3.216   4.652   5.743  0.0186  0.3464 -1.3304
10098SOL     OW31192   1.012   2.268   1.209  0.0086  0.6530 -0.2635
10098SOL    HW131193   1.016   2.176   1.170  1.6874  0.3454  0.5070
10098SOL    HW231194   1.096   2.318   1.185  0.4560  0.9447  1.6684
10099SOL     OW31195   2.541   6.633   4.539  0.0068 -0.6047  0.0965
10099SOL    HW131196   2.444   6.625   4.517  0.0414 -0.0628 -0.2668
10099SOL    HW231197   2.561   6.579   4.621 -0.7153 -0.2458  0.5114
10100SOL     OW31198   3.036   4.647   1.708 -0.1177  0.1669 -0.3533
10100SOL    HW131199   2.988   4.566   1.745 -1.8904  0.4176 -1.9442
10100SOL    HW231200   3.024   4.724   1.771 -0.0389 -0.3121  0.2619
10101SOL     OW31201   1.297   5.993   1.951 -0.3168 -0.1607 -0.2562
10101SOL    HW131202   1.239   6.021   2.027 -0.2266  1.8103 -0.8496
10101SOL    HW231203   1.368   5.930   1.984  1.3968  2.6579  1.9134
10102SOL     OW31204   5.269   0.654   1.637  0.4333  0.1644 -0.1644
10102SOL    HW131205   5.347   0.714   1.654  0.3993 -0.0517  0.8358
10102SOL    HW231206   5.280   0.610   1.548  1.0977  0.6749 -0.3435
10103SOL     OW31207   4.253   1.412   2.722  0.1354  0.0803  0.0214
10103SOL    HW131208   4.295   1.482   2.665 -1.6386  0.6306 -0.7086
10103SOL    HW231209   4.270   1.431   2.818  0.2010  1.1734 -0.1967
10104SOL     OW31210   2.580   1.894   0.615 -0.4791  0.1331 -0.2319
10104SOL    HW131211   2.676   1.915   0.636 -0.5433 -0.0278  0.2309
10104SOL    HW231212   2.522   1.927   0.689 -0.9960  1.9814 -1.3937
10105SOL     OW31213   0.852   6.975   4.793 -0.2958 -0.2180 -0.1587
10105SOL    HW131214   0.845   7.013   4.885  1.0643  0.2339 -0.2111
10105SOL    HW231215   0.889   7.045   4.731 -0.9641 -0.5916 -1.0082
10106SOL     OW31216   6.649   3.487   1.897 -0.0502 -0.6149 -0.3632
10106SOL    HW131217   6.660   3.392   1.924  0.4365 -0.6424 -0.6539
10106SOL    HW231218   6.570   3.496   1.836 -0.4833 -0.7248  0.1647
10107SOL     OW31219   1.154   4.834   5.061  0.7228 -0.3666  0.3001
10107SOL    HW131220   1.055   4.821   5.074  0.6659 -0.3166 -0.0895
10107SOL    HW231221   1.197   4.745   5.049  0.7672 -0.4101  0.7434
10108SOL     OW31222   6.091   0.191   6.916  0.2935  0.2325 -0.2693
10108SOL    HW131223   6.170   0.248   6.938  0.2834 -0.0267  0.4634
10108SOL    HW231224   6.116   0.095   6.928 -0.0243  0.1359 -0.3956
10109SOL     OW31225   0.517   4.597   6.367  0.1756  0.2060  0.1789
10109SOL    HW131226   0.529   4.675   6.428 -1.9652 -0.5686  1.7240
10109SOL    HW231227   0.546   4.513   6.413 -1.2561 -0.3583  0.1146
10110SOL     OW31228   0.517   5.779   6.938  0.3618  0.6391 -0.4996
10110SOL    HW131229   0.421   5.753   6.928  0.0756  2.0973 -2.0093
10110SOL    HW231230   0.576   5.706   6.903 -0.2678  0.5364 -1.3455
10111SOL     OW31231   0.779   1.946   0.578  0.3998  0.3978  0.7052
10111SOL    HW131232   0.803   2.041   0.597  0.5170  0.4612  0.2605
10111SOL    HW231233   0.686   1.929   0.609 -0.3523  1.2171 -0.9371
10112SOL     OW31234   3.172   1.124   0.457 -0.2389 -0.4542 -0.4553
10112SOL    HW131235   3.170   1.159   0.550  2.2709  1.5837 -1.0581
10112SOL    HW231236   3.089   1.152   0.409 -0.0764  1.3497  0.2537
10113SOL     OW31237   0.454   1.826   6.542  0.7053  0.1008 -0.1413
10113SOL    HW131238   0.459   1.925   6.558  1.7224 -0.0718  0.7176
10113SOL    HW231239   0.428   1.809   6.447 -0.9674  1.1820  0.0674
10114SOL     OW31240   2.848   5.350   6.122  0.6484  0.4774 -0.4976
10114SOL    HW131241   2.769   5.360   6.182  1.1461  2.7647 -0.0900
10114SOL    HW231242   2.840   5.414   6.046  0.9949 -0.9693 -1.7882
10115SOL     OW31243   0.048   2.061   3.619  0.0496  0.8306 -0.1393
10115SOL    HW131244  -0.044   2.082   3.651  0.1377  0.9118  0.0630
10115SOL    HW231245   0.093   2.146   3.590 -0.3942  0.6359 -1.4641
10116SOL     OW31246   1.608   2.926   2.709  0.1875  0.3443 -0.3389
10116SOL    HW131247   1.708   2.926   2.711  0.2001  0.8751 -0.7172
10116SOL    HW231248   1.577   2.863   2.638  0.2176 -0.7864  0.6253
10117SOL     OW31249   3.295   1.899   4.056 -0.2632 -0.5197 -0.5084
10117SOL    HW131250   3.282   1.995   4.031  0.7756 -0.8115 -2.3996
10117SOL    HW231251   3.286   1.843   3.974 -0.5881 -2.0152  0.5315
10118SOL     OW31252   2.952   6.012   1.064 -0.6622  0.0374 -0.1234
10118SOL    HW131253   3.046   5.978   1.064 -0.4648  0.5370  0.6639
10118SOL    HW231254   2.897   5.961   0.998 -0.5626 -2.3328  1.4931
10119SOL     OW31255   5.822   4.475   0.842  0.5807  0.2597 -0.5286
10119SOL    HW131256   5.768   4.479   0.926 -1.0881  0.5921 -1.5672
10119SOL    HW231257   5.874   4.389   0.839 -0.1450 -0.2221  0.3595
10120SOL     OW31258   0.627   5.206   2.342  0.0433  0.0556  0.1552
10120SOL    HW131259   0.699   5.136   2.333 -0.0625  0.1282 -1.5119
10120SOL    HW231260   0.540   5.161   2.362  0.3369 -0.1157  1.1012
10121SOL     OW31261   6.956   0.565   1.726  0.4808 -0.4451  0.2764
10121SOL    HW131262   7.000   0.550   1.815 -1.4591  0.0372  1.3679
10121SOL    HW231263   6.886   0.496   1.711  0.3130 -0.0980 -0.5813
10122SOL     OW31264   3.335   6.705   3.961  0.0708  0.5889 -0.5183
10122SOL    HW131265   3.390   6.671   3.884  0.6861  1.9197 -0.7068
10122SOL    HW231266   3.244   6.729   3.928 -0.2442 -0.4797 -0.4584
10123SOL     OW31267   3.009   6.507   4.363 -0.5207  0.4709  0.0695
10123SOL    HW131268   2.950   6.588   4.362 -1.8777 -0.4864  0.0280
10123SOL    HW231269   3.028   6.478   4.269  1.3015  1.6275  0.0178
10124SOL     OW31270   6.128   2.740   0.725 -0.0663  0.1558  0.5717
10124SOL    HW131271   6.068   2.683   0.668 -1.2968  2.3833 -0.4733
10124SOL    HW231272   6.079   2.767   0.808  0.4372 -0.1263  0.9646
10125SOL     OW31273   4.289   2.685   6.768 -0.2081 -0.1574  0.2054
10125SOL    HW131274   4.351   2.611   6.795  0.6401  0.9113  1.3296
10125SOL    HW231275   4.198   2.648   6.750  0.2972 -1.5170  0.3187
10126SOL     OW31276   4.094   1.632   0.727 -0.0012  0.2749  0.2110
10126SOL    HW131277   4.187   1.604   0.702 -0.0957 -0.6355  0.8391
10126SOL    HW231278   4.051   1.678   0.650  0.4169 -0.6935 -0.6108
10127SOL     OW31279   0.018   5.271   0.771  0.1244 -0.6182  0.0431
10127SOL    HW131280   0.014   5.362   0.812 -0.2634 -1.2770  1.5583
10127SOL    HW231281  -0.075   5.237   0.757  0.2549 -1.3887  0.9623
10128SOL     OW31282   0.046   6.040   6.180  0.8603 -0.1496 -0.6877
10128SOL    HW131283   0.031   6.098   6.100  0.0782 -1.5909 -1.6213
10128SOL    HW231284  -0.032   5.980   6.193  1.4943 -0.7530  0.4552
10129SOL     OW31285   1.832   3.718   3.121 -0.4293 -0.0751  0.3936
10129SOL    HW131286   1.784   3.806   3.128 -1.5248 -0.6373  0.0671
10129SOL    HW231287   1.767   3.643   3.132  0.5425 -0.8553  0.9207
10130SOL     OW31288   6.942   5.412   3.847  0.3476  0.0642 -0.5887
10130SOL    HW131289   6.887   5.496   3.841 -0.3134 -0.4627 -3.0880
10130SOL    HW231290   6.882   5.333   3.840  1.1346 -0.6121  0.1034
10131SOL     OW31291   0.151   4.917   3.447 -0.4483 -0.3821 -0.4696
10131SOL    HW131292   0.183   4.843   3.387 -1.9133 -0.7934 -0.8012
10131SOL    HW231293   0.051   4.916   3.450 -0.4389 -0.0185  1.5558
10132SOL     OW31294   6.299   1.510   6.952  0.0821 -0.1824  0.2800
10132SOL    HW131295   6.277   1.581   7.019  1.6806  0.0924  0.5655
10132SOL    HW231296   6.275   1.542   6.861  1.7444  1.2302  0.2765
10133SOL     OW31297   4.609   2.813   0.857  0.0714 -0.0555 -0.2358
10133SOL    HW131298   4.564   2.819   0.768  2.0102  0.2485 -1.2448
10133SOL    HW231299   4.701   2.775   0.845  0.8516  1.2078  1.4601
10134SOL     OW31300   0.516   5.311   1.944 -0.6493 -0.1436  0.6486
10134SOL    HW131301   0.503   5.212   1.943  1.0064 -0.3983  0.9945
10134SOL    HW231302   0.492   5.349   1.855 -1.1240 -0.8887  0.4542
10135SOL     OW31303   2.495   1.778   1.698  0.2539  0.3561  0.7796
10135SOL    HW131304   2.475   1.873   1.678  0.9905  0.6750  1.5010
10135SOL    HW231305   2.591   1.768   1.725  0.0410 -0.4828  1.2939
10136SOL     OW31306   6.397   4.198   4.835  0.0341 -0.1675  0.4266
10136SOL    HW131307   6.311   4.203   4.784  0.4927 -2.6061 -0.6978
10136SOL    HW231308   6.474   4.204   4.772  0.7355  1.3788  1.3635
10137SOL     OW31309   3.303   0.258   3.388  0.4072  0.1975  0.3546
10137SOL    HW131310   3.255   0.333   3.343  0.8896 -0.4138 -1.2613
10137SOL    HW231311   3.253   0.172   3.373  0.3488  0.0359  1.3847
10138SOL     OW31312   2.270   5.856   4.241 -0.4026  0.6129  0.8446
10138SOL    HW131313   2.256   5.762   4.208 -0.6433  0.6724  0.7718
10138SOL    HW231314   2.367   5.876   4.245 -0.2882  1.9667 -3.7637
10139SOL     OW31315   0.563   0.417   4.805 -0.3276  0.3801  0.0733
10139SOL    HW131316   0.590   0.344   4.868 -1.0599 -0.1222 -0.1842
10139SOL    HW231317   0.622   0.497   4.819  2.7318 -1.3252 -1.8456
10140SOL     OW31318   4.263   1.572   1.945  0.0437 -0.1400  0.1225
10140SOL    HW131319   4.179   1.616   1.975 -0.4760 -0.3924 -0.9195
10140SOL    HW231320   4.341   1.614   1.991 -0.6629 -0.1078  1.3319
10141SOL     OW31321   3.083   1.467   3.064 -0.2215 -0.0734 -0.2836
10141SOL    HW131322   3.096   1.566   3.070 -2.0066  0.1457  0.7067
10141SOL    HW231323   3.023   1.437   3.138 -3.0907 -1.2289 -2.8735
10142SOL     OW31324   0.410   6.048   1.436  0.3891 -0.1957  0.2588
10142SOL    HW131325   0.421   5.983   1.512  2.7043 -1.1352 -0.7901
10142SOL    HW231326   0.473   6.125   1.449 -0.3121  0.4195  0.0596
10143SOL     OW31327   6.578   2.874   1.839  0.1837 -0.2012  0.3703
10143SOL    HW131328   6.611   2.842   1.750  0.6702 -0.9260  0.8116
10143SOL    HW231329   6.627   2.828   1.912  0.4269  1.0684  1.0277
10144SOL     OW31330   2.240   6.507   4.306 -0.7128  0.2293 -0.1325
10144SOL    HW131331   2.224   6.472   4.213 -0.4789 -4.2096  1.2317
10144SOL    HW231332   2.156   6.496   4.359 -0.9159  2.9619  0.2275
10145SOL     OW31333   2.737   2.844   6.753 -0.5228 -0.2634 -0.3653
10145SOL    HW131334   2.747   2.835   6.654 -2.8601  0.6305 -0.7468
10145SOL    HW231335   2.640   2.858   6.776 -0.2394 -1.7476  2.1746
10146SOL     OW31336   4.113   2.897   0.436 -0.2630  0.0660  0.0613
10146SOL    HW131337   4.047   2.926   0.505 -1.5401 -0.6958 -0.8018
10146SOL    HW231338   4.177   2.972   0.418 -3.4823  2.5419 -2.1622
10147SOL     OW31339   4.699   6.173   4.514 -0.3367  0.3137 -0.1271
10147SOL    HW131340   4.625   6.177   4.582 -0.7868 -0.3361 -0.5731
10147SOL    HW231341   4.780   6.130   4.555  0.2221  2.0706  0.7295
10148SOL     OW31342   4.345   1.224   3.697 -0.3018 -0.4136 -0.0054
10148SOL    HW131343   4.334   1.285   3.776  1.1629  0.1087 -0.1655
10148SOL    HW231344   4.256   1.205   3.657 -0.7299  3.8394 -1.6137
10149SOL     OW31345   6.612   5.905   4.227  0.7725 -0.3753 -0.0322
10149SOL    HW131346   6.575   5.984   4.276  0.4205  0.8447 -2.1544
10149SOL    HW231347   6.712   5.906   4.235  0.7230 -0.2214  0.6653
10150SOL     OW31348   6.566   1.354   5.088 -0.2397  0.2536  0.0953
10150SOL    HW131349   6.538   1.386   4.997 -0.9361  0.5034  0.3959
10150SOL    HW231350   6.665   1.364   5.097 -0.1762  0.3337 -0.5963
10151SOL     OW31351   2.983   3.757   3.707 -0.3418 -0.4267 -0.2979
10151SOL    HW131352   2.921   3.736   3.632 -1.5348  1.0083  0.2381
10151SOL    HW231353   2.977   3.686   3.777 -0.4691 -0.9013 -0.7797
10152SOL     OW31354   3.429   1.672   2.828  0.0815  0.6786  0.0687
10152SOL    HW131355   3.515   1.716   2.802  0.5504 -0.6026 -0.5835
10152SOL    HW231356   3.448   1.590   2.882 -0.6715 -0.2349 -1.0048
10153SOL     OW31357   0.181   3.315   1.179  0.2928 -0.7082 -0.3929
10153SOL    HW131358   0.262   3.358   1.218  0.4573 -1.6160  0.3051
10153SOL    HW231359   0.099   3.353   1.221  0.3477  0.1527 -1.0410
10154SOL     OW31360   4.783   0.040   3.583  0.1974  0.1260 -0.0792
10154SOL    HW131361   4.746   0.132   3.565  1.2255  0.7316  0.8111
10154SOL    HW231362   4.878   0.036   3.552 -0.1885 -1.0423 -1.2305
10155SOL     OW31363   1.839   6.745   2.016  0.2908 -0.1409 -0.2511
10155SOL    HW131364   1.779   6.820   2.045 -0.7857 -0.6009 -1.2208
10155SOL    HW231365   1.934   6.768   2.037 -0.2043  0.6454  1.2286
10156SOL     OW31366   1.661   6.068   1.418  0.8838 -0.1530 -0.4888
10156SOL    HW131367   1.625   6.149   1.372 -1.9679 -0.8766  0.2768
10156SOL    HW231368   1.690   6.093   1.511 -1.1314 -0.1572  0.1858
10157SOL     OW31369   2.340   6.819   0.183  0.2181  0.0858 -0.2614
10157SOL    HW131370   2.414   6.882   0.157 -0.5467  0.8169 -0.7529
10157SOL    HW231371   2.252   6.867   0.175 -0.3109 -0.7733  0.2884
10158SOL     OW31372   4.313   0.897   4.282  0.2112 -0.3246  0.2480
10158SOL    HW131373   4.217   0.927   4.282  0.0074 -0.7381  3.1401
10158SOL    HW231374   4.371   0.974   4.254 -0.7596  0.8990  1.4498
10159SOL     OW31375   4.139   6.413   1.343  0.7173 -0.0560 -0.0888
10159SOL    HW131376   4.165   6.509   1.333 -0.9326  0.5648  1.0903
10159SOL    HW231377   4.090   6.383   1.262  0.0336  0.5480  0.0814
10160SOL     OW31378   5.378   0.069   1.114  1.1531 -0.2274 -0.0233
10160SOL    HW131379   5.418   0.111   1.032  1.6136  1.1910  0.8884
10160SOL    HW231380   5.283   0.044   1.097 -0.8548  5.5685  0.6433
10161SOL     OW31381   0.349   1.578   5.849 -0.3343  0.0594  0.2017
10161SOL    HW131382   0.430   1.533   5.811 -0.3503  1.0922 -1.1465
10161SOL    HW231383   0.363   1.677   5.850 -1.4729  0.2395  0.2007
10162SOL     OW31384   4.545   1.101   5.167  0.6275 -0.2229 -0.5962
10162SOL    HW131385   4.518   1.069   5.076  0.2847 -1.7190 -0.0029
10162SOL    HW231386   4.524   1.198   5.175  0.0034 -0.2227 -1.8666
10163SOL     OW31387   2.126   2.535   6.391  0.4552  0.2005 -0.1944
10163SOL    HW131388   2.155   2.482   6.311 -1.4089 -1.1427 -0.0399
10163SOL    HW231389   2.162   2.493   6.474  1.9721  1.3069 -0.2586
10164SOL     OW31390   5.807   4.502   2.823 -0.1728 -0.0971 -0.1160
10164SOL    HW131391   5.899   4.510   2.784  0.1476  0.0727  0.6675
10164SOL    HW231392   5.813   4.487   2.921 -0.9777 -0.6595 -0.1383
10165SOL     OW31393   1.259   0.293   2.596  0.3246 -0.0463 -0.1161
10165SOL    HW131394   1.317   0.212   2.600 -1.7467 -1.5539  2.0846
10165SOL    HW231395   1.247   0.321   2.500  3.1457 -0.7057 -0.7506
10166SOL     OW31396   6.616   2.915   3.863 -0.5262 -0.2473  0.1297
10166SOL    HW131397   6.645   2.898   3.769  0.8116  0.7275  0.3409
10166SOL    HW231398   6.528   2.870   3.880  0.3372 -2.4330 -0.8610
10167SOL     OW31399   5.835   6.745   5.744  0.8544  0.0133 -0.0830
10167SOL    HW131400   5.767   6.796   5.692 -0.7798 -3.1405 -1.3107
10167SOL    HW231401   5.901   6.809   5.785 -2.0607  3.1488  0.1510
10168SOL     OW31402   4.997   1.280   4.093 -0.4900 -0.1220 -0.1052
10168SOL    HW131403   5.080   1.298   4.147  0.5375 -1.7424 -1.0451
10168SOL    HW231404   5.016   1.295   3.996 -1.2643 -0.5722 -0.3388
10169SOL     OW31405   1.406   5.098   4.167 -0.1933  0.7134 -0.2539
10169SOL    HW131406   1.373   5.087   4.260  1.0544 -1.2622 -0.0024
10169SOL    HW231407   1.454   5.186   4.159 -2.2046  1.9130  0.3282
10170SOL     OW31408   2.687   4.796   0.341  0.4736 -0.0335  0.0194
10170SOL    HW131409   2.638   4.741   0.273  1.9442  0.6229 -1.6487
10170SOL    HW231410   2.714   4.739   0.418  0.0321 -1.1245 -0.6132
10171SOL     OW31411   4.063   2.099   1.003  0.5659  0.0801  0.5570
10171SOL    HW131412   4.017   2.059   0.923 -1.2843  1.1415  1.0205
10171SOL    HW231413   4.058   2.199   0.997  2.8448  0.2414  0.6828
10172SOL     OW31414   4.770   0.012   5.880 -0.1215 -0.3009  0.7086
10172SOL    HW131415   4.693  -0.046   5.904 -2.1514  1.1301 -1.9013
10172SOL    HW231416   4.743   0.108   5.885  1.1943  0.2165 -1.1841
10173SOL     OW31417   2.386   4.510   3.135 -0.1614 -0.3395  0.2476
10173SOL    HW131418   2.443   4.429   3.150  0.0882 -0.4580 -1.1241
10173SOL    HW231419   2.301   4.501   3.185  0.4932 -0.7542  1.3102
10174SOL     OW31420   1.513   6.655   2.074  0.1333 -0.1874 -0.4994
10174SOL    HW131421   1.570   6.594   2.129 -0.8581  1.2582  2.3461
10174SOL    HW231422   1.571   6.704   2.008  2.1053  0.5431  1.6359
10175SOL     OW31423   3.567   6.905   2.220  0.0534 -0.6960 -0.6997
10175SOL    HW131424   3.486   6.893   2.164 -0.4117  0.2956 -0.2667
10175SOL    HW231425   3.546   6.882   2.315  0.4000 -0.8414 -0.6543
10176SOL     OW31426   2.961   5.826   2.526  0.2341 -0.0680  0.0615
10176SOL    HW131427   2.956   5.912   2.578 -0.7467 -0.1789  0.1721
10176SOL    HW231428   2.869   5.799   2.497  0.8861  0.8712 -3.2439
10177SOL     OW31429   3.981   5.812   0.122  0.1649 -0.5336 -0.3402
10177SOL    HW131430   3.950   5.822   0.217 -0.1351 -2.1122 -0.2417
10177SOL    HW231431   4.081   5.814   0.120  0.2111 -1.6744  0.1817
10178SOL     OW31432   6.035   6.696   1.823 -0.0364 -0.4824  0.1509
10178SOL    HW131433   5.941   6.667   1.838  0.0454 -1.5989 -1.2937
10178SOL    HW231434   6.092   6.664   1.899 -0.4788 -1.5889  0.0392
10179SOL     OW31435   4.970   5.755   6.756  0.4222 -0.3119  0.7592
10179SOL    HW131436   5.060   5.767   6.799 -0.7055  0.9165  2.9454
10179SOL    HW231437   4.914   5.694   6.812 -1.0445  1.1824  0.9853
10180SOL     OW31438   0.204   6.679   1.188 -0.1908  0.1455  0.0573
10180SOL    HW131439   0.185   6.746   1.260 -0.8162  0.8696 -0.7734
10180SOL    HW231440   0.119   6.633   1.161 -0.0729  0.3631 -0.6971
10181SOL     OW31441   4.633   2.136   2.617 -0.0859 -0.0184  0.2689
10181SOL    HW131442   4.724   2.100   2.597  0.1702  0.9993 -0.4946
10181SOL    HW231443   4.572   2.061   2.642  0.4684 -0.9623 -1.0963
10182SOL     OW31444   0.233   6.639   1.570 -0.3914 -0.3184  0.8434
10182SOL    HW131445   0.298   6.573   1.531 -0.7405 -0.2245  0.0882
10182SOL    HW231446   0.166   6.590   1.626  0.3430 -0.4124  1.6651
10183SOL     OW31447   3.024   0.731   1.957 -0.1474 -0.4749 -0.2664
10183SOL    HW131448   3.063   0.813   1.998  0.4811 -1.2758  0.7958
10183SOL    HW231449   2.925   0.737   1.956 -0.1498 -0.1568  0.8155
10184SOL     OW31450   3.290   5.315   4.415 -0.0423 -0.1037  0.6876
10184SOL    HW131451   3.298   5.379   4.491 -2.8461  0.2452  0.7919
10184SOL    HW231452   3.224   5.349   4.348 -0.2870 -2.0523 -0.1579
10185SOL     OW31453   2.937   3.823   2.482  0.4554  0.0511  0.1723
10185SOL    HW131454   2.931   3.724   2.475 -0.8977  0.2268 -2.3755
10185SOL    HW231455   2.971   3.861   2.396 -0.2060  1.8826  0.6599
10186SOL     OW31456   5.220   5.299   0.849 -0.2611  0.7175 -0.5397
10186SOL    HW131457   5.124   5.296   0.822 -0.4747  0.1979  0.2295
10186SOL    HW231458   5.243   5.215   0.899  0.0915  1.6189  0.8773
10187SOL     OW31459   6.320   1.156   4.384 -0.1499 -0.4650 -0.8634
10187SOL    HW131460   6.341   1.064   4.349 -0.4184 -0.8704  0.0079
10187SOL    HW231461   6.222   1.171   4.382 -0.1549 -0.4275 -0.4616
10188SOL     OW31462   6.375   4.660   3.797  0.6080  0.8182  0.5867
10188SOL    HW131463   6.305   4.590   3.807 -0.4032  1.8097  0.5525
10188SOL    HW231464   6.426   4.644   3.712  0.0172  0.4485  0.2925
10189SOL     OW31465   4.962   2.808   1.612  0.4777 -0.2029 -0.4561
10189SOL    HW131466   4.948   2.900   1.574 -0.3369 -0.1151  0.0409
10189SOL    HW231467   4.944   2.809   1.710 -0.8964 -1.1798 -0.6712
10190SOL     OW31468   1.389   4.680   4.311 -1.0851  0.0081  0.3454
10190SOL    HW131469   1.347   4.734   4.238  0.8402 -1.3360 -1.8840
10190SOL    HW231470   1.409   4.588   4.277  2.1539  0.0747  1.7185
10191SOL     OW31471   1.135   6.078   2.162  0.4692 -0.1947  0.3514
10191SOL    HW131472   1.149   6.015   2.239  2.9898  1.6380  1.5625
10191SOL    HW231473   1.040   6.106   2.158  0.0154 -1.3681  1.9621
10192SOL     OW31474   6.662   1.378   4.128  0.5499  0.4108  0.4444
10192SOL    HW131475   6.564   1.378   4.108  0.2286 -0.2487  1.9369
10192SOL    HW231476   6.696   1.472   4.126  0.0964  0.5764 -0.9442
10193SOL     OW31477   3.038   2.120   3.584 -0.6407  0.2592 -0.0565
10193SOL    HW131478   3.040   2.021   3.599  1.5415  0.0430 -1.2787
10193SOL    HW231479   3.048   2.139   3.487  1.8378  1.6537  0.3827
10194SOL     OW31480   4.475   5.786   2.020  0.3153 -0.2944  0.1203
10194SOL    HW131481   4.547   5.733   2.065  0.6662  0.1219  0.0526
10194SOL    HW231482   4.451   5.864   2.077 -0.0127 -0.3748  0.0944
10195SOL     OW31483   0.552   2.529   0.517  0.4207 -0.3955  0.1678
10195SOL    HW131484   0.458   2.554   0.495 -1.1426 -2.7502  3.4146
10195SOL    HW231485   0.581   2.452   0.459  0.0392 -0.2382 -0.2346
10196SOL     OW31486   1.708   2.194   2.593 -0.2902 -0.0177  0.4131
10196SOL    HW131487   1.682   2.239   2.679  1.2545  0.2754  0.7440
10196SOL    HW231488   1.802   2.217   2.570 -0.2504 -1.1776 -0.6813
10197SOL     OW31489   1.405   0.344   0.749 -0.8553  0.1739 -0.0630
10197SOL    HW131490   1.460   0.280   0.802 -0.7203  1.7117  1.7647
10197SOL    HW231491   1.465   0.410   0.704 -1.0830  0.4685  0.0593
10198SOL     OW31492   3.118   5.252   3.653 -0.1505  0.2712  0.1437
10198SOL    HW131493   3.145   5.261   3.749  0.8000  0.9411 -0.1785
10198SOL    HW231494   3.029   5.208   3.648  0.5756 -1.4255  1.2735
10199SOL     OW31495   2.363   6.926   4.170  0.3092 -0.2860 -0.4951
10199SOL    HW131496   2.401   6.984   4.242  1.8113 -1.1490 -0.5451
10199SOL    HW231497   2.318   6.983   4.101 -0.8870  0.5703  0.9404
10200SOL     OW31498   4.596   2.458   6.303 -0.4588 -0.4537 -0.4621
10200SOL    HW131499   4.556   2.366   6.305  1.0537 -1.1227  1.1088
10200SOL    HW231500   4.695   2.451   6.292 -0.1661  0.9193  0.9509
10201SOL     OW31501   3.350   3.501   6.239 -0.4565 -0.5084 -0.0937
10201SOL    HW131502   3.287   3.424   6.228 -1.3896  0.0796  0.8517
10201SOL    HW231503   3.383   3.503   6.334  3.1521 -2.3730 -1.1434
10202SOL     OW31504   3.902   6.799   6.184 -0.4047 -0.0532 -0.1439
10202SOL    HW131505   3.803   6.790   6.198 -0.2138 -0.2725  1.2552
10202SOL    HW231506   3.950   6.757   6.262  0.7873  0.3330 -0.6522
10203SOL     OW31507   5.162   0.615   6.361  0.0356 -0.0010 -0.1441
10203SOL    HW131508   5.208   0.703   6.370  0.1747 -0.1949  1.5227
10203SOL    HW231509   5.080   0.626   6.305 -1.4054  1.8411  2.1165
10204SOL     OW31510   3.937   3.395   1.769 -0.3784 -0.5823 -0.2508
10204SOL    HW131511   4.010   3.347   1.720 -1.4188  0.5978 -3.2298
10204SOL    HW231512   3.966   3.489   1.787  0.0090 -1.0177  1.5635
10205SOL     OW31513   4.720   1.744   6.922 -0.7700 -0.8787 -0.4010
10205SOL    HW131514   4.720   1.832   6.875 -1.5299  0.7556  2.4845
10205SOL    HW231515   4.644   1.689   6.888 -1.7524  0.5445 -0.5932
10206SOL     OW31516   0.237   5.292   5.069 -0.1588 -0.5135 -0.0494
10206SOL    HW131517   0.265   5.197   5.059  1.4109 -0.2397  1.3246
10206SOL    HW231518   0.210   5.310   5.163  2.7384  1.1147  0.6041
10207SOL     OW31519   0.415   1.682   4.674 -0.1629  0.1677  0.2044
10207SOL    HW131520   0.339   1.729   4.630  1.6813  1.3573 -1.8802
10207SOL    HW231521   0.485   1.661   4.607  0.6321 -2.5407  1.7209
10208SOL     OW31522   0.006   0.425   3.564 -0.4290 -0.1468 -0.3223
10208SOL    HW131523  -0.063   0.494   3.543  1.2290  1.2670 -1.3243
10208SOL    HW231524   0.075   0.464   3.625  0.2976 -1.0500 -0.5422
10209SOL     OW31525   0.534   2.916   3.672  0.4961  0.1438  0.3837
10209SOL    HW131526   0.435   2.922   3.671  0.4750 -0.1114 -1.3216
10209SOL    HW231527   0.569   2.965   3.752 -0.9425  1.0903  0.4766
10210SOL     OW31528   5.017   4.828   5.945 -0.1039  0.4122 -0.0588
10210SOL    HW131529   5.069   4.814   5.861  1.4722 -1.1000  1.1128
10210SOL    HW231530   4.938   4.767   5.945  1.2024 -1.3518  0.5614
10211SOL     OW31531   3.434   2.056   2.731  0.0553  0.4948  0.6779
10211SOL    HW131532   3.470   2.003   2.654  0.1738  0.5061  0.7246
10211SOL    HW231533   3.334   2.055   2.729  0.0615  1.1861  0.0473
10212SOL     OW31534   0.804   4.523   0.493  0.1132 -0.1202  0.4072
10212SOL    HW131535   0.760   4.547   0.407 -1.0815 -0.3882  0.9323
10212SOL    HW231536   0.793   4.426   0.511  0.1841 -0.0296  0.9603
10213SOL     OW31537   5.249   4.612   1.810 -0.1870  0.1469  0.6266
10213SOL    HW131538   5.153   4.592   1.832 -0.6517  0.8557 -0.6076
10213SOL    HW231539   5.284   4.542   1.748 -0.0508  0.1097  0.7471
10214SOL     OW31540   1.877   3.218   2.050  0.1010  0.6236  0.2892
10214SOL    HW131541   1.846   3.201   2.143  1.6165 -0.4495  0.6309
10214SOL    HW231542   1.957   3.277   2.051 -1.1487  2.4279 -0.5119
10215SOL     OW31543   6.336   3.137   0.530  0.3577  0.0707 -0.0032
10215SOL    HW131544   6.416   3.143   0.589 -2.0908  3.0173  3.4499
10215SOL    HW231545   6.265   3.082   0.576 -0.6377 -0.0972 -1.6464
10216SOL     OW31546   5.986   4.758   0.719 -0.4888 -1.1204  0.2741
10216SOL    HW131547   6.035   4.678   0.753 -0.0026 -0.4828  1.1111
10216SOL    HW231548   5.891   4.754   0.750 -0.5544 -1.5408  0.0246
10217SOL     OW31549   2.995   6.457   6.180 -1.3011 -0.0184 -0.3409
10217SOL    HW131550   2.904   6.414   6.184 -0.5539 -1.6755 -0.5720
10217SOL    HW231551   3.041   6.430   6.096  0.1862 -0.8291  0.7058
10218SOL     OW31552   6.183   6.871   3.324  0.0919  0.2691 -0.2416
10218SOL    HW131553   6.143   6.805   3.261 -0.2439 -0.7789  1.0155
10218SOL    HW231554   6.282   6.870   3.316  0.0240  0.8701 -1.4192
10219SOL     OW31555   2.314   5.232   5.851 -0.2968 -0.0906  0.4457
10219SOL    HW131556   2.342   5.223   5.755  0.4188 -0.8654  0.7194
10219SOL    HW231557   2.277   5.324   5.866  2.1151  1.0266  0.0407
10220SOL     OW31558   6.079   3.433   5.589  0.7069 -0.5015 -0.2120
10220SOL    HW131559   6.160   3.479   5.626  1.4225 -1.2880 -0.7489
10220SOL    HW231560   6.093   3.334   5.591 -1.1541 -0.7930  1.7499
10221SOL     OW31561   5.247   3.391   1.111 -0.1603 -0.5380 -0.0400
10221SOL    HW131562   5.292   3.463   1.164  2.2890 -1.8431 -0.1860
10221SOL    HW231563   5.248   3.306   1.164  2.0272 -1.7848 -1.8873
10222SOL     OW31564   1.027   4.785   6.163  0.4716  0.3981 -0.3804
10222SOL    HW131565   1.006   4.881   6.148 -0.3058  0.2503 -0.2573
10222SOL    HW231566   0.976   4.750   6.242  2.1143  0.3381  0.6991
10223SOL     OW31567   1.492   5.736   2.576 -0.2321  0.1129 -1.2010
10223SOL    HW131568   1.425   5.667   2.603 -0.9750  1.4964  0.7539
10223SOL    HW231569   1.446   5.823   2.561  1.1320  1.3950  1.3017
10224SOL     OW31570   3.461   0.603   5.374 -0.6913 -0.0061  0.2059
10224SOL    HW131571   3.430   0.589   5.468 -1.4600  0.5223  0.0494
10224SOL    HW231572   3.435   0.523   5.318  1.0520 -0.9786  0.7210
10225SOL     OW31573   3.788   5.391   3.905  0.0271 -0.4657  0.2706
10225SOL    HW131574   3.817   5.301   3.939 -3.1386 -1.6420  0.1648
10225SOL    HW231575   3.780   5.455   3.982 -2.0367 -1.6263  1.1053
10226SOL     OW31576   3.529   5.537   5.177 -0.7577 -0.4707 -0.2581
10226SOL    HW131577   3.456   5.590   5.218 -1.8668 -1.0286 -1.4282
10226SOL    HW231578   3.555   5.578   5.089 -0.0396 -0.5865 -0.1070
10227SOL     OW31579   1.311   3.825   3.778  0.1255  0.1631  0.0707
10227SOL    HW131580   1.216   3.845   3.752  0.3287 -0.9271 -1.6826
10227SOL    HW231581   1.367   3.908   3.766 -0.1338  0.1463 -1.4312
10228SOL     OW31582   3.677   0.528   0.621  0.0686  0.2635 -0.2668
10228SOL    HW131583   3.679   0.444   0.674  1.0497  1.4152  1.6608
10228SOL    HW231584   3.697   0.508   0.525 -0.1436 -1.7113  0.0637
10229SOL     OW31585   5.732   3.928   6.173 -0.0929  0.2595  0.4561
10229SOL    HW131586   5.820   3.947   6.215  1.1108 -2.0637 -0.8113
10229SOL    HW231587   5.737   3.944   6.074 -0.2111 -2.3370 -0.0441
10230SOL     OW31588   6.860   2.231   4.208 -0.2134 -0.7329 -0.4590
10230SOL    HW131589   6.811   2.159   4.159  0.2852 -1.1362 -0.3825
10230SOL    HW231590   6.851   2.318   4.159  1.2798 -1.3676 -1.9780
10231SOL     OW31591   3.925   4.292   5.322 -0.2485 -0.1728  0.3854
10231SOL    HW131592   4.011   4.245   5.342 -0.0161  0.1394  0.1478
10231SOL    HW231593   3.942   4.391   5.317 -0.7166 -0.0664  0.8314
10232SOL     OW31594   4.896   1.624   0.655 -0.1513  0.0400 -0.3133
10232SOL    HW131595   4.840   1.697   0.615  0.7086 -0.4218 -2.4891
10232SOL    HW231596   4.844   1.539   0.657 -0.2124  0.0746 -0.4306
10233SOL     OW31597   3.860   3.711   6.718 -0.1845  0.8069  0.3051
10233SOL    HW131598   3.955   3.715   6.687  0.3506 -0.5659  1.6650
10233SOL    HW231599   3.857   3.701   6.817 -1.7308  0.0350  0.2144
10234SOL     OW31600   5.932   5.123   4.321  0.7661  0.3229 -0.0071
10234SOL    HW131601   5.910   5.147   4.415 -0.6796 -2.4792  0.4512
10234SOL    HW231602   6.002   5.051   4.320  0.5159  0.0817 -1.0603
10235SOL     OW31603   2.481   6.645   0.365  0.2713 -0.1115  0.1876
10235SOL    HW131604   2.431   6.714   0.314 -0.1530 -1.1155 -0.7938
10235SOL    HW231605   2.477   6.666   0.463 -0.6009  0.7521 -0.0223
10236SOL     OW31606   1.085   6.886   0.901 -0.0924  0.2203 -0.3880
10236SOL    HW131607   1.018   6.847   0.964 -0.3265  2.0621  0.5663
10236SOL    HW231608   1.040   6.912   0.816 -0.1068 -0.7172 -0.6755
10237SOL     OW31609   0.133   2.372   4.439  0.7067 -0.5108  0.3637
10237SOL    HW131610   0.118   2.411   4.348  1.1571 -0.5130  0.2860
10237SOL    HW231611   0.045   2.356   4.483  0.4826 -0.6042 -0.1111
10238SOL     OW31612   5.631   2.807   2.879  0.3577 -0.4433  0.1459
10238SOL    HW131613   5.710   2.760   2.839  1.2700  2.6201 -1.9371
10238SOL    HW231614   5.662   2.872   2.948 -0.6616 -1.0071  1.1872
10239SOL     OW31615   0.815   2.046   2.848  0.0647  0.0631 -0.0477
10239SOL    HW131616   0.814   2.137   2.888 -1.5574  0.0425  0.0185
10239SOL    HW231617   0.794   1.978   2.918  0.4788 -0.2973 -0.2644
10240SOL     OW31618   1.353   6.240   4.996 -0.4734 -0.3557 -0.4619
10240SOL    HW131619   1.381   6.150   5.029  1.4369  0.8342  1.3830
10240SOL    HW231620   1.344   6.303   5.073 -1.4261  1.1499 -1.7419
10241SOL     OW31621   2.979   0.743   3.572  0.1271 -0.2784 -0.7492
10241SOL    HW131622   3.069   0.760   3.533  0.0775 -2.2761 -1.9160
10241SOL    HW231623   2.909   0.757   3.501 -0.3257 -0.3661 -0.3273
10242SOL     OW31624   4.610   6.114   6.650 -0.0431 -0.4238 -0.3701
10242SOL    HW131625   4.547   6.100   6.574 -1.0716  0.4851  0.3000
10242SOL    HW231626   4.691   6.056   6.636 -0.6061 -0.9438 -1.6858
10243SOL     OW31627   3.097   6.567   6.400 -0.2207  0.0164 -0.5289
10243SOL    HW131628   3.111   6.659   6.363  0.9299 -0.0291 -0.2566
10243SOL    HW231629   3.082   6.503   6.325 -0.4035  0.3204 -0.7556
10244SOL     OW31630   0.300   0.808   5.243 -0.3253  0.0723  0.3133
10244SOL    HW131631   0.310   0.896   5.196 -1.5076 -0.5775 -1.2349
10244SOL    HW231632   0.219   0.810   5.301 -0.4446 -0.0515  0.1504
10245SOL     OW31633   4.510   1.116   4.258  0.1493  0.2634  0.0183
10245SOL    HW131634   4.445   1.189   4.237 -0.1096  0.0212 -0.0204
10245SOL    HW231635   4.592   1.128   4.202 -0.4056 -0.1961 -0.9042
10246SOL     OW31636   3.544   1.337   4.232  0.6795  0.5881  0.5380
10246SOL    HW131637   3.478   1.338   4.157  0.5911  1.7845  0.6046
10246SOL    HW231638   3.515   1.402   4.303  0.9346 -0.2819  1.4616
10247SOL     OW31639   1.892   6.434   6.005 -0.3959 -0.2077 -0.0428
10247SOL    HW131640   1.978   6.458   5.959 -0.2462 -0.8932 -0.1343
10247SOL    HW231641   1.913   6.386   6.090 -0.6889 -0.8480 -0.3279
10248SOL     OW31642   5.894   3.685   1.397 -0.5430 -0.1735 -0.1913
10248SOL    HW131643   5.933   3.696   1.305 -1.1613 -0.4625 -0.4895
10248SOL    HW231644   5.925   3.599   1.436 -0.9695 -0.4524 -0.4698
10249SOL     OW31645   5.039   6.473   5.528 -0.1011 -0.0421 -0.4449
10249SOL    HW131646   5.035   6.539   5.453 -1.6370 -0.3188 -0.6424
10249SOL    HW231647   5.096   6.396   5.501  2.1601  1.3712 -0.0184
10250SOL     OW31648   4.946   3.149   5.894  0.0948  0.1677 -0.0145
10250SOL    HW131649   4.923   3.124   5.988  0.1117 -1.9552 -0.5204
10250SOL    HW231650   4.869   3.129   5.834  0.7881 -0.4867 -0.7266
10251SOL     OW31651   1.323   5.703   4.252 -0.7259 -0.3504 -0.2953
10251SOL    HW131652   1.351   5.759   4.330  0.9352 -1.1340 -0.2793
10251SOL    HW231653   1.353   5.747   4.167 -0.4815 -0.6162 -0.3496
10252SOL     OW31654   1.747   6.041   5.422  0.5135  0.2624  0.2092
10252SOL    HW131655   1.773   6.134   5.448  3.8560 -0.0342 -1.4814
10252SOL    HW231656   1.793   6.016   5.337 -2.8781 -1.8538 -1.2195
10253SOL     OW31657   1.619   1.025   5.273 -0.7307  0.2373 -0.5869
10253SOL    HW131658   1.601   0.929   5.254 -1.5445  0.3272 -0.3273
10253SOL    HW231659   1.641   1.073   5.188 -0.0486 -0.2282 -0.6757
10254SOL     OW31660   4.780   6.310   0.822  0.3757  1.0515  0.0502
10254SOL    HW131661   4.853   6.360   0.868  0.1695  1.7163 -0.3284
10254SOL    HW231662   4.792   6.212   0.837  0.1917  1.2560  1.7033
10255SOL     OW31663   6.454   3.514   2.558  0.0431 -0.2055 -0.1362
10255SOL    HW131664   6.449   3.420   2.591  3.6826 -0.3717  0.3553
10255SOL    HW231665   6.361   3.552   2.552 -1.4199 -3.0956  1.6322
10256SOL     OW31666   1.355   5.968   4.383  0.3900 -0.1000 -0.3282
10256SOL    HW131667   1.295   6.035   4.340  0.1100 -0.6813 -0.8493
10256SOL    HW231668   1.338   5.967   4.482 -1.8133 -1.5760 -0.6515
10257SOL     OW31669   5.799   0.282   1.960 -0.8735  0.2341  0.5143
10257SOL    HW131670   5.870   0.349   1.941 -0.2551 -0.5774 -0.1531
10257SOL    HW231671   5.709   0.324   1.949 -0.5009  0.8314 -0.4075
10258SOL     OW31672   1.285   2.112   3.256 -0.0772  0.0401  0.2603
10258SOL    HW131673   1.194   2.132   3.293 -0.2865 -0.9620  0.3122
10258SOL    HW231674   1.355   2.138   3.323 -0.3307  0.6069  0.3089
10259SOL     OW31675   4.901   6.385   1.714 -0.1576  0.7854 -0.2846
10259SOL    HW131676   4.867   6.340   1.796 -0.1230  0.7869 -0.2694
10259SOL    HW231677   4.991   6.425   1.732  0.3017 -0.0762 -0.6102
10260SOL     OW31678   6.669   6.182   6.504  0.4938  0.4209 -0.4705
10260SOL    HW131679   6.665   6.193   6.604  0.8441 -0.1560 -0.3828
10260SOL    HW231680   6.599   6.238   6.461 -0.7766 -0.5968  0.2055
10261SOL     OW31681   5.766   3.547   6.585  0.0195 -0.3674  0.0372
10261SOL    HW131682   5.808   3.515   6.500 -1.5391 -0.1689 -0.8358
10261SOL    HW231683   5.708   3.475   6.623  0.0916 -0.1742  0.5230
10262SOL     OW31684   4.225   4.420   5.818 -0.3017  0.0865  0.7066
10262SOL    HW131685   4.277   4.490   5.866  0.0013  0.2829  0.1093
10262SOL    HW231686   4.173   4.462   5.744  0.6338 -0.4200 -0.2789
10263SOL     OW31687   2.427   2.603   4.132 -0.1607 -0.6795  0.4821
10263SOL    HW131688   2.471   2.588   4.043  0.0914 -1.1919  0.6947
10263SOL    HW231689   2.396   2.516   4.169 -0.3259 -0.4557  0.8712
10264SOL     OW31690   1.009   3.134   5.652 -0.4548  0.1583  0.7704
10264SOL    HW131691   1.048   3.112   5.741 -2.3697  1.0796  1.9121
10264SOL    HW231692   0.934   3.071   5.631 -0.7185  0.6060  0.3224
10265SOL     OW31693   6.225   2.917   5.958 -0.7363  0.9211  0.1149
10265SOL    HW131694   6.210   2.854   6.034 -2.2245  0.9536 -0.1203
10265SOL    HW231695   6.243   2.865   5.875  1.9222  0.8972  0.6429
10266SOL     OW31696   4.300   2.873   1.384 -0.1620 -0.2201 -0.2607
10266SOL    HW131697   4.379   2.854   1.443  0.0687 -0.4161 -0.6280
10266SOL    HW231698   4.294   2.802   1.313  0.5593  0.9140 -1.5113
10267SOL     OW31699   2.287   1.117   6.810 -0.2043 -0.1327  0.2140
10267SOL    HW131700   2.289   1.019   6.794  0.4247 -0.3380  1.3909
10267SOL    HW231701   2.310   1.166   6.726  3.2617 -1.1058  0.4461
10268SOL     OW31702   3.671   3.711   5.050 -0.5571  0.3612  0.0790
10268SOL    HW131703   3.741   3.752   5.109 -0.1914 -1.6283  1.1128
10268SOL    HW231704   3.715   3.657   4.979 -0.9636 -1.4056  1.1022
10269SOL     OW31705   6.356   4.533   2.755 -0.1326  0.6937  0.1444
10269SOL    HW131706   6.396   4.608   2.809  0.4964  1.6750 -1.5988
10269SOL    HW231707   6.260   4.521   2.781  0.3848  0.4485  2.1478
10270SOL     OW31708   0.107   2.641   6.307  0.2125  0.1475 -0.1123
10270SOL    HW131709   0.174   2.651   6.234 -0.3437  0.9504 -0.5388
10270SOL    HW231710   0.153   2.620   6.393  1.1319  1.7924 -0.1694
10271SOL     OW31711   2.153   2.584   0.289 -0.4774  0.5653  0.1333
10271SOL    HW131712   2.067   2.578   0.239 -0.7952  1.1027  0.6080
10271SOL    HW231713   2.186   2.492   0.308 -0.3185  0.3467 -1.1064
10272SOL     OW31714   3.405   1.244   0.383 -0.0879 -0.1002 -0.3632
10272SOL    HW131715   3.339   1.174   0.413 -0.5220  0.2814 -0.4116
10272SOL    HW231716   3.481   1.200   0.335 -2.1395 -0.3452 -3.7058
10273SOL     OW31717   3.550   3.758   0.542 -0.1705 -0.2283 -0.3227
10273SOL    HW131718   3.479   3.778   0.610  1.6097 -2.8110  2.5269
10273SOL    HW231719   3.593   3.844   0.513 -2.9488  1.2028 -0.5706
10274SOL     OW31720   5.832   0.412   4.920  0.1973  0.7410 -0.2456
10274SOL    HW131721   5.878   0.323   4.920 -0.9321  0.1382  0.0262
10274SOL    HW231722   5.868   0.468   4.995 -1.7726 -0.9878  2.1801
10275SOL     OW31723   5.160   6.616   0.976  0.4678 -0.3984  0.0256
10275SOL    HW131724   5.236   6.572   0.930 -0.6138 -2.5540  0.1485
10275SOL    HW231725   5.152   6.580   1.069  0.9648  1.8717  1.0117
10276SOL     OW31726   0.171   0.931   1.682  0.3558  0.1980 -0.5974
10276SOL    HW131727   0.148   0.901   1.589 -1.0566  1.4306 -0.6730
10276SOL    HW231728   0.192   1.028   1.682  0.0236  0.2821  0.4315
10277SOL     OW31729   5.345   3.985   6.082  0.0285 -0.5293  0.1078
10277SOL    HW131730   5.400   3.917   6.032 -0.4660 -1.1528  0.3908
10277SOL    HW231731   5.249   3.959   6.076 -0.0261 -0.7015  1.5019
10278SOL     OW31732   3.346   5.034   4.393 -0.3782  0.4353 -0.4521
10278SOL    HW131733   3.433   5.018   4.439 -0.4674  1.7973  0.2757
10278SOL    HW231734   3.323   5.131   4.400 -2.1934  0.0277 -0.1725
10279SOL     OW31735   5.503   5.558   1.583 -0.3951 -0.0166  0.4281
10279SOL    HW131736   5.579   5.622   1.577 -0.9973  0.7145  0.4656
10279SOL    HW231737   5.425   5.602   1.627 -1.5007 -0.1178 -1.3337
10280SOL     OW31738   6.370   2.903   2.016 -0.1454 -0.3694  0.1839
10280SOL    HW131739   6.362   2.827   2.080 -1.1252  0.9411  1.6712
10280SOL    HW231740   6.449   2.887   1.956  1.6468 -0.9934  2.5712
10281SOL     OW31741   1.743   5.476   6.220  0.0985  0.6899  1.2629
10281SOL    HW131742   1.657   5.523   6.202  0.1662  0.9499  1.6065
10281SOL    HW231743   1.723   5.383   6.253 -0.0419  0.6431  1.0516
10282SOL     OW31744   2.514   6.999   0.127  0.2892 -0.5839 -0.4468
10282SOL    HW131745   2.557   7.062   0.192 -0.7312  0.5941 -0.8844
10282SOL    HW231746   2.564   7.001   0.040  0.0838 -0.1459 -0.5560
10283SOL     OW31747   3.037   0.850   5.048  0.1915 -0.6307  0.0180
10283SOL    HW131748   3.088   0.936   5.045 -0.1807 -0.4487 -2.1656
10283SOL    HW231749   2.971   0.854   5.123 -1.1592  1.7991 -1.1843
10284SOL     OW31750   5.898   6.172   3.890  0.4581 -0.8429 -0.3867
10284SOL    HW131751   5.912   6.269   3.872 -0.4187 -0.7312 -0.4685
10284SOL    HW231752   5.804   6.156   3.918 -0.0410 -1.9791 -2.5142
10285SOL     OW31753   4.896   1.861   6.098  0.2327 -0.2655  0.1848
10285SOL    HW131754   4.865   1.919   6.023  2.2234  0.5620 -0.0395
10285SOL    HW231755   4.845   1.775   6.096 -0.4503  0.1379 -1.4961
10286SOL     OW31756   1.798   6.722   0.373  0.3352 -0.1787 -0.4688
10286SOL    HW131757   1.733   6.736   0.298 -0.7066 -1.3457  0.1907
10286SOL    HW231758   1.847   6.808   0.391 -2.9890  1.6123  0.8472
10287SOL     OW31759   5.599   1.277   0.086 -0.2939  0.0265  0.3846
10287SOL    HW131760   5.563   1.367   0.112  1.5962  0.5961  1.2124
10287SOL    HW231761   5.698   1.277   0.097 -0.0073 -1.4754 -1.7904
10288SOL     OW31762   2.558   5.691   3.848 -0.0990 -0.2780  0.3228
10288SOL    HW131763   2.623   5.690   3.773  1.4801 -0.7477  1.6312
10288SOL    HW231764   2.469   5.723   3.815  1.0879  1.6314 -1.2798
10289SOL     OW31765   5.873   1.202   1.267  0.1672 -0.7706  0.2774
10289SOL    HW131766   5.842   1.288   1.228 -0.0734 -0.3151  1.4238
10289SOL    HW231767   5.972   1.194   1.257  0.0701 -0.8480 -0.7374
10290SOL     OW31768   3.549   4.175   2.161 -0.0581 -0.3222  0.4774
10290SOL    HW131769   3.642   4.179   2.196  0.5482  1.6756 -1.1243
10290SOL    HW231770   3.496   4.253   2.196 -0.6374 -0.5427  0.1150
10291SOL     OW31771   0.688   0.883   3.733 -0.6743 -0.2143  0.0956
10291SOL    HW131772   0.676   0.936   3.816  1.1464 -0.6197  0.6749
10291SOL    HW231773   0.660   0.788   3.749  0.1760 -0.4165  0.4336
10292SOL     OW31774   6.346   3.678   1.076 -0.4137 -0.0427 -0.2697
10292SOL    HW131775   6.330   3.701   1.173 -0.5331 -0.7606 -0.1154
10292SOL    HW231776   6.435   3.634   1.067 -0.9664 -1.1944 -0.2769
10293SOL     OW31777   5.539   4.599   4.573 -0.4435  0.3476 -0.0205
10293SOL    HW131778   5.576   4.687   4.542 -0.9444  0.3312 -0.6803
10293SOL    HW231779   5.543   4.595   4.673  0.8036  0.5727 -0.0480
10294SOL     OW31780   6.314   1.308   3.794 -0.2871  0.0170 -0.3198
10294SOL    HW131781   6.363   1.232   3.752  0.1516  0.1148  0.0103
10294SOL    HW231782   6.352   1.327   3.885 -2.1443 -1.1492  0.7805
10295SOL     OW31783   1.679   0.308   0.022 -0.2726 -0.3093  0.1959
10295SOL    HW131784   1.663   0.290  -0.075  2.7835 -0.4124 -0.3716
10295SOL    HW231785   1.746   0.382   0.032  0.1303 -0.8903  2.2178
10296SOL     OW31786   3.189   2.159   0.976  0.3626  0.1160  0.4850
10296SOL    HW131787   3.279   2.124   1.003  0.5133 -0.2566 -0.4417
10296SOL    HW231788   3.132   2.084   0.945 -0.0053  0.4480  0.3525
10297SOL     OW31789   6.626   4.825   0.433 -0.7241  0.1369 -0.2861
10297SOL    HW131790   6.561   4.794   0.364 -2.2770 -0.1462  1.2409
10297SOL    HW231791   6.599   4.915   0.466 -0.2180  0.1041  0.2261
10298SOL     OW31792   2.167   0.462   0.811  0.1724 -0.4326  0.1621
10298SOL    HW131793   2.106   0.493   0.737  2.3626  0.6507 -1.3055
10298SOL    HW231794   2.242   0.409   0.772  2.2297  1.4441  1.3718
10299SOL     OW31795   3.533   4.933   3.450  0.2214  0.2960  0.7102
10299SOL    HW131796   3.440   4.946   3.415  0.8819 -0.1643 -1.2995
10299SOL    HW231797   3.587   5.016   3.432  0.7417 -0.1814  0.0218
10300SOL     OW31798   1.710   2.606   5.208 -0.2985  0.0446 -0.4836
10300SOL    HW131799   1.800   2.561   5.212 -0.3466  0.0046  0.4357
10300SOL    HW231800   1.656   2.579   5.287  0.1738  2.7189  0.8807
10301SOL     OW31801   4.230   4.827   1.864 -0.5486  0.6121 -0.5094
10301SOL    HW131802   4.249   4.908   1.919  0.4020 -0.0287  0.1447
10301SOL    HW231803   4.247   4.745   1.918 -4.1295 -0.1211 -0.2133
10302SOL     OW31804   6.167   5.713   5.471 -0.0458 -0.1285 -0.5971
10302SOL    HW131805   6.093   5.652   5.441 -1.8461  0.4120  2.3527
10302SOL    HW231806   6.132   5.806   5.482  0.7334 -0.0696  1.8758
10303SOL     OW31807   1.635   1.555   4.241  0.2102  0.0115 -0.2205
10303SOL    HW131808   1.725   1.514   4.228  0.2832  0.0313  0.2085
10303SOL    HW231809   1.644   1.645   4.282 -0.0455 -0.3832  0.7207
10304SOL     OW31810   2.590   5.454   3.099 -0.0780 -0.1015  0.0411
10304SOL    HW131811   2.596   5.388   3.024 -1.5726 -1.5778  1.1489
10304SOL    HW231812   2.587   5.405   3.186  5.1873  1.5684  1.5187
10305SOL     OW31813   0.234   1.585   1.755  0.8359  0.5631  0.8496
10305SOL    HW131814   0.194   1.541   1.836 -0.4372 -0.8412 -0.4780
10305SOL    HW231815   0.309   1.529   1.721  0.0592  0.0519 -0.0831
10306SOL     OW31816   0.385   4.364   3.349 -0.2152  0.3886  0.2992
10306SOL    HW131817   0.465   4.317   3.384  0.9364  1.1109 -1.2297
10306SOL    HW231818   0.303   4.310   3.368  0.8082 -1.1383  0.5067
10307SOL     OW31819   3.619   5.655   4.945  0.6339  1.0074 -0.3704
10307SOL    HW131820   3.673   5.714   5.006 -0.4760  0.9140  0.7366
10307SOL    HW231821   3.662   5.652   4.855  2.1184  1.4456  0.2964
10308SOL     OW31822   2.021   2.803   5.523 -0.3416 -0.0607 -0.6204
10308SOL    HW131823   1.979   2.802   5.614  0.4166  1.5010 -0.2207
10308SOL    HW231824   1.995   2.720   5.473 -0.4967 -1.1238  1.1390
10309SOL     OW31825   4.429   2.030   6.952 -0.2032  0.8303  0.4235
10309SOL    HW131826   4.497   2.024   6.880 -0.5590  0.1820  0.1279
10309SOL    HW231827   4.402   1.938   6.980  0.0953  1.0630  1.5508
10310SOL     OW31828   3.309   4.542   5.355 -0.4845 -0.2209  0.1695
10310SOL    HW131829   3.362   4.458   5.367  0.1207 -0.0192 -0.9327
10310SOL    HW231830   3.216   4.518   5.327 -1.1808 -0.5925  2.5517
10311SOL     OW31831   1.600   6.109   2.143 -0.2888 -0.1281 -0.1453
10311SOL    HW131832   1.622   6.184   2.080 -0.6437  0.8436  0.8613
10311SOL    HW231833   1.520   6.134   2.197 -0.7552 -1.4827 -0.1793
10312SOL     OW31834   6.456   0.225   3.584  0.0142 -0.2185 -0.7568
10312SOL    HW131835   6.413   0.136   3.590 -0.2385 -0.1333 -1.2859
10312SOL    HW231836   6.427   0.282   3.661 -0.4921 -0.3011 -0.8859
10313SOL     OW31837   6.497   4.038   1.409  0.3223  0.5623 -0.2359
10313SOL    HW131838   6.479   4.008   1.503  1.7144 -0.3830 -0.2435
10313SOL    HW231839   6.410   4.051   1.361 -0.3858 -0.7202  0.6396
10314SOL     OW31840   6.251   3.030   1.030 -0.1346 -0.2184  0.8478
10314SOL    HW131841   6.194   2.949   1.044  0.5063 -0.7701  0.3416
10314SOL    HW231842   6.272   3.072   1.118 -1.6953  0.2747  1.0300
10315SOL     OW31843   6.944   1.191   6.795  0.1111 -0.0575  0.0927
10315SOL    HW131844   6.907   1.281   6.774  3.5304  0.9361 -2.7120
10315SOL    HW231845   6.940   1.133   6.713 -0.8883 -2.1189  1.4925
10316SOL     OW31846   0.879   5.351   5.207  0.4137 -0.5426 -0.3657
10316SOL    HW131847   0.870   5.308   5.117 -1.2180 -0.8050 -0.1087
10316SOL    HW231848   0.863   5.283   5.278  1.3567 -0.2615  0.1346
10317SOL     OW31849   6.483   4.127   4.539  0.5117 -0.0484 -0.1709
10317SOL    HW131850   6.446   4.193   4.472 -0.7774 -0.7801 -0.2178
10317SOL    HW231851   6.423   4.047   4.542  0.9568 -0.3386  1.3580
10318SOL     OW31852   5.285   4.029   5.781 -0.0023 -0.0574  0.2480
10318SOL    HW131853   5.355   4.046   5.849 -0.7078 -0.1322  1.0077
10318SOL    HW231854   5.225   4.109   5.774 -0.3555 -0.3240  0.2217
10319SOL     OW31855   0.065   3.438   5.333  0.4609  0.1340 -0.3634
10319SOL    HW131856   0.041   3.343   5.315  0.1847 -0.0140  0.6798
10319SOL    HW231857   0.104   3.445   5.425 -0.7997  1.2145  0.1255
10320SOL     OW31858   2.611   1.097   0.589  0.1281  0.6065  0.4152
10320SOL    HW131859   2.608   1.181   0.534 -1.3631 -0.3818 -1.1221
10320SOL    HW231860   2.532   1.040   0.566  3.9319 -4.0893 -3.3283
10321SOL     OW31861   0.539   2.113   2.929  0.0840  0.2232  0.2419
10321SOL    HW131862   0.627   2.150   2.897  0.2427  0.8773  1.3970
10321SOL    HW231863   0.468   2.134   2.861  0.3013  2.1131  0.5376
10322SOL     OW31864   6.670   4.530   1.206  0.2129 -0.6101  0.5046
10322SOL    HW131865   6.652   4.484   1.294  0.5246  0.6009  1.2289
10322SOL    HW231866   6.597   4.595   1.187  0.0981 -0.9385 -0.1893
10323SOL     OW31867   2.936   4.874   3.772 -0.0439 -0.1539 -0.5297
10323SOL    HW131868   2.973   4.838   3.686 -0.5515 -1.9777 -0.0424
10323SOL    HW231869   3.012   4.902   3.832  0.3478  0.1903 -1.1732
10324SOL     OW31870   2.761   1.618   0.619  0.0767  0.0315  0.0987
10324SOL    HW131871   2.721   1.611   0.711 -0.6369  0.2502 -0.1865
10324SOL    HW231872   2.776   1.714   0.597  0.8219 -0.0518  0.2208
10325SOL     OW31873   3.106   1.524   1.679 -0.4258  0.1370 -0.5338
10325SOL    HW131874   3.020   1.487   1.644  0.1519 -1.9050  0.0264
10325SOL    HW231875   3.181   1.498   1.618  0.0067  0.3788 -0.1123
10326SOL     OW31876   2.269   1.295   1.765 -0.5410 -0.9009  0.0084
10326SOL    HW131877   2.216   1.245   1.833 -1.3101 -0.0736  0.0389
10326SOL    HW231878   2.344   1.342   1.809 -1.1573 -0.2026  0.3298
10327SOL     OW31879   6.358   5.809   3.914 -0.2212  0.1676  0.1738
10327SOL    HW131880   6.422   5.886   3.917 -0.6531  0.5384  0.0422
10327SOL    HW231881   6.329   5.795   3.819  1.0448 -1.1629 -0.0501
10328SOL     OW31882   3.755   5.617   4.063  0.1175  0.5058  0.1073
10328SOL    HW131883   3.837   5.647   4.015 -0.1494  0.3342 -0.4537
10328SOL    HW231884   3.691   5.694   4.070 -0.0276  0.4133 -0.1990
10329SOL     OW31885   5.628   1.200   0.956 -0.0516 -0.4229 -0.0508
10329SOL    HW131886   5.625   1.146   1.040 -0.1211  0.9870  0.9057
10329SOL    HW231887   5.720   1.199   0.919 -0.0301 -1.0995  0.0130
10330SOL     OW31888   0.816   1.852   4.159 -0.6652 -0.2693 -0.0734
10330SOL    HW131889   0.833   1.948   4.135  1.6982 -0.6505 -0.1953
10330SOL    HW231890   0.728   1.845   4.206 -1.0277  1.9067 -0.2885
10331SOL     OW31891   0.450   5.717   5.137  0.0700  0.3205 -0.3796
10331SOL    HW131892   0.470   5.619   5.142  0.5098  0.4268 -0.0093
10331SOL    HW231893   0.418   5.739   5.045  0.2415 -0.1220 -0.5515
10332SOL     OW31894   1.250   1.799   1.091 -0.7284  0.1895 -0.1386
10332SOL    HW131895   1.163   1.774   1.047 -2.0062  1.8865  1.2975
10332SOL    HW231896   1.235   1.874   1.154  1.3368 -1.0903  2.0408
10333SOL     OW31897   6.470   3.635   5.269 -0.1138 -0.0508 -0.0399
10333SOL    HW131898   6.520   3.604   5.188  0.1279 -1.1139  0.4986
10333SOL    HW231899   6.531   3.634   5.348 -1.2567 -2.7198  0.9253
10334SOL     OW31900   5.266   3.627   5.206  0.1820 -0.2910 -0.0142
10334SOL    HW131901   5.221   3.682   5.276  1.0278  0.1982  0.1635
10334SOL    HW231902   5.271   3.679   5.121  1.7747  0.2991  0.3989
10335SOL     OW31903   1.398   0.189   6.041 -0.3266  0.3464 -0.0173
10335SOL    HW131904   1.334   0.119   6.009  1.0150 -2.9397  3.7380
10335SOL    HW231905   1.479   0.189   5.982 -0.7104 -0.7310 -0.5782
10336SOL     OW31906   5.361   0.751   0.596  0.0723 -0.5818  0.1930
10336SOL    HW131907   5.336   0.846   0.577 -0.6416 -0.7034  0.5088
10336SOL    HW231908   5.388   0.706   0.510 -1.1471 -0.5430 -0.2254
10337SOL     OW31909   5.528   6.593   6.234 -0.3483 -0.2727 -0.1481
10337SOL    HW131910   5.437   6.626   6.258  0.0647  0.0033  1.1320
10337SOL    HW231911   5.595   6.664   6.254  0.3674 -1.2251  0.9844
10338SOL     OW31912   6.074   2.404   3.686 -0.2269  0.0865 -0.8021
10338SOL    HW131913   5.979   2.378   3.668 -0.1654  0.4035 -1.6146
10338SOL    HW231914   6.135   2.338   3.641 -0.0501 -0.5352  0.3215
10339SOL     OW31915   1.442   1.510   3.064  0.4670 -0.3058 -0.2932
10339SOL    HW131916   1.500   1.441   3.020 -0.2715 -0.6759 -0.7118
10339SOL    HW231917   1.358   1.467   3.095  0.0088  0.4070 -0.5301
10340SOL     OW31918   4.241   1.619   6.386  0.2737  0.2796  0.1252
10340SOL    HW131919   4.198   1.546   6.333 -1.1658  1.1229  0.0453
10340SOL    HW231920   4.200   1.623   6.477 -2.3481  3.1147 -0.9661
10341SOL     OW31921   6.142   5.911   0.473 -0.2586  0.3539 -0.5708
10341SOL    HW131922   6.211   5.980   0.498  0.8403 -0.3007 -1.6855
10341SOL    HW231923   6.188   5.824   0.456 -1.5144 -0.3933 -0.2584
10342SOL     OW31924   1.326   1.062   5.156  0.0682  0.2664  0.2904
10342SOL    HW131925   1.389   1.130   5.193  0.7628 -0.9818  1.4873
10342SOL    HW231926   1.341   1.053   5.057 -0.3830  2.1642  0.0155
10343SOL     OW31927   2.231   5.420   0.967 -0.1182 -0.3927 -0.1564
10343SOL    HW131928   2.175   5.476   1.028 -2.3076 -0.5619 -1.8919
10343SOL    HW231929   2.258   5.336   1.015 -2.6009 -0.9801  0.3479
10344SOL     OW31930   4.016   2.293   0.737  0.3092 -0.6165  0.1716
10344SOL    HW131931   4.024   2.195   0.721  1.7816 -0.6436  0.9815
10344SOL    HW231932   4.009   2.311   0.835  0.3469  0.1079  0.0499
10345SOL     OW31933   4.354   1.270   0.926  0.3838  0.1546  0.2984
10345SOL    HW131934   4.309   1.219   0.999  0.7069  1.2253  1.2884
10345SOL    HW231935   4.446   1.296   0.956  1.1840 -0.8561 -1.1763
10346SOL     OW31936   1.404   1.840   1.478 -0.2819  0.0399  0.5802
10346SOL    HW131937   1.356   1.803   1.558  0.1091 -0.0292  0.7814
10346SOL    HW231938   1.340   1.893   1.423 -0.6971 -0.3985  0.6310
10347SOL     OW31939   0.525   2.085   3.204  0.0529  0.1765 -0.1572
10347SOL    HW131940   0.509   2.097   3.106 -1.4746 -1.3283 -0.1416
10347SOL    HW231941   0.438   2.091   3.253  0.8315  1.2501  1.1794
10348SOL     OW31942   1.890   2.003   4.535  0.3997 -0.0330 -0.5502
10348SOL    HW131943   1.970   2.023   4.590  0.0063  0.6299 -0.2032
10348SOL    HW231944   1.915   1.943   4.459  0.7168 -1.9806  1.0274
10349SOL     OW31945   2.903   5.779   3.685  0.0577 -0.1545  0.2770
10349SOL    HW131946   2.825   5.805   3.628  0.5864  1.1676  0.1283
10349SOL    HW231947   2.979   5.842   3.669  1.1202 -1.3218  0.5350
10350SOL     OW31948   5.754   6.277   6.864  0.1202  0.0984 -0.0005
10350SOL    HW131949   5.770   6.305   6.959 -0.3030 -0.7273  0.3263
10350SOL    HW231950   5.710   6.351   6.815  2.1881  1.3201 -0.1357
10351SOL     OW31951   1.283   4.153   2.190 -0.4042 -0.0321  0.2775
10351SOL    HW131952   1.322   4.114   2.274 -1.4036 -0.5623  0.5051
10351SOL    HW231953   1.336   4.121   2.112 -0.0654 -0.3259  0.6211
10352SOL     OW31954   6.776   6.029   6.897 -0.1744 -0.2920  0.3753
10352SOL    HW131955   6.720   5.970   6.954  0.0495 -0.7033  0.1722
10352SOL    HW231956   6.720   6.104   6.862 -0.9073 -1.3460 -0.7950
10353SOL     OW31957   0.150   0.999   6.250 -0.1107 -0.3130 -0.2774
10353SOL    HW131958   0.187   1.089   6.270  1.3660 -1.0841  0.5901
10353SOL    HW231959   0.143   0.946   6.334 -2.2226 -0.5915 -0.5726
10354SOL     OW31960   2.553   3.353   0.737  0.3775 -0.2408  0.0367
10354SOL    HW131961   2.557   3.324   0.642  1.6048 -1.1665  0.3397
10354SOL    HW231962   2.473   3.312   0.781  0.1928 -0.3761 -0.4201
10355SOL     OW31963   6.417   5.675   3.453 -0.0704  0.2726 -0.3044
10355SOL    HW131964   6.438   5.578   3.451  0.8200  0.4426 -2.4881
10355SOL    HW231965   6.394   5.706   3.360 -0.1293  2.1866  0.2954
10356SOL     OW31966   1.348   5.584   2.749  0.0492  0.5140  0.1400
10356SOL    HW131967   1.406   5.503   2.760 -0.9648 -0.0932  1.1886
10356SOL    HW231968   1.256   5.556   2.723 -0.1272  1.3913 -0.2267
10357SOL     OW31969   3.453   6.841   1.585  0.1414  0.1986 -0.5733
10357SOL    HW131970   3.536   6.839   1.529 -0.0149 -0.3840 -0.7873
10357SOL    HW231971   3.476   6.811   1.678  0.5184  1.7159 -0.1483
10358SOL     OW31972   1.049   2.008   6.301 -0.4573  0.1576 -1.4900
10358SOL    HW131973   1.110   1.930   6.286 -1.5830 -0.7035 -1.7142
10358SOL    HW231974   0.981   1.984   6.369 -0.4493  1.1738 -1.1137
10359SOL     OW31975   2.235   3.049   6.217  0.2889 -0.2889  0.3451
10359SOL    HW131976   2.176   2.997   6.278  0.8839 -2.0990 -0.5622
10359SOL    HW231977   2.184   3.072   6.134 -0.2515  1.4316  1.0999
10360SOL     OW31978   5.603   6.229   6.608  0.4970 -0.7818 -0.5231
10360SOL    HW131979   5.703   6.229   6.614  0.5174 -0.8718 -0.8374
10360SOL    HW231980   5.576   6.270   6.521  0.2312  0.2526  0.0269
10361SOL     OW31981   0.137   1.263   4.708 -0.7934  0.0946 -0.1827
10361SOL    HW131982   0.229   1.274   4.744 -0.4539 -1.9468 -0.2926
10361SOL    HW231983   0.113   1.343   4.652  0.6055  0.9842  0.4348
10362SOL     OW31984   5.611   6.427   5.189  0.1885  0.1698 -0.0131
10362SOL    HW131985   5.700   6.461   5.159  0.7550 -0.4430  0.9385
10362SOL    HW231986   5.574   6.487   5.259 -0.2073  0.4762 -0.4739
10363SOL     OW31987   4.650   5.731   3.660 -0.2466  0.0282 -0.1967
10363SOL    HW131988   4.675   5.819   3.621  2.3958 -0.6349 -0.1749
10363SOL    HW231989   4.664   5.659   3.592 -0.1543 -0.6252  0.4979
10364SOL     OW31990   0.439   0.044   1.238 -0.7497  0.2515  0.2803
10364SOL    HW131991   0.457   0.123   1.296 -2.9066 -0.0596  1.4637
10364SOL    HW231992   0.342   0.042   1.213 -0.7582 -1.9748  0.2424
10365SOL     OW31993   6.250   5.766   3.661  0.4165  0.1931 -0.2377
10365SOL    HW131994   6.302   5.757   3.576  1.5391 -0.1673  0.4715
10365SOL    HW231995   6.153   5.750   3.642  0.6716 -0.0598 -1.4169
10366SOL     OW31996   4.879   6.860   5.312  0.1849  0.3139 -0.1642
10366SOL    HW131997   4.976   6.839   5.322  0.1915  0.0949 -0.6732
10366SOL    HW231998   4.869   6.951   5.271  0.1557  1.5051  2.3361
10367SOL     OW31999   1.942   6.764   1.417 -0.3896  0.9998  0.7098
10367SOL    HW132000   1.956   6.844   1.358 -0.3477  1.4781  1.3503
10367SOL    HW232001   1.880   6.700   1.373  0.9384  0.5482 -0.5919
10368SOL     OW32002   6.245   4.511   4.961 -0.2626  0.4260  0.3102
10368SOL    HW132003   6.292   4.523   4.873  0.3487 -0.0356  0.5648
10368SOL    HW232004   6.233   4.413   4.979 -1.2316  0.5364  0.3102
10369SOL     OW32005   5.384   4.576   6.546 -0.9543 -0.0648  0.2628
10369SOL    HW132006   5.353   4.595   6.453  0.6378 -1.9947 -0.7340
10369SOL    HW232007   5.421   4.659   6.586 -0.0006  0.4326 -1.5331
10370SOL     OW32008   6.283   0.613   2.472 -0.4803  0.1163  0.7897
10370SOL    HW132009   6.307   0.516   2.471  0.9962  0.4650  0.2544
10370SOL    HW232010   6.244   0.639   2.384  1.3478  0.4912  0.0305
10371SOL     OW32011   4.543   4.294   6.609  0.0035  0.4435 -0.4345
10371SOL    HW132012   4.474   4.241   6.658  0.0196  1.1272  0.3544
10371SOL    HW232013   4.579   4.240   6.533  0.0074 -0.6695  0.3277
10372SOL     OW32014   6.864   3.652   1.900 -0.1878 -0.3716  0.5851
10372SOL    HW132015   6.782   3.594   1.904 -2.4153  2.4705 -0.6962
10372SOL    HW232016   6.906   3.643   1.810 -1.9989  1.7071 -0.5513
10373SOL     OW32017   4.468   6.888   4.027  0.2936 -0.4051  0.4900
10373SOL    HW132018   4.417   6.802   4.021  1.3575 -1.1383  1.5190
10373SOL    HW232019   4.561   6.874   3.994  1.3699 -0.4425  3.2872
10374SOL     OW32020   5.126   6.941   3.883 -0.3092  0.1090  0.0624
10374SOL    HW132021   5.207   6.884   3.879 -0.2810  0.0916  0.7668
10374SOL    HW232022   5.128   6.997   3.966 -1.6476 -0.8463  0.7763
10375SOL     OW32023   3.750   1.889   4.264  0.3169  0.9092 -0.3113
10375SOL    HW132024   3.670   1.831   4.250  0.8170  0.7299 -3.0270
10375SOL    HW232025   3.739   1.941   4.349 -2.1130  0.0316 -0.0068
10376SOL     OW32026   5.110   5.418   1.785 -0.5266  1.2668 -0.0054
10376SOL    HW132027   5.037   5.391   1.849 -0.8768  1.5592 -0.2728
10376SOL    HW232028   5.070   5.471   1.710 -0.1495  0.7213 -0.5973
10377SOL     OW32029   1.470   5.353   2.858 -0.1050 -0.0139  0.0373
10377SOL    HW132030   1.394   5.294   2.885 -1.4840  1.5167 -0.3217
10377SOL    HW232031   1.514   5.391   2.940  0.3131 -0.9348  0.2481
10378SOL     OW32032   4.494   0.771   0.347 -0.1667  0.6503 -0.2793
10378SOL    HW132033   4.521   0.795   0.440  3.1651  0.9910 -1.2099
10378SOL    HW232034   4.511   0.848   0.286  0.7775 -0.5804 -1.6451
10379SOL     OW32035   4.582   5.321   2.544 -0.3565 -0.1052  0.2711
10379SOL    HW132036   4.516   5.318   2.469 -0.6588 -1.7831  0.5463
10379SOL    HW232037   4.560   5.248   2.610  0.9632  0.1859  1.0732
10380SOL     OW32038   0.649   1.326   0.716  0.0277  0.2302 -0.1857
10380SOL    HW132039   0.672   1.277   0.799 -0.1111 -1.2781 -1.0015
10380SOL    HW232040   0.646   1.425   0.735 -3.6064 -0.1816  2.5097
10381SOL     OW32041   6.770   2.635   2.802  0.4571 -0.4318 -0.0783
10381SOL    HW132042   6.857   2.633   2.850  1.5779 -0.4719 -1.9994
10381SOL    HW232043   6.728   2.544   2.806  0.6487 -0.4945  0.5854
10382SOL     OW32044   4.005   6.455   3.797  0.5046  0.2173 -0.9888
10382SOL    HW132045   4.099   6.489   3.787  0.8410 -0.9165 -2.0148
10382SOL    HW232046   4.006   6.355   3.796 -0.8394  0.1832 -2.3955
10383SOL     OW32047   0.660   4.747   4.912 -0.7809 -0.8775  0.0233
10383SOL    HW132048   0.580   4.695   4.942 -0.7383 -3.1533 -3.2995
10383SOL    HW232049   0.717   4.690   4.853  1.9550  1.4992  0.1413
10384SOL     OW32050   0.369   6.247   6.194  0.4119  0.1509  0.9281
10384SOL    HW132051   0.325   6.161   6.219  0.8013 -0.4943 -0.4905
10384SOL    HW232052   0.460   6.250   6.234  0.4175 -0.1329  0.9427
10385SOL     OW32053   2.779   1.024   0.823 -0.4655  0.2107 -0.4842
10385SOL    HW132054   2.767   0.925   0.836  1.6391 -0.1798 -1.1068
10385SOL    HW232055   2.726   1.053   0.743  0.4270 -0.8465 -1.5035
10386SOL     OW32056   4.832   5.957   6.657 -0.1165 -0.0515  1.1800
10386SOL    HW132057   4.887   5.887   6.700 -0.1388  0.3193  1.8142
10386SOL    HW232058   4.876   6.046   6.668 -0.9736  0.2913  1.9590
10387SOL     OW32059   3.540   0.992   5.363 -0.1051 -0.2668 -0.0529
10387SOL    HW132060   3.630   0.990   5.406  0.9870  0.4401 -2.1835
10387SOL    HW232061   3.548   0.964   5.267 -2.0080  0.6452 -0.5274
10388SOL     OW32062   5.672   5.097   4.191  0.4557  0.2471  0.4038
10388SOL    HW132063   5.749   5.109   4.253  1.1458 -1.5112 -0.0596
10388SOL    HW232064   5.652   4.999   4.180 -0.1533  0.5370 -1.5151
10389SOL     OW32065   2.069   1.815   6.216 -0.5566 -0.3690  0.0132
10389SOL    HW132066   2.109   1.895   6.260 -0.3499 -0.3459 -0.2131
10389SOL    HW232067   2.087   1.819   6.117 -0.1896 -0.9061  0.0581
10390SOL     OW32068   2.112   3.785   3.146  0.2144  0.6400  0.1721
10390SOL    HW132069   2.017   3.759   3.128 -0.1835  1.6183  0.7613
10390SOL    HW232070   2.147   3.729   3.222 -0.7521  1.9852  1.6756
10391SOL     OW32071   6.695   4.553   3.000  0.3394  0.7496 -0.1396
10391SOL    HW132072   6.698   4.460   3.038 -2.2130  0.5343 -0.3048
10391SOL    HW232073   6.748   4.614   3.059 -0.2238 -0.3150  1.5546
10392SOL     OW32074   5.479   5.271   5.718  0.1704  0.0768  0.5598
10392SOL    HW132075   5.567   5.227   5.737 -1.1806 -3.1523 -0.0234
10392SOL    HW232076   5.448   5.319   5.800  1.8982  0.2418  1.1542
10393SOL     OW32077   1.892   3.121   2.584 -0.6988  0.7450  0.1304
10393SOL    HW132078   1.834   3.199   2.606 -1.1786  0.1344  1.1496
10393SOL    HW232079   1.962   3.148   2.519 -1.7995  1.6372 -0.7168
10394SOL     OW32080   0.824   6.024   4.019 -0.5702 -0.4715  0.1692
10394SOL    HW132081   0.738   6.004   3.972  0.6583 -0.6532 -2.1641
10394SOL    HW232082   0.851   5.945   4.074 -1.6910 -0.5511  0.6272
10395SOL     OW32083   6.167   3.816   6.595  0.1000 -0.5557  0.5479
10395SOL    HW132084   6.136   3.721   6.597 -1.5331 -0.0656  0.1247
10395SOL    HW232085   6.214   3.834   6.508  0.4036 -0.9665  0.6240
10396SOL     OW32086   3.013   4.488   6.627  0.0388  0.0359  0.3852
10396SOL    HW132087   3.096   4.451   6.585 -0.3389 -1.0771  0.5801
10396SOL    HW232088   2.933   4.438   6.593 -0.6956  1.8207 -0.6546
10397SOL     OW32089   4.628   5.318   3.794 -0.3309 -0.5436 -0.2344
10397SOL    HW132090   4.546   5.261   3.791 -0.4870 -0.5872  2.2681
10397SOL    HW232091   4.610   5.398   3.853  1.9387 -1.5791  2.0340
10398SOL     OW32092   2.417   2.287   6.819  0.1225  0.6947 -0.7240
10398SOL    HW132093   2.501   2.292   6.873  0.2701 -2.0735 -0.5646
10398SOL    HW232094   2.339   2.269   6.879 -0.4044  1.8661 -1.0229
10399SOL     OW32095   5.630   2.886   4.698 -0.4163  0.0710  0.2184
10399SOL    HW132096   5.580   2.972   4.708 -0.6011 -0.0383  0.2470
10399SOL    HW232097   5.570   2.817   4.657 -0.1061  0.1066 -0.3025
10400SOL     OW32098   2.246   6.421   2.021  0.0277 -0.4096 -0.2882
10400SOL    HW132099   2.184   6.493   1.989 -0.2216 -0.3264  0.3692
10400SOL    HW232100   2.254   6.426   2.120 -0.0685 -1.3503 -0.2240
10401SOL     OW32101   6.530   2.740   5.362  0.5887 -0.2237  0.1402
10401SOL    HW132102   6.597   2.757   5.289  0.0782 -0.7843 -0.4752
10401SOL    HW232103   6.519   2.641   5.374 -1.1682 -0.1878 -0.7846
10402SOL     OW32104   4.855   3.987   1.600  0.1892 -0.4098  0.3887
10402SOL    HW132105   4.864   3.948   1.691  1.3560  0.4308  0.6467
10402SOL    HW232106   4.775   4.047   1.597 -0.7074 -1.5581  0.4193
10403SOL     OW32107   2.897   6.359   1.479 -0.0969 -0.4717  0.6409
10403SOL    HW132108   2.902   6.457   1.458 -1.0633 -0.1898  1.6037
10403SOL    HW232109   2.889   6.307   1.394  4.5905 -0.1356 -0.3073
10404SOL     OW32110   0.462   5.668   2.595 -0.1456  0.0662  0.0304
10404SOL    HW132111   0.424   5.656   2.687  1.2919  1.0396  0.7979
10404SOL    HW232112   0.522   5.749   2.594  1.3016 -0.9671 -1.2768
10405SOL     OW32113   2.760   5.921   5.580  0.1169 -0.5217  0.3917
10405SOL    HW132114   2.733   6.013   5.550  1.5541 -1.0032 -2.6570
10405SOL    HW232115   2.859   5.918   5.592  0.0980 -1.7236  0.3047
10406SOL     OW32116   1.460   6.612   3.360  0.0097  0.9764 -0.5733
10406SOL    HW132117   1.404   6.695   3.365  0.2260  1.1577 -1.0759
10406SOL    HW232118   1.530   6.624   3.290  1.5114  1.2454  0.9175
10407SOL     OW32119   3.838   0.765   0.653  0.1060 -0.1795  0.5290
10407SOL    HW132120   3.777   0.687   0.645 -0.9103  0.6390  0.0940
10407SOL    HW232121   3.811   0.822   0.731 -0.2661  0.6643 -0.1943
10408SOL     OW32122   1.338   5.868   0.261 -0.5590  0.4462 -0.3516
10408SOL    HW132123   1.411   5.932   0.286  1.8527 -2.3939  0.5132
10408SOL    HW232124   1.257   5.886   0.317  1.3092  0.4708  2.5498
10409SOL     OW32125   6.977   4.593   6.305  0.1946  0.4736 -0.2964
10409SOL    HW132126   6.971   4.679   6.356 -0.4006  0.0288  0.4061
10409SOL    HW232127   6.986   4.613   6.207  1.4377  1.3406 -0.0330
10410SOL     OW32128   3.445   4.372   6.836  0.6095 -0.0341 -0.2685
10410SOL    HW132129   3.475   4.467   6.827 -0.5649  0.2029 -2.3867
10410SOL    HW232130   3.369   4.355   6.773  1.2665 -2.5679 -0.4947
10411SOL     OW32131   5.650   7.012   1.171  0.4715 -0.1880  0.3903
10411SOL    HW132132   5.688   7.022   1.263  2.0207  3.1801 -0.4524
10411SOL    HW232133   5.556   7.045   1.170  0.0085 -1.4488  0.9860
10412SOL     OW32134   5.469   4.149   5.544 -0.6343  0.1132 -0.2828
10412SOL    HW132135   5.444   4.161   5.448 -0.2497  1.1477 -0.2679
10412SOL    HW232136   5.441   4.229   5.597 -0.6058 -0.3295  0.4220
10413SOL     OW32137   1.789   3.085   6.807 -0.9038  0.0586  0.0938
10413SOL    HW132138   1.718   3.087   6.877 -1.8190  0.4650 -0.8157
10413SOL    HW232139   1.869   3.037   6.842 -1.4999 -0.1264  1.2550
10414SOL     OW32140   5.345   1.905   5.935  0.1309  0.7933 -0.6811
10414SOL    HW132141   5.274   1.842   5.966  0.9597 -0.7369 -1.7749
10414SOL    HW232142   5.302   1.987   5.896 -1.0004  0.3519 -0.4089
10415SOL     OW32143   5.412   3.592   3.244  0.2778 -0.2822 -0.1571
10415SOL    HW132144   5.345   3.574   3.172  0.5049 -1.1662 -0.1601
10415SOL    HW232145   5.486   3.648   3.207  0.7782 -1.3594 -0.8432
10416SOL     OW32146   1.394   2.406   6.473 -0.3442 -0.1581  0.7756
10416SOL    HW132147   1.345   2.328   6.434  1.6211 -0.1802 -1.9621
10416SOL    HW232148   1.343   2.490   6.453 -0.0739 -0.3156 -0.7474
10417SOL     OW32149   3.895   1.959   2.816 -0.5883 -0.5334  0.0756
10417SOL    HW132150   3.969   2.009   2.771 -1.0853 -1.0180 -1.3351
10417SOL    HW232151   3.817   2.020   2.830 -0.2798 -0.2720  0.6832
10418SOL     OW32152   0.473   1.097   6.262 -0.1475  0.3485 -0.0873
10418SOL    HW132153   0.478   1.196   6.254  2.0889  0.3598  0.7828
10418SOL    HW232154   0.419   1.060   6.186  0.3155  2.1068 -1.3360
10419SOL     OW32155   0.976   1.524   2.196  0.1698  0.0190 -0.2269
10419SOL    HW132156   1.009   1.619   2.197 -2.4749  1.0138  0.5996
10419SOL    HW232157   0.925   1.508   2.111 -0.8445 -0.0874  0.3887
10420SOL     OW32158   1.885   2.145   2.191 -0.3483 -0.0988  0.5672
10420SOL    HW132159   1.985   2.148   2.191 -0.3029  1.0481 -2.3711
10420SOL    HW232160   1.849   2.205   2.119 -3.2696  1.0875  2.8139
10421SOL     OW32161   1.390   6.254   4.063 -0.5507  0.2760  0.2371
10421SOL    HW132162   1.334   6.219   4.138 -2.3296 -0.8123 -1.4849
10421SOL    HW232163   1.373   6.199   3.981  2.2813  0.6120 -0.6684
10422SOL     OW32164   0.470   2.782   2.604  0.3270  0.2175 -0.0679
10422SOL    HW132165   0.470   2.733   2.691  0.4093  1.2451  0.5158
10422SOL    HW232166   0.459   2.880   2.620 -0.5458  0.3315 -1.2673
10423SOL     OW32167   3.110   4.336   5.941  0.2798 -0.5271  0.0315
10423SOL    HW132168   3.039   4.397   5.906  2.2418  2.1803  0.4416
10423SOL    HW232169   3.186   4.333   5.876  0.8949 -1.2374  0.7684
10424SOL     OW32170   0.235   1.989   2.708  0.1032  0.6699  0.1766
10424SOL    HW132171   0.136   1.997   2.707  0.1335  1.2899 -1.8533
10424SOL    HW232172   0.266   1.939   2.628  1.4010 -0.4448  1.3107
10425SOL     OW32173   2.425   4.927   6.707 -0.2127  0.8121  0.0567
10425SOL    HW132174   2.439   5.026   6.708 -1.8529  1.0613  0.3468
10425SOL    HW232175   2.361   4.902   6.635 -0.4681  0.0576  0.5259
10426SOL     OW32176   4.259   6.186   1.499 -0.2900 -0.5160  0.3137
10426SOL    HW132177   4.217   6.268   1.459 -0.4195 -1.5134 -1.7215
10426SOL    HW232178   4.351   6.210   1.531 -0.9979  0.8279  1.4752
10427SOL     OW32179   5.250   1.260   4.227  0.4316  0.2056 -0.6366
10427SOL    HW132180   5.316   1.253   4.152  0.5883 -0.4102 -0.4486
10427SOL    HW232181   5.249   1.174   4.279  0.9440  0.9260  0.5976
10428SOL     OW32182   6.308   6.227   6.245 -0.0954 -0.3424  0.2633
10428SOL    HW132183   6.277   6.234   6.150  1.3885 -0.0894 -0.2229
10428SOL    HW232184   6.302   6.131   6.275  1.1500 -0.7433 -0.7076
10429SOL     OW32185   2.095   4.136   0.795 -0.0215  0.2274 -0.2000
10429SOL    HW132186   2.008   4.184   0.809 -0.3250 -0.7381  1.5527
10429SOL    HW232187   2.145   4.132   0.882  1.4201  0.0729 -1.0091
10430SOL     OW32188   2.104   2.149   4.676  0.5740  0.3229 -0.2914
10430SOL    HW132189   2.184   2.104   4.715  0.5350  0.5745  0.0794
10430SOL    HW232190   2.035   2.164   4.747  0.8381  1.5314 -0.2746
10431SOL     OW32191   3.717   2.024   6.743 -1.1704 -0.0739 -0.2520
10431SOL    HW132192   3.678   2.116   6.741 -1.5380 -0.1769  1.3574
10431SOL    HW232193   3.809   2.027   6.780 -1.2763 -0.3837  0.0381
10432SOL     OW32194   1.664   1.224   4.371 -0.0764  0.3197  0.6333
10432SOL    HW132195   1.583   1.189   4.418  0.4440 -2.0911 -0.1266
10432SOL    HW232196   1.642   1.241   4.275 -0.1390  1.5262  0.8425
10433SOL     OW32197   1.353   6.619   5.069 -0.2890 -0.3845 -0.4613
10433SOL    HW132198   1.326   6.527   5.100 -3.2118  0.2231 -0.9163
10433SOL    HW232199   1.340   6.626   4.970 -0.7176  0.6953 -0.3390
10434SOL     OW32200   2.472   5.864   5.440 -0.3705  0.2600 -0.7384
10434SOL    HW132201   2.477   5.788   5.505  0.6065  1.3053  0.4609
10434SOL    HW232202   2.469   5.951   5.489 -0.9895  1.0413 -2.0862
10435SOL     OW32203   2.849   6.596   2.641 -0.2938  0.1912  0.3186
10435SOL    HW132204   2.778   6.655   2.677  0.4707  0.0160  2.2080
10435SOL    HW232205   2.939   6.637   2.656  0.0935 -0.2060 -0.8030
10436SOL     OW32206   0.981   2.956   4.646  0.6698  0.5200 -0.0434
10436SOL    HW132207   0.960   2.913   4.734  1.2757  0.9413  0.3149
10436SOL    HW232208   1.080   2.971   4.639  0.7777 -0.4898 -1.2492
10437SOL     OW32209   5.427   6.993   4.506  0.1510  0.8213  0.7961
10437SOL    HW132210   5.494   6.993   4.580 -0.0082 -0.8135  0.9643
10437SOL    HW232211   5.348   6.937   4.532  0.8707 -1.3034 -1.2538
10438SOL     OW32212   2.154   6.945   5.402 -0.4647  0.0545  0.7955
10438SOL    HW132213   2.141   6.846   5.393  1.5770 -0.3758  2.1501
10438SOL    HW232214   2.064   6.990   5.399 -1.3406 -1.6023 -1.7767
10439SOL     OW32215   6.600   4.481   1.893 -0.2039 -0.3872 -0.6392
10439SOL    HW132216   6.501   4.472   1.900 -0.1710 -3.0410 -2.1576
10439SOL    HW232217   6.623   4.553   1.827 -1.0543  0.7225  0.2354
10440SOL     OW32218   2.227   4.064   3.758 -0.4341  0.7012  0.0355
10440SOL    HW132219   2.129   4.049   3.772 -0.6918  0.5140 -1.7025
10440SOL    HW232220   2.260   4.003   3.685  1.0920  0.4186  0.9176
10441SOL     OW32221   2.898   2.822   0.592 -0.1236  0.0773  0.5151
10441SOL    HW132222   2.966   2.778   0.651  1.1643  1.1368 -0.1226
10441SOL    HW232223   2.831   2.754   0.562  0.3233 -0.8762  1.6207
10442SOL     OW32224   1.530   1.119   3.296  0.0169  0.1459  0.2445
10442SOL    HW132225   1.506   1.022   3.295  0.1538  0.1075  0.8778
10442SOL    HW232226   1.458   1.171   3.248  0.3842 -0.3585 -0.8754
10443SOL     OW32227   5.214   5.617   0.161  0.3152  0.0273 -0.2940
10443SOL    HW132228   5.271   5.660   0.231  0.0974 -0.6773  0.3241
10443SOL    HW232229   5.216   5.674   0.078 -1.0691  1.9855  0.9307
10444SOL     OW32230   6.427   0.136   1.860 -0.5145  0.2065 -0.1424
10444SOL    HW132231   6.390   0.123   1.768 -1.1575  0.5395  0.0596
10444SOL    HW232232   6.440   0.234   1.877  0.7113  0.0796 -0.2978
10445SOL     OW32233   6.416   5.728   4.287  0.0834 -0.5716 -0.0864
10445SOL    HW132234   6.486   5.781   4.239 -0.6382 -0.9830 -1.6880
10445SOL    HW232235   6.331   5.732   4.235 -0.2430 -2.5401  0.2250
10446SOL     OW32236   1.904   2.786   0.055  0.1809 -0.7036  0.6487
10446SOL    HW132237   1.955   2.803  -0.029  1.7733  0.2497  1.7426
10446SOL    HW232238   1.922   2.692   0.086  0.0729 -0.8596  0.2443
10447SOL     OW32239   3.163   6.540   3.128  0.0263 -0.0483 -0.4007
10447SOL    HW132240   3.208   6.558   3.041 -1.1977 -0.7586 -1.2049
10447SOL    HW232241   3.228   6.498   3.192  0.8354  0.1597 -1.0750
10448SOL     OW32242   1.997   6.718   2.442 -0.0851 -0.2195 -0.1272
10448SOL    HW132243   2.030   6.666   2.521 -0.5798  1.7435  1.4348
10448SOL    HW232244   2.010   6.815   2.458 -0.3631  0.2620 -2.4265
10449SOL     OW32245   5.022   1.765   4.673  0.1166 -0.0636  0.2406
10449SOL    HW132246   5.016   1.806   4.764 -2.5066 -2.0234  1.0380
10449SOL    HW232247   5.119   1.756   4.647  0.8775  2.2335  1.9594
10450SOL     OW32248   0.200   6.185   4.466  0.1887  0.2184 -0.2491
10450SOL    HW132249   0.296   6.180   4.495  0.2492  0.4514 -0.4060
10450SOL    HW232250   0.177   6.104   4.413  0.0867 -0.1985  0.4148
10451SOL     OW32251   3.474   3.941   0.899  0.6518 -0.3964  0.2206
10451SOL    HW132252   3.415   3.889   0.961  0.7921 -0.6507  0.1417
10451SOL    HW232253   3.434   3.943   0.808 -0.1738  1.0091  0.5810
10452SOL     OW32254   3.305   3.238   4.901 -0.1309 -0.1009  0.3234
10452SOL    HW132255   3.229   3.224   4.838 -1.2151  1.0187  1.3117
10452SOL    HW232256   3.335   3.150   4.938 -1.4154 -0.5275  0.4135
10453SOL     OW32257   6.294   1.768   1.820 -0.1706  0.8285 -0.2778
10453SOL    HW132258   6.275   1.670   1.831  0.5221  0.7316  0.0947
10453SOL    HW232259   6.285   1.814   1.908 -1.8801  1.3669 -0.6952
10454SOL     OW32260   6.367   2.658   4.715 -0.1138 -0.1028 -0.2253
10454SOL    HW132261   6.274   2.693   4.720 -0.8797 -2.0941  0.1781
10454SOL    HW232262   6.379   2.582   4.779  1.8051  0.1114 -0.2480
10455SOL     OW32263   5.762   4.564   5.898 -0.4116 -0.3100  0.1857
10455SOL    HW132264   5.847   4.514   5.909 -0.2011 -0.0691 -0.3049
10455SOL    HW232265   5.724   4.546   5.807 -0.1372  0.6954 -0.1422
10456SOL     OW32266   2.369   2.833   1.405  0.1634 -0.4883 -0.1412
10456SOL    HW132267   2.468   2.833   1.398  0.1182 -0.6819 -0.8516
10456SOL    HW232268   2.341   2.894   1.479  0.7910 -0.1446 -0.1801
10457SOL     OW32269   4.897   5.953   3.973  0.5208 -0.2883 -0.0409
10457SOL    HW132270   4.948   6.010   4.038 -0.4317 -1.3851  1.7421
10457SOL    HW232271   4.869   5.868   4.019 -0.5414 -0.9164 -1.7961
10458SOL     OW32272   0.573   6.388   5.001  0.3997 -0.4113 -0.6285
10458SOL    HW132273   0.584   6.462   4.935  0.4735 -0.5558 -0.7774
10458SOL    HW232274   0.496   6.331   4.975  0.1212 -0.1808 -0.3170
10459SOL     OW32275   2.687   5.784   4.898  0.0634  0.2010  0.0593
10459SOL    HW132276   2.588   5.798   4.886  0.4655  2.8733 -0.6672
10459SOL    HW232277   2.726   5.747   4.814 -0.1493  0.0594  0.0204
10460SOL     OW32278   2.080   2.492   2.466  0.2429  0.4552  0.2280
10460SOL    HW132279   2.017   2.510   2.542  0.1073 -1.0078  0.4870
10460SOL    HW232280   2.136   2.412   2.487 -0.1063 -0.2571 -1.3988
10461SOL     OW32281   5.186   3.035   6.169 -0.0418 -0.2856  0.2797
10461SOL    HW132282   5.228   3.016   6.080  1.9115  0.0911  1.0566
10461SOL    HW232283   5.228   3.117   6.208 -2.6452  1.0609  0.4883
10462SOL     OW32284   4.417   0.747   4.458 -0.2107 -0.5691 -0.3179
10462SOL    HW132285   4.387   0.654   4.436 -0.2107 -0.9410  1.1348
10462SOL    HW232286   4.372   0.812   4.397 -0.5219 -1.4921 -1.0886
10463SOL     OW32287   2.055   0.733   6.769  0.3161 -0.4349  0.1076
10463SOL    HW132288   2.005   0.750   6.853 -0.1564 -1.2477  0.0003
10463SOL    HW232289   2.022   0.649   6.726  0.8002 -0.2318 -0.7008
10464SOL     OW32290   5.112   5.362   6.861 -0.1142 -0.0460  0.2521
10464SOL    HW132291   5.200   5.317   6.845  0.0996  0.5142 -0.1759
10464SOL    HW232292   5.108   5.393   6.957  0.5318  0.7070  0.0518
10465SOL     OW32293   6.872   1.539   0.545 -0.3691  0.3476 -0.5738
10465SOL    HW132294   6.789   1.491   0.518 -0.9800  2.6732 -3.3480
10465SOL    HW232295   6.951   1.481   0.528 -1.2862 -2.4624  3.4411
10466SOL     OW32296   2.287   2.288   0.225 -0.0526 -0.7992 -0.6007
10466SOL    HW132297   2.264   2.207   0.278 -1.0555  0.0741  0.3462
10466SOL    HW232298   2.384   2.310   0.239  0.1400 -1.6212 -0.5916
10467SOL     OW32299   1.573   3.059   6.982  0.0226 -0.3107  0.3151
10467SOL    HW132300   1.479   3.032   6.963 -0.3559  1.4461 -0.4680
10467SOL    HW232301   1.587   3.062   7.081 -1.3809  1.3884  0.4947
10468SOL     OW32302   1.089   3.953   0.273  0.2367  0.1962 -0.1879
10468SOL    HW132303   1.172   4.006   0.288 -0.8633  3.1604 -3.2104
10468SOL    HW232304   1.095   3.907   0.184  0.0621 -2.7895  1.2183
10469SOL     OW32305   6.425   6.226   5.004  0.1182 -0.1892 -0.4651
10469SOL    HW132306   6.331   6.221   5.036 -0.0654  0.0056 -0.9818
10469SOL    HW232307   6.486   6.237   5.083 -0.4068  1.2527 -0.2401
10470SOL     OW32308   4.014   5.371   1.629 -0.2434 -0.2837  0.9534
10470SOL    HW132309   3.920   5.402   1.641  0.3039  1.8535  0.1573
10470SOL    HW232310   4.063   5.379   1.716 -0.2864  0.5247  0.9108
10471SOL     OW32311   3.955   5.218   1.240 -0.3415 -0.3966 -0.2195
10471SOL    HW132312   3.936   5.167   1.324 -0.9331  0.4968  0.2079
10471SOL    HW232313   3.871   5.226   1.186 -0.4628  0.8187  0.1210
10472SOL     OW32314   3.820   5.691   4.739 -0.0920 -0.1660 -0.0109
10472SOL    HW132315   3.854   5.618   4.679  0.5821 -1.0411  1.3897
10472SOL    HW232316   3.889   5.712   4.808 -0.2140  1.9358 -0.4680
10473SOL     OW32317   3.175   6.130   2.575 -0.0859  0.1043  0.2253
10473SOL    HW132318   3.174   6.228   2.596  1.0795  0.6877 -2.1589
10473SOL    HW232319   3.108   6.110   2.504 -0.2394 -0.8479  0.6173
10474SOL     OW32320   1.517   2.437   0.452 -0.0418  0.0659 -0.2762
10474SOL    HW132321   1.458   2.421   0.373 -0.4445 -0.6204  0.1513
10474SOL    HW232322   1.475   2.397   0.534  1.6733 -1.7302 -0.2066
10475SOL     OW32323   1.263   1.149   0.502 -0.0141  0.0859  0.2401
10475SOL    HW132324   1.304   1.199   0.579 -1.5693 -0.9697  1.8318
10475SOL    HW232325   1.165   1.165   0.500 -0.0966 -0.4471 -1.1589
10476SOL     OW32326   5.920   1.821   5.664 -0.0443  0.0314  0.0074
10476SOL    HW132327   5.994   1.874   5.623 -1.4101  0.4658 -2.0071
10476SOL    HW232328   5.859   1.883   5.714 -0.1765 -0.0289 -0.0786
10477SOL     OW32329   1.420   0.465   6.915 -0.0293 -0.2608 -0.2333
10477SOL    HW132330   1.449   0.370   6.903  0.8417  0.1754 -2.0214
10477SOL    HW232331   1.326   0.468   6.950 -0.6905 -1.8160 -1.7187
10478SOL     OW32332   3.102   5.913   4.404 -0.3917 -0.3082  0.0832
10478SOL    HW132333   3.053   5.833   4.370 -4.2260  2.2939 -1.2829
10478SOL    HW232334   3.174   5.938   4.339  0.5354 -2.2640  0.2956
10479SOL     OW32335   5.419   5.368   5.231  0.2765 -0.8350  0.3830
10479SOL    HW132336   5.328   5.344   5.197  0.5181 -4.3216  1.7540
10479SOL    HW232337   5.486   5.352   5.159 -0.0986  1.8677 -0.6743
10480SOL     OW32338   0.561   3.316   4.517  0.3722  0.6268  0.5609
10480SOL    HW132339   0.580   3.413   4.505 -0.4006  0.8085  0.6963
10480SOL    HW232340   0.645   3.267   4.538  1.1723  0.8842 -1.7437
10481SOL     OW32341   6.039   2.585   1.717  0.0752  0.6610  0.0348
10481SOL    HW132342   6.062   2.606   1.812 -2.1034  0.0946  0.7316
10481SOL    HW232343   6.033   2.670   1.665 -1.2487  1.2090  1.0350
10482SOL     OW32344   0.372   4.442   0.312 -0.0307  0.3746  0.6870
10482SOL    HW132345   0.366   4.533   0.352 -0.9910  1.9000 -2.5929
10482SOL    HW232346   0.466   4.425   0.283  0.3719 -0.1828  2.1971
10483SOL     OW32347   6.337   3.458   6.657  0.4626  0.5683 -0.2906
10483SOL    HW132348   6.407   3.529   6.660  0.5082  0.5270 -0.3686
10483SOL    HW232349   6.275   3.475   6.579  0.6168  0.3886 -0.4537
10484SOL     OW32350   3.909   0.160   1.525  0.1304  0.2160 -0.4302
10484SOL    HW132351   3.949   0.199   1.608  3.2722 -1.4042 -1.0044
10484SOL    HW232352   3.843   0.089   1.549 -0.6779  1.2960  0.6235
10485SOL     OW32353   3.225   4.707   5.972  0.2556 -0.2107  0.4518
10485SOL    HW132354   3.168   4.667   5.900 -1.1268  1.4272  0.5694
10485SOL    HW232355   3.229   4.645   6.050 -2.8270  0.2482  1.1253
10486SOL     OW32356   6.086   0.955   3.934 -0.3329  0.4773 -0.3694
10486SOL    HW132357   6.001   0.984   3.978 -0.6724 -1.4900  0.3703
10486SOL    HW232358   6.163   1.003   3.976 -0.9525  1.2490 -0.0867
10487SOL     OW32359   3.086   0.480   5.994  0.1590  0.7530  0.2018
10487SOL    HW132360   3.014   0.468   5.925  0.1363  1.5194  0.0847
10487SOL    HW232361   3.103   0.393   6.039  1.1977 -0.1175 -1.7574
10488SOL     OW32362   3.699   2.847   2.377  0.3174  0.0435 -0.1818
10488SOL    HW132363   3.721   2.931   2.427  2.0740 -0.5070  0.0217
10488SOL    HW232364   3.732   2.768   2.429  0.6921 -0.6366 -1.4306
10489SOL     OW32365   5.049   6.186   5.622 -0.2853 -0.2292  0.7095
10489SOL    HW132366   5.058   6.167   5.524  1.3543  1.0267  0.5826
10489SOL    HW232367   5.118   6.252   5.650 -2.9255  2.1693  2.0293
10490SOL     OW32368   3.689   2.781   1.823  0.2275 -0.3327  0.8461
10490SOL    HW132369   3.674   2.795   1.921 -2.6870 -0.8118  0.5598
10490SOL    HW232370   3.701   2.870   1.779  0.6293 -0.0472  1.5113
10491SOL     OW32371   1.122   1.562   0.773  0.2579  0.7120  0.2333
10491SOL    HW132372   1.175   1.581   0.689  1.4425 -1.0289  0.5381
10491SOL    HW232373   1.073   1.476   0.763 -1.5927  1.6969  0.4454
10492SOL     OW32374   5.404   0.559   2.263 -0.4928 -0.3819  0.3788
10492SOL    HW132375   5.336   0.608   2.318 -0.7556 -0.2158 -0.0936
10492SOL    HW232376   5.374   0.554   2.168  0.1100 -0.3882  0.1805
10493SOL     OW32377   6.187   3.510   2.476  0.7518  0.3070  0.2856
10493SOL    HW132378   6.183   3.491   2.575  0.2726  3.4097  0.9713
10493SOL    HW232379   6.172   3.426   2.425 -0.0984 -1.2089  2.8642
10494SOL     OW32380   5.316   3.265   6.679 -0.1735 -0.9548  0.0441
10494SOL    HW132381   5.303   3.234   6.585  1.3499  1.1635 -0.9406
10494SOL    HW232382   5.239   3.323   6.706 -0.6999 -1.7088  0.1850
10495SOL     OW32383   1.086   6.512   3.471  0.6232 -0.6538  0.0573
10495SOL    HW132384   1.166   6.457   3.445  1.9980  0.3708  1.8578
10495SOL    HW232385   1.096   6.542   3.566 -1.5230  0.2422  0.0583
10496SOL     OW32386   0.924   1.102   3.942 -0.0452  0.3221 -0.0836
10496SOL    HW132387   0.861   1.124   4.016  0.6938  0.3271  0.5498
10496SOL    HW232388   0.941   1.184   3.887 -0.5080  0.3430 -0.2029
10497SOL     OW32389   2.129   3.876   4.524 -1.0799  0.3903  0.2561
10497SOL    HW132390   2.108   3.969   4.495 -1.4675  0.5755  1.1052
10497SOL    HW232391   2.123   3.870   4.623 -0.8270 -0.4890  0.2260
10498SOL     OW32392   6.915   5.351   5.374 -0.5472 -0.4121 -0.4663
10498SOL    HW132393   6.869   5.424   5.425 -1.0777 -1.5502  0.7517
10498SOL    HW232394   6.846   5.286   5.342 -0.0747 -0.4131 -1.5153
10499SOL     OW32395   4.078   1.063   5.484 -0.3658  0.0597  0.3603
10499SOL    HW132396   4.142   1.072   5.561 -0.6172  0.3218  0.5386
10499SOL    HW232397   4.130   1.062   5.398 -0.1224  0.2929  0.5031
10500SOL     OW32398   4.546   0.622   0.084  0.0541  0.4303 -0.4054
10500SOL    HW132399   4.548   0.671   0.171  1.0569 -0.5251  0.1305
10500SOL    HW232400   4.524   0.686   0.010 -0.5916  1.2951  0.5028
10501SOL     OW32401   1.591   0.649   0.076 -0.9284 -0.0264 -0.0234
10501SOL    HW132402   1.537   0.586   0.018  0.1972 -0.1899 -0.9371
10501SOL    HW232403   1.561   0.640   0.171 -0.9864 -1.7714 -0.1626
10502SOL     OW32404   3.762   4.256   5.875 -0.1742 -0.1284 -0.3281
10502SOL    HW132405   3.834   4.244   5.806 -0.5289  1.3598 -0.9988
10502SOL    HW232406   3.689   4.191   5.859  0.5126 -0.9246 -0.3081
10503SOL     OW32407   1.032   3.303   5.930 -0.1662  0.1410 -0.1986
10503SOL    HW132408   0.984   3.315   5.843 -0.7472  0.6407  0.1830
10503SOL    HW232409   1.089   3.221   5.925  0.6588  0.7644 -1.4252
10504SOL     OW32410   5.991   3.762   0.271  0.7237  0.1212  0.6009
10504SOL    HW132411   5.973   3.702   0.193 -0.3745  0.1265  0.8287
10504SOL    HW232412   5.978   3.857   0.243  1.7192  0.2114  0.4339
10505SOL     OW32413   0.073   5.310   1.155 -0.7756  0.0781 -0.1435
10505SOL    HW132414   0.145   5.319   1.223  1.2782 -2.4167 -1.8115
10505SOL    HW232415   0.101   5.354   1.070 -0.9957 -1.2302 -0.9321
10506SOL     OW32416   1.684   5.632   4.667  0.1178 -0.5127 -0.7341
10506SOL    HW132417   1.707   5.537   4.685  0.1615 -0.4692 -0.5617
10506SOL    HW232418   1.722   5.690   4.739 -0.6911 -0.4554 -0.3530
10507SOL     OW32419   0.891   4.255   3.645  0.8141 -0.1079 -0.5183
10507SOL    HW132420   0.821   4.318   3.679  0.5879 -0.7035  0.1435
10507SOL    HW232421   0.978   4.303   3.639  0.8218  0.0741  0.7398
10508SOL     OW32422   1.688   0.008   2.734  0.0530 -0.0542  0.1045
10508SOL    HW132423   1.729   0.077   2.675 -0.6756 -1.0872 -1.7087
10508SOL    HW232424   1.589   0.015   2.731 -0.0069 -0.0065  1.4159
10509SOL     OW32425   0.787   4.324   1.925  0.2077  0.5814 -0.5830
10509SOL    HW132426   0.826   4.353   2.012  1.6846 -1.8905 -0.3324
10509SOL    HW232427   0.734   4.240   1.939  0.2819  0.2776 -2.0172
10510SOL     OW32428   0.931   5.130   3.035 -0.2412 -0.0889  0.2031
10510SOL    HW132429   0.894   5.170   2.951 -0.8506 -0.0772  0.4670
10510SOL    HW232430   0.993   5.055   3.012 -2.7502 -2.1759 -0.2821
10511SOL     OW32431   5.897   4.791   3.424 -0.7119  0.3909  0.3159
10511SOL    HW132432   5.987   4.755   3.399 -0.1638  1.9065 -0.0381
10511SOL    HW232433   5.846   4.722   3.475 -0.1759 -1.2459 -1.2634
10512SOL     OW32434   3.998   1.722   1.402  0.0037 -0.1065  0.4821
10512SOL    HW132435   3.926   1.654   1.386  1.7584 -2.3387  1.4191
10512SOL    HW232436   3.976   1.776   1.483 -0.8643 -0.3676  0.4310
10513SOL     OW32437   5.211   5.150   1.363 -0.0257 -0.2673 -0.2234
10513SOL    HW132438   5.128   5.201   1.385  0.0812 -0.8442  1.7059
10513SOL    HW232439   5.229   5.156   1.265 -1.4145  1.2389 -0.4258
10514SOL     OW32440   3.581   5.481   0.481 -0.4719 -0.6469  0.1236
10514SOL    HW132441   3.506   5.500   0.418 -0.3276 -0.0760  0.1177
10514SOL    HW232442   3.611   5.386   0.469 -2.3109 -1.4410  1.3256
10515SOL     OW32443   3.265   3.858   1.753  0.4200  0.4934  0.0285
10515SOL    HW132444   3.344   3.822   1.803  0.7043  0.8992 -0.1189
10515SOL    HW232445   3.296   3.904   1.669 -0.0341  0.0436 -0.3899
10516SOL     OW32446   6.932   6.017   3.252 -0.1590 -0.4597  0.0850
10516SOL    HW132447   6.902   6.109   3.279 -0.0811 -0.4944  0.2884
10516SOL    HW232448   6.919   5.954   3.329 -0.6441 -0.7161 -0.1998
10517SOL     OW32449   1.703   4.242   6.322  0.0965 -0.1937  0.0548
10517SOL    HW132450   1.747   4.227   6.411 -0.6829  0.2332  0.5265
10517SOL    HW232451   1.612   4.282   6.336 -0.7188 -1.6555 -0.8759
10518SOL     OW32452   1.703   0.634   1.779  0.7326 -0.2926  0.5393
10518SOL    HW132453   1.649   0.552   1.759  1.1805 -0.4896  0.0785
10518SOL    HW232454   1.653   0.694   1.841  0.5175 -1.0580  1.1274
10519SOL     OW32455   2.879   5.684   2.902 -0.2271 -0.2823  0.1762
10519SOL    HW132456   2.854   5.728   2.815 -1.7299 -2.0988 -0.3673
10519SOL    HW232457   2.903   5.589   2.885  1.4495 -0.1548  1.5336
10520SOL     OW32458   1.880   3.686   3.607 -0.0842 -0.1341  0.1225
10520SOL    HW132459   1.968   3.639   3.614  0.0106 -0.0942 -0.7170
10520SOL    HW232460   1.855   3.723   3.696  0.8763  0.0874  0.3157
10521SOL     OW32461   3.450   6.211   1.425 -0.2745  0.5230 -0.1419
10521SOL    HW132462   3.494   6.174   1.506 -2.0648 -0.8522  0.2724
10521SOL    HW232463   3.363   6.254   1.450 -1.3370 -0.7765 -1.3752
10522SOL     OW32464   3.512   1.439   2.966  0.1470  0.1191  0.1305
10522SOL    HW132465   3.550   1.395   2.884 -1.3890 -0.8746 -0.0865
10522SOL    HW232466   3.457   1.373   3.016 -0.4272  1.2311  0.9965
10523SOL     OW32467   6.245   4.938   5.588 -0.8531 -0.4345 -0.2970
10523SOL    HW132468   6.224   5.034   5.606 -0.5853 -0.2595 -0.9143
10523SOL    HW232469   6.217   4.883   5.667  0.4958  0.3386  0.7599
10524SOL     OW32470   6.758   5.758   4.773  0.2857  0.3253  0.0103
10524SOL    HW132471   6.750   5.801   4.863 -0.2866 -0.6332  0.4320
10524SOL    HW232472   6.678   5.700   4.756  0.8175 -0.2135 -0.7395
10525SOL     OW32473   3.141   0.275   5.740 -0.4441  0.1026 -0.6236
10525SOL    HW132474   3.190   0.307   5.659  0.1952  0.0423 -0.2620
10525SOL    HW232475   3.177   0.186   5.768 -0.7261  0.0806 -0.3243
10526SOL     OW32476   4.874   2.703   0.908 -0.3439  0.6766 -0.1666
10526SOL    HW132477   4.883   2.731   1.004 -0.2742 -0.6181  0.2202
10526SOL    HW232478   4.957   2.727   0.858 -0.7381  2.1953 -0.1446
10527SOL     OW32479   2.179   6.667   0.493  0.8503  0.1061  0.0127
10527SOL    HW132480   2.099   6.610   0.477 -0.1567  1.1177  1.2376
10527SOL    HW232481   2.193   6.727   0.415  2.1847 -2.0225 -1.4913
10528SOL     OW32482   0.438   3.327   0.542  1.1279 -0.7985 -0.4081
10528SOL    HW132483   0.501   3.301   0.616  1.1157 -3.2033 -1.1393
10528SOL    HW232484   0.345   3.328   0.577  1.3579  0.8933  0.2339
10529SOL     OW32485   5.687   3.749   5.528  0.2973  0.1888  0.1525
10529SOL    HW132486   5.693   3.703   5.440 -1.2587  0.9682 -0.3973
10529SOL    HW232487   5.779   3.768   5.562  0.9244 -0.8501 -0.9063
10530SOL     OW32488   1.861   3.375   5.194  0.1185 -0.4780  0.1824
10530SOL    HW132489   1.900   3.307   5.132  0.1727  0.3595 -0.7308
10530SOL    HW232490   1.918   3.382   5.276  1.3502 -0.0088 -0.6737
10531SOL     OW32491   0.409   5.126   1.177  0.1765  0.3378  0.4158
10531SOL    HW132492   0.353   5.052   1.141 -0.6603  1.4782 -0.7309
10531SOL    HW232493   0.451   5.176   1.101 -1.0034  2.3362  1.0029
10532SOL     OW32494   5.923   2.219   2.116  0.1438  0.1997  0.0468
10532SOL    HW132495   5.930   2.295   2.050 -0.4781  0.5139  0.3323
10532SOL    HW232496   5.876   2.142   2.073 -0.7042  0.5820  0.2591
10533SOL     OW32497   1.481   1.262   6.082 -0.2440 -0.0698 -0.6045
10533SOL    HW132498   1.390   1.278   6.123  0.3758 -0.5984  1.0490
10533SOL    HW232499   1.471   1.202   6.003 -1.1409 -1.9628  0.8474
10534SOL     OW32500   5.004   6.578   4.990 -0.1029  0.5647 -0.2565
10534SOL    HW132501   5.007   6.485   4.953  0.3111  1.1054 -1.6313
10534SOL    HW232502   4.934   6.631   4.943  1.3612  1.6637 -1.2955
10535SOL     OW32503   3.755   6.694   1.845  0.1909  0.3852 -0.1567
10535SOL    HW132504   3.775   6.703   1.943  0.3315  1.0604 -0.2428
10535SOL    HW232505   3.660   6.720   1.828 -0.3055 -1.2069  0.0091
10536SOL     OW32506   0.825   4.196   0.188  0.7444  0.3280 -0.1839
10536SOL    HW132507   0.792   4.110   0.226  0.4760  0.3340 -0.3942
10536SOL    HW232508   0.848   4.183   0.091 -1.2498  0.9475 -0.8016
10537SOL     OW32509   6.043   1.861   3.382 -0.1080  0.1510 -0.0494
10537SOL    HW132510   6.043   1.946   3.330  2.5421  1.2453  1.5509
10537SOL    HW232511   6.073   1.786   3.323 -0.3525  0.7049 -0.9031
10538SOL     OW32512   1.116   1.309   3.350  0.1513 -0.2871  0.2953
10538SOL    HW132513   1.040   1.318   3.414 -1.2890  1.2363 -1.5006
10538SOL    HW232514   1.147   1.399   3.321  0.7271 -0.9052 -1.1548
10539SOL     OW32515   2.323   2.445   4.701  0.7312 -0.3771  0.5216
10539SOL    HW132516   2.323   2.421   4.604  0.8351 -1.5141  0.7845
10539SOL    HW232517   2.410   2.490   4.724  0.7227 -0.1441  0.0993
10540SOL     OW32518   1.758   2.014   1.683  0.0566 -0.4981  0.1701
10540SOL    HW132519   1.679   2.056   1.638 -1.3835 -1.1874  1.8801
10540SOL    HW232520   1.840   2.068   1.666 -1.2041  1.4829  0.0949
10541SOL     OW32521   6.347   4.741   3.214  0.2641  0.4398 -0.3220
10541SOL    HW132522   6.372   4.644   3.204  0.2109  0.1266  1.9875
10541SOL    HW232523   6.382   4.775   3.302 -0.7519  2.1860 -0.5550
10542SOL     OW32524   2.484   2.426   1.134 -0.3060 -0.2032  0.3592
10542SOL    HW132525   2.465   2.513   1.089  0.3414 -0.6239 -0.7791
10542SOL    HW232526   2.460   2.351   1.072 -2.0033 -0.8924  1.7655
10543SOL     OW32527   6.748   6.446   2.114  0.3292  0.3811 -0.0904
10543SOL    HW132528   6.832   6.431   2.166  0.3759  0.0473 -0.2578
10543SOL    HW232529   6.735   6.371   2.050 -1.0591 -0.5437  1.2064
10544SOL     OW32530   4.787   6.087   5.677 -0.2051  0.0905  0.2843
10544SOL    HW132531   4.876   6.128   5.653  0.6588 -1.6455  0.3918
10544SOL    HW232532   4.738   6.065   5.593 -0.1519  0.2512  0.2099
10545SOL     OW32533   3.011   1.544   2.306 -0.4132  0.2783  0.2760
10545SOL    HW132534   3.054   1.610   2.367 -0.5280 -0.1162  0.7925
10545SOL    HW232535   2.913   1.539   2.326 -0.2670 -0.6663  0.8323
10546SOL     OW32536   2.204   6.012   3.237  0.2552 -0.4349 -0.2388
10546SOL    HW132537   2.266   5.941   3.269 -0.4400 -1.6776 -1.5013
10546SOL    HW232538   2.129   6.023   3.301  0.3946 -0.8176 -0.0087
10547SOL     OW32539   2.856   6.787   0.306 -0.1671  0.0266 -0.2663
10547SOL    HW132540   2.794   6.711   0.288 -1.0167  0.8756 -1.0538
10547SOL    HW232541   2.911   6.805   0.224 -1.3647  1.4959 -0.7938
10548SOL     OW32542   3.144   5.255   3.991  0.1428 -0.3263  0.1228
10548SOL    HW132543   3.110   5.276   4.083 -1.2058 -1.3408 -0.1055
10548SOL    HW232544   3.127   5.159   3.971 -2.6456  0.5400 -2.3745
10549SOL     OW32545   5.968   6.031   3.232 -0.1193  0.5385  0.4086
10549SOL    HW132546   6.055   5.997   3.266 -0.4942 -0.7321  0.1606
10549SOL    HW232547   5.894   5.998   3.291 -0.3044  3.5677  2.0556
10550SOL     OW32548   6.730   3.930   4.515 -0.1359  0.4620  0.7155
10550SOL    HW132549   6.664   4.000   4.486  1.0164  1.2119 -0.1756
10550SOL    HW232550   6.764   3.951   4.606 -1.8802 -0.5076  1.6343
10551SOL     OW32551   5.138   5.764   2.863  0.3068 -0.0099 -0.2408
10551SOL    HW132552   5.054   5.724   2.897 -0.2528  0.2712 -1.2419
10551SOL    HW232553   5.117   5.827   2.789  1.2785  1.1564  0.4381
10552SOL     OW32554   0.285   1.838   6.312  0.0720  0.4427 -0.1201
10552SOL    HW132555   0.272   1.757   6.255 -3.2216  1.2566 -0.7899
10552SOL    HW232556   0.320   1.913   6.256 -1.4656  0.7470 -0.7297
10553SOL     OW32557   4.886   6.036   4.647 -0.0216 -0.5318 -0.2612
10553SOL    HW132558   4.980   6.036   4.681 -0.3038  0.0294  0.5558
10553SOL    HW232559   4.849   5.943   4.652 -0.3969 -0.3208  2.0162
10554SOL     OW32560   1.783   6.976   5.080  0.1033 -0.2447  0.1466
10554SOL    HW132561   1.754   6.946   5.171 -2.2142  0.6853 -0.2132
10554SOL    HW232562   1.808   6.897   5.024 -0.5324 -1.0019  0.9133
10555SOL     OW32563   0.675   1.246   5.150 -0.5209  0.1866  1.2845
10555SOL    HW132564   0.638   1.291   5.069 -2.0147  0.5568  2.1261
10555SOL    HW232565   0.710   1.316   5.213  1.1769 -0.1298  0.7476
10556SOL     OW32566   0.916   6.465   6.358 -0.0311 -0.3919 -0.4503
10556SOL    HW132567   0.898   6.443   6.453  0.7447 -0.4993 -0.3211
10556SOL    HW232568   1.006   6.509   6.350 -1.0508  1.7846 -0.8198
10557SOL     OW32569   4.397   3.650   1.696  0.2076 -0.2970  0.3167
10557SOL    HW132570   4.445   3.567   1.723 -1.1185 -0.9173  0.8493
10557SOL    HW232571   4.322   3.627   1.633  0.8003  0.6880 -0.7841
10558SOL     OW32572   0.985   1.544   4.406  0.3276  0.2670 -0.4088
10558SOL    HW132573   0.956   1.572   4.314  0.7232 -0.5561 -0.8002
10558SOL    HW232574   0.912   1.492   4.450  0.4013  0.0318 -0.5574
10559SOL     OW32575   0.596   1.636   5.390  0.2234  0.0216 -0.3978
10559SOL    HW132576   0.621   1.683   5.305  0.0484  2.8859  1.0083
10559SOL    HW232577   0.584   1.538   5.372 -1.9298  0.7843 -4.1189
10560SOL     OW32578   2.107   6.638   1.967 -0.0085  0.4999 -0.0502
10560SOL    HW132579   2.141   6.683   1.885  0.9730  0.2511  0.2093
10560SOL    HW232580   2.136   6.689   2.048  2.2555 -1.2326  0.3205
10561SOL     OW32581   0.041   1.138   4.472  0.1967  0.2607 -0.0365
10561SOL    HW132582   0.066   1.041   4.466 -1.5281 -0.2154 -0.0126
10561SOL    HW232583   0.061   1.172   4.564  2.1956  0.3785 -0.4598
10562SOL     OW32584   1.301   4.399   0.473  0.1600 -0.2405 -0.1245
10562SOL    HW132585   1.334   4.445   0.390 -0.0914 -1.5767 -1.0036
10562SOL    HW232586   1.202   4.382   0.464  0.1591 -0.5122  0.3894
10563SOL     OW32587   2.136   6.332   3.497  0.4511 -0.3781 -0.3494
10563SOL    HW132588   2.150   6.390   3.417 -1.1929 -0.4104 -0.6800
10563SOL    HW232589   2.039   6.328   3.520  0.8037 -1.0158  1.1764
10564SOL     OW32590   2.550   5.454   5.556  0.1713  0.0660  0.7871
10564SOL    HW132591   2.623   5.519   5.535  0.8186 -0.9736 -0.2467
10564SOL    HW232592   2.489   5.445   5.478  1.0275 -1.7730  0.2853
10565SOL     OW32593   0.163   2.768   1.906  0.3829 -0.8387  0.5791
10565SOL    HW132594   0.184   2.840   1.973  1.1424 -0.8843  0.4004
10565SOL    HW232595   0.167   2.806   1.814 -1.4996 -0.5721  0.5679
10566SOL     OW32596   0.145   1.508   6.938 -0.0790 -0.5335  0.2594
10566SOL    HW132597   0.151   1.466   6.847 -1.1754 -0.5938  0.1986
10566SOL    HW232598   0.194   1.451   7.004 -0.6245 -1.3355 -0.0135
10567SOL     OW32599   4.102   3.230   1.570 -0.1632  0.0620 -0.4307
10567SOL    HW132600   4.164   3.296   1.612  0.3680 -0.0701 -0.9812
10567SOL    HW232601   4.140   3.138   1.578 -1.0964 -0.2437  0.6932
10568SOL     OW32602   0.399   6.105   2.724  0.3913 -0.5323  0.4369
10568SOL    HW132603   0.316   6.056   2.698  0.6533 -0.9923  0.4573
10568SOL    HW232604   0.433   6.071   2.812 -0.7856  1.3816  1.7181
10569SOL     OW32605   3.053   0.534   6.974  0.3367  0.1501 -0.2412
10569SOL    HW132606   3.118   0.604   7.004 -0.4628  2.4176 -3.2764
10569SOL    HW232607   2.961   0.560   7.001  0.3083 -1.5315  1.4643
10570SOL     OW32608   2.821   0.431   5.825  0.3296 -0.1591 -0.4357
10570SOL    HW132609   2.722   0.427   5.816  0.3814 -1.2478 -0.6674
10570SOL    HW232610   2.863   0.367   5.761  1.2394  1.0703 -1.1188
10571SOL     OW32611   2.763   2.363   5.093  0.2157  0.2993 -0.1189
10571SOL    HW132612   2.808   2.380   5.180 -0.8998 -1.5272  0.8949
10571SOL    HW232613   2.800   2.279   5.053 -1.8922 -1.0274  0.5495
10572SOL     OW32614   5.024   1.071   5.894  0.5632  0.1886 -0.2982
10572SOL    HW132615   5.040   1.155   5.947  0.2846 -0.5317  0.9747
10572SOL    HW232616   5.080   1.073   5.812  1.4426  1.1084  0.2893
10573SOL     OW32617   2.966   6.478   0.998  0.4622 -0.0256  0.2293
10573SOL    HW132618   3.015   6.489   0.911  0.5164 -2.5632 -0.1338
10573SOL    HW232619   3.023   6.514   1.073  2.5534 -1.9822 -0.3000
10574SOL     OW32620   4.633   2.617   3.200  0.0333  0.3452 -0.2794
10574SOL    HW132621   4.702   2.555   3.163  1.3318  0.8413  1.2036
10574SOL    HW232622   4.558   2.563   3.239 -0.9838 -0.1890 -2.7598
10575SOL     OW32623   3.632   1.257   6.711 -0.4362 -0.1847 -0.2065
10575SOL    HW132624   3.536   1.240   6.733 -0.4671  1.1970  0.8065
10575SOL    HW232625   3.640   1.285   6.615 -1.0229 -0.4422 -0.3348
10576SOL     OW32626   2.325   2.671   2.063 -0.5934 -0.4612  0.1641
10576SOL    HW132627   2.370   2.677   1.974  0.8776 -0.4148  0.8891
10576SOL    HW232628   2.292   2.578   2.077  1.7811 -1.2987  0.7451
10577SOL     OW32629   1.823   3.884   5.701  0.0483  0.5562  0.8792
10577SOL    HW132630   1.821   3.904   5.799  0.1323 -0.7666  1.1741
10577SOL    HW232631   1.918   3.886   5.669  0.1599 -0.2895  1.1265
10578SOL     OW32632   3.553   5.295   3.807  0.0221  0.2811 -0.0037
10578SOL    HW132633   3.512   5.215   3.851 -0.7924  1.2151  0.9956
10578SOL    HW232634   3.636   5.321   3.855  0.2818  0.0387 -0.3226
10579SOL     OW32635   3.605   5.674   6.017 -0.5031 -0.2337 -0.3811
10579SOL    HW132636   3.698   5.682   6.051 -0.8235  0.9095  0.2767
10579SOL    HW232637   3.548   5.628   6.085 -0.8738  0.9590  0.1323
10580SOL     OW32638   5.432   0.907   5.032 -0.0658 -0.1177  0.1520
10580SOL    HW132639   5.434   0.818   4.987 -1.3571 -0.6477  1.0836
10580SOL    HW232640   5.446   0.979   4.964  2.2347 -1.0341 -0.4463
10581SOL     OW32641   0.947   2.972   1.807 -0.0962 -0.5162 -0.6963
10581SOL    HW132642   0.950   3.068   1.778 -3.1767 -0.3299 -0.6940
10581SOL    HW232643   0.952   2.967   1.907  2.3408 -0.5896 -0.7661
10582SOL     OW32644   5.458   1.959   3.567 -0.7007 -0.0172  0.4719
10582SOL    HW132645   5.485   2.045   3.611 -1.0389  0.3147  0.0300
10582SOL    HW232646   5.383   1.975   3.503 -0.0243 -0.4436 -0.4543
10583SOL     OW32647   0.397   3.387   5.328 -0.0391  0.0186 -0.3346
10583SOL    HW132648   0.423   3.439   5.410 -0.9292 -1.0522  0.6753
10583SOL    HW232649   0.342   3.444   5.267 -2.1615 -0.0647  1.3807
10584SOL     OW32650   5.649   6.999   6.846 -0.5283  0.3071  0.0886
10584SOL    HW132651   5.630   6.925   6.911  1.3433  1.0133  1.5421
10584SOL    HW232652   5.563   7.043   6.820 -1.5908 -1.7471 -0.1029
10585SOL     OW32653   6.511   5.186   2.038  0.1784 -0.5876 -0.5539
10585SOL    HW132654   6.438   5.149   2.096 -0.6947  1.5128 -0.2347
10585SOL    HW232655   6.566   5.111   2.002 -0.3530 -2.0535  1.5403
10586SOL     OW32656   1.758   1.237   6.226 -0.0726 -0.2972 -0.6214
10586SOL    HW132657   1.735   1.214   6.320 -0.0675  0.3747 -0.4512
10586SOL    HW232658   1.674   1.239   6.171 -0.4444  1.8214 -0.0736
10587SOL     OW32659   4.711   6.651   3.665 -0.8114 -0.3940  0.1015
10587SOL    HW132660   4.766   6.724   3.705 -1.9385  0.6096 -0.1302
10587SOL    HW232661   4.751   6.563   3.689  1.5075  0.2908 -0.9810
10588SOL     OW32662   6.200   0.690   3.585  0.4811 -0.1410 -0.2875
10588SOL    HW132663   6.297   0.707   3.603  0.4964  0.5697 -1.0107
10588SOL    HW232664   6.191   0.632   3.504  0.2699  1.3422 -1.3610
10589SOL     OW32665   5.477   6.005   3.167 -0.1735  0.3850 -0.0984
10589SOL    HW132666   5.406   6.038   3.230 -0.2771 -0.6337  0.3295
10589SOL    HW232667   5.434   5.981   3.080 -0.0983  1.3408 -0.4144
10590SOL     OW32668   3.226   7.012   5.733  0.4298 -0.9798  0.7295
10590SOL    HW132669   3.325   7.003   5.728  0.2962 -2.8809  0.5659
10590SOL    HW232670   3.183   6.931   5.693 -1.2186  0.2228 -0.0777
10591SOL     OW32671   6.961   3.997   3.730 -0.0857  0.4784  0.5559
10591SOL    HW132672   7.022   4.041   3.664  0.0706 -0.0274  0.3579
10591SOL    HW232673   7.015   3.963   3.807 -0.2679  1.0711  0.9481
10592SOL     OW32674   6.445   3.529   1.698  0.4687 -0.0047 -0.3329
10592SOL    HW132675   6.401   3.440   1.682 -1.3137  0.6534  0.6148
10592SOL    HW232676   6.472   3.568   1.610  0.6586 -1.1822 -0.8168
10593SOL     OW32677   4.953   4.478   4.803 -0.1100  0.2279 -0.0574
10593SOL    HW132678   5.005   4.429   4.734  0.0763 -0.2677  0.4187
10593SOL    HW232679   4.988   4.454   4.894 -2.2047 -1.4888  0.3966
10594SOL     OW32680   0.878   3.363   3.124 -0.0908 -0.0615  0.6034
10594SOL    HW132681   0.871   3.295   3.197  0.4717  1.8836  2.5729
10594SOL    HW232682   0.960   3.346   3.070 -0.5565 -1.5814  0.3404
10595SOL     OW32683   4.733   3.678   6.188  0.0277 -0.2777 -0.0615
10595SOL    HW132684   4.799   3.604   6.177 -0.8976 -1.0474 -0.6340
10595SOL    HW232685   4.693   3.674   6.280 -1.4805 -1.7825 -0.7288
10596SOL     OW32686   1.716   4.057   5.120  0.0216 -0.3306  0.5518
10596SOL    HW132687   1.671   3.971   5.144  0.7306 -1.8023 -2.8290
10596SOL    HW232688   1.647   4.130   5.113 -1.2270 -1.5631 -0.4667
10597SOL     OW32689   6.591   6.587   5.519 -0.0242 -0.0545 -0.2823
10597SOL    HW132690   6.600   6.667   5.460 -0.1360  0.1027 -0.0888
10597SOL    HW232691   6.495   6.578   5.548  0.2095  0.4814  0.7152
10598SOL     OW32692   1.090   3.489   5.374 -0.2746  0.1249 -0.2266
10598SOL    HW132693   1.021   3.440   5.321  0.6297 -0.0562 -1.2754
10598SOL    HW232694   1.121   3.432   5.450 -0.5946 -0.1719 -0.3172
10599SOL     OW32695   1.223   0.223   4.481 -0.1405  0.2810  0.0083
10599SOL    HW132696   1.164   0.303   4.475  0.2961  0.7656  1.6494
10599SOL    HW232697   1.313   0.245   4.444 -0.0294  0.5541  0.4326
10600SOL     OW32698   2.127   3.570   5.713  0.0831 -0.2232  0.2072
10600SOL    HW132699   2.035   3.544   5.743 -0.7679 -1.8076 -3.3529
10600SOL    HW232700   2.123   3.653   5.658  1.0188  0.3588  0.9611
10601SOL     OW32701   4.550   0.702   3.966 -0.3240 -0.2080  0.5346
10601SOL    HW132702   4.455   0.704   3.996 -0.5194  0.3740 -0.0940
10601SOL    HW232703   4.581   0.795   3.945  1.5350  0.1565  4.1827
10602SOL     OW32704   3.456   1.299   2.695 -0.3906 -0.1648 -0.1500
10602SOL    HW132705   3.417   1.240   2.624  0.5640 -1.5269  0.4132
10602SOL    HW232706   3.539   1.342   2.660 -0.8781  0.5682 -0.4308
10603SOL     OW32707   3.077   2.195   3.047  0.0786 -0.0568 -0.1292
10603SOL    HW132708   2.987   2.193   3.003  0.1123 -2.9323 -0.2669
10603SOL    HW232709   3.144   2.152   2.986  0.9890 -0.3893  1.0832
10604SOL     OW32710   0.990   5.590   2.457 -0.0005  0.1196  0.2846
10604SOL    HW132711   1.038   5.635   2.381 -0.4112  0.4435  0.2115
10604SOL    HW232712   0.905   5.639   2.475 -0.2567 -0.3979  0.4733
10605SOL     OW32713   3.564   2.559   5.382 -0.3178 -0.8686  0.1132
10605SOL    HW132714   3.510   2.475   5.375  0.5088 -1.2863 -1.9795
10605SOL    HW232715   3.506   2.637   5.359 -0.8475 -0.9523  1.1234
10606SOL     OW32716   2.863   0.109   2.594  0.0925 -0.3375 -0.0515
10606SOL    HW132717   2.961   0.114   2.579  0.0328 -1.1096 -0.7610
10606SOL    HW232718   2.843   0.123   2.691  0.7554  1.5286 -0.1300
10607SOL     OW32719   0.997   6.084   2.931  0.3885 -0.0552 -0.3704
10607SOL    HW132720   0.946   6.134   2.861 -1.0793 -0.3067  0.4689
10607SOL    HW232721   1.024   5.994   2.895 -1.0686 -0.5181 -0.3975
10608SOL     OW32722   1.300   5.673   0.746 -0.2378  0.1993 -0.4348
10608SOL    HW132723   1.385   5.621   0.745  1.0937  2.2350  0.5775
10608SOL    HW232724   1.236   5.634   0.679  1.1780 -1.8132 -0.7010
10609SOL     OW32725   1.594   0.548   1.082  0.4343 -0.0131  0.1216
10609SOL    HW132726   1.599   0.636   1.128 -0.2262 -0.8559  1.9052
10609SOL    HW232727   1.661   0.485   1.123  1.1769 -0.2526 -1.3877
10610SOL     OW32728   1.905   5.989   4.040  0.3277  0.5179 -0.0429
10610SOL    HW132729   1.921   6.087   4.051 -1.4442  0.8631 -0.2479
10610SOL    HW232730   1.873   5.971   3.947 -3.9510  0.5255  1.2056
10611SOL     OW32731   3.414   3.120   3.451  0.0569  0.3919 -0.3898
10611SOL    HW132732   3.452   3.082   3.535 -1.4007  1.1629  0.6556
10611SOL    HW232733   3.447   3.066   3.373 -0.2539 -1.6959  0.8364
10612SOL     OW32734   6.755   3.314   5.850  0.1278  0.7623  0.4598
10612SOL    HW132735   6.708   3.337   5.935 -0.9073  2.4837 -0.5243
10612SOL    HW232736   6.792   3.221   5.856 -1.0248  0.3814  2.2866
10613SOL     OW32737   3.462   5.295   3.211 -0.3898  0.1260  0.1168
10613SOL    HW132738   3.364   5.284   3.224 -0.3794  0.6180  0.6466
10613SOL    HW232739   3.511   5.234   3.272 -0.3445 -2.3026 -2.1657
10614SOL     OW32740   2.982   5.053   3.102  0.4693 -0.1168  0.2614
10614SOL    HW132741   2.954   5.111   3.026 -1.5032  0.2851  1.2459
10614SOL    HW232742   3.000   4.961   3.069 -3.5893 -0.8611 -0.3560
10615SOL     OW32743   1.027   4.638   0.036 -0.4902  0.2233 -0.1060
10615SOL    HW132744   1.071   4.686   0.111 -0.3059  1.2122 -0.8260
10615SOL    HW232745   0.953   4.693  -0.001 -0.7660 -0.3711 -0.4677
10616SOL     OW32746   5.557   2.991   0.296 -0.0413 -0.3293 -0.3184
10616SOL    HW132747   5.639   2.934   0.291  0.5202  0.5810 -2.6391
10616SOL    HW232748   5.476   2.933   0.301  0.6045 -1.2774 -0.6019
10617SOL     OW32749   2.145   1.575   5.873  0.1056 -0.0674  0.0973
10617SOL    HW132750   2.124   1.665   5.910  0.1944 -0.3758  0.9401
10617SOL    HW232751   2.069   1.513   5.889 -0.7462  0.3056 -2.1665
10618SOL     OW32752   5.291   3.664   3.504  0.0936  0.3585  0.3898
10618SOL    HW132753   5.382   3.629   3.481  0.1637  1.4587 -1.1836
10618SOL    HW232754   5.286   3.761   3.481 -0.9921  0.7059  1.9532
10619SOL     OW32755   5.395   4.775   1.981  0.1174  0.1349 -0.7670
10619SOL    HW132756   5.489   4.782   1.947 -0.3127  1.2849 -1.7923
10619SOL    HW232757   5.341   4.718   1.919 -0.2082  0.6816 -0.9927
10620SOL     OW32758   5.762   1.062   2.050  0.2688  0.6065 -0.5980
10620SOL    HW132759   5.814   1.109   1.979  0.8539  1.5099  0.4011
10620SOL    HW232760   5.804   1.079   2.139 -0.8025 -0.0009  0.0497
10621SOL     OW32761   2.608   2.803   5.323 -0.4083  0.6138  0.7250
10621SOL    HW132762   2.535   2.785   5.390 -0.7251  1.1450  0.5248
10621SOL    HW232763   2.588   2.888   5.274 -0.5098 -0.0965 -0.4979
10622SOL     OW32764   0.999   2.890   2.132  0.0944  0.1532 -0.2455
10622SOL    HW132765   0.914   2.850   2.097  0.7367 -0.3049 -1.3365
10622SOL    HW232766   1.031   2.835   2.210  0.0037 -0.3762 -0.5746
10623SOL     OW32767   5.508   0.340   6.993  0.2308 -0.2870  0.0253
10623SOL    HW132768   5.479   0.269   7.058 -0.1593  2.0633  2.5724
10623SOL    HW232769   5.599   0.318   6.958  1.0415 -1.0016  2.4040
10624SOL     OW32770   3.167   0.276   0.768 -0.2647  0.1999 -0.4542
10624SOL    HW132771   3.165   0.299   0.670  0.0804  0.9263 -0.3022
10624SOL    HW232772   3.107   0.198   0.785 -1.6311  1.0984 -0.9832
10625SOL     OW32773   1.752   3.349   2.354 -0.3989 -0.0412 -0.2375
10625SOL    HW132774   1.668   3.297   2.337 -2.0497  2.0984  0.8708
10625SOL    HW232775   1.769   3.354   2.452  0.2768  0.6948 -0.3813
10626SOL     OW32776   5.264   4.527   3.598 -0.5350  0.4229 -0.4034
10626SOL    HW132777   5.296   4.540   3.504 -2.4381 -1.5814 -1.4197
10626SOL    HW232778   5.331   4.473   3.649 -0.5009 -0.3921 -1.2979
10627SOL     OW32779   3.156   4.834   2.191 -0.5651  0.5031  0.0724
10627SOL    HW132780   3.081   4.813   2.128 -0.7092  2.2016 -0.3505
10627SOL    HW232781   3.242   4.839   2.139 -0.1906 -0.9602  0.4855
10628SOL     OW32782   2.191   4.774   3.992  0.3669 -0.0698 -0.2423
10628SOL    HW132783   2.248   4.736   4.064  0.8375 -0.1377 -0.6457
10628SOL    HW232784   2.182   4.708   3.918 -1.8719 -0.8544  0.6619
10629SOL     OW32785   0.916   3.526   0.825  0.1773 -0.3262  0.1901
10629SOL    HW132786   0.867   3.596   0.773 -1.5905 -1.6969 -0.1028
10629SOL    HW232787   0.895   3.534   0.922 -1.7638 -1.6705 -0.0594
10630SOL     OW32788   1.927   1.418   5.938 -0.4334 -0.1737 -0.7237
10630SOL    HW132789   1.961   1.381   6.025 -2.9427  0.8006  0.7826
10630SOL    HW232790   1.859   1.356   5.900 -0.3792  0.0901 -1.2626
10631SOL     OW32791   5.086   6.772   1.433 -0.1388  0.0543 -0.0226
10631SOL    HW132792   5.014   6.819   1.483 -0.2933 -0.8257  0.6160
10631SOL    HW232793   5.172   6.823   1.442 -0.1723 -0.0568  1.1377
10632SOL     OW32794   1.576   4.361   4.733  0.0197  0.3828 -0.2732
10632SOL    HW132795   1.612   4.400   4.648  0.7852 -0.5834 -0.4103
10632SOL    HW232796   1.650   4.354   4.800 -0.5747  1.1123  0.4784
10633SOL     OW32797   6.753   5.112   6.028 -0.2887  0.1570  0.2533
10633SOL    HW132798   6.705   5.180   6.085 -0.1190  0.6256 -0.1523
10633SOL    HW232799   6.698   5.029   6.023 -1.1122  0.7092 -0.2582
10634SOL     OW32800   3.131   5.894   2.321  0.8605 -0.1727 -0.2320
10634SOL    HW132801   3.090   5.840   2.394  1.0496 -2.0853 -1.4756
10634SOL    HW232802   3.098   5.989   2.327 -0.1798 -0.6049  1.4833
10635SOL     OW32803   5.870   6.846   2.185 -0.0349 -0.1997  0.2401
10635SOL    HW132804   5.860   6.859   2.283 -2.1157 -1.3466  0.2251
10635SOL    HW232805   5.797   6.893   2.136 -0.0517 -1.0703 -0.6246
10636SOL     OW32806   3.762   4.961   3.714 -0.0797  0.0500  0.9268
10636SOL    HW132807   3.727   4.885   3.660 -0.5927  0.5169  0.5939
10636SOL    HW232808   3.838   4.930   3.770 -0.7843 -0.9109  1.3871
10637SOL     OW32809   3.313   2.940   4.328 -0.4807 -0.4610  0.0355
10637SOL    HW132810   3.248   2.996   4.277 -2.2633 -2.2013  0.2983
10637SOL    HW232811   3.278   2.923   4.420  1.6062  0.6805  1.1396
10638SOL     OW32812   4.014   6.285   0.042  0.5643 -0.1872  0.0696
10638SOL    HW132813   4.097   6.244   0.079  0.5778  0.0757  0.3327
10638SOL    HW232814   3.935   6.256   0.097  0.7643  1.4078  1.2576
10639SOL     OW32815   1.507   6.366   1.306  0.8066  0.0412  0.3118
10639SOL    HW132816   1.602   6.359   1.274  0.0674  1.1371 -2.4117
10639SOL    HW232817   1.484   6.463   1.317 -0.0866 -0.2061  0.6470
10640SOL     OW32818   0.473   4.384   1.088 -0.6306  0.0548 -0.3603
10640SOL    HW132819   0.462   4.301   1.033 -0.0642 -2.2836  2.7591
10640SOL    HW232820   0.385   4.432   1.094 -1.6842 -1.7845 -0.1595
10641SOL     OW32821   5.890   2.931   3.698 -0.2372 -0.3560 -0.2506
10641SOL    HW132822   5.833   3.005   3.734 -1.0375 -0.2319 -1.6773
10641SOL    HW232823   5.976   2.969   3.662 -1.6201  0.3341 -3.1582
10642SOL     OW32824   3.514   3.586   4.670 -0.2647  0.0645  0.2741
10642SOL    HW132825   3.428   3.538   4.650 -0.2956  0.3737 -0.3584
10642SOL    HW232826   3.534   3.650   4.596  2.4247 -2.5695 -1.4834
10643SOL     OW32827   6.115   1.546   0.762  0.2152  0.1532 -0.4047
10643SOL    HW132828   6.042   1.527   0.696  1.0225  0.2093 -1.3370
10643SOL    HW232829   6.166   1.626   0.733  0.1099  0.6365  0.7135
10644SOL     OW32830   5.402   0.571   3.580  0.4440  0.5850  1.0048
10644SOL    HW132831   5.397   0.624   3.495  0.3493  1.0891  1.3195
10644SOL    HW232832   5.497   0.570   3.613  1.0447 -1.8900 -0.5175
10645SOL     OW32833   1.295   0.831   1.593  0.5201 -0.2037  0.0474
10645SOL    HW132834   1.323   0.916   1.638  0.5800 -0.4006  0.3865
10645SOL    HW232835   1.196   0.832   1.578 -0.0307 -1.3138  2.7964
10646SOL     OW32836   3.486   0.023   5.285 -0.2617  0.0325 -0.6627
10646SOL    HW132837   3.396   0.031   5.326 -0.0196 -2.7448  0.6427
10646SOL    HW232838   3.549   0.088   5.328 -1.1589  0.5511 -0.1255
10647SOL     OW32839   1.316   2.750   0.238  0.2631 -0.1036 -0.0870
10647SOL    HW132840   1.379   2.678   0.209  0.5412 -0.4316  1.2539
10647SOL    HW232841   1.367   2.835   0.252  0.1588  0.0116 -0.4114
10648SOL     OW32842   3.248   3.539   3.943  0.1598 -0.4008 -0.0370
10648SOL    HW132843   3.213   3.558   4.035 -1.1628 -0.8866 -0.4161
10648SOL    HW232844   3.347   3.552   3.941 -0.0895  2.3038  0.7846
10649SOL     OW32845   1.658   2.877   3.730  0.2526 -0.1013  0.2754
10649SOL    HW132846   1.619   2.807   3.791 -0.1790 -0.7550 -0.7144
10649SOL    HW232847   1.631   2.968   3.762  0.9072 -0.3640  1.6478
10650SOL     OW32848   5.177   4.264   2.486 -0.4652 -0.2745  0.4531
10650SOL    HW132849   5.211   4.305   2.570  0.6187 -0.1481 -0.0210
10650SOL    HW232850   5.213   4.315   2.407 -0.8268 -0.8501 -0.0975
10651SOL     OW32851   6.650   4.219   0.653  0.8701  0.7256 -0.0267
10651SOL    HW132852   6.620   4.125   0.663  2.4452  0.3407  1.5270
10651SOL    HW232853   6.750   4.222   0.652  0.9585  2.0652 -3.4955
10652SOL     OW32854   2.168   3.392   6.927  0.0808  0.1794 -0.6017
10652SOL    HW132855   2.218   3.340   6.995 -0.3358  0.5105 -0.0345
10652SOL    HW232856   2.200   3.367   6.835  0.9948  0.0951 -0.2695
10653SOL     OW32857   6.939   4.934   5.412  0.5337 -0.0098  0.0995
10653SOL    HW132858   6.877   4.986   5.470  0.1723 -2.1774  1.7932
10653SOL    HW232859   7.030   4.929   5.455  0.3598 -1.3395  0.3566
10654SOL     OW32860   2.508   6.867   5.887  0.3995  0.1424  0.0459
10654SOL    HW132861   2.577   6.923   5.840  0.1488  0.2297 -0.2199
10654SOL    HW232862   2.554   6.801   5.947  0.7882 -1.0287 -1.4825
10655SOL     OW32863   4.197   0.581   5.767 -0.2528 -0.1566 -0.0215
10655SOL    HW132864   4.116   0.640   5.779  0.7580  1.0431  1.1660
10655SOL    HW232865   4.206   0.521   5.846  0.4806  0.3227  0.2687
10656SOL     OW32866   6.966   4.518   1.163 -0.7664  0.0833  0.0595
10656SOL    HW132867   6.867   4.526   1.159 -0.8627 -1.2659 -1.6429
10656SOL    HW232868   6.991   4.426   1.192 -0.0560 -0.0547 -0.9392
10657SOL     OW32869   2.777   1.520   3.073 -0.4615 -0.6303 -0.4963
10657SOL    HW132870   2.716   1.443   3.054 -0.7699 -0.5771  0.2633
10657SOL    HW232871   2.779   1.582   2.994 -0.4800 -1.2317 -0.9759
10658SOL     OW32872   0.612   4.189   2.498 -0.6179 -0.4491  0.2808
10658SOL    HW132873   0.652   4.107   2.457 -0.1955  0.0827 -0.4086
10658SOL    HW232874   0.517   4.171   2.523 -1.0966 -0.6352 -1.5159
10659SOL     OW32875   4.857   1.764   1.435 -0.2209 -0.0474 -0.0519
10659SOL    HW132876   4.853   1.863   1.450 -2.0045 -0.3651  2.0118
10659SOL    HW232877   4.845   1.745   1.338 -1.9380  1.7153 -0.2441
10660SOL     OW32878   2.920   1.095   2.259  0.3103 -0.1691  0.2530
10660SOL    HW132879   2.952   1.037   2.184  0.1954 -1.3443  1.0879
10660SOL    HW232880   2.997   1.148   2.295  0.6349 -0.5457  0.1248
10661SOL     OW32881   5.155   5.839   1.748 -0.1516  0.0921  0.0828
10661SOL    HW132882   5.142   5.932   1.780 -0.6803 -0.5289  1.7983
10661SOL    HW232883   5.194   5.840   1.655 -1.8240  1.9872 -0.6576
10662SOL     OW32884   3.711   3.581   1.664  0.0251 -0.1092  0.0056
10662SOL    HW132885   3.750   3.654   1.721  1.2194 -0.0394 -0.8827
10662SOL    HW232886   3.757   3.495   1.684  0.7318 -0.0036 -1.1344
10663SOL     OW32887   6.443   5.915   6.669  0.9390 -0.1162 -0.1969
10663SOL    HW132888   6.540   5.900   6.654  0.4195 -3.7336 -0.8361
10663SOL    HW232889   6.416   5.875   6.757 -0.0386  0.7056 -0.0996
10664SOL     OW32890   3.892   2.222   1.428 -0.1517 -0.3954  0.1686
10664SOL    HW132891   3.949   2.167   1.365  0.8225  0.7513  0.0182
10664SOL    HW232892   3.895   2.317   1.400 -1.5272 -0.1986  0.6567
10665SOL     OW32893   1.371   1.227   4.106  0.0766  0.1027 -0.2034
10665SOL    HW132894   1.462   1.202   4.073 -0.6676 -0.6817 -1.7980
10665SOL    HW232895   1.308   1.232   4.028 -1.6062 -0.9544  1.0361
10666SOL     OW32896   2.328   6.396   1.024 -0.1230 -0.0055 -0.3508
10666SOL    HW132897   2.336   6.300   1.051 -1.3875 -0.8950 -2.8190
10666SOL    HW232898   2.404   6.447   1.063  1.9820 -2.4804 -0.8967
10667SOL     OW32899   0.663   3.525   5.232  0.6279 -0.0117 -0.0091
10667SOL    HW132900   0.709   3.543   5.145 -0.1315 -0.3892 -0.4993
10667SOL    HW232901   0.614   3.607   5.262 -0.1581 -0.2505 -0.5967
10668SOL     OW32902   2.529   0.539   2.139  0.1470 -0.0148  0.4672
10668SOL    HW132903   2.486   0.508   2.224  0.7115 -0.9455  0.4204
10668SOL    HW232904   2.483   0.622   2.108 -1.5683 -0.8987  0.4836
10669SOL     OW32905   0.181   3.153   3.939  0.4900 -0.2900 -0.1243
10669SOL    HW132906   0.243   3.231   3.941 -0.2265  0.2787  0.4488
10669SOL    HW232907   0.189   3.107   3.851  1.6693 -0.1936 -0.0888
10670SOL     OW32908   0.457   3.481   5.637  0.3364  0.5424 -0.2482
10670SOL    HW132909   0.393   3.551   5.605  0.3905  0.1045 -1.3412
10670SOL    HW232910   0.407   3.400   5.667  0.1536  1.5871  2.5923
10671SOL     OW32911   6.800   2.035   6.624 -0.1855 -0.2914  0.6308
10671SOL    HW132912   6.898   2.037   6.603 -0.0896 -0.3665  1.0696
10671SOL    HW232913   6.770   2.126   6.652  0.0055 -0.5162  1.5999
10672SOL     OW32914   0.101   1.192   0.014 -1.0824 -0.3974  0.2134
10672SOL    HW132915   0.049   1.181  -0.071 -1.0528 -1.1673  0.2903
10672SOL    HW232916   0.199   1.196  -0.007 -1.1388  0.9934  0.0740
10673SOL     OW32917   0.048   3.116   6.135  0.1069  0.0913 -0.8297
10673SOL    HW132918   0.101   3.167   6.203  0.3231  0.0960 -1.0037
10673SOL    HW232919   0.041   3.020   6.163 -4.7646  0.9877  2.4170
10674SOL     OW32920   5.423   1.045   2.215  0.2841 -0.1392 -0.5371
10674SOL    HW132921   5.325   1.029   2.210  0.4531 -0.8486 -3.6851
10674SOL    HW232922   5.470   0.957   2.228  0.5753 -0.1918 -1.8194
10675SOL     OW32923   0.088   1.692   6.642 -0.1875  0.2524 -0.1529
10675SOL    HW132924   0.101   1.789   6.622  3.8818 -0.2394 -0.6428
10675SOL    HW232925   0.015   1.682   6.711 -0.8945  3.5574 -0.2440
10676SOL     OW32926   4.954   4.132   6.934  0.1931 -0.1057 -0.1003
10676SOL    HW132927   4.996   4.042   6.926  1.1944  0.3771 -0.3149
10676SOL    HW232928   5.023   4.200   6.957 -0.6210  0.5539  0.4835
10677SOL     OW32929   0.440   2.900   0.184 -0.5003 -0.4187  0.3216
10677SOL    HW132930   0.361   2.933   0.132 -0.8683 -1.0378  0.4659
10677SOL    HW232931   0.496   2.841   0.126 -1.2269 -1.5826  0.7738
10678SOL     OW32932   0.804   5.159   4.218 -0.1158 -0.4058  0.1428
10678SOL    HW132933   0.791   5.108   4.303  0.2906  0.3273  0.6514
10678SOL    HW232934   0.719   5.204   4.193 -0.4990 -1.3634 -0.3459
10679SOL     OW32935   2.427   1.375   1.988 -0.3943  0.1597  0.6643
10679SOL    HW132936   2.489   1.452   1.974 -2.1660  1.6991  0.8993
10679SOL    HW232937   2.369   1.392   2.068 -3.2830  0.3357 -1.3161
10680SOL     OW32938   1.841   2.413   4.641 -0.3272  0.7189  0.2451
10680SOL    HW132939   1.796   2.502   4.634 -0.3275  0.8103  1.1843
10680SOL    HW232940   1.790   2.346   4.588  1.1100  1.7524 -2.6821
10681SOL     OW32941   0.337   2.818   4.807 -0.0514  0.0275  0.1781
10681SOL    HW132942   0.340   2.800   4.905 -3.1566  1.0753  0.5859
10681SOL    HW232943   0.341   2.731   4.757  2.8575 -0.4525  1.0612
10682SOL     OW32944   0.012   0.174   5.474 -0.2035  0.0583  0.4325
10682SOL    HW132945   0.090   0.113   5.487  0.4843  0.0497 -2.8519
10682SOL    HW232946   0.042   0.269   5.484 -0.3024  0.0051  1.3144
10683SOL     OW32947   6.157   0.499   0.504  0.0713 -0.0562 -0.1785
10683SOL    HW132948   6.256   0.489   0.514  0.3964 -0.2671 -2.8625
10683SOL    HW232949   6.125   0.437   0.432 -1.7420  1.2293 -0.5394
10684SOL     OW32950   6.377   2.041   1.379  0.2450 -0.5179 -0.5107
10684SOL    HW132951   6.288   2.053   1.423  1.2329 -0.9402  1.7681
10684SOL    HW232952   6.377   1.956   1.327 -0.7271 -0.4443 -0.6453
10685SOL     OW32953   3.490   3.454   1.858  0.2172 -0.0122  0.3612
10685SOL    HW132954   3.490   3.458   1.758  2.2031  0.2247  0.3359
10685SOL    HW232955   3.472   3.544   1.896 -1.6762 -0.3062  0.2717
10686SOL     OW32956   3.136   3.992   3.747 -0.4376  0.1179  0.4037
10686SOL    HW132957   3.153   4.041   3.661 -1.6005  3.0492  1.7181
10686SOL    HW232958   3.060   3.928   3.733 -0.8861  0.8378 -0.6747
10687SOL     OW32959   5.272   2.055   2.996  0.3251 -0.0792 -0.2095
10687SOL    HW132960   5.188   2.029   2.948 -0.9757 -2.2930  2.9302
10687SOL    HW232961   5.348   2.000   2.964 -0.2040 -0.5795 -0.6215
10688SOL     OW32962   5.230   6.143   1.965 -0.0985  0.0077 -0.3154
10688SOL    HW132963   5.204   6.180   2.054 -0.5950  0.6702 -0.7276
10688SOL    HW232964   5.243   6.044   1.973  0.2090  0.1065  0.5651
10689SOL     OW32965   2.916   2.855   5.767 -0.2489  0.0307  0.2080
10689SOL    HW132966   2.827   2.867   5.723 -0.7783  0.6027  1.3780
10689SOL    HW232967   2.909   2.784   5.837  0.1166  0.3317  0.5567
10690SOL     OW32968   3.552   1.089   4.336  0.3996  0.1903 -0.3160
10690SOL    HW132969   3.540   1.184   4.305  2.5828  0.6790  0.2062
10690SOL    HW232970   3.481   1.067   4.403  0.7198  1.9641  0.6543
10691SOL     OW32971   2.767   6.143   1.822 -0.7150 -0.2291  0.1629
10691SOL    HW132972   2.735   6.231   1.787 -1.1873 -0.6900 -0.6172
10691SOL    HW232973   2.849   6.115   1.772 -0.1580  0.0898  0.8915
10692SOL     OW32974   2.366   6.272   3.634 -0.0787 -0.0900  0.2910
10692SOL    HW132975   2.274   6.271   3.593 -0.1932  0.0907  0.5405
10692SOL    HW232976   2.432   6.239   3.568 -0.3149 -0.1420  0.0794
10693SOL     OW32977   3.476   3.876   4.979  0.4057  0.0213  0.3776
10693SOL    HW132978   3.516   3.905   4.892  0.7031  1.1209  0.8729
10693SOL    HW232979   3.537   3.810   5.022 -0.0944 -1.1113 -0.5699
10694SOL     OW32980   6.193   4.851   0.488 -0.4610  0.3930  0.1074
10694SOL    HW132981   6.108   4.815   0.527 -1.4538  2.0992 -0.3420
10694SOL    HW232982   6.182   4.861   0.389  0.7521 -0.5738 -0.1438
10695SOL     OW32983   4.976   2.410   4.066 -0.1683 -0.3394  0.0826
10695SOL    HW132984   4.930   2.411   4.155 -1.5089  0.6033 -0.5820
10695SOL    HW232985   4.968   2.500   4.023 -1.4788 -1.3302 -1.9193
10696SOL     OW32986   3.793   5.417   2.565  0.2914  0.4417 -0.0855
10696SOL    HW132987   3.695   5.422   2.585  0.2554  1.1262 -0.3788
10696SOL    HW232988   3.829   5.510   2.558  1.3431  0.2193  1.8382
10697SOL     OW32989   6.825   3.688   1.166  0.2150 -0.1636  0.1880
10697SOL    HW132990   6.827   3.788   1.166  0.2583 -0.1569 -0.7431
10697SOL    HW232991   6.918   3.652   1.154 -0.1081 -0.2525 -2.8301
10698SOL     OW32992   4.235   6.730   5.637  0.2141  0.5107  0.2736
10698SOL    HW132993   4.276   6.802   5.694 -2.1997  2.7096 -0.5502
10698SOL    HW232994   4.269   6.739   5.543  0.4040  0.1571  0.3095
10699SOL     OW32995   3.177   0.933   2.322  0.6321  0.0786 -0.4208
10699SOL    HW132996   3.140   0.852   2.366  0.1483 -0.0276 -1.0158
10699SOL    HW232997   3.246   0.906   2.255  0.6706  0.1759 -0.4208
10700SOL     OW32998   4.632   2.335   0.316  0.3056 -0.2915 -0.2341
10700SOL    HW132999   4.665   2.308   0.406  1.9495 -1.3144 -1.0879
10700SOL    HW233000   4.707   2.374   0.263 -0.6114  0.2226 -1.2047
10701SOL     OW33001   0.271   3.167   5.113 -0.0693  0.0273  0.1267
10701SOL    HW133002   0.355   3.182   5.164  0.4240 -1.4561 -0.1870
10701SOL    HW233003   0.192   3.188   5.171  0.4828 -1.4745  1.4851
10702SOL     OW33004   6.403   5.511   2.977  0.1773 -0.4700 -0.2310
10702SOL    HW133005   6.406   5.591   2.916  1.4148  0.1241  0.5729
10702SOL    HW233006   6.378   5.430   2.923  1.0482  0.0671 -1.4999
10703SOL     OW33007   2.464   5.204   5.615 -0.2903  0.3808  0.4446
10703SOL    HW133008   2.507   5.139   5.553  1.2555 -0.8877  2.6910
10703SOL    HW233009   2.502   5.295   5.601 -0.6062  0.3142 -0.9926
10704SOL     OW33010   4.309   2.946   6.136 -0.2518  0.0951  0.4869
10704SOL    HW133011   4.255   2.926   6.054  1.6680 -0.4491 -0.7086
10704SOL    HW233012   4.298   2.873   6.203 -2.5539  0.9760  1.1831
10705SOL     OW33013   1.477   6.910   6.906 -0.1943 -0.0020 -0.2890
10705SOL    HW133014   1.571   6.938   6.888 -0.7986  0.5668 -2.9413
10705SOL    HW233015   1.476   6.812   6.928  0.9412 -0.2016 -1.0335
10706SOL     OW33016   2.492   1.310   5.560 -0.0385  0.2086  0.2746
10706SOL    HW133017   2.590   1.315   5.543  0.3613 -1.0580  2.0096
10706SOL    HW233018   2.464   1.389   5.616 -0.0734  0.6956 -0.4163
10707SOL     OW33019   5.282   4.762   2.357 -0.0256  0.2050 -0.0711
10707SOL    HW133020   5.248   4.778   2.450 -3.0420  2.0988 -1.3385
10707SOL    HW233021   5.223   4.696   2.311  2.1975 -1.7189 -0.3473
10708SOL     OW33022   7.007   0.005   0.598 -0.0314 -0.5898  0.2458
10708SOL    HW133023   6.956   0.014   0.684  0.9834  1.7207  0.6899
10708SOL    HW233024   7.020  -0.091   0.576 -1.4021 -1.2265  2.0121
10709SOL     OW33025   5.205   5.292   3.981 -0.7459  0.2947 -0.0889
10709SOL    HW133026   5.284   5.256   4.030  0.4821  0.2858 -1.9676
10709SOL    HW233027   5.142   5.217   3.958  0.0163 -0.1244 -0.8570
10710SOL     OW33028   1.629   6.588   4.812 -0.4546  0.2526  0.2111
10710SOL    HW133029   1.710   6.534   4.835 -0.2484  0.6520  0.4290
10710SOL    HW233030   1.650   6.651   4.738 -1.1707 -1.1627 -1.2633
10711SOL     OW33031   0.348   3.628   4.379  0.0722  0.3158 -0.2456
10711SOL    HW133032   0.271   3.640   4.442 -0.0267  4.0567 -0.8109
10711SOL    HW233033   0.326   3.557   4.313 -1.1195 -1.5506  2.0138
10712SOL     OW33034   6.770   1.937   3.315  0.1536 -0.6671 -0.4626
10712SOL    HW133035   6.703   1.872   3.351  0.7800  0.3108  2.7943
10712SOL    HW233036   6.852   1.936   3.373  0.9204  1.6885 -1.3831
10713SOL     OW33037   7.016   6.927   6.139 -0.0589 -0.1272 -0.4214
10713SOL    HW133038   7.042   6.977   6.222  0.0836 -1.5110  0.4046
10713SOL    HW233039   7.016   6.990   6.061 -0.4015  1.2562  0.6458
10714SOL     OW33040   6.543   4.986   6.758 -0.0963  0.1169 -0.5145
10714SOL    HW133041   6.455   5.028   6.780 -1.0910 -2.4637  0.8652
10714SOL    HW233042   6.534   4.932   6.674  0.1714 -0.1378 -0.3802
10715SOL     OW33043   3.113   1.887   4.349 -0.8086 -0.6135 -0.0062
10715SOL    HW133044   3.086   1.912   4.442  1.5483 -1.2210  0.9050
10715SOL    HW233045   3.147   1.968   4.301 -1.5125 -0.4058 -0.1640
10716SOL     OW33046   1.177   5.664   2.166  0.1409 -0.5341 -0.5754
10716SOL    HW133047   1.213   5.611   2.090  0.6077  1.1382 -1.5759
10716SOL    HW233048   1.251   5.713   2.212 -0.3335 -0.2822 -0.0593
10717SOL     OW33049   0.786   6.242   0.290 -0.4660 -0.1504 -0.2918
10717SOL    HW133050   0.802   6.314   0.222 -1.3638  1.6686  1.3028
10717SOL    HW233051   0.691   6.245   0.319 -0.5138 -2.0247 -0.1674
10718SOL     OW33052   6.331   1.264   4.673 -0.0579  0.1448  0.3209
10718SOL    HW133053   6.286   1.283   4.760 -0.6338 -0.9078  0.2655
10718SOL    HW233054   6.378   1.176   4.677  0.6058  0.4640 -0.1707
10719SOL     OW33055   5.129   0.772   4.787  0.1841  0.4960 -0.0317
10719SOL    HW133056   5.217   0.759   4.741 -1.0228  1.2304 -2.6945
10719SOL    HW233057   5.086   0.855   4.754 -1.1687  0.6374  1.9062
10720SOL     OW33058   6.081   2.140   6.069 -0.3457  0.1177  0.1104
10720SOL    HW133059   6.023   2.118   6.148  0.1286 -0.8291  0.2116
10720SOL    HW233060   6.024   2.154   5.989 -0.8034  0.6124  0.5133
10721SOL     OW33061   3.830   3.593   4.515  0.2658 -0.1636 -0.0216
10721SOL    HW133062   3.745   3.644   4.524  1.0707  1.3746 -0.7024
10721SOL    HW233063   3.906   3.646   4.553  1.3813 -0.0757 -2.1456
10722SOL     OW33064   1.530   2.209   3.438  0.4349 -0.5961  0.2991
10722SOL    HW133065   1.478   2.176   3.516 -0.0395  1.1139  0.7425
10722SOL    HW233066   1.628   2.197   3.455  0.3109 -0.7256  0.9205
10723SOL     OW33067   4.547   0.972   1.988 -0.7741 -0.6867 -0.1362
10723SOL    HW133068   4.461   0.971   2.040 -0.5777 -0.9751  0.1820
10723SOL    HW233069   4.529   0.943   1.894 -1.1321 -0.1522 -0.2419
10724SOL     OW33070   2.420   0.769   0.128 -0.0979 -0.4486 -0.0111
10724SOL    HW133071   2.340   0.829   0.121 -0.3108 -0.8288 -0.9060
10724SOL    HW233072   2.390   0.676   0.146  0.2902  0.0627  4.5191
10725SOL     OW33073   1.332   0.782   1.309 -0.1288  0.1773  0.3398
10725SOL    HW133074   1.295   0.806   1.398  1.3252  3.7567  0.1323
10725SOL    HW233075   1.275   0.820   1.237  0.2943 -0.1317 -0.1700
10726SOL     OW33076   4.870   5.345   3.517  0.0432  0.5664  0.3836
10726SOL    HW133077   4.901   5.334   3.422 -1.3601  0.4258 -0.0778
10726SOL    HW233078   4.851   5.254   3.556 -1.9476  0.7212 -0.1157
10727SOL     OW33079   5.066   6.185   3.619  0.2521  0.2513 -0.6817
10727SOL    HW133080   5.135   6.141   3.676  0.1503 -0.0389 -0.7757
10727SOL    HW233081   4.978   6.138   3.630  0.0614  0.6381 -0.5381
10728SOL     OW33082   3.301   5.897   3.186 -0.0575 -0.0002  0.1333
10728SOL    HW133083   3.258   5.911   3.097 -2.3979  1.8457  1.4141
10728SOL    HW233084   3.231   5.876   3.254  1.3723  0.6342  1.9037
10729SOL     OW33085   5.285   2.669   0.916  0.6015  0.5025  0.1100
10729SOL    HW133086   5.249   2.584   0.954  0.8350 -0.4130 -1.6012
10729SOL    HW233087   5.265   2.745   0.978  0.3927 -0.7875  1.6750
10730SOL     OW33088   6.231   0.007   4.277  0.9075  0.1619 -0.4511
10730SOL    HW133089   6.292   0.060   4.336  2.0808 -0.3731 -1.1519
10730SOL    HW233090   6.246   0.031   4.182  1.8172 -1.6923 -0.8391
10731SOL     OW33091   0.524   4.940   1.520 -0.1287 -0.5530 -0.2268
10731SOL    HW133092   0.470   4.900   1.446 -0.7690  1.1296 -0.7160
10731SOL    HW233093   0.593   5.001   1.481  0.8386 -1.1553  0.4949
10732SOL     OW33094   0.397   2.445   2.684  0.1504 -0.0576 -0.4418
10732SOL    HW133095   0.428   2.350   2.679 -0.2414 -0.1428 -1.5291
10732SOL    HW233096   0.459   2.498   2.742  2.9894  0.0057 -3.2299
10733SOL     OW33097   0.978   0.052   5.643  0.0532 -0.2156 -0.2156
10733SOL    HW133098   0.906   0.014   5.701 -0.3673 -0.0254 -0.6051
10733SOL    HW233099   1.017   0.133   5.687  0.6677 -0.8436  0.4249
10734SOL     OW33100   6.539   5.385   4.607 -0.7511  0.5333 -0.2235
10734SOL    HW133101   6.617   5.347   4.656 -0.7065  0.6129 -0.2328
10734SOL    HW233102   6.515   5.325   4.531 -0.1627  0.9426 -0.7393
10735SOL     OW33103   5.668   0.390   1.716  0.2880  0.2939 -0.2311
10735SOL    HW133104   5.636   0.460   1.652  1.4827  1.3760  0.3051
10735SOL    HW233105   5.605   0.384   1.793 -0.8902 -0.6655 -1.2366
10736SOL     OW33106   2.917   4.989   2.667 -0.7037 -0.6508  0.0290
10736SOL    HW133107   2.893   4.976   2.570 -2.1834  0.7725  0.1526
10736SOL    HW233108   3.015   4.974   2.679  0.2293  2.3226 -2.3731
10737SOL     OW33109   5.630   1.619   6.197 -0.4080  0.1408  0.5212
10737SOL    HW133110   5.683   1.683   6.253  0.2550 -0.1254  0.2065
10737SOL    HW233111   5.597   1.666   6.115 -0.5765  0.2770  0.6649
10738SOL     OW33112   1.215   5.261   3.322 -0.2898  0.5616  0.2042
10738SOL    HW133113   1.263   5.267   3.409  0.9506  1.2802 -0.4963
10738SOL    HW233114   1.152   5.338   3.313 -0.8755  0.1522  0.7081
10739SOL     OW33115   1.798   4.747   1.657 -0.1509  0.1318  0.1797
10739SOL    HW133116   1.889   4.787   1.673  0.2421 -0.5080 -0.3909
10739SOL    HW233117   1.738   4.771   1.733  0.4542  0.6869  0.4994
10740SOL     OW33118   5.874   5.062   2.838 -0.1498 -0.0748  0.4875
10740SOL    HW133119   5.777   5.038   2.834 -0.1430 -0.0127 -0.1560
10740SOL    HW233120   5.914   5.023   2.921 -0.7110 -0.1484  0.7294
10741SOL     OW33121   3.494   1.900   2.503 -0.1495  0.3178 -0.4212
10741SOL    HW133122   3.485   1.953   2.419 -0.7386  1.3490  0.2649
10741SOL    HW233123   3.421   1.831   2.507 -0.9531  1.1551 -0.1523
10742SOL     OW33124   5.591   2.621   0.563 -0.3338  0.0596 -0.2728
10742SOL    HW133125   5.579   2.632   0.661 -0.5429  0.7714 -0.3715
10742SOL    HW233126   5.641   2.536   0.545  0.1952  0.1999  0.4774
10743SOL     OW33127   6.234   3.807   2.839  0.2730  0.0519 -0.2501
10743SOL    HW133128   6.198   3.833   2.750  1.1678 -0.9405 -0.9284
10743SOL    HW233129   6.333   3.820   2.841  0.2826 -0.0406  0.5657
10744SOL     OW33130   3.080   6.397   2.034 -0.3272  0.1184 -0.4804
10744SOL    HW133131   3.035   6.457   1.967 -0.8908  0.5196  0.2441
10744SOL    HW233132   3.076   6.302   2.002 -2.9066 -0.0606  0.1545
10745SOL     OW33133   0.640   6.156   0.713 -0.1877 -0.2710 -0.1006
10745SOL    HW133134   0.613   6.151   0.809 -1.3852  1.0897 -0.3205
10745SOL    HW233135   0.557   6.156   0.656  0.2474  2.6525 -0.9084
10746SOL     OW33136   4.218   5.778   0.891 -0.8139  0.6427 -0.4544
10746SOL    HW133137   4.135   5.832   0.894 -0.3448  1.4396 -1.4462
10746SOL    HW233138   4.248   5.766   0.797  0.3292  0.5711 -0.1042
10747SOL     OW33139   2.950   3.783   2.803 -0.7491 -0.0132 -0.6890
10747SOL    HW133140   2.911   3.698   2.838  0.6922 -0.6772 -0.6199
10747SOL    HW233141   2.936   3.788   2.704  2.6748 -2.4215 -1.4808
10748SOL     OW33142   2.128   0.212   0.455 -0.0709 -0.1397  0.4087
10748SOL    HW133143   2.217   0.211   0.411 -0.6584 -1.1627 -0.8069
10748SOL    HW233144   2.106   0.306   0.483  0.8577  0.3188 -0.3446
10749SOL     OW33145   1.614   0.780   1.291 -0.4346  0.5595 -0.3315
10749SOL    HW133146   1.524   0.760   1.330 -0.9024  3.1588  0.0892
10749SOL    HW233147   1.682   0.785   1.364 -0.5616  1.6561 -0.2839
10750SOL     OW33148   0.358   3.109   1.749 -0.2265  0.3962  0.1796
10750SOL    HW133149   0.280   3.087   1.809  1.2111  1.0414  2.3825
10750SOL    HW233150   0.325   3.120   1.656 -2.4587 -1.4833  0.6391
10751SOL     OW33151   6.430   2.709   2.885 -0.5078 -0.1138 -0.2768
10751SOL    HW133152   6.343   2.661   2.897 -1.0682  0.7991 -0.5620
10751SOL    HW233153   6.490   2.655   2.827 -0.6803 -1.0002  0.3513
10752SOL     OW33154   2.998   0.916   4.382  0.2710  0.2101  0.0884
10752SOL    HW133155   3.049   0.914   4.468  0.3829  3.1064  0.2000
10752SOL    HW233156   3.047   0.864   4.313  0.7386 -1.2549  1.4588
10753SOL     OW33157   6.715   1.913   5.827 -0.3281  0.4804  0.0854
10753SOL    HW133158   6.792   1.969   5.797 -0.5254  0.5014 -0.3808
10753SOL    HW233159   6.660   1.886   5.748  0.4802 -1.4346  0.1291
10754SOL     OW33160   4.180   2.255   3.026  0.0421  0.0954 -0.0356
10754SOL    HW133161   4.083   2.235   3.015 -0.0956  0.1499  0.9509
10754SOL    HW233162   4.220   2.276   2.937 -0.7690 -0.2666 -0.5000
10755SOL     OW33163   1.934   6.511   0.457  0.1732  0.1760  0.2028
10755SOL    HW133164   1.875   6.583   0.420 -0.1566  0.0323  0.4492
10755SOL    HW233165   1.879   6.445   0.508  0.7625  1.1165  2.1476
10756SOL     OW33166   4.857   5.582   6.940  0.4124 -0.0158  1.2532
10756SOL    HW133167   4.934   5.518   6.946 -1.5342 -2.5901  0.7929
10756SOL    HW233168   4.811   5.586   7.028  0.0974  0.1949  1.0773
10757SOL     OW33169   6.531   5.854   6.235  0.5498 -0.2603 -1.0322
10757SOL    HW133170   6.464   5.893   6.298  1.3123  2.3991 -1.7299
10757SOL    HW233171   6.495   5.857   6.141  1.4176  0.7723 -1.3535
10758SOL     OW33172   2.332   2.372   4.262  0.2180 -0.1946 -0.5408
10758SOL    HW133173   2.399   2.337   4.328  1.1725 -1.1401 -1.9590
10758SOL    HW233174   2.248   2.398   4.310  1.0955 -0.2889  1.1050
10759SOL     OW33175   5.401   2.350   6.981 -0.3450  0.3407  0.3032
10759SOL    HW133176   5.343   2.431   6.992 -1.7470 -0.5393 -0.3998
10759SOL    HW233177   5.446   2.352   6.892  1.1121  1.2438  1.0213
10760SOL     OW33178   1.204   2.227   3.796  0.7072 -0.3080 -0.9606
10760SOL    HW133179   1.183   2.181   3.882  0.1416  0.9146 -0.4190
10760SOL    HW233180   1.253   2.312   3.815  0.2066  0.1853 -1.8075
10761SOL     OW33181   1.285   2.345   1.966 -0.0133 -0.0597 -0.0645
10761SOL    HW133182   1.195   2.303   1.963 -0.3875  0.4422  2.2229
10761SOL    HW233183   1.278   2.440   1.935 -0.7038  0.5685  1.8825
10762SOL     OW33184   4.436   2.341   3.095  0.0417 -0.0387 -0.4932
10762SOL    HW133185   4.338   2.324   3.103 -0.2490  1.0179 -1.5196
10762SOL    HW233186   4.456   2.377   3.004  1.4897 -0.8925 -0.5295
10763SOL     OW33187   0.113   2.087   4.535 -0.5961 -0.6734  0.1647
10763SOL    HW133188   0.101   2.170   4.481  0.3502 -1.1198 -0.7722
10763SOL    HW233189   0.030   2.032   4.530 -0.7767 -0.3699 -0.2522
10764SOL     OW33190   2.384   3.620   0.805  0.4355 -0.0052 -0.0885
10764SOL    HW133191   2.419   3.531   0.773 -2.1691 -1.5668  1.0919
10764SOL    HW233192   2.285   3.613   0.820  0.3950  2.7223  1.4318
10765SOL     OW33193   4.733   6.304   2.834  0.4666 -0.3296  0.4350
10765SOL    HW133194   4.740   6.311   2.934  0.5025  0.9852  0.3608
10765SOL    HW233195   4.672   6.376   2.801 -0.0964 -1.1892 -0.4411
10766SOL     OW33196   0.652   2.869   2.314  0.3432 -0.1110 -0.2421
10766SOL    HW133197   0.648   2.934   2.390 -1.4544 -2.0318  1.4530
10766SOL    HW233198   0.743   2.829   2.309  0.7831  0.7897  0.2307
10767SOL     OW33199   4.732   4.123   1.927  0.4305 -0.0976 -0.4004
10767SOL    HW133200   4.654   4.161   1.878  0.4298 -2.4869 -2.4045
10767SOL    HW233201   4.816   4.170   1.898 -0.0202  1.6490  0.8805
10768SOL     OW33202   1.414   3.559   3.883 -0.5223  0.2867 -0.2456
10768SOL    HW133203   1.364   3.543   3.968  2.1262  1.5724  1.7298
10768SOL    HW233204   1.400   3.654   3.854  1.7445  1.1357  1.1749
10769SOL     OW33205   2.398   5.881   4.992 -0.4939  0.3677  0.4109
10769SOL    HW133206   2.400   5.980   4.977  0.1709  0.3551  0.3687
10769SOL    HW233207   2.459   5.858   5.067  0.3127 -0.1281 -0.3698
10770SOL     OW33208   5.260   5.050   1.030 -0.1670 -0.2045 -0.4809
10770SOL    HW133209   5.354   5.082   1.042 -0.0304 -1.4518  3.2068
10770SOL    HW233210   5.255   4.953   1.055 -2.3278 -0.3332 -1.2438
10771SOL     OW33211   2.419   5.400   4.914 -0.1174 -0.0207 -0.1897
10771SOL    HW133212   2.437   5.386   4.817  1.7767 -0.2900  0.1507
10771SOL    HW233213   2.335   5.352   4.940 -0.6406  0.0364 -1.6670
10772SOL     OW33214   1.083   1.918   5.086 -0.8122  0.6247 -0.4452
10772SOL    HW133215   1.085   1.998   5.146  0.4791 -0.3137  0.8474
10772SOL    HW233216   1.025   1.937   5.007 -1.8031  2.2602  0.6069
10773SOL     OW33217   5.445   3.538   6.537 -0.1141  0.5993 -0.3734
10773SOL    HW133218   5.511   3.495   6.599  1.1283  1.0332 -1.3465
10773SOL    HW233219   5.443   3.489   6.450 -1.3891  0.3603 -0.2366
10774SOL     OW33220   0.656   4.292   6.879 -0.5294 -0.0477 -0.3648
10774SOL    HW133221   0.733   4.239   6.914 -1.0611 -0.3900  0.3286
10774SOL    HW233222   0.666   4.387   6.906 -2.5453 -0.7877  3.8193
10775SOL     OW33223   4.353   0.932   1.500 -0.6220 -0.0960 -0.5629
10775SOL    HW133224   4.374   0.945   1.597  1.6522  0.3863 -1.0443
10775SOL    HW233225   4.399   1.004   1.447 -0.3378 -1.3976 -2.1442
10776SOL     OW33226   2.767   4.329   6.618  0.8447 -0.4927  0.0165
10776SOL    HW133227   2.810   4.256   6.565  0.8188 -0.7396  0.3328
10776SOL    HW233228   2.668   4.328   6.603  0.9454  0.1070 -0.7503
10777SOL     OW33229   2.932   3.502   4.321  0.3244 -0.1700  0.7418
10777SOL    HW133230   3.019   3.527   4.279 -0.8585  2.9707 -0.1386
10777SOL    HW233231   2.861   3.497   4.251 -0.7065  0.0255  1.7357
10778SOL     OW33232   0.530   0.771   6.643 -0.0295 -0.2147  0.0513
10778SOL    HW133233   0.629   0.757   6.652 -0.1690 -0.5099  1.2368
10778SOL    HW233234   0.485   0.683   6.630 -0.1061 -0.0360 -1.0164
10779SOL     OW33235   0.084   6.434   3.811  0.5407  0.1952  0.2330
10779SOL    HW133236   0.045   6.502   3.873  0.7841  0.7663 -0.2239
10779SOL    HW233237   0.183   6.429   3.826  0.9736  1.9510 -1.5714
10780SOL     OW33238   1.657   1.123   5.013  0.0072 -0.1075  0.0250
10780SOL    HW133239   1.608   1.138   4.927  2.7745 -0.4313 -1.7479
10780SOL    HW233240   1.727   1.193   5.025  1.4184 -1.5462  0.6331
10781SOL     OW33241   1.104   2.576   4.664  0.2628 -0.7217  0.2084
10781SOL    HW133242   1.197   2.612   4.653  0.2797 -0.7245  0.3434
10781SOL    HW233243   1.096   2.529   4.752 -0.3554  0.7841  0.9868
10782SOL     OW33244   6.227   6.163   5.638 -0.2201 -0.5880  0.6374
10782SOL    HW133245   6.185   6.146   5.727 -1.0810 -1.3250  0.1003
10782SOL    HW233246   6.279   6.249   5.643 -1.4536  0.1569  1.4415
10783SOL     OW33247   6.150   1.487   1.902  0.5832 -0.3331  0.0433
10783SOL    HW133248   6.106   1.408   1.860  0.3013  0.2995 -0.8997
10783SOL    HW233249   6.080   1.550   1.936  0.6926  0.7765 -1.6481
10784SOL     OW33250   1.063   4.012   1.583  0.1067  0.1019 -0.0388
10784SOL    HW133251   1.009   4.023   1.499 -0.4382  0.9239  0.4022
10784SOL    HW233252   1.028   4.075   1.653  0.6402 -0.4777  0.7613
10785SOL     OW33253   3.920   1.565   5.732 -0.0823 -0.1851 -0.0360
10785SOL    HW133254   3.865   1.601   5.808 -0.2402  1.8558 -1.0435
10785SOL    HW233255   3.861   1.517   5.668 -0.3636  0.2350 -0.0958
10786SOL     OW33256   1.127   1.155   5.561  0.2728 -0.3743 -0.8724
10786SOL    HW133257   1.221   1.188   5.572 -0.1363  0.3586  0.7683
10786SOL    HW233258   1.115   1.071   5.614 -0.4806  0.5935  0.5608
10787SOL     OW33259   0.146   3.306   0.017 -0.2056 -0.0165  0.3020
10787SOL    HW133260   0.126   3.353   0.103 -0.5389 -1.4831  1.0498
10787SOL    HW233261   0.214   3.359  -0.034 -0.0770  0.9393  1.4113
10788SOL     OW33262   4.600   5.601   3.889  0.4152  0.5491  0.0947
10788SOL    HW133263   4.505   5.632   3.895  0.8457  2.0553 -0.4710
10788SOL    HW233264   4.641   5.636   3.805  2.4523  2.7642  1.8875
10789SOL     OW33265   6.832   3.487   3.724  0.1369  0.4001  0.3544
10789SOL    HW133266   6.789   3.399   3.702 -2.5303  1.9824 -1.3924
10789SOL    HW233267   6.913   3.500   3.666  1.4638 -1.4655  1.6922
10790SOL     OW33268   2.325   5.224   1.583 -0.9964  0.8356 -0.0748
10790SOL    HW133269   2.375   5.275   1.653  0.0659 -1.9339  1.3022
10790SOL    HW233270   2.318   5.128   1.610  2.3741 -1.2176 -5.1797
10791SOL     OW33271   0.932   1.386   4.724 -0.5622  0.8098  0.3610
10791SOL    HW133272   1.001   1.401   4.653 -1.7892  0.0186 -1.0888
10791SOL    HW233273   0.968   1.411   4.813  1.7459 -0.0503 -0.2704
10792SOL     OW33274   6.647   4.247   6.461  0.2255 -0.3116  0.2331
10792SOL    HW133275   6.740   4.211   6.454 -0.3525 -2.1297  1.1388
10792SOL    HW233276   6.641   4.310   6.538  1.6270  3.2034 -2.2837
10793SOL     OW33277   6.311   0.631   3.071  0.1743 -0.0028  0.5691
10793SOL    HW133278   6.248   0.704   3.044 -0.9042 -0.7093  1.1236
10793SOL    HW233279   6.327   0.570   2.994  0.2672  0.2305  0.4018
10794SOL     OW33280   5.320   5.970   5.418 -0.1241 -0.1879 -0.5739
10794SOL    HW133281   5.280   6.042   5.475  2.3095 -0.2156  1.3889
10794SOL    HW233282   5.384   5.917   5.474  2.2923 -0.3539 -3.2955
10795SOL     OW33283   0.531   6.453   1.113  0.5741 -0.4325 -0.0175
10795SOL    HW133284   0.558   6.501   1.197 -0.2859 -0.3819  0.2400
10795SOL    HW233285   0.479   6.371   1.137 -0.5209  0.1078 -0.5245
10796SOL     OW33286   2.201   4.997   0.945 -0.1785 -0.2196 -0.0061
10796SOL    HW133287   2.166   5.039   0.861 -1.2779  0.0913  0.5851
10796SOL    HW233288   2.125   4.981   1.008  0.6859 -0.0866  1.0921
10797SOL     OW33289   7.012   3.436   3.276  0.3184  0.0982  0.2600
10797SOL    HW133290   7.108   3.411   3.265 -0.1185 -1.5604 -0.0724
10797SOL    HW233291   6.997   3.527   3.238  1.9627  0.8615  1.3043
10798SOL     OW33292   3.008   6.224   3.648 -0.0794 -0.0266  0.3050
10798SOL    HW133293   3.048   6.301   3.697  0.4789 -0.2665  0.2276
10798SOL    HW233294   2.921   6.252   3.608 -0.2759  0.3306  0.9613
10799SOL     OW33295   3.436   2.847   2.420  0.3160  1.0705  0.6209
10799SOL    HW133296   3.379   2.820   2.342  0.1773 -0.6145  1.2677
10799SOL    HW233297   3.532   2.845   2.393  0.2716  0.4566  0.4795
10800SOL     OW33298   2.735   4.277   0.960 -0.1974  0.1905 -0.5268
10800SOL    HW133299   2.736   4.205   0.890 -1.6508  0.3501 -0.7443
10800SOL    HW233300   2.724   4.235   1.050 -1.1107  0.1199 -0.6595
10801SOL     OW33301   0.781   3.968   6.115  0.0457  0.6063 -0.4550
10801SOL    HW133302   0.832   3.940   6.196 -1.9180 -0.7918  0.3747
10801SOL    HW233303   0.820   3.924   6.034 -0.7194 -1.6889  0.3630
10802SOL     OW33304   2.183   3.922   2.267 -0.1086  0.0634 -0.1652
10802SOL    HW133305   2.135   3.924   2.179  0.3130  0.3996 -0.3907
10802SOL    HW233306   2.155   3.841   2.318 -1.3730  0.5625 -0.0315
10803SOL     OW33307   3.907   6.915   3.244 -0.2939  0.1748  0.2050
10803SOL    HW133308   3.815   6.885   3.267 -0.3740  0.2449 -0.0244
10803SOL    HW233309   3.906   6.962   3.155  0.3446 -1.7940 -0.8877
10804SOL     OW33310   3.433   0.125   4.896 -0.6442 -0.1839 -0.2195
10804SOL    HW133311   3.512   0.095   4.842  1.6249  1.9675  1.6106
10804SOL    HW233312   3.377   0.187   4.841  2.0458  2.6109 -0.1394
10805SOL     OW33313   6.728   1.745   5.300  0.3948  0.1106 -0.5626
10805SOL    HW133314   6.791   1.681   5.257  1.1455 -0.3767  1.1783
10805SOL    HW233315   6.703   1.711   5.391 -0.4425  1.5168 -0.2361
10806SOL     OW33316   2.780   1.404   1.841 -0.3701 -0.1728 -0.0378
10806SOL    HW133317   2.872   1.371   1.860 -0.3416  0.0459  0.2218
10806SOL    HW233318   2.746   1.364   1.756 -0.2262 -0.6312  0.1210
10807SOL     OW33319   0.873   3.020   3.999 -0.0204 -0.4152 -0.5186
10807SOL    HW133320   0.915   3.083   4.065 -1.8784 -0.0297  0.3560
10807SOL    HW233321   0.855   2.932   4.044 -2.5512  0.2926 -0.0477
10808SOL     OW33322   2.227   2.315   2.598 -0.2308 -0.1872 -0.1816
10808SOL    HW133323   2.198   2.303   2.693 -0.4549 -2.5503 -0.4876
10808SOL    HW233324   2.326   2.331   2.595 -0.1771 -0.3677  0.4452
10809SOL     OW33325   5.261   3.993   0.959 -0.2735 -0.0444 -0.0518
10809SOL    HW133326   5.173   4.030   0.989 -0.4635 -0.4091 -0.1522
10809SOL    HW233327   5.275   4.012   0.862  0.2474  0.9522  0.2094
10810SOL     OW33328   4.399   5.541   0.933 -0.1849  0.3663 -0.3376
10810SOL    HW133329   4.480   5.599   0.925 -0.1401  0.9691  3.0407
10810SOL    HW233330   4.317   5.598   0.937 -0.7139 -0.1734 -2.3526
10811SOL     OW33331   2.105   3.594   2.152  0.1375 -0.1762  0.3789
10811SOL    HW133332   2.154   3.551   2.076  0.4505  1.3355 -0.3053
10811SOL    HW233333   2.047   3.526   2.197  1.3925 -1.5390 -0.0136
10812SOL     OW33334   5.434   0.320   4.745  0.0815 -0.1823  0.2759
10812SOL    HW133335   5.450   0.375   4.827 -1.0415  0.5885  0.0005
10812SOL    HW233336   5.422   0.224   4.771 -0.0630  0.0232  0.9837
10813SOL     OW33337   2.436   0.250   3.218 -0.2094 -0.3742  0.3267
10813SOL    HW133338   2.457   0.152   3.214 -0.4355 -0.3854 -1.0982
10813SOL    HW233339   2.337   0.263   3.227 -0.2927 -0.2868 -0.6090
10814SOL     OW33340   0.905   6.580   5.901  0.1464  0.3392 -0.0279
10814SOL    HW133341   0.896   6.489   5.859 -0.4406  0.8059 -0.9370
10814SOL    HW233342   0.940   6.645   5.834  1.2035  0.6708  0.7982
10815SOL     OW33343   2.756   3.980   7.005 -0.5200 -0.0831  0.7422
10815SOL    HW133344   2.824   3.954   7.073  0.1060 -0.8602 -0.1511
10815SOL    HW233345   2.766   4.078   6.984  0.1849 -0.1345  0.7906
10816SOL     OW33346   0.836   0.904   4.746 -0.1104 -0.1047 -0.1635
10816SOL    HW133347   0.900   0.979   4.727 -1.6087  1.4577  0.6351
10816SOL    HW233348   0.814   0.857   4.660  0.2228  0.9063 -0.8304
10817SOL     OW33349   3.954   2.331   6.598 -0.0486 -0.3447 -0.1326
10817SOL    HW133350   3.930   2.247   6.549 -0.5169 -0.4008  0.1926
10817SOL    HW233351   3.970   2.311   6.694 -0.2752 -0.0426 -0.0305
10818SOL     OW33352   1.864   2.692   6.345  0.3599  0.3746 -0.1768
10818SOL    HW133353   1.888   2.616   6.405  0.0874 -0.7345 -1.4033
10818SOL    HW233354   1.892   2.669   6.251 -1.2270  1.0579 -0.8478
10819SOL     OW33355   1.812   0.959   4.426  0.1481  0.3384 -0.3888
10819SOL    HW133356   1.772   1.050   4.411 -2.1505 -0.6414 -0.6878
10819SOL    HW233357   1.745   0.901   4.472  0.4329 -2.0521 -2.7424
10820SOL     OW33358   5.842   5.033   3.792  0.0103  0.0913  0.0025
10820SOL    HW133359   5.881   4.943   3.811 -1.1096 -0.5973 -0.8613
10820SOL    HW233360   5.913   5.094   3.756  0.0559 -1.5797 -3.0340
10821SOL     OW33361   5.602   5.146   4.527 -0.0261  0.0007  0.1428
10821SOL    HW133362   5.534   5.179   4.593 -2.2013 -1.1950 -1.3821
10821SOL    HW233363   5.610   5.212   4.452 -0.7451 -0.5953 -0.4769
10822SOL     OW33364   5.353   5.513   4.447 -0.1948  0.2618  0.6654
10822SOL    HW133365   5.420   5.456   4.401 -0.1541 -0.0427  1.0921
10822SOL    HW233366   5.280   5.537   4.384  0.4459  0.8218  0.1133
10823SOL     OW33367   5.063   6.733   1.753  0.4126 -0.4998 -0.6711
10823SOL    HW133368   5.027   6.737   1.846 -1.1242  1.0617 -1.2744
10823SOL    HW233369   5.103   6.642   1.736  0.2727 -0.9750  1.3138
10824SOL     OW33370   5.509   3.074   2.283 -0.2540 -0.3692  0.1452
10824SOL    HW133371   5.583   3.050   2.345  0.1525 -0.4097 -0.3440
10824SOL    HW233372   5.545   3.133   2.210 -0.8598  0.2142  0.3182
10825SOL     OW33373   1.230   6.981   2.579  0.1921 -0.1032  0.6752
10825SOL    HW133374   1.225   6.882   2.581 -0.5104 -0.0632  1.6038
10825SOL    HW233375   1.193   7.018   2.665  1.6682  0.9025  0.9135
10826SOL     OW33376   4.239   5.833   0.105 -0.5806  0.0614 -0.1746
10826SOL    HW133377   4.277   5.760   0.047  0.0187  0.3446 -0.1420
10826SOL    HW233378   4.306   5.906   0.114 -0.0826 -0.6176  2.0834
10827SOL     OW33379   4.757   5.125   2.304 -0.9477  0.4560 -0.2810
10827SOL    HW133380   4.673   5.097   2.350 -1.0316  0.4623 -0.4337
10827SOL    HW233381   4.782   5.058   2.235  0.3128 -0.6710  1.1752
10828SOL     OW33382   0.188   6.948   6.386 -0.2137  0.3702  0.6039
10828SOL    HW133383   0.250   7.026   6.394 -0.2868  0.7138 -1.6541
10828SOL    HW233384   0.126   6.947   6.464  1.1562  1.3119  1.7600
10829SOL     OW33385   6.137   4.868   1.954 -0.0744 -0.2756  0.4557
10829SOL    HW133386   6.100   4.799   1.891  2.5082 -1.0096 -0.3676
10829SOL    HW233387   6.097   4.854   2.045  0.8846 -3.4317  0.5277
10830SOL     OW33388   0.090   2.380   5.667 -0.3673 -0.1015 -0.3720
10830SOL    HW133389   0.189   2.381   5.680 -0.0432 -3.0847 -1.8292
10830SOL    HW233390   0.045   2.377   5.756  1.0615 -2.9837  0.3772
10831SOL     OW33391   5.469   4.284   2.976 -0.3085  0.0746 -0.2126
10831SOL    HW133392   5.455   4.197   2.929 -2.1752  0.0675  0.2627
10831SOL    HW233393   5.514   4.267   3.064 -0.0909 -0.3230 -0.3970
10832SOL     OW33394   5.047   3.100   1.044  0.4532  0.3575 -0.4907
10832SOL    HW133395   5.079   3.137   0.956 -0.0869 -1.4076 -1.4640
10832SOL    HW233396   4.957   3.139   1.065  0.1549  0.0659 -1.1985
10833SOL     OW33397   6.018   3.810   3.712 -0.1791  1.2342  0.4331
10833SOL    HW133398   5.959   3.882   3.748 -1.0851  0.9046 -0.3592
10833SOL    HW233399   6.111   3.823   3.746 -0.9912  0.9090  2.9043
10834SOL     OW33400   2.920   1.933   0.552  0.4032  0.5928  0.0143
10834SOL    HW133401   2.850   2.003   0.539 -1.5050 -1.2562 -0.1525
10834SOL    HW233402   2.920   1.903   0.647  2.0867  1.6479  0.3829
10835SOL     OW33403   6.125   6.483   5.159 -0.2213 -0.9524  0.2502
10835SOL    HW133404   6.172   6.494   5.071 -1.1776  0.3162 -0.1301
10835SOL    HW233405   6.194   6.476   5.231  0.6045  0.5185 -0.3313
10836SOL     OW33406   1.689   2.026   3.845 -0.2306 -0.2418  0.3645
10836SOL    HW133407   1.755   2.101   3.852 -1.7024  1.3545 -1.7477
10836SOL    HW233408   1.602   2.054   3.885 -1.2013 -0.2596 -1.6112
10837SOL     OW33409   5.286   4.146   1.196 -0.1399  0.3034  0.1324
10837SOL    HW133410   5.285   4.078   1.122  1.9075  2.3355 -1.9170
10837SOL    HW233411   5.327   4.106   1.277  0.3282 -1.1214 -0.7739
10838SOL     OW33412   4.040   0.062   0.433  0.1570 -0.0719 -0.1513
10838SOL    HW133413   4.055   0.138   0.497  0.6318 -0.1301 -0.1940
10838SOL    HW233414   3.952   0.074   0.388 -0.1103  0.0605  0.3906
10839SOL     OW33415   0.374   5.039   1.997 -0.0917 -0.0003 -0.6156
10839SOL    HW133416   0.358   4.956   2.051  1.8061  0.1564  0.2780
10839SOL    HW233417   0.286   5.078   1.969 -1.1705 -0.4285  1.8683
10840SOL     OW33418   0.330   1.057   6.880 -0.5756  0.2207 -0.5459
10840SOL    HW133419   0.323   1.054   6.780 -0.1025  1.9757 -0.6683
10840SOL    HW233420   0.395   0.988   6.910  0.2191  0.4722 -1.5906
10841SOL     OW33421   0.243   6.843   2.094  0.2738  0.3917  0.4401
10841SOL    HW133422   0.294   6.917   2.050 -0.2752  0.1520 -0.6409
10841SOL    HW233423   0.215   6.776   2.025 -2.2742  0.9795  0.7896
10842SOL     OW33424   5.669   6.012   1.467  0.3605 -0.4150 -0.2204
10842SOL    HW133425   5.655   6.111   1.461  2.0898 -0.1303 -0.0687
10842SOL    HW233426   5.644   5.980   1.558  0.5423  0.0355 -0.0064
10843SOL     OW33427   4.521   5.349   0.379  0.5688 -0.0922 -0.5139
10843SOL    HW133428   4.463   5.429   0.394 -0.3212 -1.0319  1.5092
10843SOL    HW233429   4.467   5.266   0.394  2.7043 -1.0211  3.2899
10844SOL     OW33430   4.759   0.398   2.783  0.3344 -0.3837  0.2533
10844SOL    HW133431   4.856   0.401   2.758  0.3105  1.0507  0.2453
10844SOL    HW233432   4.739   0.470   2.848 -1.2090  0.9899 -1.6209
10845SOL     OW33433   0.982   2.465   3.181 -0.1954 -0.2764  0.1333
10845SOL    HW133434   0.993   2.429   3.089  1.2053 -2.1186  0.9776
10845SOL    HW233435   0.920   2.406   3.233  0.9642 -0.6907  1.0903
10846SOL     OW33436   5.509   1.502   1.143 -0.3220  0.6160 -0.1987
10846SOL    HW133437   5.433   1.488   1.080 -0.8142  0.1453  0.4741
10846SOL    HW233438   5.579   1.432   1.128 -0.9835 -0.2261  0.5509
10847SOL     OW33439   5.654   0.040   3.590 -0.2433 -0.0067 -0.0685
10847SOL    HW133440   5.670   0.074   3.682  0.3303  1.5485 -0.7148
10847SOL    HW233441   5.741   0.019   3.546 -0.5131 -0.7336 -0.2628
10848SOL     OW33442   0.496   6.214   4.028  0.0137  0.3398 -0.3554
10848SOL    HW133443   0.402   6.236   4.052 -0.0968  0.2996 -0.7415
10848SOL    HW233444   0.506   6.115   4.017 -0.1409  0.4221 -1.2988
10849SOL     OW33445   6.921   3.254   2.456 -0.0589  0.0315 -0.1957
10849SOL    HW133446   6.943   3.183   2.523  1.2772 -0.6885 -1.3371
10849SOL    HW233447   6.964   3.340   2.483 -0.8640  0.1733  0.6827
10850SOL     OW33448   5.284   1.756   1.536 -0.8143 -0.3346 -0.1614
10850SOL    HW133449   5.355   1.772   1.605  0.3188  1.8811 -1.7071
10850SOL    HW233450   5.228   1.839   1.526 -0.9961 -0.6212 -1.8363
10851SOL     OW33451   4.134   1.058   0.437 -0.1990  0.3461 -0.4546
10851SOL    HW133452   4.083   1.135   0.399 -0.7978 -0.7651 -2.0110
10851SOL    HW233453   4.207   1.033   0.374  1.7856  1.3323  1.3199
10852SOL     OW33454   0.265   6.362   4.138  0.2183 -0.7296 -0.6942
10852SOL    HW133455   0.200   6.286   4.125  0.0384 -0.6641 -0.1946
10852SOL    HW233456   0.221   6.435   4.190  1.0513 -1.1627  0.6515
10853SOL     OW33457   6.074   0.802   5.793 -0.0972 -0.1070  0.5070
10853SOL    HW133458   6.012   0.846   5.858  0.8126  2.3000 -0.1242
10853SOL    HW233459   6.027   0.727   5.747 -2.3636  1.2399  0.4622
10854SOL     OW33460   1.144   0.520   2.155  0.5879 -0.0967  0.1236
10854SOL    HW133461   1.234   0.540   2.117 -0.0885  1.7167 -0.6515
10854SOL    HW233462   1.117   0.593   2.217  0.0870 -1.1729  1.2113
10855SOL     OW33463   1.315   6.958   1.347 -0.0047  0.1521  0.0631
10855SOL    HW133464   1.413   6.977   1.344  0.1079 -0.5200 -1.3950
10855SOL    HW233465   1.286   6.951   1.442  1.8443 -2.0012  0.5641
10856SOL     OW33466   2.459   4.169   6.879  0.1616 -0.3578 -0.2550
10856SOL    HW133467   2.556   4.191   6.867  0.7741 -3.7413 -3.0677
10856SOL    HW233468   2.450   4.097   6.948 -0.1153 -1.1716 -1.1193
10857SOL     OW33469   4.004   6.291   1.906  0.5605 -0.5536  0.1673
10857SOL    HW133470   3.952   6.249   1.981 -0.7004  2.2330  1.0158
10857SOL    HW233471   3.959   6.271   1.819 -1.4638  0.8812  0.7849
10858SOL     OW33472   4.872   6.853   3.758  0.4402 -0.3139 -0.1140
10858SOL    HW133473   4.831   6.915   3.690  2.3410  0.6597 -0.4345
10858SOL    HW233474   4.965   6.882   3.778  0.1154 -0.9001  2.5741
10859SOL     OW33475   5.878   2.169   5.879 -0.4401 -0.2695 -0.2953
10859SOL    HW133476   5.827   2.090   5.845  0.6085 -0.8026 -0.6754
10859SOL    HW233477   5.827   2.211   5.954 -1.7718 -0.3436 -1.1144
10860SOL     OW33478   6.409   1.216   1.869  0.4196  0.6675  0.0563
10860SOL    HW133479   6.351   1.262   1.802  1.5335  1.6177 -0.2913
10860SOL    HW233480   6.353   1.183   1.945 -0.6168  1.1956 -0.4608
10861SOL     OW33481   5.582   0.987   2.495 -0.8040  0.2041  0.1941
10861SOL    HW133482   5.649   1.013   2.564 -0.7255 -0.3312  0.3288
10861SOL    HW233483   5.577   1.057   2.425 -0.6842  0.6246  0.6019
10862SOL     OW33484   4.233   0.233   3.800 -0.2362 -0.3162 -1.0573
10862SOL    HW133485   4.301   0.161   3.784  0.5385  0.5700 -1.8491
10862SOL    HW233486   4.172   0.205   3.873  1.2808 -0.9317  0.0181
10863SOL     OW33487   4.295   4.229   0.135  0.6079  0.1280  0.2335
10863SOL    HW133488   4.374   4.269   0.089  0.4594  1.3153  0.9458
10863SOL    HW233489   4.218   4.293   0.129 -0.6601 -1.4552 -1.3787
10864SOL     OW33490   6.073   5.683   0.174 -0.1204  0.0754  0.4233
10864SOL    HW133491   5.974   5.690   0.175 -0.0869  0.7794  2.2321
10864SOL    HW233492   6.113   5.769   0.143 -0.0346 -1.2474 -3.7601
10865SOL     OW33493   3.379   5.212   5.329  0.2447  0.1430 -0.1542
10865SOL    HW133494   3.464   5.213   5.383 -0.0233 -0.9111  0.3119
10865SOL    HW233495   3.387   5.143   5.257  0.4662  1.3011 -1.2889
10866SOL     OW33496   4.708   1.810   1.908 -0.4530 -0.2332  0.0747
10866SOL    HW133497   4.795   1.841   1.870  0.0756 -1.4594  0.2441
10866SOL    HW233498   4.707   1.826   2.007 -1.4204  2.0078 -0.2277
10867SOL     OW33499   3.878   3.531   0.206  0.8316 -0.5905 -0.3146
10867SOL    HW133500   3.905   3.539   0.302 -1.0766  0.7970  0.1765
10867SOL    HW233501   3.804   3.464   0.198  0.0523  0.2873 -0.5814
10868SOL     OW33502   3.067   1.382   5.999 -0.0262 -0.1360 -0.6308
10868SOL    HW133503   3.049   1.289   6.031 -1.5502  0.7677  1.3840
10868SOL    HW233504   3.162   1.406   6.019 -0.3441 -0.3817  1.3836
10869NA      NA33505   1.268   4.038   6.982  0.1394 -0.1841 -0.2533
10870NA      NA33506   2.555   5.173   3.873  0.0398  0.5465 -0.0462
10871NA      NA33507   3.850   5.889   1.314 -0.3606 -0.7474 -0.4783
10872NA      NA33508   1.726   2.844   5.164  0.4065 -0.1803  0.0067
10873NA      NA33509   5.429   3.322   5.453 -0.5575 -0.2844  0.1251
10874NA      NA33510   0.811   0.279   2.518  0.2627  0.1494  0.2913
10875NA      NA33511   5.253   0.629   0.210 -0.4393 -0.0239 -0.2617
10876NA      NA33512   4.509   2.194   0.143  0.2510  0.3611  0.1207
10877NA      NA33513   5.078   3.920   1.576 -0.2610 -0.1756 -0.5910
10878NA      NA33514   4.820   3.698   5.253  0.9410 -0.1761  0.4556
10879NA      NA33515   2.558   4.771   4.629  0.3030  0.3588  0.4667
10880NA      NA33516   0.884   5.563   3.201 -0.2919  0.0937  0.2217
10881NA      NA33517   3.694   4.899   1.809  0.0479  0.6106  0.1594
10882NA      NA33518   2.853   2.270   1.763 -0.5381  0.0066  0.3368
   7.01720   7.01720   7.01720
